PROCAR lm decomposed
# of k-points:   70         # of bands:   24         # of ions:    2

 k-point     1 :    0.00000000 0.00000000 0.00000000     weight = 0.00125000

band     1 # energy  -43.70980731 # occ.  2.00000000
 
ion      s     py     pz     px    dxy    dyz    dz2    dxz  x2-y2    tot
    1  0.000  0.000  0.493  0.000  0.000  0.000  0.000  0.000  0.000  0.493
    2  0.000  0.000  0.493  0.000  0.000  0.000  0.000  0.000  0.000  0.493
tot    0.000  0.000  0.987  0.000  0.000  0.000  0.000  0.000  0.000  0.987
 
band     2 # energy  -43.68410871 # occ.  2.00000000
 
ion      s     py     pz     px    dxy    dyz    dz2    dxz  x2-y2    tot
    1  0.000  0.124  0.000  0.373  0.000  0.000  0.000  0.000  0.000  0.497
    2  0.000  0.124  0.000  0.373  0.000  0.000  0.000  0.000  0.000  0.497
tot    0.000  0.248  0.000  0.745  0.000  0.000  0.000  0.000  0.000  0.994
 
band     3 # energy  -43.68410764 # occ.  2.00000000
 
ion      s     py     pz     px    dxy    dyz    dz2    dxz  x2-y2    tot
    1  0.000  0.373  0.000  0.124  0.000  0.000  0.000  0.000  0.000  0.497
    2  0.000  0.373  0.000  0.124  0.000  0.000  0.000  0.000  0.000  0.497
tot    0.000  0.745  0.000  0.248  0.000  0.000  0.000  0.000  0.000  0.994
 
band     4 # energy  -43.66166633 # occ.  2.00000000
 
ion      s     py     pz     px    dxy    dyz    dz2    dxz  x2-y2    tot
    1  0.000  0.124  0.000  0.373  0.000  0.000  0.000  0.000  0.000  0.497
    2  0.000  0.124  0.000  0.373  0.000  0.000  0.000  0.000  0.000  0.497
tot    0.000  0.249  0.000  0.746  0.000  0.000  0.000  0.000  0.000  0.995
 
band     5 # energy  -43.66166526 # occ.  2.00000000
 
ion      s     py     pz     px    dxy    dyz    dz2    dxz  x2-y2    tot
    1  0.000  0.373  0.000  0.124  0.000  0.000  0.000  0.000  0.000  0.497
    2  0.000  0.373  0.000  0.124  0.000  0.000  0.000  0.000  0.000  0.497
tot    0.000  0.746  0.000  0.249  0.000  0.000  0.000  0.000  0.000  0.995
 
band     6 # energy  -43.53902206 # occ.  2.00000000
 
ion      s     py     pz     px    dxy    dyz    dz2    dxz  x2-y2    tot
    1  0.000  0.000  0.497  0.000  0.000  0.000  0.000  0.000  0.000  0.497
    2  0.000  0.000  0.497  0.000  0.000  0.000  0.000  0.000  0.000  0.497
tot    0.000  0.000  0.994  0.000  0.000  0.000  0.000  0.000  0.000  0.994
 
band     7 # energy    0.21999330 # occ.  2.00000000
 
ion      s     py     pz     px    dxy    dyz    dz2    dxz  x2-y2    tot
    1  0.168  0.000  0.000  0.000  0.000  0.000  0.000  0.000  0.000  0.168
    2  0.168  0.000  0.000  0.000  0.000  0.000  0.000  0.000  0.000  0.168
tot    0.336  0.000  0.000  0.000  0.000  0.000  0.001  0.000  0.000  0.337
 
band     8 # energy    2.69443947 # occ.  2.00000000
 
ion      s     py     pz     px    dxy    dyz    dz2    dxz  x2-y2    tot
    1  0.073  0.000  0.000  0.000  0.000  0.000  0.222  0.000  0.000  0.295
    2  0.073  0.000  0.000  0.000  0.000  0.000  0.222  0.000  0.000  0.295
tot    0.145  0.000  0.000  0.000  0.000  0.000  0.444  0.000  0.000  0.589
 
band     9 # energy    5.30510131 # occ.  2.00000000
 
ion      s     py     pz     px    dxy    dyz    dz2    dxz  x2-y2    tot
    1  0.000  0.000  0.000  0.000  0.000  0.000  0.406  0.000  0.000  0.406
    2  0.000  0.000  0.000  0.000  0.000  0.000  0.406  0.000  0.000  0.406
tot    0.000  0.000  0.000  0.000  0.000  0.000  0.812  0.000  0.000  0.812
 
band    10 # energy    5.67886403 # occ.  2.00000000
 
ion      s     py     pz     px    dxy    dyz    dz2    dxz  x2-y2    tot
    1  0.000  0.000  0.000  0.000  0.104  0.000  0.000  0.000  0.312  0.416
    2  0.000  0.000  0.000  0.000  0.104  0.000  0.000  0.000  0.312  0.416
tot    0.000  0.000  0.000  0.000  0.208  0.000  0.000  0.000  0.623  0.831
 
band    11 # energy    5.67886500 # occ.  2.00000000
 
ion      s     py     pz     px    dxy    dyz    dz2    dxz  x2-y2    tot
    1  0.000  0.000  0.000  0.000  0.312  0.000  0.000  0.000  0.104  0.416
    2  0.000  0.000  0.000  0.000  0.312  0.000  0.000  0.000  0.104  0.416
tot    0.000  0.000  0.000  0.000  0.623  0.000  0.000  0.000  0.208  0.831
 
band    12 # energy    5.95198937 # occ.  2.00000000
 
ion      s     py     pz     px    dxy    dyz    dz2    dxz  x2-y2    tot
    1  0.000  0.000  0.000  0.000  0.106  0.000  0.000  0.000  0.318  0.424
    2  0.000  0.000  0.000  0.000  0.106  0.000  0.000  0.000  0.318  0.424
tot    0.000  0.000  0.000  0.000  0.212  0.000  0.000  0.000  0.636  0.849
 
band    13 # energy    5.95199038 # occ.  2.00000000
 
ion      s     py     pz     px    dxy    dyz    dz2    dxz  x2-y2    tot
    1  0.000  0.000  0.000  0.000  0.318  0.000  0.000  0.000  0.106  0.424
    2  0.000  0.000  0.000  0.000  0.318  0.000  0.000  0.000  0.106  0.424
tot    0.000  0.000  0.000  0.000  0.636  0.000  0.000  0.000  0.212  0.849
 
band    14 # energy    6.92700178 # occ.  2.00000000
 
ion      s     py     pz     px    dxy    dyz    dz2    dxz  x2-y2    tot
    1  0.000  0.000  0.000  0.000  0.000  0.109  0.000  0.328  0.000  0.438
    2  0.000  0.000  0.000  0.000  0.000  0.109  0.000  0.328  0.000  0.438
tot    0.000  0.000  0.000  0.000  0.000  0.219  0.000  0.657  0.000  0.876
 
band    15 # energy    6.92700209 # occ.  2.00000000
 
ion      s     py     pz     px    dxy    dyz    dz2    dxz  x2-y2    tot
    1  0.000  0.000  0.000  0.000  0.000  0.328  0.000  0.109  0.000  0.438
    2  0.000  0.000  0.000  0.000  0.000  0.328  0.000  0.109  0.000  0.438
tot    0.000  0.000  0.000  0.000  0.000  0.657  0.000  0.219  0.000  0.876
 
band    16 # energy    8.12389081 # occ.  1.99997621
 
ion      s     py     pz     px    dxy    dyz    dz2    dxz  x2-y2    tot
    1  0.000  0.000  0.000  0.000  0.000  0.115  0.000  0.345  0.000  0.460
    2  0.000  0.000  0.000  0.000  0.000  0.115  0.000  0.345  0.000  0.460
tot    0.000  0.000  0.000  0.000  0.000  0.230  0.000  0.689  0.000  0.919
 
band    17 # energy    8.12389114 # occ.  1.99997621
 
ion      s     py     pz     px    dxy    dyz    dz2    dxz  x2-y2    tot
    1  0.000  0.000  0.000  0.000  0.000  0.345  0.000  0.115  0.000  0.460
    2  0.000  0.000  0.000  0.000  0.000  0.345  0.000  0.115  0.000  0.460
tot    0.000  0.000  0.000  0.000  0.000  0.689  0.000  0.230  0.000  0.919
 
band    18 # energy    8.29164589 # occ.  0.60386473
 
ion      s     py     pz     px    dxy    dyz    dz2    dxz  x2-y2    tot
    1  0.000  0.000  0.069  0.000  0.000  0.000  0.000  0.000  0.000  0.069
    2  0.000  0.000  0.069  0.000  0.000  0.000  0.000  0.000  0.000  0.069
tot    0.000  0.000  0.137  0.000  0.000  0.000  0.000  0.000  0.000  0.137
 
band    19 # energy   12.02166731 # occ.  0.00000000
 
ion      s     py     pz     px    dxy    dyz    dz2    dxz  x2-y2    tot
    1  0.160  0.000  0.000  0.000  0.000  0.000  0.225  0.000  0.000  0.386
    2  0.160  0.000  0.000  0.000  0.000  0.000  0.225  0.000  0.000  0.386
tot    0.321  0.000  0.000  0.000  0.000  0.000  0.450  0.000  0.000  0.771
 
band    20 # energy   23.47617926 # occ.  0.00000000
 
ion      s     py     pz     px    dxy    dyz    dz2    dxz  x2-y2    tot
    1  0.003  0.000  0.000  0.000  0.000  0.000  0.002  0.000  0.000  0.006
    2  0.003  0.000  0.000  0.000  0.000  0.000  0.002  0.000  0.000  0.006
tot    0.007  0.000  0.000  0.000  0.000  0.000  0.004  0.000  0.000  0.011
 
band    21 # energy   23.84691462 # occ.  0.00000000
 
ion      s     py     pz     px    dxy    dyz    dz2    dxz  x2-y2    tot
    1  0.000  0.000  0.025  0.000  0.000  0.000  0.000  0.000  0.000  0.025
    2  0.000  0.000  0.025  0.000  0.000  0.000  0.000  0.000  0.000  0.025
tot    0.000  0.000  0.050  0.000  0.000  0.000  0.000  0.000  0.000  0.050
 
band    22 # energy   25.36251747 # occ.  0.00000000
 
ion      s     py     pz     px    dxy    dyz    dz2    dxz  x2-y2    tot
    1  0.001  0.000  0.000  0.000  0.000  0.000  0.015  0.000  0.000  0.016
    2  0.001  0.000  0.000  0.000  0.000  0.000  0.015  0.000  0.000  0.016
tot    0.002  0.000  0.000  0.000  0.000  0.000  0.030  0.000  0.000  0.032
 
band    23 # energy   27.50655085 # occ.  0.00000000
 
ion      s     py     pz     px    dxy    dyz    dz2    dxz  x2-y2    tot
    1  0.000  0.030  0.000  0.091  0.013  0.000  0.000  0.000  0.004  0.138
    2  0.000  0.030  0.000  0.091  0.013  0.000  0.000  0.000  0.004  0.138
tot    0.000  0.060  0.000  0.182  0.026  0.000  0.000  0.000  0.008  0.276
 
band    24 # energy   27.50655097 # occ.  0.00000000
 
ion      s     py     pz     px    dxy    dyz    dz2    dxz  x2-y2    tot
    1  0.000  0.091  0.000  0.030  0.004  0.000  0.000  0.000  0.013  0.138
    2  0.000  0.091  0.000  0.030  0.004  0.000  0.000  0.000  0.013  0.138
tot    0.000  0.182  0.000  0.060  0.008  0.000  0.000  0.000  0.026  0.276
 

 k-point     2 :    0.10000000 0.00000000 0.00000000     weight = 0.00750000

band     1 # energy  -43.70410186 # occ.  2.00000000
 
ion      s     py     pz     px    dxy    dyz    dz2    dxz  x2-y2    tot
    1  0.000  0.000  0.493  0.000  0.000  0.000  0.000  0.000  0.000  0.493
    2  0.000  0.000  0.493  0.000  0.000  0.000  0.000  0.000  0.000  0.493
tot    0.000  0.000  0.987  0.000  0.000  0.000  0.000  0.000  0.000  0.987
 
band     2 # energy  -43.70316899 # occ.  2.00000000
 
ion      s     py     pz     px    dxy    dyz    dz2    dxz  x2-y2    tot
    1  0.000  0.124  0.000  0.372  0.000  0.000  0.000  0.000  0.000  0.497
    2  0.000  0.124  0.000  0.373  0.000  0.000  0.000  0.000  0.000  0.497
tot    0.000  0.248  0.000  0.745  0.000  0.000  0.000  0.000  0.000  0.993
 
band     3 # energy  -43.68970938 # occ.  2.00000000
 
ion      s     py     pz     px    dxy    dyz    dz2    dxz  x2-y2    tot
    1  0.000  0.373  0.000  0.124  0.000  0.000  0.000  0.000  0.000  0.497
    2  0.000  0.373  0.000  0.124  0.000  0.000  0.000  0.000  0.000  0.497
tot    0.000  0.745  0.000  0.248  0.000  0.000  0.000  0.000  0.000  0.994
 
band     4 # energy  -43.68211379 # occ.  2.00000000
 
ion      s     py     pz     px    dxy    dyz    dz2    dxz  x2-y2    tot
    1  0.000  0.124  0.000  0.373  0.000  0.000  0.000  0.000  0.000  0.497
    2  0.000  0.124  0.000  0.373  0.000  0.000  0.000  0.000  0.000  0.497
tot    0.000  0.248  0.000  0.746  0.000  0.000  0.000  0.000  0.000  0.994
 
band     5 # energy  -43.66624315 # occ.  2.00000000
 
ion      s     py     pz     px    dxy    dyz    dz2    dxz  x2-y2    tot
    1  0.000  0.373  0.000  0.124  0.000  0.000  0.000  0.000  0.000  0.497
    2  0.000  0.373  0.000  0.124  0.000  0.000  0.000  0.000  0.000  0.497
tot    0.000  0.746  0.000  0.249  0.000  0.000  0.000  0.000  0.000  0.995
 
band     6 # energy  -43.54108020 # occ.  2.00000000
 
ion      s     py     pz     px    dxy    dyz    dz2    dxz  x2-y2    tot
    1  0.000  0.000  0.497  0.000  0.000  0.000  0.000  0.000  0.000  0.497
    2  0.000  0.000  0.497  0.000  0.000  0.000  0.000  0.000  0.000  0.497
tot    0.000  0.000  0.994  0.000  0.000  0.000  0.000  0.000  0.000  0.994
 
band     7 # energy    0.52858173 # occ.  2.00000000
 
ion      s     py     pz     px    dxy    dyz    dz2    dxz  x2-y2    tot
    1  0.165  0.000  0.000  0.001  0.000  0.000  0.000  0.000  0.000  0.167
    2  0.165  0.000  0.000  0.001  0.000  0.000  0.000  0.000  0.000  0.167
tot    0.330  0.001  0.000  0.003  0.000  0.000  0.000  0.000  0.000  0.334
 
band     8 # energy    2.96778078 # occ.  2.00000000
 
ion      s     py     pz     px    dxy    dyz    dz2    dxz  x2-y2    tot
    1  0.067  0.000  0.000  0.001  0.002  0.000  0.227  0.000  0.001  0.298
    2  0.067  0.000  0.000  0.001  0.002  0.000  0.227  0.000  0.001  0.298
tot    0.133  0.001  0.000  0.002  0.003  0.000  0.455  0.000  0.001  0.595
 
band     9 # energy    5.25305931 # occ.  2.00000000
 
ion      s     py     pz     px    dxy    dyz    dz2    dxz  x2-y2    tot
    1  0.000  0.000  0.000  0.000  0.115  0.000  0.249  0.000  0.038  0.402
    2  0.000  0.000  0.000  0.000  0.115  0.000  0.249  0.000  0.038  0.402
tot    0.000  0.000  0.000  0.000  0.230  0.000  0.498  0.000  0.077  0.805
 
band    10 # energy    5.69442501 # occ.  2.00000000
 
ion      s     py     pz     px    dxy    dyz    dz2    dxz  x2-y2    tot
    1  0.000  0.000  0.000  0.000  0.210  0.000  0.133  0.000  0.070  0.413
    2  0.000  0.000  0.000  0.000  0.210  0.000  0.133  0.000  0.070  0.413
tot    0.000  0.000  0.000  0.000  0.420  0.000  0.266  0.000  0.140  0.827
 
band    11 # energy    5.84502632 # occ.  2.00000000
 
ion      s     py     pz     px    dxy    dyz    dz2    dxz  x2-y2    tot
    1  0.001  0.000  0.000  0.000  0.292  0.000  0.027  0.000  0.097  0.418
    2  0.001  0.000  0.000  0.000  0.292  0.000  0.027  0.000  0.097  0.418
tot    0.002  0.000  0.000  0.000  0.584  0.000  0.054  0.000  0.195  0.836
 
band    12 # energy    5.89298012 # occ.  2.00000000
 
ion      s     py     pz     px    dxy    dyz    dz2    dxz  x2-y2    tot
    1  0.000  0.000  0.000  0.000  0.104  0.000  0.000  0.000  0.313  0.418
    2  0.000  0.000  0.000  0.000  0.104  0.000  0.000  0.000  0.313  0.418
tot    0.000  0.000  0.000  0.000  0.209  0.000  0.000  0.000  0.626  0.836
 
band    13 # energy    6.15401578 # occ.  2.00000000
 
ion      s     py     pz     px    dxy    dyz    dz2    dxz  x2-y2    tot
    1  0.000  0.000  0.000  0.000  0.107  0.000  0.000  0.000  0.320  0.427
    2  0.000  0.000  0.000  0.000  0.107  0.000  0.000  0.000  0.320  0.427
tot    0.000  0.000  0.000  0.000  0.213  0.000  0.000  0.000  0.640  0.853
 
band    14 # energy    6.56423483 # occ.  2.00000000
 
ion      s     py     pz     px    dxy    dyz    dz2    dxz  x2-y2    tot
    1  0.000  0.000  0.008  0.000  0.000  0.092  0.000  0.276  0.000  0.376
    2  0.000  0.000  0.008  0.000  0.000  0.092  0.000  0.276  0.000  0.376
tot    0.000  0.000  0.017  0.000  0.000  0.184  0.000  0.552  0.000  0.752
 
band    15 # energy    6.80221253 # occ.  2.00000000
 
ion      s     py     pz     px    dxy    dyz    dz2    dxz  x2-y2    tot
    1  0.000  0.000  0.000  0.000  0.000  0.325  0.000  0.108  0.000  0.434
    2  0.000  0.000  0.000  0.000  0.000  0.325  0.000  0.108  0.000  0.434
tot    0.000  0.000  0.000  0.000  0.000  0.651  0.000  0.217  0.000  0.868
 
band    16 # energy    7.01132790 # occ.  2.00000000
 
ion      s     py     pz     px    dxy    dyz    dz2    dxz  x2-y2    tot
    1  0.000  0.000  0.016  0.000  0.000  0.082  0.000  0.246  0.000  0.344
    2  0.000  0.000  0.016  0.000  0.000  0.082  0.000  0.246  0.000  0.344
tot    0.000  0.000  0.033  0.000  0.000  0.164  0.000  0.492  0.000  0.688
 
band    17 # energy    8.16587342 # occ.  1.99762266
 
ion      s     py     pz     px    dxy    dyz    dz2    dxz  x2-y2    tot
    1  0.000  0.000  0.000  0.000  0.000  0.346  0.000  0.115  0.000  0.462
    2  0.000  0.000  0.000  0.000  0.000  0.346  0.000  0.115  0.000  0.462
tot    0.000  0.000  0.000  0.000  0.000  0.692  0.000  0.231  0.000  0.923
 
band    18 # energy    9.87347536 # occ.  0.00000000
 
ion      s     py     pz     px    dxy    dyz    dz2    dxz  x2-y2    tot
    1  0.000  0.000  0.044  0.000  0.000  0.049  0.000  0.147  0.000  0.240
    2  0.000  0.000  0.044  0.000  0.000  0.049  0.000  0.147  0.000  0.240
tot    0.000  0.000  0.089  0.000  0.000  0.098  0.000  0.293  0.000  0.480
 
band    19 # energy   12.00727498 # occ.  0.00000000
 
ion      s     py     pz     px    dxy    dyz    dz2    dxz  x2-y2    tot
    1  0.162  0.000  0.000  0.000  0.001  0.000  0.216  0.000  0.000  0.380
    2  0.162  0.000  0.000  0.000  0.001  0.000  0.216  0.000  0.000  0.380
tot    0.324  0.000  0.000  0.001  0.002  0.000  0.432  0.000  0.001  0.761
 
band    20 # energy   23.55492296 # occ.  0.00000000
 
ion      s     py     pz     px    dxy    dyz    dz2    dxz  x2-y2    tot
    1  0.007  0.003  0.000  0.010  0.021  0.000  0.004  0.000  0.007  0.053
    2  0.007  0.003  0.000  0.010  0.021  0.000  0.004  0.000  0.007  0.053
tot    0.014  0.007  0.000  0.020  0.043  0.000  0.009  0.000  0.014  0.106
 
band    21 # energy   24.29675541 # occ.  0.00000000
 
ion      s     py     pz     px    dxy    dyz    dz2    dxz  x2-y2    tot
    1  0.000  0.000  0.023  0.000  0.000  0.001  0.000  0.004  0.000  0.028
    2  0.000  0.000  0.023  0.000  0.000  0.001  0.000  0.004  0.000  0.028
tot    0.000  0.000  0.045  0.000  0.000  0.003  0.000  0.009  0.000  0.057
 
band    22 # energy   25.06279866 # occ.  0.00000000
 
ion      s     py     pz     px    dxy    dyz    dz2    dxz  x2-y2    tot
    1  0.008  0.010  0.000  0.031  0.016  0.000  0.021  0.000  0.005  0.092
    2  0.008  0.010  0.000  0.031  0.016  0.000  0.021  0.000  0.005  0.092
tot    0.015  0.021  0.000  0.063  0.033  0.000  0.042  0.000  0.011  0.184
 
band    23 # energy   26.12636205 # occ.  0.00000000
 
ion      s     py     pz     px    dxy    dyz    dz2    dxz  x2-y2    tot
    1  0.000  0.080  0.000  0.027  0.008  0.000  0.000  0.000  0.025  0.139
    2  0.000  0.080  0.000  0.027  0.008  0.000  0.000  0.000  0.025  0.139
tot    0.000  0.160  0.000  0.053  0.016  0.000  0.000  0.000  0.049  0.279
 
band    24 # energy   26.59768955 # occ.  0.00000000
 
ion      s     py     pz     px    dxy    dyz    dz2    dxz  x2-y2    tot
    1  0.003  0.013  0.000  0.038  0.003  0.000  0.000  0.000  0.001  0.058
    2  0.003  0.013  0.000  0.038  0.003  0.000  0.000  0.000  0.001  0.058
tot    0.005  0.025  0.000  0.076  0.007  0.000  0.001  0.000  0.002  0.116
 

 k-point     3 :    0.20000000 0.00000000 0.00000000     weight = 0.00750000

band     1 # energy  -43.75313742 # occ.  2.00000000
 
ion      s     py     pz     px    dxy    dyz    dz2    dxz  x2-y2    tot
    1  0.000  0.124  0.000  0.372  0.000  0.000  0.000  0.000  0.000  0.496
    2  0.000  0.124  0.000  0.372  0.000  0.000  0.000  0.000  0.000  0.496
tot    0.000  0.248  0.000  0.744  0.000  0.000  0.000  0.000  0.000  0.991
 
band     2 # energy  -43.73231917 # occ.  2.00000000
 
ion      s     py     pz     px    dxy    dyz    dz2    dxz  x2-y2    tot
    1  0.000  0.124  0.000  0.372  0.000  0.000  0.000  0.000  0.000  0.496
    2  0.000  0.124  0.000  0.372  0.000  0.000  0.000  0.000  0.000  0.496
tot    0.000  0.248  0.000  0.744  0.000  0.000  0.000  0.000  0.000  0.992
 
band     3 # energy  -43.70422265 # occ.  2.00000000
 
ion      s     py     pz     px    dxy    dyz    dz2    dxz  x2-y2    tot
    1  0.000  0.372  0.000  0.124  0.000  0.000  0.000  0.000  0.000  0.497
    2  0.000  0.373  0.000  0.124  0.000  0.000  0.000  0.000  0.000  0.497
tot    0.000  0.745  0.000  0.248  0.000  0.000  0.000  0.000  0.000  0.993
 
band     4 # energy  -43.68749376 # occ.  2.00000000
 
ion      s     py     pz     px    dxy    dyz    dz2    dxz  x2-y2    tot
    1  0.000  0.000  0.494  0.000  0.000  0.000  0.000  0.000  0.000  0.494
    2  0.000  0.000  0.494  0.000  0.000  0.000  0.000  0.000  0.000  0.494
tot    0.000  0.000  0.988  0.000  0.000  0.000  0.000  0.000  0.000  0.988
 
band     5 # energy  -43.67769311 # occ.  2.00000000
 
ion      s     py     pz     px    dxy    dyz    dz2    dxz  x2-y2    tot
    1  0.000  0.373  0.000  0.124  0.000  0.000  0.000  0.000  0.000  0.497
    2  0.000  0.373  0.000  0.124  0.000  0.000  0.000  0.000  0.000  0.497
tot    0.000  0.746  0.000  0.249  0.000  0.000  0.000  0.000  0.000  0.994
 
band     6 # energy  -43.54610386 # occ.  2.00000000
 
ion      s     py     pz     px    dxy    dyz    dz2    dxz  x2-y2    tot
    1  0.000  0.000  0.497  0.000  0.000  0.000  0.000  0.000  0.000  0.497
    2  0.000  0.000  0.497  0.000  0.000  0.000  0.000  0.000  0.000  0.497
tot    0.000  0.000  0.993  0.000  0.000  0.000  0.000  0.000  0.000  0.993
 
band     7 # energy    1.38294714 # occ.  2.00000000
 
ion      s     py     pz     px    dxy    dyz    dz2    dxz  x2-y2    tot
    1  0.155  0.002  0.000  0.005  0.005  0.000  0.000  0.000  0.002  0.168
    2  0.155  0.002  0.000  0.005  0.005  0.000  0.000  0.000  0.002  0.168
tot    0.309  0.003  0.000  0.009  0.010  0.000  0.001  0.000  0.003  0.336
 
band     8 # energy    3.58523858 # occ.  2.00000000
 
ion      s     py     pz     px    dxy    dyz    dz2    dxz  x2-y2    tot
    1  0.046  0.001  0.000  0.003  0.035  0.000  0.219  0.000  0.012  0.315
    2  0.046  0.001  0.000  0.003  0.035  0.000  0.219  0.000  0.012  0.315
tot    0.091  0.002  0.000  0.006  0.070  0.000  0.437  0.000  0.023  0.629
 
band     9 # energy    5.08098699 # occ.  2.00000000
 
ion      s     py     pz     px    dxy    dyz    dz2    dxz  x2-y2    tot
    1  0.002  0.001  0.000  0.002  0.186  0.000  0.127  0.000  0.062  0.381
    2  0.002  0.001  0.000  0.002  0.186  0.000  0.127  0.000  0.062  0.381
tot    0.005  0.002  0.000  0.005  0.372  0.000  0.255  0.000  0.124  0.762
 
band    10 # energy    5.47834332 # occ.  2.00000000
 
ion      s     py     pz     px    dxy    dyz    dz2    dxz  x2-y2    tot
    1  0.004  0.000  0.000  0.001  0.258  0.000  0.051  0.000  0.086  0.400
    2  0.004  0.000  0.000  0.001  0.258  0.000  0.051  0.000  0.086  0.400
tot    0.009  0.001  0.000  0.002  0.516  0.000  0.102  0.000  0.172  0.801
 
band    11 # energy    5.51871968 # occ.  2.00000000
 
ion      s     py     pz     px    dxy    dyz    dz2    dxz  x2-y2    tot
    1  0.000  0.000  0.012  0.000  0.000  0.079  0.000  0.236  0.000  0.327
    2  0.000  0.000  0.012  0.000  0.000  0.079  0.000  0.236  0.000  0.327
tot    0.000  0.000  0.024  0.000  0.000  0.157  0.000  0.472  0.000  0.654
 
band    12 # energy    6.17290722 # occ.  2.00000000
 
ion      s     py     pz     px    dxy    dyz    dz2    dxz  x2-y2    tot
    1  0.003  0.000  0.000  0.001  0.109  0.000  0.266  0.000  0.036  0.416
    2  0.003  0.000  0.000  0.001  0.109  0.000  0.266  0.000  0.036  0.416
tot    0.006  0.001  0.000  0.002  0.218  0.000  0.533  0.000  0.073  0.831
 
band    13 # energy    6.49534367 # occ.  2.00000000
 
ion      s     py     pz     px    dxy    dyz    dz2    dxz  x2-y2    tot
    1  0.000  0.001  0.000  0.000  0.106  0.000  0.000  0.000  0.319  0.426
    2  0.000  0.001  0.000  0.000  0.106  0.000  0.000  0.000  0.319  0.426
tot    0.000  0.001  0.000  0.000  0.213  0.000  0.000  0.000  0.638  0.852
 
band    14 # energy    6.52179559 # occ.  2.00000000
 
ion      s     py     pz     px    dxy    dyz    dz2    dxz  x2-y2    tot
    1  0.000  0.000  0.000  0.000  0.000  0.320  0.000  0.107  0.000  0.426
    2  0.000  0.000  0.000  0.000  0.000  0.320  0.000  0.107  0.000  0.426
tot    0.000  0.000  0.000  0.000  0.000  0.639  0.000  0.213  0.000  0.852
 
band    15 # energy    6.57196819 # occ.  2.00000000
 
ion      s     py     pz     px    dxy    dyz    dz2    dxz  x2-y2    tot
    1  0.000  0.000  0.007  0.000  0.000  0.096  0.000  0.287  0.000  0.389
    2  0.000  0.000  0.007  0.000  0.000  0.096  0.000  0.287  0.000  0.389
tot    0.000  0.000  0.013  0.000  0.000  0.191  0.000  0.574  0.000  0.779
 
band    16 # energy    6.71976652 # occ.  2.00000000
 
ion      s     py     pz     px    dxy    dyz    dz2    dxz  x2-y2    tot
    1  0.000  0.001  0.000  0.000  0.108  0.000  0.000  0.000  0.325  0.434
    2  0.000  0.001  0.000  0.000  0.108  0.000  0.000  0.000  0.325  0.434
tot    0.000  0.001  0.000  0.000  0.217  0.000  0.000  0.000  0.650  0.868
 
band    17 # energy    8.23432489 # occ.  1.72972608
 
ion      s     py     pz     px    dxy    dyz    dz2    dxz  x2-y2    tot
    1  0.000  0.000  0.000  0.000  0.000  0.349  0.000  0.116  0.000  0.465
    2  0.000  0.000  0.000  0.000  0.000  0.349  0.000  0.116  0.000  0.465
tot    0.000  0.000  0.000  0.000  0.000  0.697  0.000  0.232  0.000  0.929
 
band    18 # energy   11.73230776 # occ.  0.00000000
 
ion      s     py     pz     px    dxy    dyz    dz2    dxz  x2-y2    tot
    1  0.000  0.000  0.052  0.000  0.000  0.044  0.000  0.132  0.000  0.229
    2  0.000  0.000  0.052  0.000  0.000  0.044  0.000  0.132  0.000  0.229
tot    0.000  0.000  0.105  0.000  0.000  0.088  0.000  0.264  0.000  0.457
 
band    19 # energy   12.00858566 # occ.  0.00000000
 
ion      s     py     pz     px    dxy    dyz    dz2    dxz  x2-y2    tot
    1  0.168  0.001  0.000  0.002  0.005  0.000  0.184  0.000  0.002  0.361
    2  0.168  0.001  0.000  0.002  0.005  0.000  0.184  0.000  0.002  0.361
tot    0.336  0.002  0.000  0.005  0.009  0.000  0.368  0.000  0.003  0.722
 
band    20 # energy   20.99242724 # occ.  0.00000000
 
ion      s     py     pz     px    dxy    dyz    dz2    dxz  x2-y2    tot
    1  0.029  0.016  0.000  0.048  0.044  0.000  0.026  0.000  0.015  0.178
    2  0.029  0.016  0.000  0.048  0.044  0.000  0.026  0.000  0.015  0.178
tot    0.058  0.032  0.000  0.097  0.088  0.000  0.051  0.000  0.029  0.355
 
band    21 # energy   23.94928308 # occ.  0.00000000
 
ion      s     py     pz     px    dxy    dyz    dz2    dxz  x2-y2    tot
    1  0.000  0.074  0.000  0.025  0.009  0.000  0.000  0.000  0.028  0.136
    2  0.000  0.074  0.000  0.025  0.009  0.000  0.000  0.000  0.028  0.136
tot    0.000  0.148  0.000  0.049  0.019  0.000  0.000  0.000  0.056  0.272
 
band    22 # energy   24.85852267 # occ.  0.00000000
 
ion      s     py     pz     px    dxy    dyz    dz2    dxz  x2-y2    tot
    1  0.000  0.000  0.015  0.000  0.000  0.003  0.000  0.008  0.000  0.026
    2  0.000  0.000  0.015  0.000  0.000  0.003  0.000  0.008  0.000  0.026
tot    0.000  0.000  0.031  0.000  0.000  0.005  0.000  0.016  0.000  0.052
 
band    23 # energy   25.45445671 # occ.  0.00000000
 
ion      s     py     pz     px    dxy    dyz    dz2    dxz  x2-y2    tot
    1  0.006  0.002  0.000  0.007  0.035  0.000  0.014  0.000  0.012  0.076
    2  0.006  0.002  0.000  0.007  0.035  0.000  0.014  0.000  0.012  0.076
tot    0.012  0.005  0.000  0.014  0.071  0.000  0.027  0.000  0.024  0.153
 
band    24 # energy   25.76394656 # occ.  0.00000000
 
ion      s     py     pz     px    dxy    dyz    dz2    dxz  x2-y2    tot
    1  0.000  0.000  0.002  0.000  0.000  0.015  0.000  0.044  0.000  0.061
    2  0.000  0.000  0.002  0.000  0.000  0.015  0.000  0.044  0.000  0.061
tot    0.000  0.000  0.005  0.000  0.000  0.030  0.000  0.089  0.000  0.123
 

 k-point     4 :    0.30000000 0.00000000 0.00000000     weight = 0.00750000

band     1 # energy  -43.81437147 # occ.  2.00000000
 
ion      s     py     pz     px    dxy    dyz    dz2    dxz  x2-y2    tot
    1  0.000  0.124  0.000  0.371  0.000  0.000  0.000  0.000  0.000  0.494
    2  0.000  0.124  0.000  0.371  0.000  0.000  0.000  0.000  0.000  0.495
tot    0.000  0.247  0.000  0.742  0.000  0.000  0.000  0.000  0.000  0.989
 
band     2 # energy  -43.79398076 # occ.  2.00000000
 
ion      s     py     pz     px    dxy    dyz    dz2    dxz  x2-y2    tot
    1  0.000  0.124  0.000  0.371  0.000  0.000  0.000  0.000  0.000  0.495
    2  0.000  0.124  0.000  0.371  0.000  0.000  0.000  0.000  0.000  0.495
tot    0.000  0.247  0.000  0.742  0.000  0.000  0.000  0.000  0.000  0.990
 
band     3 # energy  -43.72180073 # occ.  2.00000000
 
ion      s     py     pz     px    dxy    dyz    dz2    dxz  x2-y2    tot
    1  0.000  0.372  0.000  0.124  0.000  0.000  0.000  0.000  0.000  0.496
    2  0.000  0.372  0.000  0.124  0.000  0.000  0.000  0.000  0.000  0.496
tot    0.000  0.744  0.000  0.248  0.000  0.000  0.000  0.000  0.000  0.993
 
band     4 # energy  -43.69120186 # occ.  2.00000000
 
ion      s     py     pz     px    dxy    dyz    dz2    dxz  x2-y2    tot
    1  0.000  0.373  0.000  0.124  0.000  0.000  0.000  0.000  0.000  0.497
    2  0.000  0.373  0.000  0.124  0.000  0.000  0.000  0.000  0.000  0.497
tot    0.000  0.745  0.000  0.248  0.000  0.000  0.000  0.000  0.000  0.994
 
band     5 # energy  -43.66434321 # occ.  2.00000000
 
ion      s     py     pz     px    dxy    dyz    dz2    dxz  x2-y2    tot
    1  0.000  0.000  0.494  0.000  0.000  0.000  0.000  0.000  0.000  0.494
    2  0.000  0.000  0.494  0.000  0.000  0.000  0.000  0.000  0.000  0.494
tot    0.000  0.000  0.989  0.000  0.000  0.000  0.000  0.000  0.000  0.989
 
band     6 # energy  -43.55482727 # occ.  2.00000000
 
ion      s     py     pz     px    dxy    dyz    dz2    dxz  x2-y2    tot
    1  0.000  0.000  0.497  0.000  0.000  0.000  0.000  0.000  0.000  0.497
    2  0.000  0.000  0.497  0.000  0.000  0.000  0.000  0.000  0.000  0.497
tot    0.000  0.000  0.993  0.000  0.000  0.000  0.000  0.000  0.000  0.993
 
band     7 # energy    2.47783240 # occ.  2.00000000
 
ion      s     py     pz     px    dxy    dyz    dz2    dxz  x2-y2    tot
    1  0.126  0.002  0.000  0.007  0.041  0.000  0.005  0.000  0.014  0.195
    2  0.126  0.002  0.000  0.007  0.041  0.000  0.005  0.000  0.014  0.195
tot    0.251  0.004  0.000  0.013  0.083  0.000  0.010  0.000  0.028  0.389
 
band     8 # energy    3.74643123 # occ.  2.00000000
 
ion      s     py     pz     px    dxy    dyz    dz2    dxz  x2-y2    tot
    1  0.018  0.000  0.000  0.001  0.157  0.000  0.120  0.000  0.052  0.349
    2  0.018  0.000  0.000  0.001  0.157  0.000  0.120  0.000  0.052  0.349
tot    0.036  0.001  0.000  0.002  0.314  0.000  0.240  0.000  0.105  0.697
 
band     9 # energy    4.68466990 # occ.  2.00000000
 
ion      s     py     pz     px    dxy    dyz    dz2    dxz  x2-y2    tot
    1  0.000  0.000  0.008  0.000  0.000  0.081  0.000  0.242  0.000  0.330
    2  0.000  0.000  0.008  0.000  0.000  0.081  0.000  0.242  0.000  0.330
tot    0.000  0.000  0.015  0.000  0.000  0.161  0.000  0.484  0.000  0.660
 
band    10 # energy    5.29076737 # occ.  2.00000000
 
ion      s     py     pz     px    dxy    dyz    dz2    dxz  x2-y2    tot
    1  0.011  0.002  0.000  0.006  0.215  0.000  0.044  0.000  0.072  0.350
    2  0.011  0.002  0.000  0.006  0.215  0.000  0.044  0.000  0.072  0.350
tot    0.022  0.004  0.000  0.012  0.430  0.000  0.088  0.000  0.143  0.700
 
band    11 # energy    5.55331252 # occ.  2.00000000
 
ion      s     py     pz     px    dxy    dyz    dz2    dxz  x2-y2    tot