Pt-hcc                                  
           1
     2.918150    0.000000    0.000000
    -1.459075    2.527192    0.000000
     0.000000    0.000000    5.055628
   Pt
     2
Direct configuration=     1
   0.00000000  0.00000000  0.00000000
   0.33333333  0.66666667  0.50000000
