Pt-fcc                                  
   1.00000000000000     
     0.000000    2.058003    2.058003
     2.058003    0.000000    2.058003
     2.058003    2.058003    0.000000
   Pt
     1
Direct
  0.000000  0.000000  0.000000
 
   40   40   40
 0.15262250945E+03 0.15247414546E+03 0.15160312959E+03 0.14890338431E+03 0.14304431241E+03
 0.13304766719E+03 0.11876859061E+03 0.10108798163E+03 0.81731474085E+02 0.62784378133E+02
 0.46099374082E+02 0.32827772531E+02 0.23230120040E+02 0.16785812225E+02 0.12506984955E+02
 0.95721852644E+01 0.76291888340E+01 0.63944341568E+01 0.56517724304E+01 0.52584532222E+01
 0.51356640882E+01 0.52584532222E+01 0.56517724304E+01 0.63944341568E+01 0.76291888340E+01
 0.95721852644E+01 0.12506984955E+02 0.16785812225E+02 0.23230120040E+02 0.32827772531E+02
 0.46099374082E+02 0.62784378133E+02 0.81731474085E+02 0.10108798163E+03 0.11876859061E+03
 0.13304766719E+03 0.14304431241E+03 0.14890338431E+03 0.15160312959E+03 0.15247414546E+03
 0.15247414546E+03 0.15196147570E+03 0.15015397245E+03 0.14580924947E+03 0.13775478496E+03
 0.12543076443E+03 0.10923361372E+03 0.90516213760E+02 0.71237760074E+02 0.53403906713E+02
 0.38521681994E+02 0.27269710707E+02 0.19470751117E+02 0.14319052875E+02 0.10811978348E+02
 0.84392506810E+01 0.68993988296E+01 0.59431166920E+01 0.53941136449E+01 0.51446811979E+01
 0.51446821352E+01 0.53941159911E+01 0.59431192634E+01 0.68994002944E+01 0.84392502067E+01
 0.10811976051E+02 0.14319049830E+02 0.19470748897E+02 0.27269710614E+02 0.38521684278E+02
 0.53403910156E+02 0.71237762112E+02 0.90516211264E+02 0.10923360405E+03 0.12543074666E+03
 0.13775476043E+03 0.14580922186E+03 0.15015394700E+03 0.15196145772E+03 0.15247413897E+03
 0.15160312959E+03 0.15015397245E+03 0.14665039731E+03 0.13995903558E+03 0.12930247374E+03
 0.11468747517E+03 0.97059079228E+02 0.78108829269E+02 0.59809727597E+02 0.43865702059E+02
 0.31289127429E+02 0.22245205806E+02 0.16174017836E+02 0.12103487355E+02 0.93019666517E+01
 0.74455606810E+01 0.62632143700E+01 0.55500183166E+01 0.51712763561E+01 0.50528425201E+01
 0.51712794787E+01 0.55500230040E+01 0.62632182389E+01 0.74455616644E+01 0.93019640356E+01
 0.12103482229E+02 0.16174012694E+02 0.22245203431E+02 0.31289129451E+02 0.43865707816E+02
 0.59809733829E+02 0.78108830875E+02 0.97059070943E+02 0.11468745355E+03 0.12930243890E+03
 0.13995899174E+03 0.14665035218E+03 0.15015393527E+03 0.15160310858E+03 0.15196145772E+03
 0.14890338431E+03 0.14580924947E+03 0.13995903558E+03 0.13056446695E+03 0.11740166155E+03
 0.10106555228E+03 0.82923782235E+02 0.64778805079E+02 0.48372060469E+02 0.34927366933E+02
 0.24899380444E+02 0.17988922109E+02 0.13372060106E+02 0.10175330066E+02 0.80114507811E+01
 0.66021980513E+01 0.57222008270E+01 0.52139672306E+01 0.49819790607E+01 0.49819810988E+01
 0.52139723364E+01 0.57222064534E+01 0.66022012952E+01 0.80114497934E+01 0.10175325014E+02
 0.13372053263E+02 0.17988916925E+02 0.24899379958E+02 0.34927372130E+02 0.48372069324E+02
 0.64778812734E+02 0.82923782404E+02 0.10106553948E+03 0.11740163334E+03 0.13056442538E+03
 0.13995898727E+03 0.14580920409E+03 0.14890335196E+03 0.15015393527E+03 0.15015394700E+03
 0.14304431241E+03 0.13775478496E+03 0.12930247374E+03 0.11740166155E+03 0.10241125888E+03
 0.85395937037E+02 0.67916208522E+02 0.51624519501E+02 0.37828027026E+02 0.27185303056E+02
 0.19632961213E+02 0.14532995708E+02 0.11005889546E+02 0.85670912659E+01 0.69448468806E+01
 0.59038067528E+01 0.52699718089E+01 0.49304821120E+01 0.48237735043E+01 0.49304858322E+01
 0.52699774314E+01 0.59038114731E+01 0.69448482128E+01 0.85670882554E+01 0.11005883342E+02
 0.14532989211E+02 0.19632957881E+02 0.27185305302E+02 0.37828034903E+02 0.51624530192E+02
 0.67916217003E+02 0.85395937685E+02 0.10241124756E+03 0.11740163744E+03 0.12930244002E+03
 0.13775474838E+03 0.14304428141E+03 0.14580920409E+03 0.14665035218E+03 0.14580922186E+03
 0.13304766719E+03 0.12543076443E+03 0.11468747517E+03 0.10106555228E+03 0.85395937037E+02
 0.68987616375E+02 0.53326851651E+02 0.39696689915E+02 0.28865338788E+02 0.20953688622E+02
 0.15507506078E+02 0.11734525000E+02 0.90764303221E+01 0.72712385449E+01 0.60849779367E+01
 0.53349539556E+01 0.48961672363E+01 0.46939067410E+01 0.46939082955E+01 0.48961711666E+01
 0.53349583867E+01 0.60849806859E+01 0.72712381249E+01 0.90764266789E+01 0.11734519668E+02
 0.15507501647E+02 0.20953687722E+02 0.28865342933E+02 0.39696698750E+02 0.53326862820E+02
 0.68987626249E+02 0.85395941910E+02 0.10106554976E+03 0.11468746517E+03 0.12543074934E+03
 0.13304765126E+03 0.13775474838E+03 0.13995898727E+03 0.13995899174E+03 0.13775476043E+03
 0.11876859061E+03 0.10923361372E+03 0.97059079228E+02 0.82923782235E+02 0.67916208522E+02
 0.53326851651E+02 0.40341662647E+02 0.29755314821E+02 0.21811356210E+02 0.16216055303E+02
 0.12303993757E+02 0.95014746472E+01 0.75585948738E+01 0.62534144801E+01 0.54030085568E+01
 0.48762194732E+01 0.45897494089E+01 0.44988985067E+01 0.45897510737E+01 0.48762220817E+01
 0.54030109620E+01 0.62534155801E+01 0.75585940900E+01 0.95014722120E+01 0.12303990719E+02
 0.16216053200E+02 0.21811356591E+02 0.29755318694E+02 0.40341670187E+02 0.53326862068E+02
 0.67916220372E+02 0.82923793848E+02 0.97059089161E+02 0.10923362117E+03 0.11876859547E+03
 0.12543074934E+03 0.12930244002E+03 0.13056442538E+03 0.12930243890E+03 0.12543074666E+03
 0.10108798163E+03 0.90516213760E+02 0.78108829269E+02 0.64778805079E+02 0.51624519501E+02
 0.39696689915E+02 0.29755314821E+02 0.22108808535E+02 0.16590034082E+02 0.12666707385E+02
 0.98073896387E+01 0.77841122335E+01 0.63956687560E+01 0.54670567617E+01 0.48671937431E+01
 0.45088778166E+01 0.43411864161E+01 0.43411865576E+01 0.45088782380E+01 0.48671944130E+01
 0.54670575748E+01 0.63956695021E+01 0.77841126272E+01 0.98073894229E+01 0.12666706520E+02
 0.16590032888E+02 0.22108807821E+02 0.29755315767E+02 0.39696693898E+02 0.51624527660E+02
 0.64778817901E+02 0.78108846309E+02 0.90516233442E+02 0.10108800148E+03 0.10923362117E+03
 0.11468746517E+03 0.11740163744E+03 0.11740163334E+03 0.11468745355E+03 0.10923360405E+03
 0.81731474085E+02 0.71237760074E+02 0.59809727597E+02 0.48372060469E+02 0.37828027026E+02
 0.28865338788E+02 0.21811356210E+02 0.16590034082E+02 0.12791264058E+02 0.99675520837E+01
 0.79282609797E+01 0.64990000497E+01 0.55196898558E+01 0.48652318223E+01 0.44490331245E+01
 0.42177316161E+01 0.41434692702E+01 0.42177307008E+01 0.44490318650E+01 0.48652310583E+01
 0.55196902422E+01 0.64990016473E+01 0.79282631335E+01 0.99675536133E+01 0.12791263827E+02
 0.16590031563E+02 0.21811352031E+02 0.28865334723E+02 0.37828025653E+02 0.48372064336E+02
 0.59809738219E+02 0.71237777295E+02 0.81731495706E+02 0.90516233442E+02 0.97059089161E+02
 0.10106554976E+03 0.10241124756E+03 0.10106553948E+03 0.97059070943E+02 0.90516211264E+02
 0.62784378133E+02 0.53403906713E+02 0.43865702059E+02 0.34927366933E+02 0.27185303056E+02
 0.20953688622E+02 0.16216055303E+02 0.12666707385E+02 0.99675520837E+01 0.79778619901E+01
 0.65534154155E+01 0.55543282494E+01 0.48665442980E+01 0.44081301878E+01 0.41265330933E+01
 0.39921812047E+01 0.39921802866E+01 0.41265308171E+01 0.44081277877E+01 0.48665431384E+01
 0.55543291569E+01 0.65534181496E+01 0.79778652468E+01 0.99675538885E+01 0.12666705973E+02
 0.16216049863E+02 0.20953679934E+02 0.27185293379E+02 0.34927359389E+02 0.43865699682E+02
 0.53403911178E+02 0.62784389157E+02 0.71237777295E+02 0.78108846309E+02 0.82923793848E+02
 0.85395941910E+02 0.85395937685E+02 0.82923782404E+02 0.78108830875E+02 0.71237762112E+02
 0.46099374082E+02 0.38521681994E+02 0.31289127429E+02 0.24899380444E+02 0.19632961213E+02
 0.15507506078E+02 0.12303993757E+02 0.98073896387E+01 0.79282609797E+01 0.65534154155E+01
 0.55664175557E+01 0.48680626590E+01 0.43844013642E+01 0.40663387985E+01 0.38849769711E+01
 0.38259380180E+01 0.38849749399E+01 0.40663357204E+01 0.43843987671E+01 0.48680618963E+01
 0.55664191549E+01 0.65534186859E+01 0.79282641945E+01 0.98073905599E+01 0.12303990556E+02
 0.15507498022E+02 0.19632949104E+02 0.24899366512E+02 0.31289114499E+02 0.38521672765E+02
 0.46099370048E+02 0.53403911178E+02 0.59809738219E+02 0.64778817901E+02 0.67916220372E+02
 0.68987626249E+02 0.67916217003E+02 0.64778812734E+02 0.59809733829E+02 0.53403910156E+02
 0.32827772531E+02 0.27269710707E+02 0.22245205806E+02 0.17988922109E+02 0.14532995708E+02
 0.11734525000E+02 0.95014746472E+01 0.77841122335E+01 0.64990000497E+01 0.55543282494E+01
 0.48680626590E+01 0.43766361071E+01 0.40364138125E+01 0.38208546309E+01 0.37159474355E+01
 0.37159464302E+01 0.38208520710E+01 0.40364108166E+01 0.43766340488E+01 0.48680625048E+01
 0.55543301723E+01 0.64990031724E+01 0.77841149301E+01 0.95014749638E+01 0.11734521372E+02
 0.14532987482E+02 0.17988909695E+02 0.22245190758E+02 0.27269695014E+02 0.32827758200E+02
 0.38521672765E+02 0.43865699682E+02 0.48372064336E+02 0.51624527660E+02 0.53326862068E+02
 0.53326862820E+02 0.51624530192E+02 0.48372069324E+02 0.43865707816E+02 0.38521684278E+02
 0.23230120040E+02 0.19470751117E+02 0.16174017836E+02 0.13372060106E+02 0.11005889546E+02
 0.90764303221E+01 0.75585948738E+01 0.63956687560E+01 0.55196898558E+01 0.48665442980E+01
 0.43844013642E+01 0.40364138125E+01 0.37994992950E+01 0.36610852449E+01 0.36154687711E+01
 0.36610838634E+01 0.37994970645E+01 0.40364116153E+01 0.43844001207E+01 0.48665446245E+01
 0.55196918181E+01 0.63956717785E+01 0.75585978373E+01 0.90764318693E+01 0.11005888319E+02
 0.13372055295E+02 0.16174009083E+02 0.19470738899E+02 0.23230105429E+02 0.27269695014E+02
 0.31289114499E+02 0.34927359389E+02 0.37828025653E+02 0.39696693898E+02 0.40341670187E+02
 0.39696698750E+02 0.37828034903E+02 0.34927372130E+02 0.31289129451E+02 0.27269710614E+02
 0.16785812225E+02 0.14319052875E+02 0.12103487355E+02 0.10175330066E+02 0.85670912659E+01
 0.72712385449E+01 0.62534144801E+01 0.54670567617E+01 0.48652318223E+01 0.44081301878E+01
 0.40663387985E+01 0.38208546309E+01 0.36610852449E+01 0.35820832959E+01 0.35820829622E+01
 0.36610843376E+01 0.38208534168E+01 0.40663376960E+01 0.44081297140E+01 0.48652324842E+01
 0.54670589094E+01 0.62534181535E+01 0.72712433123E+01 0.85670962851E+01 0.10175334024E+02
 0.12103488915E+02 0.14319050914E+02 0.16785806079E+02 0.19470738899E+02 0.22245190758E+02
 0.24899366512E+02 0.27185293379E+02 0.28865334723E+02 0.29755315767E+02 0.29755318694E+02
 0.28865342933E+02 0.27185305302E+02 0.24899379958E+02 0.22245203431E+02 0.19470748897E+02
 0.12506984955E+02 0.10811978348E+02 0.93019666517E+01 0.80114507811E+01 0.69448468806E+01
 0.60849779367E+01 0.54030085568E+01 0.48671937431E+01 0.44490331245E+01 0.41265330933E+01
 0.38849769711E+01 0.37159474355E+01 0.36154687711E+01 0.35820829622E+01 0.36154689414E+01
 0.37159476110E+01 0.38849769683E+01 0.41265329067E+01 0.44490330979E+01 0.48671945675E+01
 0.54030110936E+01 0.60849828950E+01 0.69448543992E+01 0.80114602794E+01 0.93019767231E+01
 0.10811987053E+02 0.12506990484E+02 0.14319050914E+02 0.16174009083E+02 0.17988909695E+02
 0.19632949104E+02 0.20953679934E+02 0.21811352031E+02 0.22108807821E+02 0.21811356591E+02
 0.20953687722E+02 0.19632957881E+02 0.17988916925E+02 0.16174012694E+02 0.14319049830E+02
 0.95721852644E+01 0.84392506810E+01 0.74455606810E+01 0.66021980513E+01 0.59038067528E+01
 0.53349539556E+01 0.48762194732E+01 0.45088778166E+01 0.42177316161E+01 0.39921812047E+01
 0.38259380180E+01 0.37159464302E+01 0.36610838634E+01 0.36610843376E+01 0.37159476110E+01
 0.38259392981E+01 0.39921819736E+01 0.42177316321E+01 0.45088774937E+01 0.48762198577E+01
 0.53349564185E+01 0.59038125143E+01 0.66022075734E+01 0.74455734211E+01 0.84392650885E+01
 0.95721990922E+01 0.10811987053E+02 0.12103488915E+02 0.13372055295E+02 0.14532987482E+02
 0.15507498022E+02 0.16216049863E+02 0.16590031563E+02 0.16590032888E+02 0.16216053200E+02
 0.15507501647E+02 0.14532989211E+02 0.13372053263E+02 0.12103482229E+02 0.10811976051E+02
 0.76291888340E+01 0.68993988296E+01 0.62632143700E+01 0.57222008270E+01 0.52699718089E+01
 0.48961672363E+01 0.45897494089E+01 0.43411864161E+01 0.41434692702E+01 0.39921802866E+01
 0.38849749399E+01 0.38208520710E+01 0.37994970645E+01 0.38208534168E+01 0.38849769683E+01
 0.39921819736E+01 0.41434697428E+01 0.43411854192E+01 0.45897475555E+01 0.48961659214E+01
 0.52699727362E+01 0.57222054755E+01 0.62632233404E+01 0.68994115626E+01 0.76292037409E+01
 0.84392650885E+01 0.93019767231E+01 0.10175334024E+02 0.11005888319E+02 0.11734521372E+02
 0.12303990556E+02 0.12666705973E+02 0.12791263827E+02 0.12666706520E+02 0.12303990719E+02
 0.11734519668E+02 0.11005883342E+02 0.10175325014E+02 0.93019640356E+01 0.84392502067E+01
 0.63944341568E+01 0.59431166920E+01 0.55500183166E+01 0.52139672306E+01 0.49304821120E+01
 0.46939067410E+01 0.44988985067E+01 0.43411865576E+01 0.42177307008E+01 0.41265308171E+01
 0.40663357204E+01 0.40364108166E+01 0.40364116153E+01 0.40663376960E+01 0.41265329067E+01
 0.42177316321E+01 0.43411854192E+01 0.44988951743E+01 0.46939020351E+01 0.49304776199E+01
 0.52139647609E+01 0.55500193579E+01 0.59431218998E+01 0.63944430836E+01 0.68994115626E+01
 0.74455734211E+01 0.80114602794E+01 0.85670962851E+01 0.90764318693E+01 0.95014749638E+01
 0.98073905599E+01 0.99675538885E+01 0.99675536133E+01 0.98073894229E+01 0.95014722120E+01
 0.90764266789E+01 0.85670882554E+01 0.80114497934E+01 0.74455616644E+01 0.68994002944E+01
 0.56517724304E+01 0.53941136449E+01 0.51712763561E+01 0.49819790607E+01 0.48237735043E+01
 0.46939082955E+01 0.45897510737E+01 0.45088782380E+01 0.44490318650E+01 0.44081277877E+01
 0.43843987671E+01 0.43766340488E+01 0.43844001207E+01 0.44081297140E+01 0.44490330979E+01
 0.45088774937E+01 0.45897475555E+01 0.46939020351E+01 0.48237653865E+01 0.49819706437E+01
 0.51712693512E+01 0.53941094348E+01 0.56517717150E+01 0.59431218998E+01 0.62632233404E+01
 0.66022075734E+01 0.69448543992E+01 0.72712433123E+01 0.75585978373E+01 0.77841149301E+01
 0.79282641945E+01 0.79778652468E+01 0.79282631335E+01 0.77841126272E+01 0.75585940900E+01
 0.72712381249E+01 0.69448482128E+01 0.66022012952E+01 0.62632182389E+01 0.59431192634E+01
 0.52584532222E+01 0.51446811979E+01 0.50528425201E+01 0.49819810988E+01 0.49304858322E+01
 0.48961711666E+01 0.48762220817E+01 0.48671944130E+01 0.48652310583E+01 0.48665431384E+01
 0.48680618963E+01 0.48680625048E+01 0.48665446245E+01 0.48652324842E+01 0.48671945675E+01
 0.48762198577E+01 0.48961659214E+01 0.49304776199E+01 0.49819706437E+01 0.50528310823E+01
 0.51446702451E+01 0.52584440432E+01 0.53941094348E+01 0.55500193579E+01 0.57222054755E+01
 0.59038125143E+01 0.60849828950E+01 0.62534181535E+01 0.63956717785E+01 0.64990031724E+01
 0.65534186859E+01 0.65534181496E+01 0.64990016473E+01 0.63956695021E+01 0.62534155801E+01
 0.60849806859E+01 0.59038114731E+01 0.57222064534E+01 0.55500230040E+01 0.53941159911E+01
 0.51356640882E+01 0.51446821352E+01 0.51712794787E+01 0.52139723364E+01 0.52699774314E+01
 0.53349583867E+01 0.54030109620E+01 0.54670575748E+01 0.55196902422E+01 0.55543291569E+01
 0.55664191549E+01 0.55543301723E+01 0.55196918181E+01 0.54670589094E+01 0.54030110936E+01
 0.53349564185E+01 0.52699727362E+01 0.52139647609E+01 0.51712693512E+01 0.51446702451E+01
 0.51356515674E+01 0.51446702451E+01 0.51712693512E+01 0.52139647609E+01 0.52699727362E+01
 0.53349564185E+01 0.54030110936E+01 0.54670589094E+01 0.55196918181E+01 0.55543301723E+01
 0.55664191549E+01 0.55543291569E+01 0.55196902422E+01 0.54670575748E+01 0.54030109620E+01
 0.53349583867E+01 0.52699774314E+01 0.52139723364E+01 0.51712794787E+01 0.51446821352E+01
 0.52584532222E+01 0.53941159911E+01 0.55500230040E+01 0.57222064534E+01 0.59038114731E+01
 0.60849806859E+01 0.62534155801E+01 0.63956695021E+01 0.64990016473E+01 0.65534181496E+01
 0.65534186859E+01 0.64990031724E+01 0.63956717785E+01 0.62534181535E+01 0.60849828950E+01
 0.59038125143E+01 0.57222054755E+01 0.55500193579E+01 0.53941094348E+01 0.52584440432E+01
 0.51446702451E+01 0.50528310823E+01 0.49819706437E+01 0.49304776199E+01 0.48961659214E+01
 0.48762198577E+01 0.48671945675E+01 0.48652324842E+01 0.48665446245E+01 0.48680625048E+01
 0.48680618963E+01 0.48665431384E+01 0.48652310583E+01 0.48671944130E+01 0.48762220817E+01
 0.48961711666E+01 0.49304858322E+01 0.49819810988E+01 0.50528425201E+01 0.51446811979E+01
 0.56517724304E+01 0.59431192634E+01 0.62632182389E+01 0.66022012952E+01 0.69448482128E+01
 0.72712381249E+01 0.75585940900E+01 0.77841126272E+01 0.79282631335E+01 0.79778652468E+01
 0.79282641945E+01 0.77841149301E+01 0.75585978373E+01 0.72712433123E+01 0.69448543992E+01
 0.66022075734E+01 0.62632233404E+01 0.59431218998E+01 0.56517717150E+01 0.53941094348E+01
 0.51712693512E+01 0.49819706437E+01 0.48237653865E+01 0.46939020351E+01 0.45897475555E+01
 0.45088774937E+01 0.44490330979E+01 0.44081297140E+01 0.43844001207E+01 0.43766340488E+01
 0.43843987671E+01 0.44081277877E+01 0.44490318650E+01 0.45088782380E+01 0.45897510737E+01
 0.46939082955E+01 0.48237735043E+01 0.49819790607E+01 0.51712763561E+01 0.53941136449E+01
 0.63944341568E+01 0.68994002944E+01 0.74455616644E+01 0.80114497934E+01 0.85670882554E+01
 0.90764266789E+01 0.95014722120E+01 0.98073894229E+01 0.99675536133E+01 0.99675538885E+01
 0.98073905599E+01 0.95014749638E+01 0.90764318693E+01 0.85670962851E+01 0.80114602794E+01
 0.74455734211E+01 0.68994115626E+01 0.63944430836E+01 0.59431218998E+01 0.55500193579E+01
 0.52139647609E+01 0.49304776199E+01 0.46939020351E+01 0.44988951743E+01 0.43411854192E+01
 0.42177316321E+01 0.41265329067E+01 0.40663376960E+01 0.40364116153E+01 0.40364108166E+01
 0.40663357204E+01 0.41265308171E+01 0.42177307008E+01 0.43411865576E+01 0.44988985067E+01
 0.46939067410E+01 0.49304821120E+01 0.52139672306E+01 0.55500183166E+01 0.59431166920E+01
 0.76291888340E+01 0.84392502067E+01 0.93019640356E+01 0.10175325014E+02 0.11005883342E+02
 0.11734519668E+02 0.12303990719E+02 0.12666706520E+02 0.12791263827E+02 0.12666705973E+02
 0.12303990556E+02 0.11734521372E+02 0.11005888319E+02 0.10175334024E+02 0.93019767231E+01
 0.84392650885E+01 0.76292037409E+01 0.68994115626E+01 0.62632233404E+01 0.57222054755E+01
 0.52699727362E+01 0.48961659214E+01 0.45897475555E+01 0.43411854192E+01 0.41434697428E+01
 0.39921819736E+01 0.38849769683E+01 0.38208534168E+01 0.37994970645E+01 0.38208520710E+01
 0.38849749399E+01 0.39921802866E+01 0.41434692702E+01 0.43411864161E+01 0.45897494089E+01
 0.48961672363E+01 0.52699718089E+01 0.57222008270E+01 0.62632143700E+01 0.68993988296E+01
 0.95721852644E+01 0.10811976051E+02 0.12103482229E+02 0.13372053263E+02 0.14532989211E+02
 0.15507501647E+02 0.16216053200E+02 0.16590032888E+02 0.16590031563E+02 0.16216049863E+02
 0.15507498022E+02 0.14532987482E+02 0.13372055295E+02 0.12103488915E+02 0.10811987053E+02
 0.95721990922E+01 0.84392650885E+01 0.74455734211E+01 0.66022075734E+01 0.59038125143E+01
 0.53349564185E+01 0.48762198577E+01 0.45088774937E+01 0.42177316321E+01 0.39921819736E+01
 0.38259392981E+01 0.37159476110E+01 0.36610843376E+01 0.36610838634E+01 0.37159464302E+01
 0.38259380180E+01 0.39921812047E+01 0.42177316161E+01 0.45088778166E+01 0.48762194732E+01
 0.53349539556E+01 0.59038067528E+01 0.66021980513E+01 0.74455606810E+01 0.84392506810E+01
 0.12506984955E+02 0.14319049830E+02 0.16174012694E+02 0.17988916925E+02 0.19632957881E+02
 0.20953687722E+02 0.21811356591E+02 0.22108807821E+02 0.21811352031E+02 0.20953679934E+02
 0.19632949104E+02 0.17988909695E+02 0.16174009083E+02 0.14319050914E+02 0.12506990484E+02
 0.10811987053E+02 0.93019767231E+01 0.80114602794E+01 0.69448543992E+01 0.60849828950E+01
 0.54030110936E+01 0.48671945675E+01 0.44490330979E+01 0.41265329067E+01 0.38849769683E+01
 0.37159476110E+01 0.36154689414E+01 0.35820829622E+01 0.36154687711E+01 0.37159474355E+01
 0.38849769711E+01 0.41265330933E+01 0.44490331245E+01 0.48671937431E+01 0.54030085568E+01
 0.60849779367E+01 0.69448468806E+01 0.80114507811E+01 0.93019666517E+01 0.10811978348E+02
 0.16785812225E+02 0.19470748897E+02 0.22245203431E+02 0.24899379958E+02 0.27185305302E+02
 0.28865342933E+02 0.29755318694E+02 0.29755315767E+02 0.28865334723E+02 0.27185293379E+02
 0.24899366512E+02 0.22245190758E+02 0.19470738899E+02 0.16785806079E+02 0.14319050914E+02
 0.12103488915E+02 0.10175334024E+02 0.85670962851E+01 0.72712433123E+01 0.62534181535E+01
 0.54670589094E+01 0.48652324842E+01 0.44081297140E+01 0.40663376960E+01 0.38208534168E+01
 0.36610843376E+01 0.35820829622E+01 0.35820832959E+01 0.36610852449E+01 0.38208546309E+01
 0.40663387985E+01 0.44081301878E+01 0.48652318223E+01 0.54670567617E+01 0.62534144801E+01
 0.72712385449E+01 0.85670912659E+01 0.10175330066E+02 0.12103487355E+02 0.14319052875E+02
 0.23230120040E+02 0.27269710614E+02 0.31289129451E+02 0.34927372130E+02 0.37828034903E+02
 0.39696698750E+02 0.40341670187E+02 0.39696693898E+02 0.37828025653E+02 0.34927359389E+02
 0.31289114499E+02 0.27269695014E+02 0.23230105429E+02 0.19470738899E+02 0.16174009083E+02
 0.13372055295E+02 0.11005888319E+02 0.90764318693E+01 0.75585978373E+01 0.63956717785E+01
 0.55196918181E+01 0.48665446245E+01 0.43844001207E+01 0.40364116153E+01 0.37994970645E+01
 0.36610838634E+01 0.36154687711E+01 0.36610852449E+01 0.37994992950E+01 0.40364138125E+01
 0.43844013642E+01 0.48665442980E+01 0.55196898558E+01 0.63956687560E+01 0.75585948738E+01
 0.90764303221E+01 0.11005889546E+02 0.13372060106E+02 0.16174017836E+02 0.19470751117E+02
 0.32827772531E+02 0.38521684278E+02 0.43865707816E+02 0.48372069324E+02 0.51624530192E+02
 0.53326862820E+02 0.53326862068E+02 0.51624527660E+02 0.48372064336E+02 0.43865699682E+02
 0.38521672765E+02 0.32827758200E+02 0.27269695014E+02 0.22245190758E+02 0.17988909695E+02
 0.14532987482E+02 0.11734521372E+02 0.95014749638E+01 0.77841149301E+01 0.64990031724E+01
 0.55543301723E+01 0.48680625048E+01 0.43766340488E+01 0.40364108166E+01 0.38208520710E+01
 0.37159464302E+01 0.37159474355E+01 0.38208546309E+01 0.40364138125E+01 0.43766361071E+01
 0.48680626590E+01 0.55543282494E+01 0.64990000497E+01 0.77841122335E+01 0.95014746472E+01
 0.11734525000E+02 0.14532995708E+02 0.17988922109E+02 0.22245205806E+02 0.27269710707E+02
 0.46099374082E+02 0.53403910156E+02 0.59809733829E+02 0.64778812734E+02 0.67916217003E+02
 0.68987626249E+02 0.67916220372E+02 0.64778817901E+02 0.59809738219E+02 0.53403911178E+02
 0.46099370048E+02 0.38521672765E+02 0.31289114499E+02 0.24899366512E+02 0.19632949104E+02
 0.15507498022E+02 0.12303990556E+02 0.98073905599E+01 0.79282641945E+01 0.65534186859E+01
 0.55664191549E+01 0.48680618963E+01 0.43843987671E+01 0.40663357204E+01 0.38849749399E+01
 0.38259380180E+01 0.38849769711E+01 0.40663387985E+01 0.43844013642E+01 0.48680626590E+01
 0.55664175557E+01 0.65534154155E+01 0.79282609797E+01 0.98073896387E+01 0.12303993757E+02
 0.15507506078E+02 0.19632961213E+02 0.24899380444E+02 0.31289127429E+02 0.38521681994E+02
 0.62784378133E+02 0.71237762112E+02 0.78108830875E+02 0.82923782404E+02 0.85395937685E+02
 0.85395941910E+02 0.82923793848E+02 0.78108846309E+02 0.71237777295E+02 0.62784389157E+02
 0.53403911178E+02 0.43865699682E+02 0.34927359389E+02 0.27185293379E+02 0.20953679934E+02
 0.16216049863E+02 0.12666705973E+02 0.99675538885E+01 0.79778652468E+01 0.65534181496E+01
 0.55543291569E+01 0.48665431384E+01 0.44081277877E+01 0.41265308171E+01 0.39921802866E+01
 0.39921812047E+01 0.41265330933E+01 0.44081301878E+01 0.48665442980E+01 0.55543282494E+01
 0.65534154155E+01 0.79778619901E+01 0.99675520837E+01 0.12666707385E+02 0.16216055303E+02
 0.20953688622E+02 0.27185303056E+02 0.34927366933E+02 0.43865702059E+02 0.53403906713E+02
 0.81731474085E+02 0.90516211264E+02 0.97059070943E+02 0.10106553948E+03 0.10241124756E+03
 0.10106554976E+03 0.97059089161E+02 0.90516233442E+02 0.81731495706E+02 0.71237777295E+02
 0.59809738219E+02 0.48372064336E+02 0.37828025653E+02 0.28865334723E+02 0.21811352031E+02
 0.16590031563E+02 0.12791263827E+02 0.99675536133E+01 0.79282631335E+01 0.64990016473E+01
 0.55196902422E+01 0.48652310583E+01 0.44490318650E+01 0.42177307008E+01 0.41434692702E+01
 0.42177316161E+01 0.44490331245E+01 0.48652318223E+01 0.55196898558E+01 0.64990000497E+01
 0.79282609797E+01 0.99675520837E+01 0.12791264058E+02 0.16590034082E+02 0.21811356210E+02
 0.28865338788E+02 0.37828027026E+02 0.48372060469E+02 0.59809727597E+02 0.71237760074E+02
 0.10108798163E+03 0.10923360405E+03 0.11468745355E+03 0.11740163334E+03 0.11740163744E+03
 0.11468746517E+03 0.10923362117E+03 0.10108800148E+03 0.90516233442E+02 0.78108846309E+02
 0.64778817901E+02 0.51624527660E+02 0.39696693898E+02 0.29755315767E+02 0.22108807821E+02
 0.16590032888E+02 0.12666706520E+02 0.98073894229E+01 0.77841126272E+01 0.63956695021E+01
 0.54670575748E+01 0.48671944130E+01 0.45088782380E+01 0.43411865576E+01 0.43411864161E+01
 0.45088778166E+01 0.48671937431E+01 0.54670567617E+01 0.63956687560E+01 0.77841122335E+01
 0.98073896387E+01 0.12666707385E+02 0.16590034082E+02 0.22108808535E+02 0.29755314821E+02
 0.39696689915E+02 0.51624519501E+02 0.64778805079E+02 0.78108829269E+02 0.90516213760E+02
 0.11876859061E+03 0.12543074666E+03 0.12930243890E+03 0.13056442538E+03 0.12930244002E+03
 0.12543074934E+03 0.11876859547E+03 0.10923362117E+03 0.97059089161E+02 0.82923793848E+02
 0.67916220372E+02 0.53326862068E+02 0.40341670187E+02 0.29755318694E+02 0.21811356591E+02
 0.16216053200E+02 0.12303990719E+02 0.95014722120E+01 0.75585940900E+01 0.62534155801E+01
 0.54030109620E+01 0.48762220817E+01 0.45897510737E+01 0.44988985067E+01 0.45897494089E+01
 0.48762194732E+01 0.54030085568E+01 0.62534144801E+01 0.75585948738E+01 0.95014746472E+01
 0.12303993757E+02 0.16216055303E+02 0.21811356210E+02 0.29755314821E+02 0.40341662647E+02
 0.53326851651E+02 0.67916208522E+02 0.82923782235E+02 0.97059079228E+02 0.10923361372E+03
 0.13304766719E+03 0.13775476043E+03 0.13995899174E+03 0.13995898727E+03 0.13775474838E+03
 0.13304765126E+03 0.12543074934E+03 0.11468746517E+03 0.10106554976E+03 0.85395941910E+02
 0.68987626249E+02 0.53326862820E+02 0.39696698750E+02 0.28865342933E+02 0.20953687722E+02
 0.15507501647E+02 0.11734519668E+02 0.90764266789E+01 0.72712381249E+01 0.60849806859E+01
 0.53349583867E+01 0.48961711666E+01 0.46939082955E+01 0.46939067410E+01 0.48961672363E+01
 0.53349539556E+01 0.60849779367E+01 0.72712385449E+01 0.90764303221E+01 0.11734525000E+02
 0.15507506078E+02 0.20953688622E+02 0.28865338788E+02 0.39696689915E+02 0.53326851651E+02
 0.68987616375E+02 0.85395937037E+02 0.10106555228E+03 0.11468747517E+03 0.12543076443E+03
 0.14304431241E+03 0.14580922186E+03 0.14665035218E+03 0.14580920409E+03 0.14304428141E+03
 0.13775474838E+03 0.12930244002E+03 0.11740163744E+03 0.10241124756E+03 0.85395937685E+02
 0.67916217003E+02 0.51624530192E+02 0.37828034903E+02 0.27185305302E+02 0.19632957881E+02
 0.14532989211E+02 0.11005883342E+02 0.85670882554E+01 0.69448482128E+01 0.59038114731E+01
 0.52699774314E+01 0.49304858322E+01 0.48237735043E+01 0.49304821120E+01 0.52699718089E+01
 0.59038067528E+01 0.69448468806E+01 0.85670912659E+01 0.11005889546E+02 0.14532995708E+02
 0.19632961213E+02 0.27185303056E+02 0.37828027026E+02 0.51624519501E+02 0.67916208522E+02
 0.85395937037E+02 0.10241125888E+03 0.11740166155E+03 0.12930247374E+03 0.13775478496E+03
 0.14890338431E+03 0.15015394700E+03 0.15015393527E+03 0.14890335196E+03 0.14580920409E+03
 0.13995898727E+03 0.13056442538E+03 0.11740163334E+03 0.10106553948E+03 0.82923782404E+02
 0.64778812734E+02 0.48372069324E+02 0.34927372130E+02 0.24899379958E+02 0.17988916925E+02
 0.13372053263E+02 0.10175325014E+02 0.80114497934E+01 0.66022012952E+01 0.57222064534E+01
 0.52139723364E+01 0.49819810988E+01 0.49819790607E+01 0.52139672306E+01 0.57222008270E+01
 0.66021980513E+01 0.80114507811E+01 0.10175330066E+02 0.13372060106E+02 0.17988922109E+02
 0.24899380444E+02 0.34927366933E+02 0.48372060469E+02 0.64778805079E+02 0.82923782235E+02
 0.10106555228E+03 0.11740166155E+03 0.13056446695E+03 0.13995903558E+03 0.14580924947E+03
 0.15160312959E+03 0.15196145772E+03 0.15160310858E+03 0.15015393527E+03 0.14665035218E+03
 0.13995899174E+03 0.12930243890E+03 0.11468745355E+03 0.97059070943E+02 0.78108830875E+02
 0.59809733829E+02 0.43865707816E+02 0.31289129451E+02 0.22245203431E+02 0.16174012694E+02
 0.12103482229E+02 0.93019640356E+01 0.74455616644E+01 0.62632182389E+01 0.55500230040E+01
 0.51712794787E+01 0.50528425201E+01 0.51712763561E+01 0.55500183166E+01 0.62632143700E+01
 0.74455606810E+01 0.93019666517E+01 0.12103487355E+02 0.16174017836E+02 0.22245205806E+02
 0.31289127429E+02 0.43865702059E+02 0.59809727597E+02 0.78108829269E+02 0.97059079228E+02
 0.11468747517E+03 0.12930247374E+03 0.13995903558E+03 0.14665039731E+03 0.15015397245E+03
 0.15247414546E+03 0.15247413897E+03 0.15196145772E+03 0.15015394700E+03 0.14580922186E+03
 0.13775476043E+03 0.12543074666E+03 0.10923360405E+03 0.90516211264E+02 0.71237762112E+02
 0.53403910156E+02 0.38521684278E+02 0.27269710614E+02 0.19470748897E+02 0.14319049830E+02
 0.10811976051E+02 0.84392502067E+01 0.68994002944E+01 0.59431192634E+01 0.53941159911E+01
 0.51446821352E+01 0.51446811979E+01 0.53941136449E+01 0.59431166920E+01 0.68993988296E+01
 0.84392506810E+01 0.10811978348E+02 0.14319052875E+02 0.19470751117E+02 0.27269710707E+02
 0.38521681994E+02 0.53403906713E+02 0.71237760074E+02 0.90516213760E+02 0.10923361372E+03
 0.12543076443E+03 0.13775478496E+03 0.14580924947E+03 0.15015397245E+03 0.15196147570E+03
 0.15247414546E+03 0.15196147570E+03 0.15015397245E+03 0.14580924947E+03 0.13775478496E+03
 0.12543076443E+03 0.10923361372E+03 0.90516213760E+02 0.71237760074E+02 0.53403906713E+02
 0.38521681994E+02 0.27269710707E+02 0.19470751117E+02 0.14319052875E+02 0.10811978348E+02
 0.84392506810E+01 0.68993988296E+01 0.59431166920E+01 0.53941136449E+01 0.51446811979E+01
 0.51446821352E+01 0.53941159911E+01 0.59431192634E+01 0.68994002944E+01 0.84392502067E+01
 0.10811976051E+02 0.14319049830E+02 0.19470748897E+02 0.27269710614E+02 0.38521684278E+02