 vasp.6.3.2 27Jun22 (build Aug 12 2022 00:53:59) complex                        
  
 executed on               tv2STD date 2024.12.03  02:20:36
 running   24 mpi-ranks, with    1 threads/rank
 distrk:  each k-point on   24 cores,    1 groups
 distr:  one band on NCORE=   1 cores,   24 groups


--------------------------------------------------------------------------------------------------------


 INCAR:
   SYSTEM = Pt-fcc
   NWRITE = 2    write-flag
   ISTART = 0    job   : 0-new, 1-cont, 2-samecut
   ICHARG = 2    charge: 0-wave, 1-file, 2-atom, >10-const
   INIWAV = 1    electr: 0-lowe 1-rand  2-diag
   ENCUT = 425.0     energy cutoff in eV
   PREC = accurate      normal | accurate
   ADDGRID = .FALSE.  (use fine grid)
   NELM = 100     number of ELM steps
   EDIFF = 1E-06    energy stopping-criterion for ELM
   LREAL = .FALSE.      real-space projection (.FALSE., .TRUE., On, Auto)
   ALGO = Normal     Normal, Fast, Very_Fast
   LWAVE = .TRUE.
   LCHARG = .TRUE.
   NSW = 100       max number of geometry steps
   IBRION = 2     ionic relax: 0-MD, 1-quasi-Newton, 2-CG, 3-Damped MD
   EDIFFG = -0.02  force (eV/A) stopping-criterion for geometry steps
   ISIF = 2     (1:force\=y stress\=trace only ions\=y shape\=n volume\=n)
   ISYM = 1     (1-use symmetry, 0-no symmetry)
   ISMEAR = 0     (-1-Fermi, 1-Methfessel/Paxton)
   SIGMA = 0.05   broadening in eV
   LORBIT = 11

 POTCAR:    PAW_PBE Pt_pv 12Dec2005               
 POTCAR:    PAW_PBE Pt_pv 12Dec2005               
   SHA256 =  e5abf7e8cd8db70d0153315afc5ad66b6e3eeee29cc2d5b91b16730957c1d208 Pt_pv/POTCAR          
   COPYR  = (c) Copyright 12Dec2005 Georg Kresse                                                    
   COPYR  = This file is part of the software VASP. Any use, copying, and all other rights are regul
   COPYR  = If you do not have a valid VASP license, you may not use, copy or distribute this file. 
   VRHFIN =Pt: 5ps1d9                                                                               
   LEXCH  = PE                                                                                      
   EATOM  =  2428.2504 eV,  178.4714 Ry                                                             
                                                                                                    
   TITEL  = PAW_PBE Pt_pv 12Dec2005                                                                 
   LULTRA =        F    use ultrasoft PP ?                                                          
   IUNSCR =        1    unscreen: 0-lin 1-nonlin 2-no                                               
   RPACOR =    2.000    partial core radius                                                         
   POMASS =  195.080; ZVAL   =   16.000    mass and valenz                                          
   RCORE  =    2.200    outmost cutoff radius                                                       
   RWIGS  =    2.200; RWIGS  =    1.164    wigner-seitz radius (au A)                               
   ENMAX  =  294.607; ENMIN  =  220.955 eV                                                          
   ICORE  =        3    local potential                                                             
   LCOR   =        T    correct aug charges                                                         
   LPAW   =        T    paw PP                                                                      
   EAUG   =  527.014                                                                                
   DEXC   =    0.000                                                                                
   RMAX   =    2.247    core radius for proj-oper                                                   
   RAUG   =    1.300    factor for augmentation sphere                                              
   RDEP   =    2.279    radius for radial grids                                                     
   RDEPT  =    1.878    core radius for aug-charge                                                  
                                                                                                    
   Atomic configuration                                                                             
   16 entries                                                                                       
     n  l   j            E        occ.                                                              
     1  0  0.50    -78401.1885   2.0000                                                             
     2  0  0.50    -13770.7750   2.0000                                                             
     2  1  1.50    -11931.0468   6.0000                                                             
     3  0  0.50     -3234.7234   2.0000                                                             
     3  1  1.50     -2699.2216   6.0000                                                             
     3  2  2.50     -2119.5714  10.0000                                                             
     4  0  0.50      -695.1528   2.0000                                                             
     4  1  1.50      -519.6034   6.0000                                                             
     4  2  2.50      -306.6786  10.0000                                                             
     4  3  3.50       -70.1041  14.0000                                                             
     5  0  0.50      -101.7747   2.0000                                                             
     5  1  1.50       -55.9873   6.0000                                                             
     6  1  1.50        -6.8029   0.0000                                                             
     5  2  2.50        -6.1423   9.0000                                                             
     6  0  0.50        -5.6573   1.0000                                                             
     5  3  2.50        -1.3606   0.0000                                                             
   Description                                                                                      
     l       E           TYP  RCUT    TYP  RCUT                                                     
     1    -55.9873477     23  2.000                                                                 
     1     27.2116520     23  2.000                                                                 
     2     -6.1423404     23  2.200                                                                 
     2     -4.6754623     23  2.200                                                                 
     0     -5.6573207     23  2.200                                                                 
     0     47.6203910     23  2.200                                                                 
     3      6.8029130     23  2.200                                                                 
  local pseudopotential read in
  partial core-charges read in
  partial kinetic energy density read in
  atomic valenz-charges read in
  non local Contribution for L=           1  read in
    real space projection operators read in
  non local Contribution for L=           1  read in
    real space projection operators read in
  non local Contribution for L=           2  read in
    real space projection operators read in
  non local Contribution for L=           2  read in
    real space projection operators read in
  non local Contribution for L=           0  read in
    real space projection operators read in
  non local Contribution for L=           0  read in
    real space projection operators read in
    PAW grid and wavefunctions read in
 
   number of l-projection  operators is LMAX  =           6
   number of lm-projection operators is LMMAX =          18
 
  PAW_PBE Pt_pv 12Dec2005               :
 energy of atom  1       EATOM=-2428.2504
 kinetic energy error for atom=    0.0554 (will be added to EATOM!!)
 
 
 POSCAR: Pt
  positions in cartesian coordinates
  No initial velocities read in
 exchange correlation table for  LEXCH =        8
   RHO(1)=    0.500       N(1)  =     2000
   RHO(2)=  100.500       N(2)  =     4000
 


--------------------------------------------------------------------------------------------------------


 ion  position               nearest neighbor table
   1  0.000  0.000  0.000-
 
  LATTYP: Found a face centered cubic cell.
 ALAT       =     4.1160051492
  
  Lattice vectors:
  
 A1 = (   0.0000000000,   2.0580025746,   2.0580025746)
 A2 = (   2.0580025746,   0.0000000000,   2.0580025746)
 A3 = (   2.0580025746,   2.0580025746,   0.0000000000)


Analysis of symmetry for initial positions (statically):
=====================================================================
 Subroutine PRICEL returns:
 Original cell was already a primitive cell.
 

 Routine SETGRP: Setting up the symmetry group for a 
 face centered cubic supercell.


 Subroutine GETGRP returns: Found 48 space group operations
 (whereof 48 operations were pure point group operations)
 out of a pool of 48 trial point group operations.


The static configuration has the point symmetry O_h .


Analysis of symmetry for dynamics (positions and initial velocities):
=====================================================================
 Subroutine PRICEL returns:
 Original cell was already a primitive cell.
 

 Routine SETGRP: Setting up the symmetry group for a 
 face centered cubic supercell.


 Subroutine GETGRP returns: Found 48 space group operations
 (whereof 48 operations were pure point group operations)
 out of a pool of 48 trial point group operations.


The dynamic configuration has the point symmetry O_h .


 Subroutine INISYM returns: Found 48 space group operations
 (whereof 48 operations are pure point group operations),
 and found     1 'primitive' translations


----------------------------------------------------------------------------------------

                                     Primitive cell                                     

  volume of cell :      17.4328

  direct lattice vectors                    reciprocal lattice vectors
     0.000000000  2.058002575  2.058002575    -0.242954021  0.242954021  0.242954021
     2.058002575  0.000000000  2.058002575     0.242954021 -0.242954021  0.242954021
     2.058002575  2.058002575  0.000000000     0.242954021  0.242954021 -0.242954021

  length of vectors
     2.910455152  2.910455152  2.910455152     0.420808708  0.420808708  0.420808708

  position of ions in fractional coordinates (direct lattice)
     0.000000000  0.000000000  0.000000000

  ion indices of the primitive-cell ions
   primitive index   ion index
                 1           1

----------------------------------------------------------------------------------------

 
 
 KPOINTS: Automatic mesh                          

Automatic generation of k-mesh.
 Grid dimensions read from file:
 generate k-points for:   10   10   10

 Generating k-lattice:

  Cartesian coordinates                     Fractional coordinates (reciprocal lattice)
    -0.024295402  0.024295402  0.024295402     0.100000000  0.000000000  0.000000000
     0.024295402 -0.024295402  0.024295402     0.000000000  0.100000000  0.000000000
     0.024295402  0.024295402 -0.024295402     0.000000000  0.000000000  0.100000000

  Length of vectors
     0.042080871  0.042080871  0.042080871

  Shift w.r.t. Gamma in fractional coordinates (k-lattice)
     0.500000000  0.500000000  0.500000000

 
 Subroutine IBZKPT returns following result:
 ===========================================
 
 Found    110 irreducible k-points:
 
 Following reciprocal coordinates:
            Coordinates               Weight
  0.050000  0.050000  0.050000      8.000000
  0.150000  0.050000  0.050000     24.000000
  0.250000  0.050000  0.050000     24.000000
  0.350000  0.050000  0.050000     24.000000
  0.450000  0.050000  0.050000     24.000000
 -0.450000  0.050000  0.050000     24.000000
 -0.350000  0.050000  0.050000     24.000000
 -0.250000  0.050000  0.050000     24.000000
 -0.150000  0.050000  0.050000     24.000000
 -0.050000  0.050000  0.050000     24.000000
  0.150000  0.150000  0.050000     24.000000
  0.250000  0.150000  0.050000     48.000000
  0.350000  0.150000  0.050000     48.000000
  0.450000  0.150000  0.050000     48.000000
 -0.450000  0.150000  0.050000     48.000000
 -0.350000  0.150000  0.050000     48.000000
 -0.250000  0.150000  0.050000     48.000000
 -0.150000  0.150000  0.050000     48.000000
 -0.050000  0.150000  0.050000     48.000000
  0.250000  0.250000  0.050000     24.000000
  0.350000  0.250000  0.050000     48.000000
  0.450000  0.250000  0.050000     48.000000
 -0.450000  0.250000  0.050000     48.000000
 -0.350000  0.250000  0.050000     48.000000
 -0.250000  0.250000  0.050000     48.000000
 -0.150000  0.250000  0.050000     48.000000
 -0.050000  0.250000  0.050000     48.000000
  0.350000  0.350000  0.050000     24.000000
  0.450000  0.350000  0.050000     48.000000
 -0.450000  0.350000  0.050000     48.000000
 -0.350000  0.350000  0.050000     48.000000
 -0.250000  0.350000  0.050000     48.000000
 -0.150000  0.350000  0.050000     48.000000
 -0.050000  0.350000  0.050000     48.000000
  0.450000  0.450000  0.050000     24.000000
 -0.450000  0.450000  0.050000     48.000000
 -0.350000  0.450000  0.050000     48.000000
 -0.250000  0.450000  0.050000     48.000000
 -0.150000  0.450000  0.050000     48.000000
 -0.050000  0.450000  0.050000     48.000000
 -0.450000 -0.450000  0.050000     24.000000
 -0.350000 -0.450000  0.050000     48.000000
 -0.250000 -0.450000  0.050000     48.000000
 -0.150000 -0.450000  0.050000     48.000000
 -0.350000 -0.350000  0.050000     24.000000
 -0.250000 -0.350000  0.050000     48.000000
 -0.150000 -0.350000  0.050000     48.000000
 -0.250000 -0.250000  0.050000     24.000000
 -0.150000 -0.250000  0.050000     48.000000
 -0.150000 -0.150000  0.050000     24.000000
  0.150000  0.150000  0.150000      8.000000
  0.250000  0.150000  0.150000     24.000000
  0.350000  0.150000  0.150000     24.000000
  0.450000  0.150000  0.150000     24.000000
 -0.450000  0.150000  0.150000     24.000000
 -0.350000  0.150000  0.150000     24.000000
 -0.250000  0.150000  0.150000     24.000000
 -0.150000  0.150000  0.150000     24.000000
  0.250000  0.250000  0.150000     24.000000
  0.350000  0.250000  0.150000     48.000000
  0.450000  0.250000  0.150000     48.000000
 -0.450000  0.250000  0.150000     48.000000
 -0.350000  0.250000  0.150000     48.000000
 -0.250000  0.250000  0.150000     48.000000
 -0.150000  0.250000  0.150000     48.000000
  0.350000  0.350000  0.150000     24.000000
  0.450000  0.350000  0.150000     48.000000
 -0.450000  0.350000  0.150000     48.000000
 -0.350000  0.350000  0.150000     48.000000
 -0.250000  0.350000  0.150000     48.000000
 -0.150000  0.350000  0.150000     48.000000
  0.450000  0.450000  0.150000     24.000000
 -0.450000  0.450000  0.150000     48.000000
 -0.350000  0.450000  0.150000     48.000000
 -0.250000  0.450000  0.150000     48.000000
 -0.150000  0.450000  0.150000     48.000000
 -0.450000 -0.450000  0.150000     24.000000
 -0.350000 -0.450000  0.150000     48.000000
 -0.250000 -0.450000  0.150000     48.000000
 -0.350000 -0.350000  0.150000     24.000000
 -0.250000 -0.350000  0.150000     48.000000
 -0.250000 -0.250000  0.150000     24.000000
  0.250000  0.250000  0.250000      8.000000
  0.350000  0.250000  0.250000     24.000000
  0.450000  0.250000  0.250000     24.000000
 -0.450000  0.250000  0.250000     24.000000
 -0.350000  0.250000  0.250000     24.000000
 -0.250000  0.250000  0.250000     24.000000
  0.350000  0.350000  0.250000     24.000000
  0.450000  0.350000  0.250000     48.000000
 -0.450000  0.350000  0.250000     48.000000
 -0.350000  0.350000  0.250000     48.000000
 -0.250000  0.350000  0.250000     48.000000
  0.450000  0.450000  0.250000     24.000000
 -0.450000  0.450000  0.250000     48.000000
 -0.350000  0.450000  0.250000     48.000000
 -0.250000  0.450000  0.250000     48.000000
 -0.450000 -0.450000  0.250000     24.000000
 -0.350000 -0.450000  0.250000     48.000000
 -0.350000 -0.350000  0.250000     24.000000
  0.350000  0.350000  0.350000      8.000000
  0.450000  0.350000  0.350000     24.000000
 -0.450000  0.350000  0.350000     24.000000
 -0.350000  0.350000  0.350000     24.000000
  0.450000  0.450000  0.350000     24.000000
 -0.450000  0.450000  0.350000     48.000000
 -0.350000  0.450000  0.350000     48.000000
 -0.450000 -0.450000  0.350000     24.000000
  0.450000  0.450000  0.450000      8.000000
 -0.450000  0.450000  0.450000     24.000000
 
 Following cartesian coordinates:
            Coordinates               Weight
  0.012148  0.012148  0.012148      8.000000
 -0.012148  0.036443  0.036443     24.000000
 -0.036443  0.060739  0.060739     24.000000
 -0.060739  0.085034  0.085034     24.000000
 -0.085034  0.109329  0.109329     24.000000
  0.133625 -0.109329 -0.109329     24.000000
  0.109329 -0.085034 -0.085034     24.000000
  0.085034 -0.060739 -0.060739     24.000000
  0.060739 -0.036443 -0.036443     24.000000
  0.036443 -0.012148 -0.012148     24.000000
  0.012148  0.012148  0.060739     24.000000
 -0.012148  0.036443  0.085034     48.000000
 -0.036443  0.060739  0.109329     48.000000
 -0.060739  0.085034  0.133625     48.000000
  0.157920 -0.133625 -0.085034     48.000000
  0.133625 -0.109329 -0.060739     48.000000
  0.109329 -0.085034 -0.036443     48.000000
  0.085034 -0.060739 -0.012148     48.000000
  0.060739 -0.036443  0.012148     48.000000
  0.012148  0.012148  0.109329     24.000000
 -0.012148  0.036443  0.133625     48.000000
 -0.036443  0.060739  0.157920     48.000000
  0.182216 -0.157920 -0.060739     48.000000
  0.157920 -0.133625 -0.036443     48.000000
  0.133625 -0.109329 -0.012148     48.000000
  0.109329 -0.085034  0.012148     48.000000
  0.085034 -0.060739  0.036443     48.000000
  0.012148  0.012148  0.157920     24.000000
 -0.012148  0.036443  0.182216     48.000000
  0.206511 -0.182216 -0.036443     48.000000
  0.182216 -0.157920 -0.012148     48.000000
  0.157920 -0.133625  0.012148     48.000000
  0.133625 -0.109329  0.036443     48.000000
  0.109329 -0.085034  0.060739     48.000000
  0.012148  0.012148  0.206511     24.000000
  0.230806 -0.206511 -0.012148     48.000000
  0.206511 -0.182216  0.012148     48.000000
  0.182216 -0.157920  0.036443     48.000000
  0.157920 -0.133625  0.060739     48.000000
  0.133625 -0.109329  0.085034     48.000000
  0.012148  0.012148 -0.230806     24.000000
 -0.012148  0.036443 -0.206511     48.000000
 -0.036443  0.060739 -0.182216     48.000000
 -0.060739  0.085034 -0.157920     48.000000
  0.012148  0.012148 -0.182216     24.000000
 -0.012148  0.036443 -0.157920     48.000000
 -0.036443  0.060739 -0.133625     48.000000
  0.012148  0.012148 -0.133625     24.000000
 -0.012148  0.036443 -0.109329     48.000000
  0.012148  0.012148 -0.085034     24.000000
  0.036443  0.036443  0.036443      8.000000
  0.012148  0.060739  0.060739     24.000000
 -0.012148  0.085034  0.085034     24.000000
 -0.036443  0.109329  0.109329     24.000000
  0.182216 -0.109329 -0.109329     24.000000
  0.157920 -0.085034 -0.085034     24.000000
  0.133625 -0.060739 -0.060739     24.000000
  0.109329 -0.036443 -0.036443     24.000000
  0.036443  0.036443  0.085034     24.000000
  0.012148  0.060739  0.109329     48.000000
 -0.012148  0.085034  0.133625     48.000000
  0.206511 -0.133625 -0.085034     48.000000
  0.182216 -0.109329 -0.060739     48.000000
  0.157920 -0.085034 -0.036443     48.000000
  0.133625 -0.060739 -0.012148     48.000000
  0.036443  0.036443  0.133625     24.000000
  0.012148  0.060739  0.157920     48.000000
  0.230806 -0.157920 -0.060739     48.000000
  0.206511 -0.133625 -0.036443     48.000000
  0.182216 -0.109329 -0.012148     48.000000
  0.157920 -0.085034  0.012148     48.000000
  0.036443  0.036443  0.182216     24.000000
  0.255102 -0.182216 -0.036443     48.000000
  0.230806 -0.157920 -0.012148     48.000000
  0.206511 -0.133625  0.012148     48.000000
  0.182216 -0.109329  0.036443     48.000000
  0.036443  0.036443 -0.255102     24.000000
  0.012148  0.060739 -0.230806     48.000000
 -0.012148  0.085034 -0.206511     48.000000
  0.036443  0.036443 -0.206511     24.000000
  0.012148  0.060739 -0.182216     48.000000
  0.036443  0.036443 -0.157920     24.000000
  0.060739  0.060739  0.060739      8.000000
  0.036443  0.085034  0.085034     24.000000
  0.012148  0.109329  0.109329     24.000000
  0.230806 -0.109329 -0.109329     24.000000
  0.206511 -0.085034 -0.085034     24.000000
  0.182216 -0.060739 -0.060739     24.000000
  0.060739  0.060739  0.109329     24.000000
  0.036443  0.085034  0.133625     48.000000
  0.255102 -0.133625 -0.085034     48.000000
  0.230806 -0.109329 -0.060739     48.000000
  0.206511 -0.085034 -0.036443     48.000000
  0.060739  0.060739  0.157920     24.000000
  0.279397 -0.157920 -0.060739     48.000000
  0.255102 -0.133625 -0.036443     48.000000
  0.230806 -0.109329 -0.012148     48.000000
  0.060739  0.060739 -0.279397     24.000000
  0.036443  0.085034 -0.255102     48.000000
  0.060739  0.060739 -0.230806     24.000000
  0.085034  0.085034  0.085034      8.000000
  0.060739  0.109329  0.109329     24.000000
  0.279397 -0.109329 -0.109329     24.000000
  0.255102 -0.085034 -0.085034     24.000000
  0.085034  0.085034  0.133625     24.000000
  0.303693 -0.133625 -0.085034     48.000000
  0.279397 -0.109329 -0.060739     48.000000
  0.085034  0.085034 -0.303693     24.000000
  0.109329  0.109329  0.109329      8.000000
  0.327988 -0.109329 -0.109329     24.000000
 


--------------------------------------------------------------------------------------------------------




 Dimension of arrays:
   k-points           NKPTS =    110   k-points in BZ     NKDIM =    110   number of bands    NBANDS=     24
   number of dos      NEDOS =    301   number of ions     NIONS =      1
   non local maximal  LDIM  =      6   non local SUM 2l+1 LMDIM =     18
   total plane-waves  NPLWV =   8000
   max r-space proj   IRMAX =      1   max aug-charges    IRDMAX=  15822
   dimension x,y,z NGX =    20 NGY =   20 NGZ =   20
   dimension x,y,z NGXF=    40 NGYF=   40 NGZF=   40
   support grid    NGXF=    40 NGYF=   40 NGZF=   40
   ions per type =               1
   NGX,Y,Z   is equivalent  to a cutoff of  11.42, 11.42, 11.42 a.u.
   NGXF,Y,Z  is equivalent  to a cutoff of  22.85, 22.85, 22.85 a.u.

 SYSTEM =  Pt-fcc                                  
 POSCAR =  Pt                                      

 Startparameter for this run:
   NWRITE =      2    write-flag & timer
   PREC   = accura    normal or accurate (medium, high low for compatibility)
   ISTART =      0    job   : 0-new  1-cont  2-samecut
   ICHARG =      2    charge: 1-file 2-atom 10-const
   ISPIN  =      1    spin polarized calculation?
   LNONCOLLINEAR =      F non collinear calculations
   LSORBIT =      F    spin-orbit coupling
   INIWAV =      1    electr: 0-lowe 1-rand  2-diag
   LASPH  =      F    aspherical Exc in radial PAW
 Electronic Relaxation 1
   ENCUT  =  425.0 eV  31.24 Ry    5.59 a.u.   4.89  4.89  4.89*2*pi/ulx,y,z
   ENINI  =  425.0     initial cutoff
   ENAUG  =  527.0 eV  augmentation charge cutoff
   NELM   =    100;   NELMIN=  2; NELMDL= -5     # of ELM steps 
   EDIFF  = 0.1E-05   stopping-criterion for ELM
   LREAL  =      F    real-space projection
   NLSPLINE    = F    spline interpolate recip. space projectors
   LCOMPAT=      F    compatible to vasp.4.4
   GGA_COMPAT  = T    GGA compatible to vasp.4.4-vasp.4.6
   LMAXPAW     = -100 max onsite density
   LMAXMIX     =    2 max onsite mixed and CHGCAR
   VOSKOWN=      0    Vosko Wilk Nusair interpolation
   ROPT   =    0.00000
 Ionic relaxation
   EDIFFG = -.2E-01   stopping-criterion for IOM
   NSW    =    100    number of steps for IOM
   NBLOCK =      1;   KBLOCK =    100    inner block; outer block 
   IBRION =      2    ionic relax: 0-MD 1-quasi-New 2-CG
   NFREE  =      1    steps in history (QN), initial steepest desc. (CG)
   ISIF   =      2    stress and relaxation
   IWAVPR =     11    prediction:  0-non 1-charg 2-wave 3-comb
   ISYM   =      1    0-nonsym 1-usesym 2-fastsym
   LCORR  =      T    Harris-Foulkes like correction to forces

   POTIM  = 0.5000    time-step for ionic-motion
   TEIN   =    0.0    initial temperature
   TEBEG  =    0.0;   TEEND  =   0.0 temperature during run
   SMASS  =  -3.00    Nose mass-parameter (am)
   estimated Nose-frequenzy (Omega)   =  0.10E-29 period in steps = 0.13E+47 mass=  -0.194E-27a.u.
   SCALEE = 1.0000    scale energy and forces
   NPACO  =    256;   APACO  = 10.0  distance and # of slots for P.C.
   PSTRESS=    0.0 pullay stress

  Mass of Ions in am
   POMASS = 195.08
  Ionic Valenz
   ZVAL   =  16.00
  Atomic Wigner-Seitz radii
   RWIGS  =  -1.00
  virtual crystal weights 
   VCA    =   1.00
   NELECT =      16.0000    total number of electrons
   NUPDOWN=      -1.0000    fix difference up-down

 DOS related values:
   EMIN   =  10.00;   EMAX   =-10.00  energy-range for DOS
   EFERMI =   0.00
   ISMEAR =     0;   SIGMA  =   0.05  broadening in eV -4-tet -1-fermi 0-gaus

 Electronic relaxation 2 (details)
   IALGO  =     38    algorithm
   LDIAG  =      T    sub-space diagonalisation (order eigenvalues)
   LSUBROT=      F    optimize rotation matrix (better conditioning)
   TURBO    =      0    0=normal 1=particle mesh
   IRESTART =      0    0=no restart 2=restart with 2 vectors
   NREBOOT  =      0    no. of reboots
   NMIN     =      0    reboot dimension
   EREF     =   0.00    reference energy to select bands
   IMIX   =      4    mixing-type and parameters
     AMIX     =   0.40;   BMIX     =  1.00
     AMIX_MAG =   1.60;   BMIX_MAG =  1.00
     AMIN     =   0.10
     WC   =   100.;   INIMIX=   1;  MIXPRE=   1;  MAXMIX= -45

 Intra band minimization:
   WEIMIN = 0.0010     energy-eigenvalue tresh-hold
   EBREAK =  0.10E-07  absolut break condition
   DEPER  =   0.30     relativ break condition  

   TIME   =   0.40     timestep for ELM

  volume/ion in A,a.u.               =      17.43       117.64
  Fermi-wavevector in a.u.,A,eV,Ry     =   1.590959  3.006476 34.438382  2.531150
  Thomas-Fermi vector in A             =   2.689573
 
 Write flags
   LWAVE        =      T    write WAVECAR
   LDOWNSAMPLE  =      F    k-point downsampling of WAVECAR
   LCHARG       =      T    write CHGCAR
   LVTOT        =      F    write LOCPOT, total local potential
   LVHAR        =      F    write LOCPOT, Hartree potential only
   LELF         =      F    write electronic localiz. function (ELF)
   LORBIT       =     11    0 simple, 1 ext, 2 COOP (PROOUT), +10 PAW based schemes


 Dipole corrections
   LMONO  =      F    monopole corrections only (constant potential shift)
   LDIPOL =      F    correct potential (dipole corrections)
   IDIPOL =      0    1-x, 2-y, 3-z, 4-all directions 
   EPSILON=  1.0000000 bulk dielectric constant

 Exchange correlation treatment:
   GGA     =    --    GGA type
   LEXCH   =     8    internal setting for exchange type
   LIBXC   =     F    Libxc                    
   VOSKOWN =     0    Vosko Wilk Nusair interpolation
   LHFCALC =     F    Hartree Fock is set to
   LHFONE  =     F    Hartree Fock one center treatment
   AEXX    =    0.0000 exact exchange contribution

 Linear response parameters
   LEPSILON=     F    determine dielectric tensor
   LRPA    =     F    only Hartree local field effects (RPA)
   LNABLA  =     F    use nabla operator in PAW spheres
   LVEL    =     F    velocity operator in full k-point grid
   CSHIFT  =0.1000    complex shift for real part using Kramers Kronig
   OMEGAMAX=  -1.0    maximum frequency
   DEG_THRESHOLD= 0.2000000E-02 threshold for treating states as degnerate
   RTIME   =   -0.100 relaxation time in fs
  (WPLASMAI=    0.000 imaginary part of plasma frequency in eV, 0.658/RTIME)
   DFIELD  = 0.0000000 0.0000000 0.0000000 field for delta impulse in time
 
  Optional k-point grid parameters
   LKPOINTS_OPT  =     F    use optional k-point grid
   KPOINTS_OPT_MODE=     1    mode for optional k-point grid
 
 Orbital magnetization related:
   ORBITALMAG=     F  switch on orbital magnetization
   LCHIMAG   =     F  perturbation theory with respect to B field
   DQ        =  0.001000  dq finite difference perturbation B field
   LLRAUG    =     F  two centre corrections for induced B field



--------------------------------------------------------------------------------------------------------


 conjugate gradient relaxation of ions
 charge density and potential will be updated during run
 non-spin polarized calculation
 Variant of blocked Davidson
 Davidson routine will perform the subspace rotation
 perform sub-space diagonalisation
    after iterative eigenvector-optimisation
 modified Broyden-mixing scheme, WC =      100.0
 initial mixing is a Kerker type mixing with AMIX =  0.4000 and BMIX =      1.0000
 Hartree-type preconditioning will be used
 using additional bands           16
 reciprocal scheme for non local part
 use partial core corrections
 calculate Harris-corrections to forces 
   (improved forces if not selfconsistent)
 use gradient corrections 
 use of overlap-Matrix (Vanderbilt PP)
 Gauss-broadening in eV      SIGMA  =   0.05


--------------------------------------------------------------------------------------------------------


  energy-cutoff  :      425.00
  volume of cell :       17.43
      direct lattice vectors                 reciprocal lattice vectors
     0.000000000  2.058002575  2.058002575    -0.242954021  0.242954021  0.242954021
     2.058002575  0.000000000  2.058002575     0.242954021 -0.242954021  0.242954021
     2.058002575  2.058002575  0.000000000     0.242954021  0.242954021 -0.242954021

  length of vectors
     2.910455152  2.910455152  2.910455152     0.420808708  0.420808708  0.420808708


 
 k-points in units of 2pi/SCALE and weight: Automatic mesh                          
   0.01214770  0.01214770  0.01214770       0.002
  -0.01214770  0.03644310  0.03644310       0.006
  -0.03644310  0.06073851  0.06073851       0.006
  -0.06073851  0.08503391  0.08503391       0.006
  -0.08503391  0.10932931  0.10932931       0.006
   0.13362471 -0.10932931 -0.10932931       0.006
   0.10932931 -0.08503391 -0.08503391       0.006
   0.08503391 -0.06073851 -0.06073851       0.006
   0.06073851 -0.03644310 -0.03644310       0.006
   0.03644310 -0.01214770 -0.01214770       0.006
   0.01214770  0.01214770  0.06073851       0.006
  -0.01214770  0.03644310  0.08503391       0.012
  -0.03644310  0.06073851  0.10932931       0.012
  -0.06073851  0.08503391  0.13362471       0.012
   0.15792011 -0.13362471 -0.08503391       0.012
   0.13362471 -0.10932931 -0.06073851       0.012
   0.10932931 -0.08503391 -0.03644310       0.012
   0.08503391 -0.06073851 -0.01214770       0.012
   0.06073851 -0.03644310  0.01214770       0.012
   0.01214770  0.01214770  0.10932931       0.006
  -0.01214770  0.03644310  0.13362471       0.012
  -0.03644310  0.06073851  0.15792011       0.012
   0.18221552 -0.15792011 -0.06073851       0.012
   0.15792011 -0.13362471 -0.03644310       0.012
   0.13362471 -0.10932931 -0.01214770       0.012
   0.10932931 -0.08503391  0.01214770       0.012
   0.08503391 -0.06073851  0.03644310       0.012
   0.01214770  0.01214770  0.15792011       0.006
  -0.01214770  0.03644310  0.18221552       0.012
   0.20651092 -0.18221552 -0.03644310       0.012
   0.18221552 -0.15792011 -0.01214770       0.012
   0.15792011 -0.13362471  0.01214770       0.012
   0.13362471 -0.10932931  0.03644310       0.012
   0.10932931 -0.08503391  0.06073851       0.012
   0.01214770  0.01214770  0.20651092       0.006
   0.23080632 -0.20651092 -0.01214770       0.012
   0.20651092 -0.18221552  0.01214770       0.012
   0.18221552 -0.15792011  0.03644310       0.012
   0.15792011 -0.13362471  0.06073851       0.012
   0.13362471 -0.10932931  0.08503391       0.012
   0.01214770  0.01214770 -0.23080632       0.006
  -0.01214770  0.03644310 -0.20651092       0.012
  -0.03644310  0.06073851 -0.18221552       0.012
  -0.06073851  0.08503391 -0.15792011       0.012
   0.01214770  0.01214770 -0.18221552       0.006
  -0.01214770  0.03644310 -0.15792011       0.012
  -0.03644310  0.06073851 -0.13362471       0.012
   0.01214770  0.01214770 -0.13362471       0.006
  -0.01214770  0.03644310 -0.10932931       0.012
   0.01214770  0.01214770 -0.08503391       0.006
   0.03644310  0.03644310  0.03644310       0.002
   0.01214770  0.06073851  0.06073851       0.006
  -0.01214770  0.08503391  0.08503391       0.006
  -0.03644310  0.10932931  0.10932931       0.006
   0.18221552 -0.10932931 -0.10932931       0.006
   0.15792011 -0.08503391 -0.08503391       0.006
   0.13362471 -0.06073851 -0.06073851       0.006
   0.10932931 -0.03644310 -0.03644310       0.006
   0.03644310  0.03644310  0.08503391       0.006
   0.01214770  0.06073851  0.10932931       0.012
  -0.01214770  0.08503391  0.13362471       0.012
   0.20651092 -0.13362471 -0.08503391       0.012
   0.18221552 -0.10932931 -0.06073851       0.012
   0.15792011 -0.08503391 -0.03644310       0.012
   0.13362471 -0.06073851 -0.01214770       0.012
   0.03644310  0.03644310  0.13362471       0.006
   0.01214770  0.06073851  0.15792011       0.012
   0.23080632 -0.15792011 -0.06073851       0.012
   0.20651092 -0.13362471 -0.03644310       0.012
   0.18221552 -0.10932931 -0.01214770       0.012
   0.15792011 -0.08503391  0.01214770       0.012
   0.03644310  0.03644310  0.18221552       0.006
   0.25510172 -0.18221552 -0.03644310       0.012
   0.23080632 -0.15792011 -0.01214770       0.012
   0.20651092 -0.13362471  0.01214770       0.012
   0.18221552 -0.10932931  0.03644310       0.012
   0.03644310  0.03644310 -0.25510172       0.006
   0.01214770  0.06073851 -0.23080632       0.012
  -0.01214770  0.08503391 -0.20651092       0.012
   0.03644310  0.03644310 -0.20651092       0.006
   0.01214770  0.06073851 -0.18221552       0.012
   0.03644310  0.03644310 -0.15792011       0.006
   0.06073851  0.06073851  0.06073851       0.002
   0.03644310  0.08503391  0.08503391       0.006
   0.01214770  0.10932931  0.10932931       0.006
   0.23080632 -0.10932931 -0.10932931       0.006
   0.20651092 -0.08503391 -0.08503391       0.006
   0.18221552 -0.06073851 -0.06073851       0.006
   0.06073851  0.06073851  0.10932931       0.006
   0.03644310  0.08503391  0.13362471       0.012
   0.25510172 -0.13362471 -0.08503391       0.012
   0.23080632 -0.10932931 -0.06073851       0.012
   0.20651092 -0.08503391 -0.03644310       0.012
   0.06073851  0.06073851  0.15792011       0.006
   0.27939712 -0.15792011 -0.06073851       0.012
   0.25510172 -0.13362471 -0.03644310       0.012
   0.23080632 -0.10932931 -0.01214770       0.012
   0.06073851  0.06073851 -0.27939712       0.006
   0.03644310  0.08503391 -0.25510172       0.012
   0.06073851  0.06073851 -0.23080632       0.006
   0.08503391  0.08503391  0.08503391       0.002
   0.06073851  0.10932931  0.10932931       0.006
   0.27939712 -0.10932931 -0.10932931       0.006
   0.25510172 -0.08503391 -0.08503391       0.006
   0.08503391  0.08503391  0.13362471       0.006
   0.30369253 -0.13362471 -0.08503391       0.012
   0.27939712 -0.10932931 -0.06073851       0.012
   0.08503391  0.08503391 -0.30369253       0.006
   0.10932931  0.10932931  0.10932931       0.002
   0.32798793 -0.10932931 -0.10932931       0.006
 
 k-points in reciprocal lattice and weights: Automatic mesh                          
   0.05000000  0.05000000  0.05000000       0.002
   0.15000000  0.05000000  0.05000000       0.006
   0.25000000  0.05000000  0.05000000       0.006
   0.35000000  0.05000000  0.05000000       0.006
   0.45000000  0.05000000  0.05000000       0.006
  -0.45000000  0.05000000  0.05000000       0.006
  -0.35000000  0.05000000  0.05000000       0.006
  -0.25000000  0.05000000  0.05000000       0.006
  -0.15000000  0.05000000  0.05000000       0.006
  -0.05000000  0.05000000  0.05000000       0.006
   0.15000000  0.15000000  0.05000000       0.006
   0.25000000  0.15000000  0.05000000       0.012
   0.35000000  0.15000000  0.05000000       0.012
   0.45000000  0.15000000  0.05000000       0.012
  -0.45000000  0.15000000  0.05000000       0.012
  -0.35000000  0.15000000  0.05000000       0.012
  -0.25000000  0.15000000  0.05000000       0.012
  -0.15000000  0.15000000  0.05000000       0.012
  -0.05000000  0.15000000  0.05000000       0.012
   0.25000000  0.25000000  0.05000000       0.006
   0.35000000  0.25000000  0.05000000       0.012
   0.45000000  0.25000000  0.05000000       0.012
  -0.45000000  0.25000000  0.05000000       0.012
  -0.35000000  0.25000000  0.05000000       0.012
  -0.25000000  0.25000000  0.05000000       0.012
  -0.15000000  0.25000000  0.05000000       0.012
  -0.05000000  0.25000000  0.05000000       0.012
   0.35000000  0.35000000  0.05000000       0.006
   0.45000000  0.35000000  0.05000000       0.012
  -0.45000000  0.35000000  0.05000000       0.012
  -0.35000000  0.35000000  0.05000000       0.012
  -0.25000000  0.35000000  0.05000000       0.012
  -0.15000000  0.35000000  0.05000000       0.012
  -0.05000000  0.35000000  0.05000000       0.012
   0.45000000  0.45000000  0.05000000       0.006
  -0.45000000  0.45000000  0.05000000       0.012
  -0.35000000  0.45000000  0.05000000       0.012
  -0.25000000  0.45000000  0.05000000       0.012
  -0.15000000  0.45000000  0.05000000       0.012
  -0.05000000  0.45000000  0.05000000       0.012
  -0.45000000 -0.45000000  0.05000000       0.006
  -0.35000000 -0.45000000  0.05000000       0.012
  -0.25000000 -0.45000000  0.05000000       0.012
  -0.15000000 -0.45000000  0.05000000       0.012
  -0.35000000 -0.35000000  0.05000000       0.006
  -0.25000000 -0.35000000  0.05000000       0.012
  -0.15000000 -0.35000000  0.05000000       0.012
  -0.25000000 -0.25000000  0.05000000       0.006
  -0.15000000 -0.25000000  0.05000000       0.012
  -0.15000000 -0.15000000  0.05000000       0.006
   0.15000000  0.15000000  0.15000000       0.002
   0.25000000  0.15000000  0.15000000       0.006
   0.35000000  0.15000000  0.15000000       0.006
   0.45000000  0.15000000  0.15000000       0.006
  -0.45000000  0.15000000  0.15000000       0.006
  -0.35000000  0.15000000  0.15000000       0.006
  -0.25000000  0.15000000  0.15000000       0.006
  -0.15000000  0.15000000  0.15000000       0.006
   0.25000000  0.25000000  0.15000000       0.006
   0.35000000  0.25000000  0.15000000       0.012
   0.45000000  0.25000000  0.15000000       0.012
  -0.45000000  0.25000000  0.15000000       0.012
  -0.35000000  0.25000000  0.15000000       0.012
  -0.25000000  0.25000000  0.15000000       0.012
  -0.15000000  0.25000000  0.15000000       0.012
   0.35000000  0.35000000  0.15000000       0.006
   0.45000000  0.35000000  0.15000000       0.012
  -0.45000000  0.35000000  0.15000000       0.012
  -0.35000000  0.35000000  0.15000000       0.012
  -0.25000000  0.35000000  0.15000000       0.012
  -0.15000000  0.35000000  0.15000000       0.012
   0.45000000  0.45000000  0.15000000       0.006
  -0.45000000  0.45000000  0.15000000       0.012
  -0.35000000  0.45000000  0.15000000       0.012
  -0.25000000  0.45000000  0.15000000       0.012
  -0.15000000  0.45000000  0.15000000       0.012
  -0.45000000 -0.45000000  0.15000000       0.006
  -0.35000000 -0.45000000  0.15000000       0.012
  -0.25000000 -0.45000000  0.15000000       0.012
  -0.35000000 -0.35000000  0.15000000       0.006
  -0.25000000 -0.35000000  0.15000000       0.012
  -0.25000000 -0.25000000  0.15000000       0.006
   0.25000000  0.25000000  0.25000000       0.002
   0.35000000  0.25000000  0.25000000       0.006
   0.45000000  0.25000000  0.25000000       0.006
  -0.45000000  0.25000000  0.25000000       0.006
  -0.35000000  0.25000000  0.25000000       0.006
  -0.25000000  0.25000000  0.25000000       0.006
   0.35000000  0.35000000  0.25000000       0.006
   0.45000000  0.35000000  0.25000000       0.012
  -0.45000000  0.35000000  0.25000000       0.012
  -0.35000000  0.35000000  0.25000000       0.012
  -0.25000000  0.35000000  0.25000000       0.012
   0.45000000  0.45000000  0.25000000       0.006
  -0.45000000  0.45000000  0.25000000       0.012
  -0.35000000  0.45000000  0.25000000       0.012
  -0.25000000  0.45000000  0.25000000       0.012
  -0.45000000 -0.45000000  0.25000000       0.006
  -0.35000000 -0.45000000  0.25000000       0.012
  -0.35000000 -0.35000000  0.25000000       0.006
   0.35000000  0.35000000  0.35000000       0.002
   0.45000000  0.35000000  0.35000000       0.006
  -0.45000000  0.35000000  0.35000000       0.006
  -0.35000000  0.35000000  0.35000000       0.006
   0.45000000  0.45000000  0.35000000       0.006
  -0.45000000  0.45000000  0.35000000       0.012
  -0.35000000  0.45000000  0.35000000       0.012
  -0.45000000 -0.45000000  0.35000000       0.006
   0.45000000  0.45000000  0.45000000       0.002
  -0.45000000  0.45000000  0.45000000       0.006
 
 position of ions in fractional coordinates (direct lattice) 
   0.00000000  0.00000000  0.00000000
 
 position of ions in cartesian coordinates  (Angst):
   0.00000000  0.00000000  0.00000000
 


--------------------------------------------------------------------------------------------------------


 k-point   1 :   0.0500 0.0500 0.0500  plane waves:     335
 k-point   2 :   0.1500 0.0500 0.0500  plane waves:     335
 k-point   3 :   0.2500 0.0500 0.0500  plane waves:     344
 k-point   4 :   0.3500 0.0500 0.0500  plane waves:     348
 k-point   5 :   0.4500 0.0500 0.0500  plane waves:     350
 k-point   6 :  -0.4500 0.0500 0.0500  plane waves:     346
 k-point   7 :  -0.3500 0.0500 0.0500  plane waves:     349
 k-point   8 :  -0.2500 0.0500 0.0500  plane waves:     347
 k-point   9 :  -0.1500 0.0500 0.0500  plane waves:     342
 k-point  10 :  -0.0500 0.0500 0.0500  plane waves:     335
 k-point  11 :   0.1500 0.1500 0.0500  plane waves:     339
 k-point  12 :   0.2500 0.1500 0.0500  plane waves:     344
 k-point  13 :   0.3500 0.1500 0.0500  plane waves:     340
 k-point  14 :   0.4500 0.1500 0.0500  plane waves:     344
 k-point  15 :  -0.4500 0.1500 0.0500  plane waves:     353
 k-point  16 :  -0.3500 0.1500 0.0500  plane waves:     349
 k-point  17 :  -0.2500 0.1500 0.0500  plane waves:     346
 k-point  18 :  -0.1500 0.1500 0.0500  plane waves:     343
 k-point  19 :  -0.0500 0.1500 0.0500  plane waves:     340
 k-point  20 :   0.2500 0.2500 0.0500  plane waves:     346
 k-point  21 :   0.3500 0.2500 0.0500  plane waves:     342
 k-point  22 :   0.4500 0.2500 0.0500  plane waves:     345
 k-point  23 :  -0.4500 0.2500 0.0500  plane waves:     354
 k-point  24 :  -0.3500 0.2500 0.0500  plane waves:     351
 k-point  25 :  -0.2500 0.2500 0.0500  plane waves:     346
 k-point  26 :  -0.1500 0.2500 0.0500  plane waves:     342
 k-point  27 :  -0.0500 0.2500 0.0500  plane waves:     341
 k-point  28 :   0.3500 0.3500 0.0500  plane waves:     341
 k-point  29 :   0.4500 0.3500 0.0500  plane waves:     340
 k-point  30 :  -0.4500 0.3500 0.0500  plane waves:     349
 k-point  31 :  -0.3500 0.3500 0.0500  plane waves:     351
 k-point  32 :  -0.2500 0.3500 0.0500  plane waves:     349
 k-point  33 :  -0.1500 0.3500 0.0500  plane waves:     348
 k-point  34 :  -0.0500 0.3500 0.0500  plane waves:     348
 k-point  35 :   0.4500 0.4500 0.0500  plane waves:     343
 k-point  36 :  -0.4500 0.4500 0.0500  plane waves:     349
 k-point  37 :  -0.3500 0.4500 0.0500  plane waves:     351
 k-point  38 :  -0.2500 0.4500 0.0500  plane waves:     355
 k-point  39 :  -0.1500 0.4500 0.0500  plane waves:     351
 k-point  40 :  -0.0500 0.4500 0.0500  plane waves:     347
 k-point  41 :  -0.4500-0.4500 0.0500  plane waves:     342
 k-point  42 :  -0.3500-0.4500 0.0500  plane waves:     346
 k-point  43 :  -0.2500-0.4500 0.0500  plane waves:     345
 k-point  44 :  -0.1500-0.4500 0.0500  plane waves:     347
 k-point  45 :  -0.3500-0.3500 0.0500  plane waves:     341
 k-point  46 :  -0.2500-0.3500 0.0500  plane waves:     340
 k-point  47 :  -0.1500-0.3500 0.0500  plane waves:     342
 k-point  48 :  -0.2500-0.2500 0.0500  plane waves:     345
 k-point  49 :  -0.1500-0.2500 0.0500  plane waves:     342
 k-point  50 :  -0.1500-0.1500 0.0500  plane waves:     341
 k-point  51 :   0.1500 0.1500 0.1500  plane waves:     338
 k-point  52 :   0.2500 0.1500 0.1500  plane waves:     341
 k-point  53 :   0.3500 0.1500 0.1500  plane waves:     344
 k-point  54 :   0.4500 0.1500 0.1500  plane waves:     348
 k-point  55 :  -0.4500 0.1500 0.1500  plane waves:     349
 k-point  56 :  -0.3500 0.1500 0.1500  plane waves:     353
 k-point  57 :  -0.2500 0.1500 0.1500  plane waves:     343
 k-point  58 :  -0.1500 0.1500 0.1500  plane waves:     339
 k-point  59 :   0.2500 0.2500 0.1500  plane waves:     342
 k-point  60 :   0.3500 0.2500 0.1500  plane waves:     341
 k-point  61 :   0.4500 0.2500 0.1500  plane waves:     346
 k-point  62 :  -0.4500 0.2500 0.1500  plane waves:     350
 k-point  63 :  -0.3500 0.2500 0.1500  plane waves:     352
 k-point  64 :  -0.2500 0.2500 0.1500  plane waves:     347
 k-point  65 :  -0.1500 0.2500 0.1500  plane waves:     342
 k-point  66 :   0.3500 0.3500 0.1500  plane waves:     345
 k-point  67 :   0.4500 0.3500 0.1500  plane waves:     341
 k-point  68 :  -0.4500 0.3500 0.1500  plane waves:     345
 k-point  69 :  -0.3500 0.3500 0.1500  plane waves:     354
 k-point  70 :  -0.2500 0.3500 0.1500  plane waves:     348
 k-point  71 :  -0.1500 0.3500 0.1500  plane waves:     344
 k-point  72 :   0.4500 0.4500 0.1500  plane waves:     340
 k-point  73 :  -0.4500 0.4500 0.1500  plane waves:     347
 k-point  74 :  -0.3500 0.4500 0.1500  plane waves:     351
 k-point  75 :  -0.2500 0.4500 0.1500  plane waves:     353
 k-point  76 :  -0.1500 0.4500 0.1500  plane waves:     354
 k-point  77 :  -0.4500-0.4500 0.1500  plane waves:     353
 k-point  78 :  -0.3500-0.4500 0.1500  plane waves:     352
 k-point  79 :  -0.2500-0.4500 0.1500  plane waves:     349
 k-point  80 :  -0.3500-0.3500 0.1500  plane waves:     348
 k-point  81 :  -0.2500-0.3500 0.1500  plane waves:     345
 k-point  82 :  -0.2500-0.2500 0.1500  plane waves:     340
 k-point  83 :   0.2500 0.2500 0.2500  plane waves:     350
 k-point  84 :   0.3500 0.2500 0.2500  plane waves:     346
 k-point  85 :   0.4500 0.2500 0.2500  plane waves:     346
 k-point  86 :  -0.4500 0.2500 0.2500  plane waves:     347
 k-point  87 :  -0.3500 0.2500 0.2500  plane waves:     354
 k-point  88 :  -0.2500 0.2500 0.2500  plane waves:     348
 k-point  89 :   0.3500 0.3500 0.2500  plane waves:     344
 k-point  90 :   0.4500 0.3500 0.2500  plane waves:     347
 k-point  91 :  -0.4500 0.3500 0.2500  plane waves:     347
 k-point  92 :  -0.3500 0.3500 0.2500  plane waves:     354
 k-point  93 :  -0.2500 0.3500 0.2500  plane waves:     351
 k-point  94 :   0.4500 0.4500 0.2500  plane waves:     348
 k-point  95 :  -0.4500 0.4500 0.2500  plane waves:     347
 k-point  96 :  -0.3500 0.4500 0.2500  plane waves:     353
 k-point  97 :  -0.2500 0.4500 0.2500  plane waves:     352
 k-point  98 :  -0.4500-0.4500 0.2500  plane waves:     352
 k-point  99 :  -0.3500-0.4500 0.2500  plane waves:     350
 k-point 100 :  -0.3500-0.3500 0.2500  plane waves:     353
 k-point 101 :   0.3500 0.3500 0.3500  plane waves:     347
 k-point 102 :   0.4500 0.3500 0.3500  plane waves:     348
 k-point 103 :  -0.4500 0.3500 0.3500  plane waves:     350
 k-point 104 :  -0.3500 0.3500 0.3500  plane waves:     351
 k-point 105 :   0.4500 0.4500 0.3500  plane waves:     344
 k-point 106 :  -0.4500 0.4500 0.3500  plane waves:     350
 k-point 107 :  -0.3500 0.4500 0.3500  plane waves:     353
 k-point 108 :  -0.4500-0.4500 0.3500  plane waves:     351
 k-point 109 :   0.4500 0.4500 0.4500  plane waves:     347
 k-point 110 :  -0.4500 0.4500 0.4500  plane waves:     349

 maximum and minimum number of plane-waves per node :       355      335

 maximum number of plane-waves:       355
 maximum index in each direction: 
   IXMAX=    5   IYMAX=    5   IZMAX=    4
   IXMIN=   -5   IYMIN=   -5   IZMIN=   -5


 serial   3D FFT for wavefunctions
 parallel 3D FFT for charge:
    minimum data exchange during FFTs selected (reduces bandwidth)


 total amount of memory used by VASP MPI-rank0    37030. kBytes
=======================================================================

   base      :      30000. kBytes
   nonl-proj :       5708. kBytes
   fftplans  :        147. kBytes
   grid      :        485. kBytes
   one-center:         15. kBytes
   wavefun   :        675. kBytes
 
     INWAV:  cpu time      0.0000: real time      0.0001
 Broyden mixing: mesh for mixing (old mesh)
   NGX =  9   NGY =  9   NGZ =  9
  (NGX  = 40   NGY  = 40   NGZ  = 40)
  gives a total of    729 points

 initial charge density was supplied:
 charge density of overlapping atoms calculated
 number of electron      16.0000000 magnetization 
 keeping initial charge density in first step


--------------------------------------------------------------------------------------------------------


 Maximum index for augmentation-charges          736 (set IRDMAX)


--------------------------------------------------------------------------------------------------------


 First call to EWALD:  gamma=   0.684
 Maximum number of real-space cells 3x 3x 3
 Maximum number of reciprocal cells 3x 3x 3

    FEWALD:  cpu time      0.0015: real time      0.0015


--------------------------------------- Iteration      1(   1)  ---------------------------------------


    POTLOK:  cpu time      0.0033: real time      0.0035
    SETDIJ:  cpu time      0.0022: real time      0.0022
     EDDAV:  cpu time      0.4857: real time      0.4884
       DOS:  cpu time      0.0009: real time      0.0010
    --------------------------------------------
      LOOP:  cpu time      0.4922: real time      0.4951

 eigenvalue-minimisations  :  5688
 total energy-change (2. order) : 0.1982149E+02  (-0.1159666E+04)
 number of electron      16.0000000 magnetization 
 augmentation part       16.0000000 magnetization 

 Free energy of the ion-electron system (eV)
  ---------------------------------------------------
  alpha Z        PSCENC =       137.63223951
  Ewald energy   TEWEN  =     -2053.12981001
  -Hartree energ DENC   =      -441.74336673
  -exchange      EXHF   =         0.00000000
  -V(xc)+E(xc)   XCENC  =        63.20812426
  PAW double counting   =      2065.75261637    -2030.83594803
  entropy T*S    EENTRO =        -0.00199643
  eigenvalues    EBANDS =      -149.25537490
  atomic energy  EATOM  =      2428.19501064
  Solvation  Ediel_sol  =         0.00000000
  ---------------------------------------------------
  free energy    TOTEN  =        19.82149468 eV

  energy without entropy =       19.82349112  energy(sigma->0) =       19.82249290


--------------------------------------------------------------------------------------------------------




--------------------------------------- Iteration      1(   2)  ---------------------------------------


     EDDAV:  cpu time      0.6805: real time      0.6848
       DOS:  cpu time      0.0005: real time      0.0005
    --------------------------------------------
      LOOP:  cpu time      0.6811: real time      0.6854

 eigenvalue-minimisations  :  7056
 total energy-change (2. order) :-0.2610230E+02  (-0.2584099E+02)
 number of electron      16.0000000 magnetization 
 augmentation part       16.0000000 magnetization 

 Free energy of the ion-electron system (eV)
  ---------------------------------------------------
  alpha Z        PSCENC =       137.63223951
  Ewald energy   TEWEN  =     -2053.12981001
  -Hartree energ DENC   =      -441.74336673
  -exchange      EXHF   =         0.00000000
  -V(xc)+E(xc)   XCENC  =        63.20812426
  PAW double counting   =      2065.75261637    -2030.83594803
  entropy T*S    EENTRO =        -0.00240804
  eigenvalues    EBANDS =      -175.35726758
  atomic energy  EATOM  =      2428.19501064
  Solvation  Ediel_sol  =         0.00000000
  ---------------------------------------------------
  free energy    TOTEN  =        -6.28080961 eV

  energy without entropy =       -6.27840156  energy(sigma->0) =       -6.27960558


--------------------------------------------------------------------------------------------------------




--------------------------------------- Iteration      1(   3)  ---------------------------------------


     EDDAV:  cpu time      0.6311: real time      0.6346
       DOS:  cpu time      0.0005: real time      0.0005
    --------------------------------------------
      LOOP:  cpu time      0.6316: real time      0.6351

 eigenvalue-minimisations  :  6456
 total energy-change (2. order) :-0.4154694E-01  (-0.4154524E-01)
 number of electron      16.0000000 magnetization 
 augmentation part       16.0000000 magnetization 

 Free energy of the ion-electron system (eV)
  ---------------------------------------------------
  alpha Z        PSCENC =       137.63223951
  Ewald energy   TEWEN  =     -2053.12981001
  -Hartree energ DENC   =      -441.74336673
  -exchange      EXHF   =         0.00000000
  -V(xc)+E(xc)   XCENC  =        63.20812426
  PAW double counting   =      2065.75261637    -2030.83594803
  entropy T*S    EENTRO =        -0.00241552
  eigenvalues    EBANDS =      -175.39880705
  atomic energy  EATOM  =      2428.19501064
  Solvation  Ediel_sol  =         0.00000000
  ---------------------------------------------------
  free energy    TOTEN  =        -6.32235654 eV

  energy without entropy =       -6.31994103  energy(sigma->0) =       -6.32114879


--------------------------------------------------------------------------------------------------------




--------------------------------------- Iteration      1(   4)  ---------------------------------------


     EDDAV:  cpu time      1.0316: real time      1.0369
       DOS:  cpu time      0.0005: real time      0.0005
    --------------------------------------------
      LOOP:  cpu time      1.0321: real time      1.0374

 eigenvalue-minimisations  :  8832
 total energy-change (2. order) :-0.4802154E-04  (-0.4802128E-04)
 number of electron      16.0000000 magnetization 
 augmentation part       16.0000000 magnetization 

 Free energy of the ion-electron system (eV)
  ---------------------------------------------------
  alpha Z        PSCENC =       137.63223951
  Ewald energy   TEWEN  =     -2053.12981001
  -Hartree energ DENC   =      -441.74336673
  -exchange      EXHF   =         0.00000000
  -V(xc)+E(xc)   XCENC  =        63.20812426
  PAW double counting   =      2065.75261637    -2030.83594803
  entropy T*S    EENTRO =        -0.00241552
  eigenvalues    EBANDS =      -175.39885506
  atomic energy  EATOM  =      2428.19501064
  Solvation  Ediel_sol  =         0.00000000
  ---------------------------------------------------
  free energy    TOTEN  =        -6.32240456 eV

  energy without entropy =       -6.31998904  energy(sigma->0) =       -6.32119680


--------------------------------------------------------------------------------------------------------




--------------------------------------- Iteration      1(   5)  ---------------------------------------


     EDDAV:  cpu time      0.6242: real time      0.6278
       DOS:  cpu time      0.0005: real time      0.0005
    CHARGE:  cpu time      0.0185: real time      0.0186
    MIXING:  cpu time      0.0002: real time      0.0002
    --------------------------------------------
      LOOP:  cpu time      0.6434: real time      0.6470

 eigenvalue-minimisations  :  6408
 total energy-change (2. order) :-0.2184152E-08  (-0.1709410E-08)
 number of electron      15.9999997 magnetization 
 augmentation part        3.9696849 magnetization 

 Broyden mixing:
  rms(total) = 0.10904E+01    rms(broyden)= 0.10902E+01
  rms(prec ) = 0.17759E+01
  weight for this iteration     100.00

 Free energy of the ion-electron system (eV)
  ---------------------------------------------------
  alpha Z        PSCENC =       137.63223951
  Ewald energy   TEWEN  =     -2053.12981001
  -Hartree energ DENC   =      -441.74336673
  -exchange      EXHF   =         0.00000000
  -V(xc)+E(xc)   XCENC  =        63.20812426
  PAW double counting   =      2065.75261637    -2030.83594803
  entropy T*S    EENTRO =        -0.00241552
  eigenvalues    EBANDS =      -175.39885506
  atomic energy  EATOM  =      2428.19501064
  Solvation  Ediel_sol  =         0.00000000
  ---------------------------------------------------
  free energy    TOTEN  =        -6.32240457 eV

  energy without entropy =       -6.31998904  energy(sigma->0) =       -6.32119681


--------------------------------------------------------------------------------------------------------




--------------------------------------- Iteration      1(   6)  ---------------------------------------


    POTLOK:  cpu time      0.0025: real time      0.0027
    SETDIJ:  cpu time      0.0021: real time      0.0021
     EDDAV:  cpu time      0.5278: real time      0.5306
       DOS:  cpu time      0.0005: real time      0.0005
    CHARGE:  cpu time      0.0176: real time      0.0177
    MIXING:  cpu time      0.0002: real time      0.0002
    --------------------------------------------
      LOOP:  cpu time      0.5508: real time      0.5538

 eigenvalue-minimisations  :  5880
 total energy-change (2. order) : 0.3512920E+00  (-0.1544238E+00)
 number of electron      15.9999997 magnetization 
 augmentation part        4.0988146 magnetization 

 Broyden mixing:
  rms(total) = 0.26194E+00    rms(broyden)= 0.26192E+00
  rms(prec ) = 0.38411E+00
  weight for this iteration     100.00

 eigenvalues of (default mixing * dielectric matrix)
  average eigenvalue GAMMA=   1.2696
  1.2696

 Free energy of the ion-electron system (eV)
  ---------------------------------------------------
  alpha Z        PSCENC =       137.63223951
  Ewald energy   TEWEN  =     -2053.12981001
  -Hartree energ DENC   =      -425.07483178
  -exchange      EXHF   =         0.00000000
  -V(xc)+E(xc)   XCENC  =        62.50080601
  PAW double counting   =      2165.36533255    -2132.36291811
  entropy T*S    EENTRO =        -0.00305629
  eigenvalues    EBANDS =      -189.09388514
  atomic energy  EATOM  =      2428.19501064
  Solvation  Ediel_sol  =         0.00000000
  ---------------------------------------------------
  free energy    TOTEN  =        -5.97111262 eV

  energy without entropy =       -5.96805632  energy(sigma->0) =       -5.96958447


--------------------------------------------------------------------------------------------------------




--------------------------------------- Iteration      1(   7)  ---------------------------------------


    POTLOK:  cpu time      0.0023: real time      0.0025
    SETDIJ:  cpu time      0.0018: real time      0.0019
     EDDAV:  cpu time      0.8303: real time      0.8347
       DOS:  cpu time      0.0005: real time      0.0005
    CHARGE:  cpu time      0.0176: real time      0.0177
    MIXING:  cpu time      0.0004: real time      0.0004
    --------------------------------------------
      LOOP:  cpu time      0.8529: real time      0.8575

 eigenvalue-minimisations  :  7944
 total energy-change (2. order) : 0.1089192E-01  (-0.3856442E-02)
 number of electron      15.9999997 magnetization 
 augmentation part        4.1169927 magnetization 

 Broyden mixing:
  rms(total) = 0.10193E+00    rms(broyden)= 0.10193E+00
  rms(prec ) = 0.14953E+00
  weight for this iteration     100.00

 eigenvalues of (default mixing * dielectric matrix)
  average eigenvalue GAMMA=   1.8865
  1.1181  2.6549

 Free energy of the ion-electron system (eV)
  ---------------------------------------------------
  alpha Z        PSCENC =       137.63223951
  Ewald energy   TEWEN  =     -2053.12981001
  -Hartree energ DENC   =      -422.32073986
  -exchange      EXHF   =         0.00000000
  -V(xc)+E(xc)   XCENC  =        62.37322746
  PAW double counting   =      2184.83202035    -2152.08401043
  entropy T*S    EENTRO =        -0.00312822
  eigenvalues    EBANDS =      -191.45503015
  atomic energy  EATOM  =      2428.19501064
  Solvation  Ediel_sol  =         0.00000000
  ---------------------------------------------------
  free energy    TOTEN  =        -5.96022070 eV

  energy without entropy =       -5.95709248  energy(sigma->0) =       -5.95865659


--------------------------------------------------------------------------------------------------------




--------------------------------------- Iteration      1(   8)  ---------------------------------------


    POTLOK:  cpu time      0.0023: real time      0.0025
    SETDIJ:  cpu time      0.0019: real time      0.0019
     EDDAV:  cpu time      0.5606: real time      0.5638
       DOS:  cpu time      0.0005: real time      0.0005
    CHARGE:  cpu time      0.0174: real time      0.0175
    MIXING:  cpu time      0.0002: real time      0.0002
    --------------------------------------------
      LOOP:  cpu time      0.5830: real time      0.5864

 eigenvalue-minimisations  :  6168
 total energy-change (2. order) : 0.1145784E-02  (-0.3811713E-03)
 number of electron      15.9999997 magnetization 
 augmentation part        4.1147489 magnetization 

 Broyden mixing:
  rms(total) = 0.51949E-02    rms(broyden)= 0.51583E-02
  rms(prec ) = 0.89989E-02
  weight for this iteration     100.00

 eigenvalues of (default mixing * dielectric matrix)
  average eigenvalue GAMMA=   1.5593
  1.0829  1.1709  2.4241

 Free energy of the ion-electron system (eV)
  ---------------------------------------------------
  alpha Z        PSCENC =       137.63223951
  Ewald energy   TEWEN  =     -2053.12981001
  -Hartree energ DENC   =      -422.02886629
  -exchange      EXHF   =         0.00000000
  -V(xc)+E(xc)   XCENC  =        62.34686790
  PAW double counting   =      2195.17390195    -2162.34865659
  entropy T*S    EENTRO =        -0.00316114
  eigenvalues    EBANDS =      -191.79660088
  atomic energy  EATOM  =      2428.19501064
  Solvation  Ediel_sol  =         0.00000000
  ---------------------------------------------------
  free energy    TOTEN  =        -5.95907491 eV

  energy without entropy =       -5.95591377  energy(sigma->0) =       -5.95749434


--------------------------------------------------------------------------------------------------------




--------------------------------------- Iteration      1(   9)  ---------------------------------------


    POTLOK:  cpu time      0.0023: real time      0.0024
    SETDIJ:  cpu time      0.0018: real time      0.0018
     EDDAV:  cpu time      0.7909: real time      0.7951
       DOS:  cpu time      0.0005: real time      0.0005
    CHARGE:  cpu time      0.0175: real time      0.0175
    MIXING:  cpu time      0.0002: real time      0.0002
    --------------------------------------------
      LOOP:  cpu time      0.8132: real time      0.8176

 eigenvalue-minimisations  :  7464
 total energy-change (2. order) : 0.2256264E-04  (-0.2431487E-05)
 number of electron      15.9999997 magnetization 
 augmentation part        4.1148137 magnetization 

 Broyden mixing:
  rms(total) = 0.16153E-02    rms(broyden)= 0.16120E-02
  rms(prec ) = 0.32850E-02
  weight for this iteration     100.00

 eigenvalues of (default mixing * dielectric matrix)
  average eigenvalue GAMMA=   1.8193
  1.0202  1.1312  2.7792  2.3467

 Free energy of the ion-electron system (eV)
  ---------------------------------------------------
  alpha Z        PSCENC =       137.63223951
  Ewald energy   TEWEN  =     -2053.12981001
  -Hartree energ DENC   =      -422.07516085
  -exchange      EXHF   =         0.00000000
  -V(xc)+E(xc)   XCENC  =        62.34942699
  PAW double counting   =      2195.75405853    -2162.91158907
  entropy T*S    EENTRO =        -0.00315795
  eigenvalues    EBANDS =      -191.77007015
  atomic energy  EATOM  =      2428.19501064
  Solvation  Ediel_sol  =         0.00000000
  ---------------------------------------------------
  free energy    TOTEN  =        -5.95905235 eV

  energy without entropy =       -5.95589440  energy(sigma->0) =       -5.95747337


--------------------------------------------------------------------------------------------------------




--------------------------------------- Iteration      1(  10)  ---------------------------------------


    POTLOK:  cpu time      0.0022: real time      0.0024
    SETDIJ:  cpu time      0.0019: real time      0.0019
     EDDAV:  cpu time      0.7720: real time      0.7762
       DOS:  cpu time      0.0005: real time      0.0005
    CHARGE:  cpu time      0.0177: real time      0.0178
    MIXING:  cpu time      0.0004: real time      0.0004
    --------------------------------------------
      LOOP:  cpu time      0.7947: real time      0.7991

 eigenvalue-minimisations  :  7416
 total energy-change (2. order) :-0.7946289E-05  (-0.7435303E-06)
 number of electron      15.9999997 magnetization 
 augmentation part        4.1148692 magnetization 

 Broyden mixing:
  rms(total) = 0.52648E-03    rms(broyden)= 0.52596E-03
  rms(prec ) = 0.54243E-03
  weight for this iteration     100.00

 eigenvalues of (default mixing * dielectric matrix)
  average eigenvalue GAMMA=   1.7622
  2.6836  2.3625  0.9950  1.1339  1.6362

 Free energy of the ion-electron system (eV)
  ---------------------------------------------------
  alpha Z        PSCENC =       137.63223951
  Ewald energy   TEWEN  =     -2053.12981001
  -Hartree energ DENC   =      -422.10081296
  -exchange      EXHF   =         0.00000000
  -V(xc)+E(xc)   XCENC  =        62.35037223
  PAW double counting   =      2197.22502485    -2164.35466318
  entropy T*S    EENTRO =        -0.00315701
  eigenvalues    EBANDS =      -191.77326437
  atomic energy  EATOM  =      2428.19501064
  Solvation  Ediel_sol  =         0.00000000
  ---------------------------------------------------
  free energy    TOTEN  =        -5.95906030 eV

  energy without entropy =       -5.95590328  energy(sigma->0) =       -5.95748179


--------------------------------------------------------------------------------------------------------




--------------------------------------- Iteration      1(  11)  ---------------------------------------


    POTLOK:  cpu time      0.0024: real time      0.0026
    SETDIJ:  cpu time      0.0020: real time      0.0020
     EDDAV:  cpu time      0.3668: real time      0.3687
       DOS:  cpu time      0.0005: real time      0.0005
    --------------------------------------------
      LOOP:  cpu time      0.3717: real time      0.3738

 eigenvalue-minimisations  :  4104
 total energy-change (2. order) : 0.1021513E-06  (-0.8914063E-09)
 number of electron      15.9999997 magnetization 
 augmentation part        4.1148692 magnetization 

 Free energy of the ion-electron system (eV)
  ---------------------------------------------------
  alpha Z        PSCENC =       137.63223951
  Ewald energy   TEWEN  =     -2053.12981001
  -Hartree energ DENC   =      -422.09977852
  -exchange      EXHF   =         0.00000000
  -V(xc)+E(xc)   XCENC  =        62.35033495
  PAW double counting   =      2197.02266564    -2164.15344535
  entropy T*S    EENTRO =        -0.00315698
  eigenvalues    EBANDS =      -191.77312006
  atomic energy  EATOM  =      2428.19501064
  Solvation  Ediel_sol  =         0.00000000
  ---------------------------------------------------
  free energy    TOTEN  =        -5.95906019 eV

  energy without entropy =       -5.95590321  energy(sigma->0) =       -5.95748170


--------------------------------------------------------------------------------------------------------




 average (electrostatic) potential at core
  the test charge radii are     0.9952
  (the norm of the test charge is              1.0000)
       1 -90.9401
 
 
 
 E-fermi :   9.4127     XC(G=0): -13.0809     alpha+bet :-15.0479

 Fermi energy:         9.4126602909

 k-point     1 :       0.0500    0.0500    0.0500
  band No.  band energies     occupation 
      1     -42.7130      2.00000
      2     -42.7072      2.00000
      3     -42.7072      2.00000
      4       0.7684      2.00000
      5       6.3733      2.00000
      6       6.4408      2.00000
      7       6.4408      2.00000
      8       8.0974      2.00000
      9       8.0974      2.00000
     10      24.4047      0.00000
     11      27.9024      0.00000
     12      28.5695      0.00000
     13      28.5695      0.00000
     14      33.8382      0.00000
     15      37.1570      0.00000
     16      37.8268      0.00000
     17      37.8268      0.00000
     18      40.3142      0.00000
     19      40.3142      0.00000
     20      41.1559      0.00000
     21      47.2334      0.00000
     22      47.2334      0.00000
     23      50.5969      0.00000
     24      52.3953      0.00000

 k-point     2 :       0.1500    0.0500    0.0500
  band No.  band energies     occupation 
      1     -42.7445      2.00000
      2     -42.7168      2.00000
      3     -42.7101      2.00000
      4       1.2253      2.00000
      5       6.1949      2.00000
      6       6.5881      2.00000
      7       6.6195      2.00000
      8       7.9278      2.00000
      9       8.1468      2.00000
     10      24.9449      0.00000
     11      26.1885      0.00000
     12      28.4751      0.00000
     13      29.5293      0.00000
     14      33.5122      0.00000
     15      35.7649      0.00000
     16      36.8077      0.00000
     17      36.9881      0.00000
     18      38.9840      0.00000
     19      41.6784      0.00000
     20      43.6791      0.00000
     21      46.3882      0.00000
     22      48.3977      0.00000
     23      50.6059      0.00000
     24      54.5327      0.00000

 k-point     3 :       0.2500    0.0500    0.0500
  band No.  band energies     occupation 
      1     -42.8159      2.00000
      2     -42.7300      2.00000
      3     -42.7204      2.00000
      4       2.2237      2.00000
      5       6.0224      2.00000
      6       6.7449      2.00000
      7       6.7754      2.00000
      8       7.9238      2.00000
      9       8.3634      2.00000
     10      22.9846      0.00000
     11      25.6464      0.00000
     12      29.0448      0.00000
     13      30.9751      0.00000
     14      31.1733      0.00000
     15      33.6477      0.00000
     16      34.2080      0.00000
     17      39.5404      0.00000
     18      40.2907      0.00000
     19      42.5266      0.00000
     20      44.5773      0.00000
     21      47.2340      0.00000
     22      49.2221      0.00000
     23      50.6067      0.00000
     24      55.8605      0.00000

 k-point     4 :       0.3500    0.0500    0.0500
  band No.  band energies     occupation 
      1     -42.8971      2.00000
      2     -42.7432      2.00000
      3     -42.7333      2.00000
      4       3.1862      2.00000
      5       6.4824      2.00000
      6       6.6386      2.00000
      7       6.6532      2.00000
      8       8.4473      2.00000
      9       8.9565      2.00000
     10      19.3272      0.00000
     11      24.9798      0.00000
     12      28.2031      0.00000
     13      30.2867      0.00000
     14      32.0643      0.00000
     15      33.4793      0.00000
     16      34.3084      0.00000
     17      40.1305      0.00000
     18      41.9204      0.00000
     19      44.1890      0.00000
     20      46.1887      0.00000
     21      48.3160      0.00000
     22      50.0207      0.00000
     23      50.6051      0.00000
     24      54.6585      0.00000

 k-point     5 :       0.4500    0.0500    0.0500
  band No.  band energies     occupation 
      1     -42.9580      2.00000
      2     -42.7509      2.00000
      3     -42.7442      2.00000
      4       3.4924      2.00000
      5       6.3948      2.00000
      6       6.4731      2.00000
      7       8.0392      2.00000
      8       9.1056      2.00000
      9       9.7101      0.00000
     10      15.7769      0.00000
     11      24.1526      0.00000
     12      27.0912      0.00000
     13      28.0915      0.00000
     14      34.3468      0.00000
     15      35.0041      0.00000
     16      35.8405      0.00000
     17      41.0369      0.00000
     18      42.0781      0.00000
     19      43.6928      0.00000
     20      48.1539      0.00000
     21      50.6030      0.00000
     22      50.8036      0.00000
     23      51.0395      0.00000
     24      51.8663      0.00000

 k-point     6 :      -0.4500    0.0500    0.0500
  band No.  band energies     occupation 
      1     -42.9745      2.00000
      2     -42.7513      2.00000
      3     -42.7485      2.00000
      4       3.5139      2.00000
      5       6.3234      2.00000
      6       6.4307      2.00000
      7       8.6362      2.00000
      8       9.4250      0.72763
      9      10.2486      0.00000
     10      14.2703      0.00000
     11      23.9255      0.00000
     12      27.0669      0.00000
     13      27.1492      0.00000
     14      35.2035      0.00000
     15      35.3553      0.00000
     16      36.7155      0.00000
     17      41.3955      0.00000
     18      42.2849      0.00000
     19      42.8193      0.00000
     20      49.2677      0.00000
     21      49.9287      0.00000
     22      50.6016      0.00000
     23      50.9093      0.00000
     24      52.0196      0.00000

 k-point     7 :      -0.3500    0.0500    0.0500
  band No.  band energies     occupation 
      1     -42.9420      2.00000
      2     -42.7458      2.00000
      3     -42.7439      2.00000
      4       3.4465      2.00000
      5       6.4281      2.00000
      6       6.5488      2.00000
      7       7.4569      2.00000
      8       9.1945      2.00000
      9       9.1987      2.00000
     10      16.8764      0.00000
     11      24.3852      0.00000
     12      27.6064      0.00000
     13      28.3798      0.00000
     14      34.2288      0.00000
     15      34.3191      0.00000
     16      35.0645      0.00000
     17      40.1765      0.00000
     18      42.9690      0.00000
     19      43.7259      0.00000
     20      47.9604      0.00000
     21      49.4776      0.00000
     22      50.6054      0.00000
     23      50.8844      0.00000
     24      52.3631      0.00000

 k-point     8 :      -0.2500    0.0500    0.0500
  band No.  band energies     occupation 
      1     -42.8711      2.00000
      2     -42.7364      2.00000
      3     -42.7316      2.00000
      4       2.9265      2.00000
      5       6.2051      2.00000
      6       6.6572      2.00000
      7       6.7332      2.00000
      8       8.3311      2.00000
      9       8.6468      2.00000
     10      20.5788      0.00000
     11      25.3324      0.00000
     12      28.7965      0.00000
     13      30.3858      0.00000
     14      31.9450      0.00000
     15      33.2330      0.00000
     16      33.6525      0.00000
     17      39.5824      0.00000
     18      42.9260      0.00000
     19      42.9829      0.00000
     20      45.6053      0.00000
     21      47.1684      0.00000
     22      50.1581      0.00000
     23      50.6049      0.00000
     24      55.2787      0.00000

 k-point     9 :      -0.1500    0.0500    0.0500
  band No.  band energies     occupation 
      1     -42.7895      2.00000
      2     -42.7233      2.00000
      3     -42.7187      2.00000
      4       1.8538      2.00000
      5       6.0333      2.00000
      6       6.7383      2.00000
      7       6.7539      2.00000
      8       7.8772      2.00000
      9       8.2383      2.00000
     10      24.1019      0.00000
     11      25.6121      0.00000
     12      28.9883      0.00000
     13      30.1280      0.00000
     14      32.0023      0.00000
     15      34.0780      0.00000
     16      34.9938      0.00000
     17      38.8959      0.00000
     18      39.5922      0.00000
     19      42.7028      0.00000
     20      44.1397      0.00000
     21      46.4992      0.00000
     22      49.1446      0.00000
     23      50.6060      0.00000
     24      55.8393      0.00000

 k-point    10 :      -0.0500    0.0500    0.0500
  band No.  band energies     occupation 
      1     -42.7272      2.00000
      2     -42.7122      2.00000
      3     -42.7106      2.00000
      4       1.0006      2.00000
      5       6.2516      2.00000
      6       6.5406      2.00000
      7       6.5466      2.00000
      8       7.9559      2.00000
      9       8.1590      2.00000
     10      24.7098      0.00000
     11      27.1358      0.00000
     12      28.4886      0.00000
     13      28.7730      0.00000
     14      34.6336      0.00000
     15      36.1855      0.00000
     16      36.1911      0.00000
     17      37.7632      0.00000
     18      38.7073      0.00000
     19      42.1514      0.00000
     20      42.5481      0.00000
     21      46.2996      0.00000
     22      48.0959      0.00000
     23      50.6019      0.00000
     24      53.6436      0.00000

 k-point    11 :       0.1500    0.1500    0.0500
  band No.  band energies     occupation 
      1     -42.7520      2.00000
      2     -42.7216      2.00000
      3     -42.7199      2.00000
      4       1.4519      2.00000
      5       6.0114      2.00000
      6       6.7510      2.00000
      7       6.7558      2.00000
      8       7.7057      2.00000
      9       8.2777      2.00000
     10      25.2706      0.00000
     11      26.3887      0.00000
     12      28.1484      0.00000
     13      28.6027      0.00000
     14      33.8772      0.00000
     15      34.9512      0.00000
     16      35.8725      0.00000
     17      37.5007      0.00000
     18      38.5841      0.00000
     19      43.8085      0.00000
     20      44.1109      0.00000
     21      45.0235      0.00000
     22      48.6907      0.00000
     23      50.6040      0.00000
     24      55.6067      0.00000

 k-point    12 :       0.2500    0.1500    0.0500
  band No.  band energies     occupation 
      1     -42.8021      2.00000
      2     -42.7399      2.00000
      3     -42.7273      2.00000
      4       2.2775      2.00000
      5       5.7310      2.00000
      6       6.8525      2.00000
      7       7.0513      2.00000
      8       7.6244      2.00000
      9       8.5065      2.00000
     10      24.3611      0.00000
     11      25.8121      0.00000
     12      27.6518      0.00000
     13      28.8807      0.00000
     14      31.9208      0.00000
     15      34.1986      0.00000
     16      35.0700      0.00000
     17      38.2429      0.00000
     18      40.6098      0.00000
     19      43.4443      0.00000
     20      44.0837      0.00000
     21      46.8111      0.00000
     22      50.0038      0.00000
     23      50.6050      0.00000
     24      55.7755      0.00000

 k-point    13 :       0.3500    0.1500    0.0500
  band No.  band energies     occupation 
      1     -42.8724      2.00000
      2     -42.7563      2.00000
      3     -42.7394      2.00000
      4       3.3379      2.00000
      5       5.7563      2.00000
      6       6.5235      2.00000
      7       7.0641      2.00000
      8       8.3057      2.00000
      9       9.0928      2.00000
     10      20.7913      0.00000
     11      25.4147      0.00000
     12      26.7543      0.00000
     13      28.9611      0.00000
     14      32.4433      0.00000
     15      33.7501      0.00000
     16      35.5756      0.00000
     17      37.7277      0.00000
     18      43.2425      0.00000
     19      44.0344      0.00000
     20      45.3824      0.00000
     21      47.4003      0.00000
     22      50.6146      0.00000
     23      51.7454      0.00000
     24      53.8490      0.00000

[...]
     13      29.3554      0.00000
     14      33.9793      0.00000
     15      34.7229      0.00000
     16      38.5233      0.00000
     17      40.9063      0.00000
     18      43.1455      0.00000
     19      46.0072      0.00000
     20      47.3691      0.00000
     21      48.4702      0.00000
     22      50.6135      0.00000
     23      52.2665      0.00000
     24      52.7512      0.00000

 k-point   100 :      -0.3500   -0.3500    0.2500
  band No.  band energies     occupation 
      1     -42.9225      2.00000
      2     -42.8636      2.00000
      3     -42.7893      2.00000
      4       4.4373      2.00000
      5       5.0893      2.00000
      6       7.1566      2.00000
      7       8.3453      2.00000
      8       9.2881      1.99957
      9      14.5401      0.00000
     10      15.2776      0.00000
     11      18.6592      0.00000
     12      23.0696      0.00000
     13      27.9428      0.00000
     14      34.0255      0.00000
     15      35.7595      0.00000
     16      36.9742      0.00000
     17      43.1389      0.00000
     18      44.4305      0.00000
     19      44.7201      0.00000
     20      47.3291      0.00000
     21      47.6646      0.00000
     22      50.6094      0.00000
     23      51.3900      0.00000
     24      52.4935      0.00000

 k-point   101 :       0.3500    0.3500    0.3500
  band No.  band energies     occupation 
      1     -42.9218      2.00000
      2     -42.7391      2.00000
      3     -42.7391      2.00000
      4       3.2802      2.00000
      5       6.5451      2.00000
      6       6.5451      2.00000
      7       7.1131      2.00000
      8       8.8626      2.00000
      9       8.8626      2.00000
     10      18.0495      0.00000
     11      24.5876      0.00000
     12      28.8521      0.00000
     13      28.8521      0.00000
     14      33.5370      0.00000
     15      33.8020      0.00000
     16      33.8020      0.00000
     17      41.6972      0.00000
     18      41.6972      0.00000
     19      43.2283      0.00000
     20      48.2993      0.00000
     21      49.0996      0.00000
     22      49.0996      0.00000
     23      50.6077      0.00000
     24      54.5454      0.00000

 k-point   102 :       0.4500    0.3500    0.3500
  band No.  band energies     occupation 
      1     -42.9372      2.00000
      2     -42.7641      2.00000
      3     -42.7422      2.00000
      4       3.6650      2.00000
      5       6.3368      2.00000
      6       6.6627      2.00000
      7       7.1057      2.00000
      8       8.7384      2.00000
      9      10.0255      0.00000
     10      16.9897      0.00000
     11      24.4538      0.00000
     12      26.2024      0.00000
     13      28.8411      0.00000
     14      33.0119      0.00000
     15      35.0226      0.00000
     16      36.5450      0.00000
     17      39.8244      0.00000
     18      41.8208      0.00000
     19      45.2338      0.00000
     20      46.0449      0.00000
     21      50.6028      0.00000
     22      50.6546      0.00000
     23      51.0512      0.00000
     24      52.2329      0.00000

 k-point   103 :      -0.4500    0.3500    0.3500
  band No.  band energies     occupation 
      1     -42.9314      2.00000
      2     -42.8152      2.00000
      3     -42.7550      2.00000
      4       4.4298      2.00000
      5       5.9002      2.00000
      6       6.6197      2.00000
      7       7.1479      2.00000
      8       8.7097      2.00000
      9      11.6298      0.00000
     10      16.4603      0.00000
     11      22.0968      0.00000
     12      26.0340      0.00000
     13      27.3828      0.00000
     14      33.1893      0.00000
     15      35.4098      0.00000
     16      38.6162      0.00000
     17      40.9248      0.00000
     18      42.2940      0.00000
     19      43.8384      0.00000
     20      45.6399      0.00000
     21      49.0706      0.00000
     22      50.6102      0.00000
     23      52.2873      0.00000
     24      53.1148      0.00000

 k-point   104 :      -0.3500    0.3500    0.3500
  band No.  band energies     occupation 
      1     -42.9059      2.00000
      2     -42.8732      2.00000
      3     -42.7728      2.00000
      4       4.7818      2.00000
      5       5.6274      2.00000
      6       6.4192      2.00000
      7       7.8181      2.00000
      8       8.8690      2.00000
      9      13.0531      0.00000
     10      16.8267      0.00000
     11      18.8449      0.00000
     12      25.1659      0.00000
     13      27.0741      0.00000
     14      34.5885      0.00000
     15      35.4136      0.00000
     16      36.9001      0.00000
     17      42.8259      0.00000
     18      43.6593      0.00000
     19      44.3997      0.00000
     20      47.4841      0.00000
     21      47.7181      0.00000
     22      49.2119      0.00000
     23      50.6113      0.00000
     24      54.2284      0.00000

 k-point   105 :       0.4500    0.4500    0.3500
  band No.  band energies     occupation 
      1     -42.9530      2.00000
      2     -42.7578      2.00000
      3     -42.7529      2.00000
      4       3.6884      2.00000
      5       6.2382      2.00000
      6       6.6630      2.00000
      7       7.3683      2.00000
      8       9.4086      1.09165
      9      10.1695      0.00000
     10      15.8057      0.00000
     11      24.3846      0.00000
     12      26.6216      0.00000
     13      27.1603      0.00000
     14      34.6701      0.00000
     15      35.4782      0.00000
     16      36.3508      0.00000
     17      38.8645      0.00000
     18      43.8986      0.00000
     19      44.0877      0.00000
     20      46.8420      0.00000
     21      50.3226      0.00000
     22      50.6119      0.00000
     23      50.8534      0.00000
     24      51.9614      0.00000

 k-point   106 :      -0.4500    0.4500    0.3500
  band No.  band energies     occupation 
      1     -42.9492      2.00000
      2     -42.7950      2.00000
      3     -42.7605      2.00000
      4       4.1913      2.00000
      5       5.8903      2.00000
      6       6.8923      2.00000
      7       7.0836      2.00000
      8       9.2336      2.00000
      9      11.9007      0.00000
     10      15.0266      0.00000
     11      23.8494      0.00000
     12      24.4855      0.00000
     13      27.3253      0.00000
     14      34.1067      0.00000
     15      36.0848      0.00000
     16      38.3462      0.00000
     17      39.1987      0.00000
     18      42.8075      0.00000
     19      44.5190      0.00000
     20      46.0221      0.00000
     21      49.0345      0.00000
     22      50.6105      0.00000
     23      52.1537      0.00000
     24      53.3656      0.00000

 k-point   107 :      -0.3500    0.4500    0.3500
  band No.  band energies     occupation 
      1     -42.9262      2.00000
      2     -42.8448      2.00000
      3     -42.7775      2.00000
      4       4.8493      2.00000
      5       5.4802      2.00000
      6       6.4047      2.00000
      7       7.6407      2.00000
      8       9.1787      2.00000
      9      13.6343      0.00000
     10      15.0214      0.00000
     11      20.8100      0.00000
     12      23.5061      0.00000
     13      28.3034      0.00000
     14      33.6816      0.00000
     15      36.9802      0.00000
     16      37.6002      0.00000
     17      39.8666      0.00000
     18      42.3178      0.00000
     19      46.1930      0.00000
     20      47.3091      0.00000
     21      48.0956      0.00000
     22      50.6091      0.00000
     23      50.7008      0.00000
     24      53.1708      0.00000

 k-point   108 :      -0.4500   -0.4500    0.3500
  band No.  band energies     occupation 
      1     -42.9475      2.00000
      2     -42.8090      2.00000
      3     -42.7661      2.00000
      4       4.3264      2.00000
      5       5.7741      2.00000
      6       6.8672      2.00000
      7       7.1800      2.00000
      8       9.3466      1.93834
      9      13.0239      0.00000
     10      14.1201      0.00000
     11      22.7577      0.00000
     12      25.4839      0.00000
     13      26.1410      0.00000
     14      35.2848      0.00000
     15      35.4493      0.00000
     16      37.5799      0.00000
     17      40.2644      0.00000
     18      43.4077      0.00000
     19      44.2278      0.00000
     20      46.2810      0.00000
     21      48.5759      0.00000
     22      50.6103      0.00000
     23      51.4517      0.00000
     24      54.0925      0.00000

 k-point   109 :       0.4500    0.4500    0.4500
  band No.  band energies     occupation 
      1     -42.9709      2.00000
      2     -42.7461      2.00000
      3     -42.7461      2.00000
      4       3.4394      2.00000
      5       6.3942      2.00000
      6       6.3942      2.00000
      7       9.0102      2.00000
      8       9.3485      1.93050
      9       9.3485      1.93050
     10      14.8439      0.00000
     11      23.9064      0.00000
     12      27.4968      0.00000
     13      27.4968      0.00000
     14      35.0873      0.00000
     15      35.0873      0.00000
     16      36.0373      0.00000
     17      41.9111      0.00000
     18      41.9111      0.00000
     19      42.8910      0.00000
     20      50.1266      0.00000
     21      50.1266      0.00000
     22      50.5967      0.00000
     23      50.8410      0.00000
     24      51.8807      0.00000

 k-point   110 :      -0.4500    0.4500    0.4500
  band No.  band energies     occupation 
      1     -42.9687      2.00000
      2     -42.7658      2.00000
      3     -42.7511      2.00000
      4       3.7145      2.00000
      5       6.1920      2.00000
      6       6.5793      2.00000
      7       7.9803      2.00000
      8       9.3220      1.98963
      9      11.1600      0.00000
     10      14.2497      0.00000
     11      24.1160      0.00000
     12      26.0736      0.00000
     13      27.0628      0.00000
     14      35.0690      0.00000
     15      35.3080      0.00000
     16      37.4763      0.00000
     17      41.4222      0.00000
     18      42.1101      0.00000
     19      42.7764      0.00000
     20      48.1741      0.00000
     21      48.7620      0.00000
     22      50.6083      0.00000
     23      51.8670      0.00000
     24      52.6691      0.00000


--------------------------------------------------------------------------------------------------------


 soft charge-density along one line, spin component           1
         0         1         2         3         4         5         6         7         8         9
 total charge-density along one line
 
 pseudopotential strength for first ion, spin component:           1
-32.185  -0.000  -0.000  11.239   0.000   0.000   0.000   0.000
 -0.000 -32.185  -0.000   0.000  11.239   0.000   0.000  -0.000
 -0.000  -0.000 -32.185   0.000   0.000  11.239  -0.000  -0.000
 11.239   0.000   0.000  16.047  -0.000  -0.000  -0.000  -0.000
  0.000  11.239   0.000  -0.000  16.047  -0.000   0.000   0.000
  0.000   0.000  11.239  -0.000  -0.000  16.047   0.000  -0.000
  0.000   0.000  -0.000  -0.000   0.000   0.000  -4.051   0.000
  0.000  -0.000  -0.000  -0.000   0.000  -0.000   0.000  -4.051
  0.000   0.000   0.000  -0.000   0.000   0.000   0.000  -0.000
 -0.000   0.000   0.000  -0.000   0.000  -0.000   0.000   0.000
  0.000   0.000  -0.000  -0.000  -0.000   0.000   0.000   0.000
 -0.000   0.000  -0.000   0.000   0.000   0.000  -4.322   0.000
  0.000  -0.000   0.000  -0.000   0.000   0.000   0.000  -4.322
  0.000   0.000   0.000  -0.000   0.000  -0.000   0.000  -0.000
  0.000  -0.000   0.000   0.000   0.000  -0.000   0.000   0.000
  0.000   0.000   0.000  -0.000  -0.000  -0.000   0.000   0.000
  0.000  -0.000   0.000   0.000   0.000   0.000   0.000   0.000
  0.000   0.000   0.000  -0.000   0.000  -0.000  -0.000  -0.000
 total augmentation occupancy for first ion, spin component:           1
  2.002  -0.000   0.000  -0.019  -0.000   0.000   0.000   0.000   0.000   0.000   0.000   0.000   0.000   0.000   0.000   0.000
  0.000   2.002   0.000  -0.000  -0.019  -0.000   0.000   0.000   0.000   0.000   0.000   0.000   0.000   0.000   0.000   0.000
  0.000  -0.000   2.002   0.000  -0.000  -0.019   0.000   0.000   0.000   0.000   0.000   0.000   0.000   0.000   0.000   0.000
 -0.019   0.000  -0.000   0.038   0.000   0.000   0.000   0.000   0.000   0.000   0.000   0.000   0.000   0.000   0.000   0.000
 -0.000  -0.019  -0.000   0.000   0.038  -0.000   0.000   0.000   0.000   0.000   0.000   0.000   0.000   0.000   0.000   0.000
  0.000  -0.000  -0.019   0.000  -0.000   0.038   0.000   0.000   0.000   0.000   0.000   0.000   0.000   0.000   0.000   0.000
  0.000   0.000   0.000   0.000   0.000   0.000   3.990  -0.000   0.000   0.000   0.000  -1.950   0.000   0.000   0.000   0.000
  0.000   0.000   0.000   0.000   0.000   0.000   0.000   3.990  -0.000  -0.000  -0.000   0.000  -1.950  -0.000  -0.000  -0.000
  0.000   0.000   0.000   0.000   0.000   0.000   0.000   0.000   3.291   0.000   0.000   0.000  -0.000  -1.490  -0.000   0.000
  0.000   0.000   0.000   0.000   0.000   0.000  -0.000   0.000  -0.000   3.990  -0.000   0.000   0.000   0.000  -1.950  -0.000
  0.000   0.000   0.000   0.000   0.000   0.000  -0.000  -0.000   0.000  -0.000   3.291   0.000   0.000   0.000  -0.000  -1.490
  0.000   0.000   0.000   0.000   0.000   0.000  -1.950  -0.000  -0.000   0.000  -0.000   1.610   0.000   0.000  -0.000   0.000
  0.000   0.000   0.000   0.000   0.000   0.000   0.000  -1.950   0.000   0.000   0.000   0.000   1.610   0.000  -0.000  -0.000
  0.000   0.000   0.000   0.000   0.000   0.000   0.000   0.000  -1.490   0.000   0.000  -0.000  -0.000   1.515   0.000   0.000
  0.000   0.000   0.000   0.000   0.000   0.000   0.000   0.000   0.000  -1.950  -0.000  -0.000  -0.000   0.000   1.610  -0.000
  0.000   0.000   0.000   0.000   0.000   0.000   0.000  -0.000   0.000   0.000  -1.490   0.000   0.000   0.000  -0.000   1.515
  0.000   0.000   0.000   0.000   0.000   0.000  -0.000   0.000   0.000  -0.000   0.000   0.000   0.000   0.000  -0.000   0.000
  0.000   0.000   0.000   0.000   0.000   0.000   0.000  -0.000   0.000  -0.000   0.000   0.000   0.000   0.000   0.000   0.000


------------------------ aborting loop because EDIFF is reached ----------------------------------------





 total charge

# of ion       s       p       d       tot
------------------------------------------
    1        0.312   6.051   7.050  13.413
 
    CHARGE:  cpu time      0.0175: real time      0.0176
    FORLOC:  cpu time      0.0001: real time      0.0001
    FORNL :  cpu time      0.0067: real time      0.0067
    STRESS:  cpu time      0.1338: real time      0.1344
    FORCOR:  cpu time      0.0020: real time      0.0020
    FORHAR:  cpu time      0.0004: real time      0.0004
    MIXING:  cpu time      0.0002: real time      0.0002
    OFIELD:  cpu time      0.0000: real time      0.0000

  FORCE on cell =-STRESS in cart. coord.  units (eV):
  Direction    XX          YY          ZZ          XY          YZ          ZX
  --------------------------------------------------------------------------------------
  Alpha Z   137.63224   137.63224   137.63224
  Ewald    -684.37663  -684.37663  -684.37663    -0.00000    -0.00000     0.00000
  Hartree   140.69944   140.69944   140.69944     0.00000     0.00000     0.00000
  E(xc)     -85.05451   -85.05451   -85.05451     0.00000     0.00000     0.00000
  Local      99.87478    99.87478    99.87478    -0.00001    -0.00001    -0.00001
  n-local   -32.41954   -30.16349   -35.18637     3.14105    -2.92030     0.16549
  augment    73.34255    73.34255    73.34255     0.00002     0.00002     0.00002
  Kinetic   347.44505   351.92165   344.81557     4.03208    -3.25914    -0.47297
  Fock        0.00000     0.00000     0.00000     0.00000     0.00000     0.00000
  -------------------------------------------------------------------------------------
  Total      -2.41117    -2.41117    -2.41117     0.00000     0.00000     0.00000
  in kB    -221.60093  -221.60093  -221.60093     0.00000     0.00000     0.00000
  external pressure =     -221.60 kB  Pullay stress =        0.00 kB


 VOLUME and BASIS-vectors are now :
 -----------------------------------------------------------------------------
  energy-cutoff  :      425.00
  volume of cell :       17.43
      direct lattice vectors                 reciprocal lattice vectors
     0.000000000  2.058002575  2.058002575    -0.242954021  0.242954021  0.242954021
     2.058002575  0.000000000  2.058002575     0.242954021 -0.242954021  0.242954021
     2.058002575  2.058002575  0.000000000     0.242954021  0.242954021 -0.242954021

  length of vectors
     2.910455152  2.910455152  2.910455152     0.420808708  0.420808708  0.420808708


 FORCES acting on ions
    electron-ion (+dipol)            ewald-force                    non-local-force                 convergence-correction
 -----------------------------------------------------------------------------------------------
   -.703E-14 -.726E-14 0.608E-16   -.875E-15 0.213E-14 -.698E-15   -.517E-25 -.775E-25 -.517E-25   -.127E-13 -.728E-13 -.163E-13
 -----------------------------------------------------------------------------------------------
   -.703E-14 -.726E-14 0.608E-16   -.875E-15 0.213E-14 -.698E-15   -.517E-25 -.775E-25 -.517E-25   -.127E-13 -.728E-13 -.163E-13
 
 
 POSITION                                       TOTAL-FORCE (eV/Angst)
 -----------------------------------------------------------------------------------
      0.00000      0.00000      0.00000         0.000000      0.000000      0.000000
 -----------------------------------------------------------------------------------
    total drift:                               -0.000000     -0.000000     -0.000000


--------------------------------------------------------------------------------------------------------



  FREE ENERGIE OF THE ION-ELECTRON SYSTEM (eV)
  ---------------------------------------------------
  free  energy   TOTEN  =        -5.95906019 eV

  energy  without entropy=       -5.95590321  energy(sigma->0) =       -5.95748170
 


--------------------------------------------------------------------------------------------------------


    POTLOK:  cpu time      0.0044: real time      0.0044


--------------------------------------------------------------------------------------------------------




--------------------------------------------------------------------------------------------------------


  
 reached required accuracy - stopping structural energy minimisation
 writing wavefunctions
     LOOP+:  cpu time      7.7109: real time      7.8842
    4ORBIT:  cpu time      0.0000: real time      0.0000



 total charge

# of ion       s       p       d       tot
------------------------------------------
    1        0.312   6.051   7.050  13.413
 

 total amount of memory used by VASP MPI-rank0    37030. kBytes
=======================================================================

   base      :      30000. kBytes
   nonl-proj :       5708. kBytes
   fftplans  :        147. kBytes
   grid      :        485. kBytes
   one-center:         15. kBytes
   wavefun   :        675. kBytes
 
  
  
 General timing and accounting informations for this job:
 ========================================================
  
                  Total CPU time used (sec):        8.860
                            User time (sec):        8.368
                          System time (sec):        0.492
                         Elapsed time (sec):       10.480
  
                   Maximum memory used (kb):      223488.
                   Average memory used (kb):          N/A
  
                          Minor page faults:        26081
                          Major page faults:          107
                 Voluntary context switches:         2254
