PROCAR lm decomposed
# of k-points:  110         # of bands:   24         # of ions:    1

 k-point     1 :    0.05000000 0.05000000 0.05000000     weight = 0.00200000

band     1 # energy  -42.71295306 # occ.  2.00000000
 
ion      s     py     pz     px    dxy    dyz    dz2    dxz  x2-y2    tot
    1  0.000  0.332  0.332  0.332  0.000  0.000  0.000  0.000  0.000  0.995
 
band     2 # energy  -42.70722844 # occ.  2.00000000
 
ion      s     py     pz     px    dxy    dyz    dz2    dxz  x2-y2    tot
    1  0.000  0.509  0.046  0.440  0.000  0.000  0.000  0.000  0.000  0.995
 
band     3 # energy  -42.70722844 # occ.  2.00000000
 
ion      s     py     pz     px    dxy    dyz    dz2    dxz  x2-y2    tot
    1  0.000  0.154  0.617  0.224  0.000  0.000  0.000  0.000  0.000  0.995
 
band     4 # energy    0.76842009 # occ.  2.00000000
 
ion      s     py     pz     px    dxy    dyz    dz2    dxz  x2-y2    tot
    1  0.352  0.000  0.000  0.000  0.000  0.000  0.000  0.000  0.000  0.353
 
band     5 # energy    6.37329339 # occ.  2.00000000
 
ion      s     py     pz     px    dxy    dyz    dz2    dxz  x2-y2    tot
    1  0.000  0.000  0.000  0.000  0.277  0.277  0.000  0.277  0.000  0.830
 
band     6 # energy    6.44079701 # occ.  2.00000000
 
ion      s     py     pz     px    dxy    dyz    dz2    dxz  x2-y2    tot
    1  0.000  0.000  0.000  0.000  0.556  0.139  0.000  0.139  0.000  0.835
 
band     7 # energy    6.44079701 # occ.  2.00000000
 
ion      s     py     pz     px    dxy    dyz    dz2    dxz  x2-y2    tot
    1  0.000  0.000  0.000  0.000  0.000  0.417  0.000  0.417  0.000  0.835
 
band     8 # energy    8.09742434 # occ.  2.00000000
 
ion      s     py     pz     px    dxy    dyz    dz2    dxz  x2-y2    tot
    1  0.000  0.000  0.000  0.000  0.000  0.000  0.898  0.000  0.000  0.898
 
band     9 # energy    8.09742434 # occ.  2.00000000
 
ion      s     py     pz     px    dxy    dyz    dz2    dxz  x2-y2    tot
    1  0.000  0.000  0.000  0.000  0.000  0.000  0.000  0.000  0.898  0.898
 
band    10 # energy   24.40471283 # occ.  0.00000000
 
ion      s     py     pz     px    dxy    dyz    dz2    dxz  x2-y2    tot
    1  0.000  0.000  0.000  0.000  0.002  0.002  0.000  0.002  0.000  0.007
 
band    11 # energy   27.90237026 # occ.  0.00000000
 
ion      s     py     pz     px    dxy    dyz    dz2    dxz  x2-y2    tot
    1  0.011  0.026  0.026  0.026  0.002  0.002  0.000  0.002  0.000  0.095
 
band    12 # energy   28.56950104 # occ.  0.00000000
 
ion      s     py     pz     px    dxy    dyz    dz2    dxz  x2-y2    tot
    1  0.000  0.014  0.056  0.014  0.001  0.000  0.003  0.000  0.000  0.089
 
band    13 # energy   28.56950104 # occ.  0.00000000
 
ion      s     py     pz     px    dxy    dyz    dz2    dxz  x2-y2    tot
    1  0.000  0.042  0.000  0.042  0.000  0.001  0.000  0.001  0.003  0.089
 
band    14 # energy   33.83824680 # occ.  0.00000000
 
ion      s     py     pz     px    dxy    dyz    dz2    dxz  x2-y2    tot
    1  0.051  0.007  0.007  0.007  0.001  0.001  0.000  0.001  0.000  0.076
 
band    15 # energy   37.15696911 # occ.  0.00000000
 
ion      s     py     pz     px    dxy    dyz    dz2    dxz  x2-y2    tot
    1  0.011  0.049  0.049  0.049  0.080  0.080  0.000  0.080  0.000  0.399
 
band    16 # energy   37.82681567 # occ.  0.00000000
 
ion      s     py     pz     px    dxy    dyz    dz2    dxz  x2-y2    tot
    1  0.000  0.014  0.062  0.018  0.214  0.061  0.002  0.046  0.000  0.418
 
band    17 # energy   37.82681567 # occ.  0.00000000
 
ion      s     py     pz     px    dxy    dyz    dz2    dxz  x2-y2    tot
    1  0.000  0.049  0.000  0.045  0.000  0.153  0.000  0.168  0.002  0.418
 
band    18 # energy   40.31424718 # occ.  0.00000000
 
ion      s     py     pz     px    dxy    dyz    dz2    dxz  x2-y2    tot
    1  0.000  0.067  0.290  0.078  0.062  0.017  0.012  0.014  0.000  0.540
 
band    19 # energy   40.31424718 # occ.  0.00000000
 
ion      s     py     pz     px    dxy    dyz    dz2    dxz  x2-y2    tot
    1  0.000  0.223  0.000  0.212  0.000  0.045  0.000  0.048  0.012  0.540
 
band    20 # energy   41.15590609 # occ.  0.00000000
 
ion      s     py     pz     px    dxy    dyz    dz2    dxz  x2-y2    tot
    1  0.025  0.116  0.116  0.116  0.058  0.058  0.000  0.058  0.000  0.547
 
band    21 # energy   47.23335112 # occ.  0.00000000
 
ion      s     py     pz     px    dxy    dyz    dz2    dxz  x2-y2    tot
    1  0.000  0.003  0.012  0.003  0.000  0.000  0.397  0.000  0.000  0.415
 
band    22 # energy   47.23335112 # occ.  0.00000000
 
ion      s     py     pz     px    dxy    dyz    dz2    dxz  x2-y2    tot
    1  0.000  0.009  0.000  0.009  0.000  0.000  0.000  0.000  0.397  0.415
 
band    23 # energy   50.59692360 # occ.  0.00000000
 
ion      s     py     pz     px    dxy    dyz    dz2    dxz  x2-y2    tot
    1  6.321  0.000  0.000  0.000  0.000  0.000  0.000  0.000  0.000  6.321
 
band    24 # energy   52.39533236 # occ.  0.00000000
 
ion      s     py     pz     px    dxy    dyz    dz2    dxz  x2-y2    tot
    1  0.441  0.014  0.014  0.014  0.000  0.000  0.000  0.000  0.000  0.484
 

 k-point     2 :    0.15000000 0.05000000 0.05000000     weight = 0.00600000

band     1 # energy  -42.74451101 # occ.  2.00000000
 
ion      s     py     pz     px    dxy    dyz    dz2    dxz  x2-y2    tot
    1  0.000  0.454  0.454  0.086  0.000  0.000  0.000  0.000  0.000  0.993
 
band     2 # energy  -42.71675491 # occ.  2.00000000
 
ion      s     py     pz     px    dxy    dyz    dz2    dxz  x2-y2    tot
    1  0.000  0.043  0.043  0.909  0.000  0.000  0.000  0.000  0.000  0.995
 
band     3 # energy  -42.71008021 # occ.  2.00000000
 
ion      s     py     pz     px    dxy    dyz    dz2    dxz  x2-y2    tot
    1  0.000  0.497  0.497  0.000  0.000  0.000  0.000  0.000  0.000  0.995
 
band     4 # energy    1.22529397 # occ.  2.00000000
 
ion      s     py     pz     px    dxy    dyz    dz2    dxz  x2-y2    tot
    1  0.342  0.003  0.003  0.000  0.000  0.002  0.000  0.000  0.000  0.351
 
band     5 # energy    6.19494135 # occ.  2.00000000
 
ion      s     py     pz     px    dxy    dyz    dz2    dxz  x2-y2    tot
    1  0.000  0.000  0.000  0.001  0.391  0.028  0.000  0.391  0.000  0.812
 
band     6 # energy    6.58811483 # occ.  2.00000000
 
ion      s     py     pz     px    dxy    dyz    dz2    dxz  x2-y2    tot
    1  0.000  0.000  0.000  0.000  0.417  0.000  0.003  0.417  0.001  0.839
 
band     7 # energy    6.61945579 # occ.  2.00000000
 
ion      s     py     pz     px    dxy    dyz    dz2    dxz  x2-y2    tot
    1  0.000  0.001  0.001  0.000  0.015  0.780  0.006  0.015  0.018  0.835
 
band     8 # energy    7.92780535 # occ.  2.00000000
 
ion      s     py     pz     px    dxy    dyz    dz2    dxz  x2-y2    tot
    1  0.000  0.000  0.000  0.000  0.002  0.000  0.661  0.002  0.220  0.886
 
band     9 # energy    8.14677955 # occ.  2.00000000
 
ion      s     py     pz     px    dxy    dyz    dz2    dxz  x2-y2    tot
    1  0.000  0.000  0.000  0.000  0.001  0.024  0.218  0.001  0.654  0.897
 
band    10 # energy   24.94487177 # occ.  0.00000000
 
ion      s     py     pz     px    dxy    dyz    dz2    dxz  x2-y2    tot
    1  0.001  0.001  0.001  0.003  0.023  0.004  0.000  0.023  0.000  0.055
 
band    11 # energy   26.18846901 # occ.  0.00000000
 
ion      s     py     pz     px    dxy    dyz    dz2    dxz  x2-y2    tot
    1  0.039  0.032  0.032  0.008  0.002  0.019  0.001  0.002  0.003  0.137
 
band    12 # energy   28.47508123 # occ.  0.00000000
 
ion      s     py     pz     px    dxy    dyz    dz2    dxz  x2-y2    tot
    1  0.000  0.004  0.004  0.105  0.012  0.004  0.001  0.012  0.003  0.146
 
band    13 # energy   29.52930355 # occ.  0.00000000
 
ion      s     py     pz     px    dxy    dyz    dz2    dxz  x2-y2    tot
    1  0.000  0.041  0.041  0.000  0.001  0.000  0.018  0.001  0.006  0.107
 
band    14 # energy   33.51220866 # occ.  0.00000000
 
ion      s     py     pz     px    dxy    dyz    dz2    dxz  x2-y2    tot
    1  0.006  0.094  0.094  0.006  0.003  0.095  0.001  0.003  0.002  0.304
 
band    15 # energy   35.76493834 # occ.  0.00000000
 
ion      s     py     pz     px    dxy    dyz    dz2    dxz  x2-y2    tot
    1  0.001  0.003  0.003  0.140  0.065  0.022  0.002  0.065  0.005  0.304
 
band    16 # energy   36.80770210 # occ.  0.00000000
 
ion      s     py     pz     px    dxy    dyz    dz2    dxz  x2-y2    tot
    1  0.073  0.001  0.001  0.006  0.005  0.006  0.001  0.005  0.003  0.102
 
band    17 # energy   36.98811709 # occ.  0.00000000
 
ion      s     py     pz     px    dxy    dyz    dz2    dxz  x2-y2    tot
    1  0.000  0.095  0.095  0.000  0.098  0.000  0.019  0.098  0.006  0.411
 
band    18 # energy   38.98402996 # occ.  0.00000000
 
ion      s     py     pz     px    dxy    dyz    dz2    dxz  x2-y2    tot
    1  0.000  0.133  0.133  0.000  0.091  0.000  0.029  0.091  0.010  0.486
 
band    19 # energy   41.67838344 # occ.  0.00000000
 
ion      s     py     pz     px    dxy    dyz    dz2    dxz  x2-y2    tot
    1  0.070  0.091  0.091  0.024  0.000  0.235  0.004  0.000  0.013  0.529
 
band    20 # energy   43.67905743 # occ.  0.00000000
 
ion      s     py     pz     px    dxy    dyz    dz2    dxz  x2-y2    tot
    1  0.029  0.002  0.002  0.292  0.115  0.003  0.003  0.115  0.010  0.572
 
band    21 # energy   46.38824914 # occ.  0.00000000
 
ion      s     py     pz     px    dxy    dyz    dz2    dxz  x2-y2    tot
    1  0.009  0.005  0.005  0.034  0.002  0.005  0.066  0.002  0.199  0.327
 
band    22 # energy   48.39772768 # occ.  0.00000000
 
ion      s     py     pz     px    dxy    dyz    dz2    dxz  x2-y2    tot
    1  0.000  0.044  0.044  0.000  0.000  0.000  0.219  0.000  0.073  0.381
 
band    23 # energy   50.60585618 # occ.  0.00000000
 
ion      s     py     pz     px    dxy    dyz    dz2    dxz  x2-y2    tot
    1  6.304  0.000  0.000  0.000  0.000  0.000  0.000  0.000  0.000  6.304
 
band    24 # energy   54.53271615 # occ.  0.00000000
 
ion      s     py     pz     px    dxy    dyz    dz2    dxz  x2-y2    tot
    1  0.304  0.088  0.088  0.013  0.002  0.000  0.001  0.002  0.004  0.503
 

 k-point     3 :    0.25000000 0.05000000 0.05000000     weight = 0.00600000

band     1 # energy  -42.81589186 # occ.  2.00000000
 
ion      s     py     pz     px    dxy    dyz    dz2    dxz  x2-y2    tot
    1  0.000  0.392  0.392  0.207  0.000  0.000  0.000  0.000  0.000  0.991
 
band     2 # energy  -42.72998169 # occ.  2.00000000
 
ion      s     py     pz     px    dxy    dyz    dz2    dxz  x2-y2    tot
    1  0.000  0.104  0.104  0.786  0.000  0.000  0.000  0.000  0.000  0.994
 
band     3 # energy  -42.72036504 # occ.  2.00000000
 
ion      s     py     pz     px    dxy    dyz    dz2    dxz  x2-y2    tot
    1  0.000  0.497  0.497  0.000  0.000  0.000  0.000  0.000  0.000  0.995
 
band     4 # energy    2.22368527 # occ.  2.00000000
 
ion      s     py     pz     px    dxy    dyz    dz2    dxz  x2-y2    tot
    1  0.311  0.007  0.007  0.002  0.010  0.019  0.000  0.010  0.001  0.364
 
band     5 # energy    6.02242474 # occ.  2.00000000
 
ion      s     py     pz     px    dxy    dyz    dz2    dxz  x2-y2    tot
    1  0.008  0.002  0.002  0.005  0.338  0.064  0.000  0.338  0.000  0.756
 
band     6 # energy    6.74493990 # occ.  2.00000000
 
ion      s     py     pz     px    dxy    dyz    dz2    dxz  x2-y2    tot
    1  0.001  0.001  0.001  0.000  0.033  0.570  0.048  0.033  0.144  0.831
 
band     7 # energy    6.77539066 # occ.  2.00000000
 
ion      s     py     pz     px    dxy    dyz    dz2    dxz  x2-y2    tot
    1  0.000  0.000  0.000  0.000  0.344  0.000  0.116  0.344  0.039  0.842
 
band     8 # energy    7.92378959 # occ.  2.00000000
 
ion      s     py     pz     px    dxy    dyz    dz2    dxz  x2-y2    tot
    1  0.000  0.000  0.000  0.000  0.081  0.000  0.537  0.081  0.179  0.878
 
band     9 # energy    8.36338078 # occ.  2.00000000
 
ion      s     py     pz     px    dxy    dyz    dz2    dxz  x2-y2    tot
    1  0.002  0.000  0.000  0.000  0.011  0.179  0.173  0.011  0.518  0.894
 
band    10 # energy   22.98458292 # occ.  0.00000000
 
ion      s     py     pz     px    dxy    dyz    dz2    dxz  x2-y2    tot
    1  0.090  0.035  0.035  0.032  0.036  0.047  0.001  0.036  0.002  0.313
 
band    11 # energy   25.64640439 # occ.  0.00000000
 
ion      s     py     pz     px    dxy    dyz    dz2    dxz  x2-y2    tot
    1  0.001  0.000  0.000  0.008  0.035  0.004  0.000  0.035  0.001  0.085
 
band    12 # energy   29.04476331 # occ.  0.00000000
 
ion      s     py     pz     px    dxy    dyz    dz2    dxz  x2-y2    tot
    1  0.003  0.024  0.024  0.128  0.015  0.037  0.003  0.015  0.010  0.258
 
band    13 # energy   30.97511143 # occ.  0.00000000
 
ion      s     py     pz     px    dxy    dyz    dz2    dxz  x2-y2    tot
    1  0.030  0.057  0.057  0.007  0.000  0.017  0.003  0.000  0.010  0.181
 
band    14 # energy   31.17332835 # occ.  0.00000000
 
ion      s     py     pz     px    dxy    dyz    dz2    dxz  x2-y2    tot
    1  0.000  0.057  0.057  0.000  0.014  0.000  0.037  0.014  0.012  0.192
 
band    15 # energy   33.64767932 # occ.  0.00000000
 
ion      s     py     pz     px    dxy    dyz    dz2    dxz  x2-y2    tot
    1  0.000  0.088  0.088  0.000  0.035  0.000  0.047  0.035  0.016  0.309
 
band    16 # energy   34.20802553 # occ.  0.00000000
 
ion      s     py     pz     px    dxy    dyz    dz2    dxz  x2-y2    tot
    1  0.003  0.000  0.000  0.084  0.012  0.009  0.009  0.012  0.026  0.154
 
band    17 # energy   39.54040705 # occ.  0.00000000
 
ion      s     py     pz     px    dxy    dyz    dz2    dxz  x2-y2    tot
    1  0.000  0.096  0.096  0.000  0.109  0.000  0.032  0.109  0.011  0.453
 
band    18 # energy   40.29067230 # occ.  0.00000000
 
ion      s     py     pz     px    dxy    dyz    dz2    dxz  x2-y2    tot
    1  0.127  0.001  0.001  0.001  0.000  0.034  0.003  0.000  0.010  0.177
 
band    19 # energy   42.52662077 # occ.  0.00000000
 
ion      s     py     pz     px    dxy    dyz    dz2    dxz  x2-y2    tot
    1  0.024  0.052  0.052  0.076  0.002  0.186  0.009  0.002  0.026  0.429
 
band    20 # energy   44.57728368 # occ.  0.00000000
 
ion      s     py     pz     px    dxy    dyz    dz2    dxz  x2-y2    tot
    1  0.103  0.002  0.002  0.047  0.104  0.002  0.018  0.104  0.054  0.436
 
band    21 # energy   47.23397945 # occ.  0.00000000
 
ion      s     py     pz     px    dxy    dyz    dz2    dxz  x2-y2    tot
    1  0.006  0.010  0.010  0.163  0.024  0.026  0.019  0.024  0.056  0.339
 
band    22 # energy   49.22208855 # occ.  0.00000000
 
ion      s     py     pz     px    dxy    dyz    dz2    dxz  x2-y2    tot
    1  0.000  0.064  0.064  0.000  0.004  0.000  0.118  0.004  0.039  0.293
 
band    23 # energy   50.60668119 # occ.  0.00000000
 
ion      s     py     pz     px    dxy    dyz    dz2    dxz  x2-y2    tot
    1  6.292  0.000  0.000  0.000  0.000  0.000  0.000  0.000  0.000  6.292
 
band    24 # energy   55.86046360 # occ.  0.00000000
 
ion      s     py     pz     px    dxy    dyz    dz2    dxz  x2-y2    tot
    1  0.000  0.000  0.000  0.000  0.000  0.000  0.039  0.000  0.013  0.052
 

 k-point     4 :    0.35000000 0.05000000 0.05000000     weight = 0.00600000

band     1 # energy  -42.89713121 # occ.  2.00000000
 
ion      s     py     pz     px    dxy    dyz    dz2    dxz  x2-y2    tot
    1  0.000  0.359  0.359  0.269  0.000  0.000  0.000  0.000  0.000  0.988
 
band     2 # energy  -42.74319768 # occ.  2.00000000
 
ion      s     py     pz     px    dxy    dyz    dz2    dxz  x2-y2    tot
    1  0.000  0.135  0.135  0.723  0.000  0.000  0.000  0.000  0.000  0.994
 
band     3 # energy  -42.73325631 # occ.  2.00000000
 
ion      s     py     pz     px    dxy    dyz    dz2    dxz  x2-y2    tot
    1  0.000  0.497  0.497  0.000  0.000  0.000  0.000  0.000  0.000  0.994
 
band     4 # energy    3.18621251 # occ.  2.00000000
 
ion      s     py     pz     px    dxy    dyz    dz2    dxz  x2-y2    tot
    1  0.223  0.006  0.006  0.002  0.073  0.086  0.000  0.073  0.001  0.469
 
band     5 # energy    6.48236448 # occ.  2.00000000
 
ion      s     py     pz     px    dxy    dyz    dz2    dxz  x2-y2    tot
    1  0.034  0.007  0.007  0.012  0.272  0.015  0.014  0.272  0.043  0.676
 
band     6 # energy    6.63859379 # occ.  2.00000000
 
ion      s     py     pz     px    dxy    dyz    dz2    dxz  x2-y2    tot
    1  0.016  0.006  0.006  0.003  0.003  0.362  0.085  0.003  0.256  0.741
 
band     7 # energy    6.65322077 # occ.  2.00000000
 
ion      s     py     pz     px    dxy    dyz    dz2    dxz  x2-y2    tot
    1  0.000  0.000  0.000  0.000  0.215  0.000  0.302  0.215  0.101  0.833
 
band     8 # energy    8.44727798 # occ.  2.00000000
 
ion      s     py     pz     px    dxy    dyz    dz2    dxz  x2-y2    tot
    1  0.000  0.000  0.000  0.000  0.218  0.000  0.344  0.218  0.115  0.895
 
band     9 # energy    8.95647917 # occ.  2.00000000
 
ion      s     py     pz     px    dxy    dyz    dz2    dxz  x2-y2    tot
    1  0.007  0.002  0.002  0.000  0.025  0.365  0.118  0.025  0.355  0.898
 
band    10 # energy   19.32716782 # occ.  0.00000000
 
ion      s     py     pz     px    dxy    dyz    dz2    dxz  x2-y2    tot
    1  0.167  0.032  0.032  0.034  0.064  0.065  0.001  0.064  0.002  0.461
 
band    11 # energy   24.97975292 # occ.  0.00000000
 
ion      s     py     pz     px    dxy    dyz    dz2    dxz  x2-y2    tot
    1  0.000  0.002  0.002  0.010  0.022  0.002  0.001  0.022  0.003  0.065
 
band    12 # energy   28.20312892 # occ.  0.00000000
 
ion      s     py     pz     px    dxy    dyz    dz2    dxz  x2-y2    tot
    1  0.010  0.046  0.046  0.133  0.023  0.028  0.000  0.023  0.001  0.310
 
band    13 # energy   30.28668287 # occ.  0.00000000
 
ion      s     py     pz     px    dxy    dyz    dz2    dxz  x2-y2    tot
    1  0.000  0.124  0.124  0.000  0.025  0.000  0.010  0.025  0.003  0.312
 
band    14 # energy   32.06426378 # occ.  0.00000000
 
ion      s     py     pz     px    dxy    dyz    dz2    dxz  x2-y2    tot
    1  0.023  0.007  0.007  0.030  0.003  0.019  0.012  0.003  0.037  0.140
 
band    15 # energy   33.47925369 # occ.  0.00000000
 
ion      s     py     pz     px    dxy    dyz    dz2    dxz  x2-y2    tot
    1  0.000  0.006  0.006  0.000  0.015  0.000  0.125  0.015  0.042  0.207
 
band    16 # energy   34.30840412 # occ.  0.00000000
 
ion      s     py     pz     px    dxy    dyz    dz2    dxz  x2-y2    tot
    1  0.023  0.004  0.004  0.024  0.005  0.000  0.017  0.005  0.051  0.135
 
band    17 # energy   40.13050280 # occ.  0.00000000
 
ion      s     py     pz     px    dxy    dyz    dz2    dxz  x2-y2    tot
    1  0.000  0.105  0.105  0.000  0.080  0.000  0.021  0.080  0.007  0.396
 
band    18 # energy   41.92035316 # occ.  0.00000000
 
ion      s     py     pz     px    dxy    dyz    dz2    dxz  x2-y2    tot
    1  0.145  0.011  0.011  0.069  0.000  0.163  0.011  0.000  0.033  0.445
 
band    19 # energy   44.18904088 # occ.  0.00000000
 
ion      s     py     pz     px    dxy    dyz    dz2    dxz  x2-y2    tot
    1  0.094  0.028  0.028  0.056  0.072  0.004  0.010  0.072  0.030  0.394
 
band    20 # energy   46.18869374 # occ.  0.00000000
 
ion      s     py     pz     px    dxy    dyz    dz2    dxz  x2-y2    tot
    1  0.006  0.019  0.019  0.020  0.018  0.000  0.005  0.018  0.015  0.122
 
band    21 # energy   48.31601738 # occ.  0.00000000
 
ion      s     py     pz     px    dxy    dyz    dz2    dxz  x2-y2    tot
    1  0.004  0.013  0.013  0.090  0.011  0.060  0.003  0.011  0.009  0.215
 
band    22 # energy   50.02067563 # occ.  0.00000000
 
ion      s     py     pz     px    dxy    dyz    dz2    dxz  x2-y2    tot
    1  0.000  0.068  0.068  0.000  0.012  0.000  0.052  0.012  0.017  0.230
 
band    23 # energy   50.60506229 # occ.  0.00000000
 
ion      s     py     pz     px    dxy    dyz    dz2    dxz  x2-y2    tot
    1  6.290  0.000  0.000  0.000  0.000  0.000  0.000  0.000  0.000  6.290
 
band    24 # energy   54.65854250 # occ.  0.00000000
 
ion      s     py     pz     px    dxy    dyz    dz2    dxz  x2-y2    tot
    1  0.000  0.002  0.002  0.000  0.048  0.000  0.065  0.048  0.022  0.185
 

 k-point     5 :    0.45000000 0.05000000 0.05000000     weight = 0.00600000

band     1 # energy  -42.95799253 # occ.  2.00000000
 
ion      s     py     pz     px    dxy    dyz    dz2    dxz  x2-y2    tot
    1  0.000  0.340  0.340  0.306  0.000  0.000  0.000  0.000  0.000  0.986
 
band     2 # energy  -42.75086207 # occ.  2.00000000
 
ion      s     py     pz     px    dxy    dyz    dz2    dxz  x2-y2    tot
    1  0.000  0.154  0.154  0.685  0.000  0.000  0.000  0.000  0.000  0.993
 
band     3 # energy  -42.74416026 # occ.  2.00000000
 
ion      s     py     pz     px    dxy    dyz    dz2    dxz  x2-y2    tot
    1  0.000  0.497  0.497  0.000  0.000  0.000  0.000  0.000  0.000  0.994
 
band     4 # energy    3.49237814 # occ.  2.00000000
 
ion      s     py     pz     px    dxy    dyz    dz2    dxz  x2-y2    tot
    1  0.139  0.002  0.002  0.000  0.146  0.152  0.000  0.146  0.000  0.586
 
band     5 # energy    6.39479103 # occ.  2.00000000
 
ion      s     py     pz     px    dxy    dyz    dz2    dxz  x2-y2    tot
    1  0.000  0.000  0.000  0.000  0.056  0.244  0.116  0.056  0.347  0.819
 
band     6 # energy    6.47309642 # occ.  2.00000000
 
ion      s     py     pz     px    dxy    dyz    dz2    dxz  x2-y2    tot
    1  0.000  0.000  0.000  0.000  0.172  0.000  0.360  0.172  0.120  0.825
 
band     7 # energy    8.03919219 # occ.  2.00000000
 
ion      s     py     pz     px    dxy    dyz    dz2    dxz  x2-y2    tot
    1  0.043  0.026  0.026  0.027  0.121  0.012  0.021  0.121  0.063  0.462
 
band     8 # energy    9.10558093 # occ.  2.00000000
 
ion      s     py     pz     px    dxy    dyz    dz2    dxz  x2-y2    tot
    1  0.000  0.000  0.000  0.000  0.272  0.000  0.284  0.272  0.095  0.923
 
band     9 # energy    9.71009115 # occ.  0.00000000
 
ion      s     py     pz     px    dxy    dyz    dz2    dxz  x2-y2    tot
    1  0.023  0.010  0.010  0.006  0.017  0.404  0.079  0.017  0.238  0.804
 
band    10 # energy   15.77687132 # occ.  0.00000000
 
ion      s     py     pz     px    dxy    dyz    dz2    dxz  x2-y2    tot
    1  0.265  0.016  0.016  0.020  0.105  0.087  0.001  0.105  0.002  0.616
 
band    11 # energy   24.15258648 # occ.  0.00000000
 
ion      s     py     pz     px    dxy    dyz    dz2    dxz  x2-y2    tot
    1  0.000  0.002  0.002  0.006  0.006  0.000  0.001  0.006  0.004  0.028
 
band    12 # energy   27.09120455 # occ.  0.00000000
 
ion      s     py     pz     px    dxy    dyz    dz2    dxz  x2-y2    tot
    1  0.007  0.039  0.039  0.139  0.013  0.003  0.001  0.013  0.002  0.256
 
band    13 # energy   28.09149321 # occ.  0.00000000
 
ion      s     py     pz     px    dxy    dyz    dz2    dxz  x2-y2    tot
    1  0.000  0.111  0.111  0.000  0.005  0.000  0.010  0.005  0.003  0.245
 
band    14 # energy   34.34679395 # occ.  0.00000000
 
ion      s     py     pz     px    dxy    dyz    dz2    dxz  x2-y2    tot
    1  0.012  0.000  0.000  0.012  0.000  0.071  0.038  0.000  0.113  0.246
 
band    15 # energy   35.00410162 # occ.  0.00000000
 
ion      s     py     pz     px    dxy    dyz    dz2    dxz  x2-y2    tot
    1  0.000  0.002  0.002  0.000  0.046  0.000  0.171  0.046  0.057  0.323
 
band    16 # energy   35.84052255 # occ.  0.00000000
 
ion      s     py     pz     px    dxy    dyz    dz2    dxz  x2-y2    tot
    1  0.088  0.004  0.004  0.012  0.052  0.010  0.009  0.052  0.027  0.258
 
band    17 # energy   41.03691246 # occ.  0.00000000
 
ion      s     py     pz     px    dxy    dyz    dz2    dxz  x2-y2    tot
    1  0.000  0.131  0.131  0.000  0.025  0.000  0.001  0.025  0.000  0.312
 
band    18 # energy   42.07810010 # occ.  0.00000000
 
ion      s     py     pz     px    dxy    dyz    dz2    dxz  x2-y2    tot
    1  0.074  0.010  0.010  0.148  0.000  0.078  0.009  0.000  0.028  0.357
 
band    19 # energy   43.69279226 # occ.  0.00000000
 
ion      s     py     pz     px    dxy    dyz    dz2    dxz  x2-y2    tot
    1  0.045  0.059  0.059  0.019  0.032  0.008  0.003  0.032  0.008  0.267
 
band    20 # energy   48.15389401 # occ.  0.00000000
 
ion      s     py     pz     px    dxy    dyz    dz2    dxz  x2-y2    tot
    1  0.004  0.021  0.021  0.043  0.011  0.059  0.001  0.011  0.004  0.176
 
band    21 # energy   50.60295587 # occ.  0.00000000
 
ion      s     py     pz     px    dxy    dyz    dz2    dxz  x2-y2    tot
    1  6.281  0.000  0.000  0.000  0.000  0.000  0.000  0.000  0.000  6.281
 
band    22 # energy   50.80355736 # occ.  0.00000000
 
ion      s     py     pz     px    dxy    dyz    dz2    dxz  x2-y2    tot
    1  0.000  0.056  0.056  0.000  0.004  0.000  0.017  0.004  0.006  0.143
 
band    23 # energy   51.03954871 # occ.  0.00000000
 
ion      s     py     pz     px    dxy    dyz    dz2    dxz  x2-y2    tot
    1  0.092  0.001  0.001  0.008  0.002  0.001  0.000  0.002  0.000  0.105
 
band    24 # energy   51.86627515 # occ.  0.00000000
 
ion      s     py     pz     px    dxy    dyz    dz2    dxz  x2-y2    tot
    1  0.000  0.005  0.005  0.000  0.101  0.000  0.011  0.101  0.004  0.227
 

 k-point     6 :   -0.45000000 0.05000000 0.05000000     weight = 0.00600000

band     1 # energy  -42.97453328 # occ.  2.00000000
 
ion      s     py     pz     px    dxy    dyz    dz2    dxz  x2-y2    tot
    1  0.000  0.325  0.325  0.335  0.000  0.000  0.000  0.000  0.000  0.985
 
band     2 # energy  -42.75125284 # occ.  2.00000000
 
ion      s     py     pz     px    dxy    dyz    dz2    dxz  x2-y2    tot
    1  0.000  0.169  0.169  0.656  0.000  0.000  0.000  0.000  0.000  0.993
 
band     3 # energy  -42.74847310 # occ.  2.00000000
 
ion      s     py     pz     px    dxy    dyz    dz2    dxz  x2-y2    tot
    1  0.000  0.497  0.497  0.000  0.000  0.000  0.000  0.000  0.000  0.994
 
band     4 # energy    3.51392472 # occ.  2.00000000
 
ion      s     py     pz     px    dxy    dyz    dz2    dxz  x2-y2    tot
    1  0.122  0.000  0.000  0.001  0.159  0.169  0.000  0.159  0.000  0.610
 
band     5 # energy    6.32342205 # occ.  2.00000000
 
ion      s     py     pz     px    dxy    dyz    dz2    dxz  x2-y2    tot
    1  0.000  0.000  0.000  0.000  0.058  0.208  0.123  0.058  0.368  0.815
 
band     6 # energy    6.43073183 # occ.  2.00000000
 
ion      s     py     pz     px    dxy    dyz    dz2    dxz  x2-y2    tot
    1  0.000  0.000  0.000  0.000  0.169  0.000  0.363  0.169  0.121  0.822
 
band     7 # energy    8.63623208 # occ.  2.00000000
 
ion      s     py     pz     px    dxy    dyz    dz2    dxz  x2-y2    tot
    1  0.002  0.022  0.022  0.021  0.040  0.254  0.045  0.040  0.134  0.582
 
band     8 # energy    9.42497393 # occ.  0.72762824
 
ion      s     py     pz     px    dxy    dyz    dz2    dxz  x2-y2    tot
    1  0.000  0.000  0.000  0.000  0.280  0.000  0.284  0.280  0.095  0.939
 
band     9 # energy   10.24857873 # occ.  0.00000000
 
ion      s     py     pz     px    dxy    dyz    dz2    dxz  x2-y2    tot
    1  0.004  0.028  0.028  0.032  0.062  0.123  0.047  0.062  0.142  0.527
 
band    10 # energy   14.27033714 # occ.  0.00000000
 
ion      s     py     pz     px    dxy    dyz    dz2    dxz  x2-y2    tot
    1  0.349  0.002  0.002  0.001  0.131  0.140  0.000  0.131  0.000  0.756
 
band    11 # energy   23.92552573 # occ.  0.00000000
 
ion      s     py     pz     px    dxy    dyz    dz2    dxz  x2-y2    tot
    1  0.000  0.002  0.002  0.005  0.000  0.004  0.001  0.000  0.004  0.019
 
band    12 # energy   27.06690620 # occ.  0.00000000
 
ion      s     py     pz     px    dxy    dyz    dz2    dxz  x2-y2    tot
    1  0.007  0.036  0.036  0.141  0.003  0.004  0.002  0.003  0.006  0.238
 
band    13 # energy   27.14923738 # occ.  0.00000000
 
ion      s     py     pz     px    dxy    dyz    dz2    dxz  x2-y2    tot
    1  0.000  0.109  0.109  0.000  0.001  0.000  0.005  0.001  0.002  0.227
 
band    14 # energy   35.20354532 # occ.  0.00000000
 
ion      s     py     pz     px    dxy    dyz    dz2    dxz  x2-y2    tot
    1  0.000  0.000  0.000  0.000  0.048  0.000  0.171  0.048  0.057  0.324
 
band    15 # energy   35.35532572 # occ.  0.00000000
 
ion      s     py     pz     px    dxy    dyz    dz2    dxz  x2-y2    tot
    1  0.001  0.000  0.000  0.000  0.011  0.078  0.059  0.011  0.176  0.337
 
band    16 # energy   36.71547216 # occ.  0.00000000
 
ion      s     py     pz     px    dxy    dyz    dz2    dxz  x2-y2    tot
    1  0.146  0.002  0.002  0.001  0.069  0.058  0.000  0.069  0.000  0.347
 
band    17 # energy   41.39550633 # occ.  0.00000000
 
ion      s     py     pz     px    dxy    dyz    dz2    dxz  x2-y2    tot
    1  0.018  0.061  0.061  0.131  0.001  0.002  0.001  0.001  0.003  0.280
 
band    18 # energy   42.28485413 # occ.  0.00000000
 
ion      s     py     pz     px    dxy    dyz    dz2    dxz  x2-y2    tot
    1  0.000  0.145  0.145  0.000  0.001  0.000  0.012  0.001  0.004  0.310
 
band    19 # energy   42.81928814 # occ.  0.00000000
 
ion      s     py     pz     px    dxy    dyz    dz2    dxz  x2-y2    tot
    1  0.002  0.013  0.013  0.079  0.005  0.001  0.001  0.005  0.002  0.121
 
band    20 # energy   49.26765140 # occ.  0.00000000
 
ion      s     py     pz     px    dxy    dyz    dz2    dxz  x2-y2    tot
    1  0.000  0.025  0.025  0.000  0.052  0.000  0.001  0.052  0.000  0.155
 
band    21 # energy   49.92869008 # occ.  0.00000000
 
ion      s     py     pz     px    dxy    dyz    dz2    dxz  x2-y2    tot
    1  0.006  0.006  0.006  0.025  0.010  0.055  0.001  0.010  0.003  0.122
 
band    22 # energy   50.60161134 # occ.  0.00000000
 
ion      s     py     pz     px    dxy    dyz    dz2    dxz  x2-y2    tot
    1  6.182  0.000  0.000  0.000  0.000  0.003  0.000  0.000  0.000  6.186
 