Co-hcc                                  
   1.00000000000000     
     2.506236    0.000000    0.000000
    -1.253118    2.170464    0.000000
     0.000000    0.000000    4.054987
   Co
     2
Direct
  0.000000  0.000000  0.000000
  0.333333  0.666667  0.500000
 
   32   32   56
  209.14      204.41      190.90      170.40      145.40      118.54      92.193      68.223      47.931      32.057    
  20.785      13.736      10.026      8.4081      7.6123      7.1300      6.9774      7.1303      7.6108      8.4112    
  10.024      13.737      20.784      32.058      47.930      68.223      92.193      118.54      145.40      170.40    
  190.90      204.41      204.41      204.41      195.30      178.32      155.64      129.83      103.39      78.444    
  56.543      38.706      25.388      16.495      11.376      8.9540      7.8993      7.2687      6.9588      6.9564    
  7.2717      7.8965      8.9548      11.377      16.495      25.388      38.705      56.543      78.444      103.39    
  129.83      155.64      178.32      195.30      190.90      195.30      190.90      178.32      159.21      135.86    
  110.73      86.047      63.588      44.609      29.824      19.408      12.971      9.6382      8.1854      7.4266    
  6.9670      6.8210      6.9669      7.4260      8.1876      9.6357      12.972      19.407      29.826      44.608    
  63.589      86.047      110.73      135.86      159.21      178.32      170.40      178.31      178.31      170.40    
  155.64      135.86      113.28      90.106      68.211      49.034      33.521      22.085      14.602      10.419    
  8.4891      7.5808      7.0003      6.7193      6.7181      7.0022      7.5780      8.4915      10.417      14.603    
  22.084      33.521      49.034      68.211      90.106      113.28      135.86      155.64      145.40      155.62    
  159.18      155.62      145.40      129.83      110.73      90.106      69.821      51.405      35.971      24.137    
  16.017      11.188      8.8020      7.7179      7.0457      6.6517      6.5227      6.6510      7.0469      7.7174    
  8.8017      11.189      16.016      24.138      35.970      51.406      69.820      90.106      110.73      129.83    
  118.54      129.80      135.82      135.82      129.80      118.54      103.39      86.047      68.210      51.406    
  36.828      25.251      16.978      11.807      9.0857      7.8310      7.0920      6.6107      6.3784      6.3797    
  6.6095      7.0923      7.8314      9.0849      11.807      16.977      25.252      36.827      51.406      68.211    
  86.047      103.39      92.193      103.38      110.69      113.24      110.69      103.38      92.193      78.444    
  63.588      49.034      35.970      25.251      17.319      12.151      9.2872      7.9143      7.1311      6.5868    
  6.2807      6.1790      6.2806      6.5874      7.1300      7.9155      9.2862      12.152      17.318      25.252    
  35.970      49.034      63.589      78.444      68.223      78.436      86.025      90.074      90.074      86.025    
  78.436      68.223      56.543      44.609      33.520      24.138      16.977      12.152      9.3596      7.9606    
  7.1551      6.5762      6.2170      6.0454      6.0456      6.2163      6.5772      7.1539      7.9614      9.3585    
  12.152      16.977      24.138      33.521      44.608      56.543      47.930      56.551      63.593      68.208    
  69.814      68.207      63.593      56.551      47.931      38.705      29.825      22.086      16.016      11.807    
  9.2864      7.9606      7.1636      6.5717      6.1828      5.9634      5.8951      5.9638      6.1821      6.5725    
  7.1630      7.9614      9.2862      11.807      16.016      22.084      29.826      38.705      32.058      38.732    
  44.646      49.074      51.446      51.446      49.075      44.647      38.732      32.058      25.389      19.407    
  14.601      11.190      9.0847      7.9155      7.1547      6.5720      6.1716      5.9256      5.8120      5.8112    
  5.9264      6.1706      6.5725      7.1539      7.9155      9.0849      11.189      14.603      19.407      25.388    
  20.784      25.431      29.897      33.610      36.067      36.926      36.066      33.608      29.897      25.431    
  20.785      16.495      12.972      10.419      8.8003      7.8322      7.1295      6.5769      6.1821      5.9259    
  5.7851      5.7409      5.7849      5.9264      6.1821      6.5772      7.1300      7.8314      8.8017      10.417    
  12.972      16.495      13.737      16.550      19.506      22.215      24.289      25.412      25.412      24.290    
  22.217      19.507      16.550      13.736      11.378      9.6362      8.4890      7.7192      7.0909      6.5884    
  6.2163      5.9641      5.8116      5.7407      5.7409      5.8112      5.9638      6.2163      6.5874      7.0923    
  7.7174      8.4915      9.6357      11.377      10.024      11.438      13.088      14.764      16.210      17.191    
  17.538      17.190      16.209      14.762      13.087      11.439      10.026      8.9517      8.1888      7.5796    
  7.0455      6.6109      6.2794      6.0457      5.8944      5.8116      5.7851      5.8120      5.8951      6.0456    
  6.2806      6.6095      7.0469      7.5780      8.1876      8.9548      8.4112      9.0186      9.7605      10.595    
  11.409      12.058      12.418      12.418      12.058      11.411      10.598      9.7611      9.0155      8.4111    
  7.8998      7.4237      7.0017      6.6514      6.3789      6.1800      6.0457      5.9641      5.9259      5.9256    
  5.9634      6.0454      6.1790      6.3797      6.6510      7.0022      7.4260      7.8965      7.6108      7.9614    
  8.3161      8.6763      9.0349      9.3558      9.5807      9.6615      9.5806      9.3550      9.0336      8.6737    
  8.3172      7.9647      7.6090      7.2697      6.9690      6.7185      6.5229      6.3789      6.2794      6.2163    
  6.1821      6.1716      6.1828      6.2170      6.2807      6.3784      6.5227      6.7181      6.9669      7.2717    
  7.1303      7.3374      7.5556      7.7659      7.9571      8.1150      8.2297      8.2914      8.2910      8.2303    
  8.1159      7.9591      7.7675      7.5534      7.3354      7.1325      6.9576      6.8193      6.7185      6.6514    
  6.6109      6.5884      6.5769      6.5720      6.5717      6.5762      6.5868      6.6107      6.6517      6.7193    
  6.8210      6.9564      6.9774      7.0226      7.0974      7.1930      7.2922      7.3839      7.4559      7.5008    
  7.5168      7.5008      7.4553      7.3822      7.2909      7.1924      7.0995      7.0238      6.9753      6.9576    
  6.9690      7.0017      7.0455      7.0909      7.1295      7.1547      7.1636      7.1551      7.1311      7.0920    
  7.0457      7.0003      6.9670      6.9588      7.1300      7.0250      6.9519      6.9104      6.8994      6.9059    
  6.9216      6.9382      6.9471      6.9476      6.9378      6.9231      6.9073      6.8998      6.9107      6.9502    
  7.0238      7.1325      7.2697      7.4237      7.5796      7.7192      7.8322      7.9155      7.9606      7.9606    
  7.9143      7.8310      7.7179      7.5808      7.4266      7.2687      7.6123      7.3344      7.0975      6.9116    
  6.7721      6.6793      6.6220      6.5890      6.5743      6.5691      6.5741      6.5885      6.6207      6.6783    
  6.7723      6.9107      7.0995      7.3354      7.6090      7.8998      8.1888      8.4890      8.8003      9.0847    
  9.2864      9.3596      9.2872      9.0857      8.8020      8.4891      8.1854      7.8993      8.4081      7.9642    
  7.5563      7.1910      6.9001      6.6779      6.5224      6.4232      6.3647      6.3394      6.3388      6.3657    
  6.4234      6.5236      6.6783      6.8998      7.1924      7.5534      7.9647      8.4111      8.9517      9.6362    
  10.419      11.190      11.807      12.152      12.151      11.807      11.188      10.419      9.6382      8.9540    
  10.026      9.0178      8.3138      7.7687      7.2909      6.9073      6.6219      6.4233      6.3005      6.2333    
  6.2133      6.2332      6.2996      6.4234      6.6207      6.9073      7.2909      7.7675      8.3172      9.0155    
  10.026      11.378      12.972      14.601      16.016      16.977      17.319      16.978      16.017      14.602    
  12.971      11.376      13.736      11.437      9.7632      8.6739      7.9578      7.3833      6.9212      6.5894    
  6.3643      6.2338      6.1720      6.1733      6.2332      6.3657      6.5885      6.9231      7.3822      7.9591    
  8.6737      9.7611      11.439      13.736      16.495      19.407      22.086      24.138      25.251      25.251    
  24.137      22.085      19.408      16.495      20.785      16.551      13.086      10.597      9.0351      8.1148    
  7.4568      6.9374      6.5750      6.3386      6.2140      6.1720      6.2133      6.3388      6.5741      6.9378    
  7.4553      8.1159      9.0336      10.598      13.087      16.550      20.785      25.389      29.825      33.520    
  35.970      36.828      35.971      33.521      29.824      25.388      32.057      25.431      19.507      14.763    
  11.409      9.3562      8.2289      7.5014      6.9467      6.5697      6.3386      6.2338      6.2333      6.3394    
  6.5691      6.9476      7.5008      8.2303      9.3550      11.411      14.762      19.507      25.431      32.058    
  38.705      44.609      49.034      51.406      51.405      49.034      44.609      38.706      47.931      38.732    
  29.896      22.216      16.210      12.057      9.5817      8.2906      7.5175      6.9467      6.5750      6.3643    
  6.3005      6.3647      6.5743      6.9471      7.5168      8.2910      9.5806      12.058      16.209      22.217    
  29.897      38.732      47.931      56.543      63.588      68.210      69.821      68.211      63.588      56.543    
  68.223      56.551      44.647      33.610      24.288      17.191      12.417      9.6619      8.2906      7.5014    
  6.9374      6.5894      6.4233      6.4232      6.5890      6.9382      7.5008      8.2914      9.6615      12.418    
  17.190      24.290      33.608      44.647      56.551      68.223      78.444      86.047      90.106      90.106    
  86.047      78.444      92.193      78.436      63.593      49.074      36.067      25.411      17.539      12.417    
  9.5817      8.2289      7.4568      6.9212      6.6219      6.5224      6.6220      6.9216      7.4559      8.2297    
  9.5807      12.418      17.538      25.412      36.066      49.075      63.593      78.436      92.193      103.39    
  110.73      113.28      110.73      103.39      118.54      103.38      86.025      68.208      51.445      36.927    
  25.411      17.191      12.057      9.3562      8.1148      7.3833      6.9073      6.6779      6.6793      6.9059    
  7.3839      8.1150      9.3558      12.058      17.191      25.412      36.926      51.446      68.207      86.025    
  103.38      118.54      129.83      135.86      135.86      129.83      145.40      129.80      110.69      90.073    
  69.815      51.445      36.067      24.288      16.210      11.409      9.0351      7.9578      7.2909      6.9001    
  6.7721      6.8994      7.2922      7.9571      9.0349      11.409      16.210      24.289      36.067      51.446    
  69.814      90.074      110.69      129.80      145.40      155.64      159.21      155.64      170.40      155.62    
  135.82      113.24      90.073      68.208      49.074      33.610      22.216      14.763      10.597      8.6739    
  7.7687      7.1910      6.9116      6.9104      7.1930      7.7659      8.6763      10.595      14.764      22.215    
  33.610      49.074      68.208      90.074      113.24      135.82      155.62      170.40      178.32      178.32    
  190.90      178.31      159.18      135.82      110.69      86.025      63.593      44.647      29.896      19.507    
  13.086      9.7632      8.3138      7.5563      7.0975      6.9519      7.0974      7.5556      8.3161      9.7605    
  13.088      19.506      29.897      44.646      63.593      86.025      110.69      135.82      159.18      178.31    
  190.90      195.30      204.41      195.30      178.31      155.62      129.80      103.38      78.436      56.551    
  38.732      25.431      16.551      11.437      9.0178      7.9642      7.3344      7.0250      7.0226      7.3374    
  7.9614      9.0186      11.438      16.550      25.431      38.732      56.551      78.436      103.38      129.80    
  155.62      178.31      195.30      204.41      205.09      200.46      187.22      167.13      142.61      116.26    
  90.399      66.872      46.965      31.412      20.392      13.524      9.9261      8.3578      7.5734      7.0977    
  6.9472      7.0979      7.5722      8.3607      9.9233      13.525      20.391      31.413      46.965      66.872    
  90.398      116.26      142.61      167.13      187.22      200.46      200.46      200.46      191.53      174.89    
  152.65      127.33      101.39      76.900      55.408      37.920      24.886      16.206      11.230      8.8855    
  7.8556      7.2325      6.9270      6.9248      7.2352      7.8526      8.8867      11.230      16.206      24.886    
  37.920      55.408      76.900      101.39      127.33      152.65      174.89      191.53      187.22      191.53    
  187.22      174.89      156.15      133.25      108.59      84.360      62.317      43.702      29.221      19.042    
  12.774      9.5446      8.1353      7.3863      6.9334      6.7892      6.9332      7.3861      8.1372      9.5420    
  12.776      19.041      29.222      43.702      62.318      84.360      108.59      133.25      156.15      174.89    
  167.13      174.88      174.88      167.13      152.65      133.25      111.09      88.343      66.852      48.038    
  32.837      21.652      14.357      10.296      8.4287      7.5373      6.9645      6.6873      6.6865      6.9659    
  7.5348      8.4310      10.295      14.358      21.652      32.837      48.038      66.851      88.343      111.09    
  133.25      152.65      142.61      152.63      156.13      152.63      142.61      127.33      108.59      88.342    
  68.431      50.362      35.234      23.655      15.733      11.039      8.7294      7.6716      7.0075      6.6193    
  6.4922      6.6187      7.0087      7.6707      8.7293      11.039      15.732      23.656      35.233      50.363    
  68.431      88.342      108.59      127.33      116.26      127.31      133.22      133.22      127.31      116.26    
  101.39      84.361      66.851      50.363      36.073      24.743      16.667      11.637      9.0011      7.7819    
  7.0515      6.5777      6.3484      6.3501      6.5760      7.0526      7.7817      9.0008      11.637      16.666    
  24.744      36.072      50.363      66.852      84.360      101.39      90.398      101.38      108.56      111.06    
  108.56      101.38      90.398      76.899      62.318      48.038      35.233      24.743      16.999      11.970    
  9.1947      7.8620      7.0894      6.5527      6.2510      6.1511      6.2510      6.5531      7.0885      7.8632    
  9.1937      11.971      16.998      24.744      35.233      48.038      62.318      76.900      66.872      76.899    
  84.350      88.326      88.326      84.351      76.898      66.872      55.408      43.702      32.836      23.657    
  16.666      11.971      9.2638      7.9066      7.1123      6.5416      6.1871      6.0186      6.0184      6.1870    
  6.5421      7.1115      7.9070      9.2630      11.971      16.666      23.656      32.837      43.701      55.408    
  46.965      55.423      62.335      66.866      68.442      66.865      62.334      55.423      46.965      37.919    
  29.221      21.653      15.731      11.637      9.1938      7.9065      7.1206      6.5365      6.1529      5.9370    
  5.8696      5.9373      6.1523      6.5374      7.1201      7.9075      9.1935      11.637      15.731      21.652    
  29.222      37.920      31.413      37.952      43.751      48.095      50.422      50.422      48.096      43.752    
  37.952      31.413      24.886      19.042      14.356      11.040      9.0002      7.8633      7.1120      6.5369    
  6.1416      5.8994      5.7872      5.7868      5.9000      6.1408      6.5372      7.1113      7.8631      9.0006    
  11.039      14.359      19.041      24.886      20.391      24.933      29.304      32.941      35.348      36.190    
  35.348      32.939      29.304      24.934      20.392      16.205      12.775      10.297      8.7277      7.7829    
  7.0878      6.5421      6.1522      5.8998      5.7607      5.7171      5.7605      5.9003      6.1523      6.5425    
  7.0883      7.7822      8.7289      10.295      12.776      16.206      13.525      16.265      19.149      21.796    
  23.824      24.923      24.923      23.824      21.798      19.150      16.265      13.524      11.232      9.5422    
  8.4288      7.6727      7.0508      6.5543      6.1867      5.9376      5.7870      5.7170      5.7172      5.7865    
  5.9373      6.1865      6.5533      7.0520      7.6712      8.4311      9.5421      11.230      9.9234      11.295    
  12.899      14.531      15.940      16.896      17.235      16.896      15.939      14.528      12.899      11.297    
  9.9250      8.8835      8.1387      7.5359      7.0075      6.5775      6.2499      6.0187      5.8691      5.7868    
  5.7609      5.7873      5.8697      6.0187      6.2510      6.5764      7.0085      7.5346      8.1373      8.8867    
  8.3607      8.9538      9.6735      10.483      11.273      11.903      12.253      12.253      11.903      11.275    
  10.485      9.6740      8.9504      8.3610      7.8557      7.3837      6.9658      6.6190      6.3490      6.1520    
  6.0187      5.9378      5.8996      5.8993      5.9369      6.0183      6.1511      6.3498      6.6189      6.9662    
  7.3860      7.8526      7.5722      7.9206      8.2717      8.6253      8.9739      9.2853      9.5031      9.5814    
  9.5031      9.2844      8.9727      8.6226      8.2732      7.9237      7.5702      7.2335      6.9352      6.6867    
  6.4924      6.3491      6.2499      6.1866      6.1523      6.1418      6.1530      6.1875      6.2510      6.3488    
  6.4919      6.6863      6.9332      7.2353      7.0979      7.3038      7.5214      7.7310      7.9216      8.0782    
  8.1917      8.2524      8.2520      8.1924      8.0792      7.9235      7.7324      7.5190      7.3021      7.1001    
  6.9258      6.7877      6.6866      6.6189      6.5776      6.5544      6.5420      6.5367      6.5364      6.5412    
  6.5528      6.5773      6.6196      6.6875      6.7893      6.9247      6.9471      6.9937      7.0692      7.1651    
  7.2640      7.3560      7.4281      7.4731      7.4891      7.4730      7.4275      7.3542      7.2631      7.1646    
  7.0712      6.9948      6.9452      6.9258      6.9352      6.9658      7.0074      7.0507      7.0879      7.1122    
  7.1207      7.1127      7.0893      7.0519      7.0072      6.9643      6.9334      6.9270      7.0977      6.9959    
  6.9256      6.8864      6.8773      6.8846      6.9009      6.9176      6.9266      6.9272      6.9173      6.9024    
  6.8859      6.8773      6.8868      6.9241      6.9948      7.1001      7.2335      7.3836      7.5359      7.6728    
  7.7828      7.8631      7.9065      7.9063      7.8620      7.7815      7.6719      7.5375      7.3864      7.2324    
  7.5734      7.3011      7.0694      6.8877      6.7512      6.6611      6.6054      6.5734      6.5592      6.5541    
  6.5590      6.5728      6.6043      6.6603      6.7518      6.8867      7.0712      7.3021      7.5702      7.8557    
  8.1387      8.4286      8.7278      9.0004      9.1939      9.2641      9.1946      9.0015      8.7291      8.4285    
  8.1353      7.8556      8.3578      7.9235      7.5217      7.1631      6.8780      6.6599      6.5075      6.4102    
  6.3527      6.3281      6.3274      6.3540      6.4103      6.5085      6.6602      6.8774      7.1646      7.5191    
  7.9236      8.3610      8.8835      9.5424      10.297      11.040      11.637      11.970      11.970      11.637    
  11.039      10.297      9.5445      8.8856      9.9259      8.9527      8.2696      7.7341      7.2626      6.8860    
  6.6052      6.4103      6.2895      6.2236      6.2039      6.2234      6.2886      6.4104      6.6042      6.8860    
  7.2630      7.7324      8.2732      8.9506      9.9249      11.232      12.775      14.357      15.731      16.667    
  16.998      16.667      15.732      14.357      12.774      11.230      13.524      11.295      9.6762      8.6223    
  7.9226      7.3554      6.9006      6.5738      6.3525      6.2241      6.1634      6.1647      6.2235      6.3537    
  6.5731      6.9022      7.3544      7.9233      8.6227      9.6737      11.297      13.524      16.205      19.042    
  21.653      23.656      24.743      24.743      23.656      21.652      19.043      16.206      20.392      16.266    
  12.897      10.485      8.9739      8.0780      7.4290      6.9167      6.5599      6.3271      6.2046      6.1632    
  6.2040      6.3275      6.5590      6.9173      7.4275      8.0792      8.9727      10.485      12.899      16.265    
  20.392      24.886      29.222      32.836      35.233      36.073      35.234      32.837      29.221      24.886    
  31.412      24.933      19.151      14.529      11.273      9.2856      8.1909      7.4737      6.9262      6.5548    
  6.3273      6.2241      6.2237      6.3279      6.5543      6.9270      7.4732      8.1922      9.2845      11.274    
  14.529      19.150      24.934      31.412      37.919      43.702      48.038      50.363      50.363      48.038    
  43.702      37.920      46.965      37.952      29.303      21.797      15.940      11.902      9.5043      8.2514    
  7.4899      6.9260      6.5599      6.3523      6.2897      6.3528      6.5593      6.9265      7.4892      8.2519    
  9.5032      11.903      15.939      21.798      29.304      37.952      46.965      55.409      62.318      66.851    
  68.431      66.851      62.318      55.408      66.872      55.422      43.752      32.940      23.824      16.897    
  12.252      9.5820      8.2516      7.4737      6.9169      6.5738      6.4104      6.4099      6.5736      6.9174    
  7.4733      8.2522      9.5816      12.253      16.896      23.824      32.939      43.752      55.423      66.872    
  76.900      84.360      88.343      88.343      84.360      76.900      90.399      76.899      62.335      48.095    
  35.349      24.922      17.236      12.252      9.5043      8.1906      7.4291      6.9003      6.6054      6.5074    
  6.6055      6.9007      7.4282      8.1915      9.5033      12.253      17.235      24.923      35.348      48.096    
  62.334      76.899      90.399      101.39      108.59      111.09      108.59      101.39      116.26      101.38    
  84.350      66.865      50.421      36.191      24.922      16.897      11.903      9.2856      8.0782      7.3553    
  6.8861      6.6596      6.6613      6.8844      7.3562      8.0780      9.2855      11.903      16.897      24.923    
  36.190      50.422      66.865      84.350      101.38      116.26      127.33      133.25      133.25      127.33    
  142.61      127.31      108.56      88.325      68.444      50.421      35.349      23.823      15.940      11.273    
  8.9742      7.9221      7.2631      6.8777      6.7516      6.8770      7.2644      7.9213      8.9742      11.273    
  15.940      23.823      35.348      50.422      68.443      88.326      108.56      127.31      142.61      152.65    
  156.15      152.65      167.13      152.63      133.22      111.06      88.325      66.866      48.095      32.941    
  21.796      14.530      10.485      8.6229      7.7337      7.1633      6.8874      6.8867      7.1647      7.7314    
  8.6249      10.483      14.530      21.796      32.940      48.095      66.865      88.326      111.06      133.22    
  152.63      167.13      174.89      174.89      187.22      174.88      156.13      133.22      108.56      84.350    
  62.334      43.752      29.303      19.150      12.897      9.6760      8.2698      7.5218      7.0694      6.9256    
  7.0692      7.5213      8.2718      9.6735      12.899      19.149      29.305      43.751      62.335      84.350    
  108.56      133.22      156.13      174.88      187.22      191.53      200.46      191.53      174.88      152.63    
  127.31      101.38      76.899      55.423      37.952      24.933      16.266      11.295      8.9525      7.9235    
  7.3010      6.9960      6.9936      7.3039      7.9205      8.9538      11.295      16.265      24.933      37.952    
  55.423      76.899      101.38      127.31      152.63      174.88      191.53      200.46      193.43      189.08    
  176.62      157.69      134.56      109.66      85.211      62.967      44.180      29.558      19.269      12.921    
  9.6437      8.2134      7.4602      7.0042      6.8595      7.0041      7.4599      8.2157      9.6405      12.923    
  19.268      29.559      44.180      62.968      85.211      109.66      134.56      157.69      176.62      189.08    
  189.08      189.08      180.68      165.00      144.03      120.12      95.597      72.438      52.132      35.658    
  23.444      15.383      10.817      8.6915      7.7281      7.1273      6.8345      6.8329      7.1294      7.7250    
  8.6935      10.817      15.382      23.445      35.658      52.132      72.438      95.597      120.12      144.03    
  165.00      180.68      176.62      180.68      176.62      165.00      147.33      125.71      102.40      79.484    
  58.648      41.089      27.489      17.999      12.217      9.2802      7.9906      7.2691      6.8358      6.6971    
  6.8354      7.2697      7.9916      9.2778      12.219      17.998      27.490      41.088      58.648      79.484    
  102.40      125.70      147.33      165.00      157.69      165.00      165.00      157.69      144.03      125.70    
  104.77      83.247      62.926      45.167      30.870      20.416      13.662      9.9510      8.2561      7.4102    
  6.8603      6.5943      6.5945      6.8604      7.4088      8.2581      9.9499      13.663      20.416      30.869    
  45.167      62.925      83.247      104.77      125.70      144.03      134.56      144.02      147.32      144.02    
  134.56      120.12      102.40      83.246      64.416      47.354      33.115      22.276      14.922      10.617    
  8.5230      7.5367      6.8959      6.5253      6.4031      6.5248      6.8973      7.5353      8.5236      10.617    
  14.922      22.276      33.114      47.354      64.416      83.245      102.40      120.12      109.66      120.12    
  125.70      125.70      120.12      109.66      95.598      79.485      62.925      47.355      33.900      23.288    
  15.780      11.156      8.7625      7.6390      6.9341      6.4812      6.2614      6.2634      6.4790      6.9361    
  7.6380      8.7628      11.156      15.780      23.287      33.901      47.354      62.926      79.484      95.597    
  85.211      95.602      102.40      104.77      102.40      95.602      85.211      72.437      58.648      45.167    
  33.114      23.287      16.086      11.457      8.9332      7.7111      6.9677      6.4536      6.1647      6.0698    
  6.1648      6.4535      6.9671      7.7122      8.9323      11.458      16.085      23.288      33.114      45.166    
  58.649      72.438      62.968      72.455      79.507      83.271      83.272      79.508      72.454      62.969    
  52.133      41.089      30.869      22.277      15.780      11.458      8.9937      7.7510      6.9879      6.4404    
  6.1004      5.9401      5.9394      6.1012      6.4402      6.9876      7.7510      8.9934      11.457      15.780    
  22.276      30.871      41.088      52.133      44.179      52.165      58.700      62.986      64.478      62.985    
  58.699      52.165      44.180      35.657      27.489      20.416      14.921      11.157      8.9323      7.7508    
  6.9954      6.4340      6.0660      5.8600      5.7953      5.8599      6.0655      6.4348      6.9949      7.7517    
  8.9320      11.157      14.921      20.415      27.490      35.658      29.559      35.707      41.170      45.269    
  47.467      47.467      45.270      41.172      35.706      29.559      23.445      17.998      13.661      10.619    
  8.7617      7.7126      6.9876      6.4345      6.0544      5.8228      5.7150      5.7152      5.8231      6.0540    
  6.4344      6.9872      7.7121      8.7625      10.618      13.664      17.997      23.445      19.268      23.507    
  27.601      31.017      33.280      34.073      33.280      31.015      27.601      23.507      19.268      15.381    
  12.219      9.9516      8.5218      7.6398      6.9662      6.4408      6.0653      5.8232      5.6894      5.6476    
  5.6892      5.8235      6.0654      6.4411      6.9667      7.6388      8.5228      9.9495      12.219      15.383    
  12.923      15.454      18.131      20.597      22.492      23.519      23.520      22.492      20.599      18.132    
  15.453      12.922      10.819      9.2773      8.2567      7.5370      6.9340      6.4548      6.1003      5.8603    
  5.7150      5.6478      5.6477      5.7146      5.8601      6.1002      6.4540      6.9351      7.5361      8.2583    
  9.2780      10.817      9.6405      10.893      12.365      13.869      15.172      16.059      16.373      16.058    
  15.171      13.866      12.364      10.895      9.6417      8.6900      7.9941      7.4085      6.8967      6.4804    