   2   2   1   0
  0.1114038E+02  0.2517198E-09  0.2517198E-09  0.4060360E-09  0.5000000E-15
  1.000000000000000E-004
  CAR 
 Co-hcc                                  
     55.74401534     -1.47423211  301      9.84482810      1.00000000
     -1.474  0.0000E+00  0.0000E+00  0.0000E+00  0.0000E+00
     -1.284  0.0000E+00  0.0000E+00  0.0000E+00  0.0000E+00
     -1.093  0.0000E+00  0.0000E+00  0.0000E+00  0.0000E+00
     -0.902  0.0000E+00  0.0000E+00  0.0000E+00  0.0000E+00
     -0.711  0.0000E+00  0.0000E+00  0.0000E+00  0.0000E+00
     -0.521  0.0000E+00  0.0000E+00  0.0000E+00  0.0000E+00
     -0.330  0.0000E+00  0.0000E+00  0.0000E+00  0.0000E+00
     -0.139  0.0000E+00  0.0000E+00  0.0000E+00  0.0000E+00
      0.052  0.0000E+00  0.0000E+00  0.0000E+00  0.0000E+00
      0.242  0.0000E+00  0.0000E+00  0.0000E+00  0.0000E+00
      0.433  0.0000E+00  0.0000E+00  0.0000E+00  0.0000E+00
      0.624  0.0000E+00  0.0000E+00  0.0000E+00  0.0000E+00
      0.814  0.0000E+00  0.0000E+00  0.0000E+00  0.0000E+00
      1.005  0.1006E-07  0.1359E-07  0.1920E-08  0.2592E-08
      1.196  0.4470E-04  0.4504E-04  0.8527E-05  0.8592E-05
      1.387  0.2851E-03  0.2899E-03  0.6290E-04  0.6389E-04
      1.577  0.5973E-03  0.5939E-03  0.1768E-03  0.1772E-03
      1.768  0.1109E-03  0.1073E-03  0.1980E-03  0.1976E-03
      1.959  0.6567E-03  0.6219E-03  0.3232E-03  0.3162E-03
      2.150  0.1031E-02  0.1053E-02  0.5199E-03  0.5171E-03
      2.340  0.5186E-03  0.5264E-03  0.6188E-03  0.6175E-03
      2.531  0.6253E-03  0.6270E-03  0.7381E-03  0.7371E-03
      2.722  0.1412E-02  0.1230E-02  0.1007E-02  0.9716E-03
      2.913  0.1298E-02  0.1414E-02  0.1255E-02  0.1241E-02
      3.103  0.5334E-03  0.3001E-03  0.1357E-02  0.1299E-02
      3.294  0.2270E-02  0.1947E-02  0.1790E-02  0.1670E-02
      3.485  0.3437E-03  0.9368E-03  0.1855E-02  0.1849E-02
      3.675  0.1149E-02  0.9172E-03  0.2074E-02  0.2024E-02
      3.866  0.2226E-02  0.7835E-03  0.2499E-02  0.2173E-02
      4.057  0.2013E-02  0.2987E-02  0.2883E-02  0.2743E-02
      4.248  0.2723E-02  0.1614E-02  0.3402E-02  0.3051E-02
      4.438  0.1371E-02  0.1764E-02  0.3664E-02  0.3387E-02
      4.629  0.3059E-02  0.1070E-02  0.4247E-02  0.3591E-02
      4.820  0.4388E-02  0.2243E-02  0.5084E-02  0.4019E-02
      5.011  0.1048E-01  0.2351E-02  0.7083E-02  0.4467E-02
      5.201  0.8832E-02  0.2653E-02  0.8767E-02  0.4973E-02
      5.392  0.1541E-01  0.3072E-02  0.1171E-01  0.5559E-02
      5.583  0.1301E-01  0.3598E-02  0.1419E-01  0.6245E-02
      5.773  0.2211E-01  0.5185E-02  0.1840E-01  0.7234E-02
      5.964  0.1538E-01  0.3332E-02  0.2134E-01  0.7870E-02
      6.155  0.1828E-01  0.1122E-01  0.2482E-01  0.1001E-01
      6.346  0.1856E-01  0.7771E-02  0.2836E-01  0.1149E-01
      6.536  0.2152E-01  0.8648E-02  0.3247E-01  0.1314E-01
      6.727  0.2336E-01  0.1034E-01  0.3692E-01  0.1511E-01
      6.918  0.1021E-01  0.1442E-01  0.3887E-01  0.1786E-01
      7.109  0.2520E-01  0.1453E-01  0.4368E-01  0.2063E-01
      7.299  0.3089E-01  0.1194E-01  0.4957E-01  0.2291E-01
      7.490  0.2974E-01  0.1458E-01  0.5524E-01  0.2569E-01
      7.681  0.3147E-01  0.1796E-01  0.6124E-01  0.2912E-01
      7.871  0.2981E-01  0.1892E-01  0.6693E-01  0.3273E-01
      8.062  0.2300E-01  0.1968E-01  0.7131E-01  0.3648E-01
      8.253  0.2023E-01  0.9134E-02  0.7517E-01  0.3822E-01
      8.444  0.1930E-01  0.8748E-02  0.7885E-01  0.3989E-01
      8.634  0.1591E-01  0.2148E-01  0.8189E-01  0.4399E-01
      8.825  0.2719E-01  0.2452E-01  0.8708E-01  0.4866E-01
      9.016  0.3270E-01  0.2685E-01  0.9331E-01  0.5378E-01
      9.207  0.4877E-01  0.2744E-01  0.1026E+00  0.5902E-01
      9.397  0.9804E-02  0.3078E-01  0.1045E+00  0.6489E-01
      9.588  0.1820E-02  0.1998E-01  0.1048E+00  0.6870E-01
      9.779  0.7009E-02  0.1797E-01  0.1062E+00  0.7213E-01
      9.969  0.3727E-02  0.1355E-01  0.1069E+00  0.7471E-01
     10.160  0.2149E-02  0.1884E-01  0.1073E+00  0.7830E-01
     10.351  0.1498E-02  0.1139E-01  0.1076E+00  0.8047E-01
     10.542  0.7515E-03  0.1635E-01  0.1077E+00  0.8359E-01
     10.732  0.2819E-02  0.2305E-01  0.1083E+00  0.8799E-01
     10.923  0.6992E-02  0.2955E-01  0.1096E+00  0.9362E-01
     11.114  0.4160E-02  0.4600E-01  0.1104E+00  0.1024E+00
     11.305  0.1520E-02  0.1619E-01  0.1107E+00  0.1055E+00
     11.495  0.2102E-02  0.6781E-02  0.1111E+00  0.1068E+00
     11.686  0.1379E-02  0.3800E-02  0.1113E+00  0.1075E+00
     11.877  0.2877E-02  0.3174E-02  0.1119E+00  0.1081E+00
     12.067  0.1719E-02  0.4131E-02  0.1122E+00  0.1089E+00
     12.258  0.3414E-02  0.4173E-02  0.1129E+00  0.1097E+00
     12.449  0.1063E-02  0.4898E-02  0.1131E+00  0.1106E+00
     12.640  0.4360E-02  0.2794E-02  0.1139E+00  0.1112E+00
     12.830  0.7652E-03  0.3818E-02  0.1140E+00  0.1119E+00
     13.021  0.1844E-02  0.1773E-02  0.1144E+00  0.1122E+00
     13.212  0.1965E-02  0.2117E-02  0.1148E+00  0.1126E+00
     13.403  0.5704E-02  0.3344E-02  0.1159E+00  0.1133E+00
     13.593  0.1635E-02  0.2778E-02  0.1162E+00  0.1138E+00
     13.784  0.2074E-02  0.1674E-02  0.1166E+00  0.1141E+00
     13.975  0.2365E-02  0.3286E-02  0.1170E+00  0.1147E+00
     14.165  0.4260E-03  0.4208E-02  0.1171E+00  0.1155E+00
     14.356  0.1855E-02  0.2252E-02  0.1175E+00  0.1160E+00
     14.547  0.7510E-03  0.1449E-02  0.1176E+00  0.1163E+00
     14.738  0.1560E-02  0.3122E-02  0.1179E+00  0.1168E+00
     14.928  0.7801E-03  0.1823E-02  0.1180E+00  0.1172E+00
     15.119  0.5399E-02  0.1517E-02  0.1191E+00  0.1175E+00
     15.310  0.1786E-02  0.1473E-02  0.1194E+00  0.1178E+00
     15.501  0.1294E-02  0.7225E-03  0.1197E+00  0.1179E+00
     15.691  0.5900E-04  0.2141E-02  0.1197E+00  0.1183E+00
     15.882  0.1598E-04  0.4914E-02  0.1197E+00  0.1192E+00
     16.073  0.5201E-03  0.1559E-02  0.1198E+00  0.1195E+00
     16.263  0.1586E-02  0.6440E-03  0.1201E+00  0.1197E+00
     16.454  0.7428E-03  0.3902E-05  0.1202E+00  0.1197E+00
     16.645  0.5422E-03  0.1026E-04  0.1203E+00  0.1197E+00
     16.836  0.7492E-03  0.1211E-02  0.1205E+00  0.1199E+00
     17.026  0.1953E-02  0.3509E-03  0.1208E+00  0.1200E+00
     17.217  0.2799E-02  0.8555E-03  0.1214E+00  0.1201E+00
     17.408  0.8781E-02  0.1073E-02  0.1230E+00  0.1203E+00
     17.599  0.2830E-02  0.1296E-02  0.1236E+00  0.1206E+00
     17.789  0.2954E-02  0.6420E-03  0.1241E+00  0.1207E+00
     17.980  0.3737E-02  0.6021E-02  0.1249E+00  0.1219E+00
     18.171  0.3803E-02  0.5604E-02  0.1256E+00  0.1229E+00
     18.361  0.2366E-02  0.3711E-02  0.1260E+00  0.1236E+00
     18.552  0.4029E-02  0.4438E-02  0.1268E+00  0.1245E+00
     18.743  0.2232E-02  0.3181E-02  0.1272E+00  0.1251E+00
     18.934  0.3178E-02  0.4546E-02  0.1278E+00  0.1260E+00
     19.124  0.2775E-02  0.3248E-02  0.1284E+00  0.1266E+00
     19.315  0.3477E-02  0.2209E-02  0.1290E+00  0.1270E+00
     19.506  0.2711E-02  0.4405E-02  0.1295E+00  0.1278E+00
     19.697  0.4669E-02  0.2860E-02  0.1304E+00  0.1284E+00
     19.887  0.3365E-02  0.3024E-02  0.1311E+00  0.1290E+00
     20.078  0.5774E-02  0.2272E-02  0.1322E+00  0.1294E+00
     20.269  0.1827E-02  0.5527E-02  0.1325E+00  0.1304E+00
     20.459  0.4236E-02  0.5202E-02  0.1333E+00  0.1314E+00
     20.650  0.5791E-02  0.4747E-02  0.1344E+00  0.1323E+00
     20.841  0.2535E-02  0.1477E-02  0.1349E+00  0.1326E+00
     21.032  0.2436E-02  0.6195E-02  0.1354E+00  0.1338E+00
     21.222  0.2769E-02  0.4078E-02  0.1359E+00  0.1346E+00
     21.413  0.5171E-02  0.3606E-02  0.1369E+00  0.1353E+00
     21.604  0.3148E-02  0.2316E-02  0.1375E+00  0.1357E+00
     21.795  0.3201E-02  0.3437E-02  0.1381E+00  0.1364E+00
     21.985  0.1172E-02  0.5584E-02  0.1383E+00  0.1374E+00
     22.176  0.3425E-02  0.1601E-02  0.1390E+00  0.1377E+00
     22.367  0.2829E-02  0.2614E-02  0.1395E+00  0.1382E+00
     22.557  0.1430E-02  0.2897E-02  0.1398E+00  0.1388E+00
     22.748  0.2931E-02  0.2833E-02  0.1404E+00  0.1393E+00
     22.939  0.5970E-02  0.1917E-02  0.1415E+00  0.1397E+00
     23.130  0.2425E-02  0.2268E-02  0.1420E+00  0.1401E+00
     23.320  0.1070E-02  0.6416E-02  0.1422E+00  0.1414E+00
     23.511  0.2842E-02  0.2334E-02  0.1427E+00  0.1418E+00
     23.702  0.6842E-02  0.1742E-02  0.1440E+00  0.1421E+00
     23.893  0.2204E-02  0.2751E-02  0.1444E+00  0.1427E+00
     24.083  0.2745E-02  0.6349E-02  0.1450E+00  0.1439E+00
     24.274  0.3673E-02  0.2918E-02  0.1457E+00  0.1444E+00
     24.465  0.3286E-02  0.1919E-02  0.1463E+00  0.1448E+00
     24.655  0.5534E-02  0.4147E-02  0.1473E+00  0.1456E+00
     24.846  0.4055E-02  0.4113E-02  0.1481E+00  0.1464E+00
     25.037  0.4682E-02  0.6020E-02  0.1490E+00  0.1475E+00
     25.228  0.6366E-02  0.4068E-02  0.1502E+00  0.1483E+00
     25.418  0.3517E-02  0.4375E-02  0.1509E+00  0.1491E+00
     25.609  0.2593E-02  0.6281E-02  0.1514E+00  0.1503E+00
     25.800  0.2944E-02  0.2723E-02  0.1519E+00  0.1508E+00
     25.991  0.6359E-02  0.3449E-02  0.1532E+00  0.1515E+00
     26.181  0.1513E-02  0.5214E-02  0.1534E+00  0.1525E+00
     26.372  0.5878E-02  0.4456E-02  0.1546E+00  0.1533E+00
     26.563  0.6443E-02  0.1477E-02  0.1558E+00  0.1536E+00
     26.753  0.3193E-02  0.8804E-02  0.1564E+00  0.1553E+00
     26.944  0.2556E-02  0.3240E-02  0.1569E+00  0.1559E+00
     27.135  0.6775E-02  0.3940E-02  0.1582E+00  0.1567E+00
     27.326  0.2214E-02  0.4842E-02  0.1586E+00  0.1576E+00
     27.516  0.4567E-02  0.4615E-02  0.1595E+00  0.1585E+00
     27.707  0.3229E-02  0.3936E-02  0.1601E+00  0.1592E+00
     27.898  0.3857E-02  0.2944E-02  0.1608E+00  0.1598E+00
     28.089  0.3521E-02  0.3499E-02  0.1615E+00  0.1605E+00
     28.279  0.5486E-02  0.4935E-02  0.1626E+00  0.1614E+00
     28.470  0.3934E-02  0.4661E-02  0.1633E+00  0.1623E+00
     28.661  0.3638E-02  0.4509E-02  0.1640E+00  0.1631E+00
     28.851  0.7545E-02  0.4055E-02  0.1654E+00  0.1639E+00
     29.042  0.2241E-02  0.4633E-02  0.1659E+00  0.1648E+00
     29.233  0.3932E-02  0.5604E-02  0.1666E+00  0.1659E+00
     29.424  0.4175E-02  0.3125E-02  0.1674E+00  0.1665E+00
     29.614  0.4307E-02  0.4975E-02  0.1682E+00  0.1674E+00
     29.805  0.4039E-02  0.4226E-02  0.1690E+00  0.1682E+00
     29.996  0.4601E-02  0.5021E-02  0.1699E+00  0.1692E+00
     30.187  0.3074E-02  0.3154E-02  0.1705E+00  0.1698E+00
     30.377  0.4102E-02  0.2824E-02  0.1712E+00  0.1703E+00
     30.568  0.2662E-02  0.5022E-02  0.1718E+00  0.1713E+00
     30.759  0.4219E-02  0.2694E-02  0.1726E+00  0.1718E+00
     30.949  0.4589E-02  0.5046E-02  0.1734E+00  0.1728E+00
     31.140  0.6382E-02  0.3268E-02  0.1747E+00  0.1734E+00
     31.331  0.5183E-02  0.7160E-02  0.1756E+00  0.1747E+00
     31.522  0.1946E-02  0.4190E-02  0.1760E+00  0.1755E+00
     31.712  0.5271E-02  0.2959E-02  0.1770E+00  0.1761E+00
     31.903  0.3738E-02  0.4341E-02  0.1777E+00  0.1769E+00
     32.094  0.6184E-02  0.5640E-02  0.1789E+00  0.1780E+00
     32.285  0.5956E-02  0.4476E-02  0.1800E+00  0.1789E+00
     32.475  0.2997E-02  0.5040E-02  0.1806E+00  0.1798E+00
     32.666  0.7291E-03  0.3689E-02  0.1808E+00  0.1805E+00
     32.857  0.3087E-02  0.1761E-02  0.1813E+00  0.1809E+00
     33.047  0.4624E-02  0.2345E-02  0.1822E+00  0.1813E+00
     33.238  0.6109E-02  0.5312E-02  0.1834E+00  0.1823E+00
     33.429  0.4259E-02  0.3632E-02  0.1842E+00  0.1830E+00
     33.620  0.9734E-02  0.4886E-02  0.1861E+00  0.1839E+00
     33.810  0.4893E-02  0.8664E-02  0.1870E+00  0.1856E+00
     34.001  0.3770E-02  0.8090E-02  0.1877E+00  0.1871E+00
     34.192  0.5442E-02  0.4541E-02  0.1887E+00  0.1880E+00
     34.383  0.5235E-02  0.3106E-02  0.1897E+00  0.1886E+00
     34.573  0.3865E-02  0.5999E-02  0.1905E+00  0.1897E+00
     34.764  0.3044E-02  0.4833E-02  0.1911E+00  0.1907E+00
     34.955  0.3155E-02  0.3287E-02  0.1917E+00  0.1913E+00
     35.145  0.1273E-02  0.3202E-02  0.1919E+00  0.1919E+00
     35.336  0.6075E-02  0.1269E-02  0.1931E+00  0.1921E+00
     35.527  0.2697E-02  0.4030E-02  0.1936E+00  0.1929E+00
     35.718  0.3071E-02  0.3530E-02  0.1942E+00  0.1936E+00
     35.908  0.5476E-02  0.2881E-02  0.1952E+00  0.1941E+00
     36.099  0.5741E-02  0.5458E-02  0.1963E+00  0.1952E+00
     36.290  0.6583E-02  0.6058E-02  0.1976E+00  0.1963E+00
     36.481  0.1904E-02  0.5220E-02  0.1979E+00  0.1973E+00
     36.671  0.3074E-02  0.2962E-02  0.1985E+00  0.1979E+00
     36.862  0.6159E-02  0.2839E-02  0.1997E+00  0.1984E+00
     37.053  0.4982E-02  0.6505E-02  0.2006E+00  0.1997E+00
     37.243  0.4298E-02  0.4099E-02  0.2015E+00  0.2005E+00
     37.434  0.2649E-02  0.5099E-02  0.2020E+00  0.2014E+00
     37.625  0.3976E-02  0.2522E-02  0.2027E+00  0.2019E+00
     37.816  0.8799E-02  0.3734E-02  0.2044E+00  0.2026E+00
     38.006  0.3638E-02  0.7739E-02  0.2051E+00  0.2041E+00
     38.197  0.3339E-02  0.4650E-02  0.2057E+00  0.2050E+00
     38.388  0.3579E-02  0.4266E-02  0.2064E+00  0.2058E+00
     38.579  0.3514E-02  0.3194E-02  0.2071E+00  0.2064E+00
     38.769  0.3351E-02  0.5363E-02  0.2077E+00  0.2074E+00
     38.960  0.5098E-02  0.1368E-02  0.2087E+00  0.2077E+00
     39.151  0.5574E-02  0.4666E-02  0.2098E+00  0.2086E+00
     39.341  0.6271E-02  0.6250E-02  0.2110E+00  0.2098E+00
     39.532  0.5732E-02  0.5872E-02  0.2120E+00  0.2109E+00
     39.723  0.5982E-02  0.6500E-02  0.2132E+00  0.2121E+00
     39.914  0.5136E-02  0.4972E-02  0.2142E+00  0.2131E+00
     40.104  0.1700E-02  0.5992E-02  0.2145E+00  0.2142E+00
     40.295  0.5940E-02  0.3035E-02  0.2156E+00  0.2148E+00
     40.486  0.5547E-02  0.4651E-02  0.2167E+00  0.2157E+00
     40.677  0.3720E-02  0.4549E-02  0.2174E+00  0.2166E+00
     40.867  0.2414E-02  0.5066E-02  0.2179E+00  0.2175E+00
     41.058  0.9346E-03  0.2226E-02  0.2180E+00  0.2180E+00
     41.249  0.5384E-02  0.1736E-02  0.2191E+00  0.2183E+00
     41.439  0.6295E-02  0.4490E-02  0.2203E+00  0.2191E+00
     41.630  0.5984E-02  0.5244E-02  0.2214E+00  0.2201E+00
     41.821  0.8343E-02  0.4513E-02  0.2230E+00  0.2210E+00
     42.012  0.5610E-02  0.8224E-02  0.2241E+00  0.2226E+00
     42.202  0.5770E-02  0.9126E-02  0.2252E+00  0.2243E+00
     42.393  0.5715E-02  0.4183E-02  0.2263E+00  0.2251E+00
     42.584  0.3695E-02  0.3769E-02  0.2270E+00  0.2258E+00
     42.775  0.6855E-02  0.6059E-02  0.2283E+00  0.2270E+00
     42.965  0.3599E-02  0.6008E-02  0.2290E+00  0.2281E+00
     43.156  0.7493E-02  0.5168E-02  0.2304E+00  0.2291E+00
     43.347  0.6546E-02  0.6165E-02  0.2316E+00  0.2303E+00
     43.537  0.3197E-02  0.7854E-02  0.2322E+00  0.2318E+00
     43.728  0.3122E-02  0.1772E-02  0.2328E+00  0.2321E+00
     43.919  0.7283E-02  0.2054E-02  0.2342E+00  0.2325E+00
     44.110  0.3865E-02  0.7361E-02  0.2350E+00  0.2339E+00
     44.300  0.6283E-02  0.5198E-02  0.2362E+00  0.2349E+00
     44.491  0.4473E-02  0.3860E-02  0.2370E+00  0.2357E+00
     44.682  0.6684E-02  0.7898E-02  0.2383E+00  0.2372E+00
     44.873  0.2384E-02  0.4989E-02  0.2387E+00  0.2381E+00
     45.063  0.6885E-02  0.1625E-02  0.2401E+00  0.2384E+00
     45.254  0.6218E-02  0.3401E-02  0.2412E+00  0.2391E+00
     45.445  0.9091E-02  0.7926E-02  0.2430E+00  0.2406E+00
     45.635  0.1037E-01  0.8303E-02  0.2450E+00  0.2422E+00
     45.826  0.4980E-02  0.3517E-02  0.2459E+00  0.2428E+00
     46.017  0.1045E-01  0.5018E-02  0.2479E+00  0.2438E+00
     46.208  0.1401E-01  0.4457E-02  0.2506E+00  0.2446E+00
     46.398  0.1570E-01  0.3666E-02  0.2536E+00  0.2453E+00
     46.589  0.1896E-01  0.6468E-02  0.2572E+00  0.2466E+00
     46.780  0.2485E-01  0.4035E-02  0.2619E+00  0.2473E+00
     46.971  0.1102E-01  0.6052E-02  0.2640E+00  0.2485E+00
     47.161  0.1040E-01  0.5059E-02  0.2660E+00  0.2495E+00
     47.352  0.6755E-02  0.4828E-02  0.2673E+00  0.2504E+00
     47.543  0.3043E-02  0.4273E-02  0.2679E+00  0.2512E+00
     47.733  0.3275E-02  0.8671E-02  0.2685E+00  0.2529E+00
     47.924  0.6822E-02  0.6070E-02  0.2698E+00  0.2540E+00
     48.115  0.4759E-02  0.7568E-02  0.2707E+00  0.2555E+00
     48.306  0.4655E-02  0.5376E-02  0.2716E+00  0.2565E+00
     48.496  0.5927E-02  0.4393E-02  0.2727E+00  0.2573E+00
     48.687  0.2793E-02  0.4450E-02  0.2733E+00  0.2582E+00
     48.878  0.2549E-02  0.5020E-02  0.2737E+00  0.2591E+00
     49.069  0.4169E-02  0.4923E-02  0.2745E+00  0.2601E+00
     49.259  0.2386E-02  0.3795E-02  0.2750E+00  0.2608E+00
     49.450  0.1506E-02  0.5383E-02  0.2753E+00  0.2618E+00
     49.641  0.5890E-02  0.7217E-02  0.2764E+00  0.2632E+00
     49.831  0.2677E-02  0.1327E-01  0.2769E+00  0.2657E+00
     50.022  0.1429E-02  0.7661E-02  0.2772E+00  0.2672E+00
     50.213  0.1558E-02  0.1150E-01  0.2775E+00  0.2694E+00
     50.404  0.2499E-02  0.1471E-01  0.2780E+00  0.2722E+00
     50.594  0.1872E-02  0.1074E-01  0.2783E+00  0.2742E+00
     50.785  0.7678E-03  0.7716E-02  0.2785E+00  0.2757E+00
     50.976  0.7155E-03  0.4898E-02  0.2786E+00  0.2766E+00
     51.167  0.1760E-02  0.7193E-02  0.2789E+00  0.2780E+00
     51.357  0.5454E-03  0.2718E-02  0.2790E+00  0.2785E+00
     51.548  0.1542E-02  0.2111E-02  0.2793E+00  0.2789E+00
     51.739  0.8882E-04  0.1678E-02  0.2793E+00  0.2792E+00
     51.929  0.1463E-03  0.5415E-03  0.2794E+00  0.2793E+00
     52.120  0.1093E-02  0.4000E-05  0.2796E+00  0.2793E+00
     52.311  0.7173E-03  0.3294E-04  0.2797E+00  0.2794E+00
     52.502  0.9141E-04  0.1873E-02  0.2797E+00  0.2797E+00
     52.692  0.9038E-03  0.3320E-04  0.2799E+00  0.2797E+00
     52.883  0.1885E-03  0.1125E-03  0.2799E+00  0.2797E+00
     53.074  0.5385E-04  0.1091E-02  0.2800E+00  0.2799E+00
     53.265  0.2192E-03  0.2706E-03  0.2800E+00  0.2800E+00
     53.455  0.7574E-09  0.8153E-07  0.2800E+00  0.2800E+00
     53.646  0.0000E+00  0.0000E+00  0.2800E+00  0.2800E+00
     53.837  0.0000E+00  0.0000E+00  0.2800E+00  0.2800E+00
     54.027  0.0000E+00  0.0000E+00  0.2800E+00  0.2800E+00
     54.218  0.0000E+00  0.0000E+00  0.2800E+00  0.2800E+00
     54.409  0.0000E+00  0.0000E+00  0.2800E+00  0.2800E+00
     54.600  0.0000E+00  0.0000E+00  0.2800E+00  0.2800E+00
     54.790  0.0000E+00  0.0000E+00  0.2800E+00  0.2800E+00
     54.981  0.0000E+00  0.0000E+00  0.2800E+00  0.2800E+00
     55.172  0.0000E+00  0.0000E+00  0.2800E+00  0.2800E+00
     55.363  0.0000E+00  0.0000E+00  0.2800E+00  0.2800E+00
     55.553  0.0000E+00  0.0000E+00  0.2800E+00  0.2800E+00
     55.744  0.0000E+00  0.0000E+00  0.2800E+00  0.2800E+00
     55.74401534     -1.47423211  301      9.84482810      1.00000000
     -1.474  0.0000E+00  0.0000E+00  0.0000E+00  0.0000E+00  0.0000E+00  0.0000E+00  0.0000E+00  0.0000E+00  0.0000E+00  0.0000E+00  0.0000E+00  0.0000E+00  0.0000E+00  0.0000E+00  0.0000E+00  0.0000E+00  0.0000E+00  0.0000E+00
     -1.284  0.0000E+00  0.0000E+00  0.0000E+00  0.0000E+00  0.0000E+00  0.0000E+00  0.0000E+00  0.0000E+00  0.0000E+00  0.0000E+00  0.0000E+00  0.0000E+00  0.0000E+00  0.0000E+00  0.0000E+00  0.0000E+00  0.0000E+00  0.0000E+00
     -1.093  0.0000E+00  0.0000E+00  0.0000E+00  0.0000E+00  0.0000E+00  0.0000E+00  0.0000E+00  0.0000E+00  0.0000E+00  0.0000E+00  0.0000E+00  0.0000E+00  0.0000E+00  0.0000E+00  0.0000E+00  0.0000E+00  0.0000E+00  0.0000E+00
     -0.902  0.0000E+00  0.0000E+00  0.0000E+00  0.0000E+00  0.0000E+00  0.0000E+00  0.0000E+00  0.0000E+00  0.0000E+00  0.0000E+00  0.0000E+00  0.0000E+00  0.0000E+00  0.0000E+00  0.0000E+00  0.0000E+00  0.0000E+00  0.0000E+00
     -0.711  0.0000E+00  0.0000E+00  0.0000E+00  0.0000E+00  0.0000E+00  0.0000E+00  0.0000E+00  0.0000E+00  0.0000E+00  0.0000E+00  0.0000E+00  0.0000E+00  0.0000E+00  0.0000E+00  0.0000E+00  0.0000E+00  0.0000E+00  0.0000E+00
     -0.521  0.0000E+00  0.0000E+00  0.0000E+00  0.0000E+00  0.0000E+00  0.0000E+00  0.0000E+00  0.0000E+00  0.0000E+00  0.0000E+00  0.0000E+00  0.0000E+00  0.0000E+00  0.0000E+00  0.0000E+00  0.0000E+00  0.0000E+00  0.0000E+00
     -0.330  0.0000E+00  0.0000E+00  0.0000E+00  0.0000E+00  0.0000E+00  0.0000E+00  0.0000E+00  0.0000E+00  0.0000E+00  0.0000E+00  0.0000E+00  0.0000E+00  0.0000E+00  0.0000E+00  0.0000E+00  0.0000E+00  0.0000E+00  0.0000E+00
     -0.139  0.0000E+00  0.0000E+00  0.0000E+00  0.0000E+00  0.0000E+00  0.0000E+00  0.0000E+00  0.0000E+00  0.0000E+00  0.0000E+00  0.0000E+00  0.0000E+00  0.0000E+00  0.0000E+00  0.0000E+00  0.0000E+00  0.0000E+00  0.0000E+00
      0.052  0.0000E+00  0.0000E+00  0.0000E+00  0.0000E+00  0.0000E+00  0.0000E+00  0.0000E+00  0.0000E+00  0.0000E+00  0.0000E+00  0.0000E+00  0.0000E+00  0.0000E+00  0.0000E+00  0.0000E+00  0.0000E+00  0.0000E+00  0.0000E+00
      0.242  0.0000E+00  0.0000E+00  0.0000E+00  0.0000E+00  0.0000E+00  0.0000E+00  0.0000E+00  0.0000E+00  0.0000E+00  0.0000E+00  0.0000E+00  0.0000E+00  0.0000E+00  0.0000E+00  0.0000E+00  0.0000E+00  0.0000E+00  0.0000E+00
      0.433  0.0000E+00  0.0000E+00  0.0000E+00  0.0000E+00  0.0000E+00  0.0000E+00  0.0000E+00  0.0000E+00  0.0000E+00  0.0000E+00  0.0000E+00  0.0000E+00  0.0000E+00  0.0000E+00  0.0000E+00  0.0000E+00  0.0000E+00  0.0000E+00
      0.624  0.0000E+00  0.0000E+00  0.0000E+00  0.0000E+00  0.0000E+00  0.0000E+00  0.0000E+00  0.0000E+00  0.0000E+00  0.0000E+00  0.0000E+00  0.0000E+00  0.0000E+00  0.0000E+00  0.0000E+00  0.0000E+00  0.0000E+00  0.0000E+00
      0.814  0.0000E+00  0.0000E+00  0.0000E+00  0.0000E+00  0.0000E+00  0.0000E+00  0.0000E+00  0.0000E+00  0.0000E+00  0.0000E+00  0.0000E+00  0.0000E+00  0.0000E+00  0.0000E+00  0.0000E+00  0.0000E+00  0.0000E+00  0.0000E+00
      1.005  0.3538E-06  0.4770E-06  0.1241E-23  0.1014E-19  0.6503E-19  0.1099E-18  0.1241E-23  0.1014E-19  0.1313E-20  0.1785E-19  0.4376E-32  0.4481E-27  0.2372E-11  0.4869E-11  0.4376E-32  0.4481E-27  0.1313E-20  0.1785E-19
      1.196  0.1571E-02  0.1580E-02  0.6722E-10  0.8944E-10  0.2870E-06  0.3464E-06  0.6722E-10  0.8944E-10  0.1241E-11  0.1194E-11  0.3957E-23  0.1305E-20  0.1361E-07  0.1820E-07  0.3957E-23  0.1305E-20  0.1241E-11  0.1194E-11
      1.387  0.9824E-02  0.9975E-02  0.7584E-04  0.7824E-04  0.4650E-04  0.4673E-04  0.7584E-04  0.7824E-04  0.1400E-05  0.1044E-05  0.7321E-09  0.6122E-09  0.1951E-05  0.1548E-05  0.7321E-09  0.6122E-09  0.1400E-05  0.1044E-05
      1.577  0.2026E-01  0.2011E-01  0.2324E-03  0.2322E-03  0.2630E-03  0.2655E-03  0.2324E-03  0.2322E-03  0.4404E-05  0.3156E-05  0.8644E-05  0.6381E-05  0.6009E-06  0.4707E-06  0.8644E-05  0.6381E-05  0.4404E-05  0.3156E-05
      1.768  0.3691E-02  0.3565E-02  0.2255E-04  0.2090E-04  0.1571E-03  0.1561E-03  0.2255E-04  0.2090E-04  0.8500E-06  0.5570E-06  0.4798E-06  0.3304E-06  0.1045E-04  0.6898E-05  0.4798E-06  0.3304E-06  0.8500E-06  0.5570E-06
      1.959  0.2135E-01  0.2020E-01  0.5575E-03  0.5359E-03  0.5391E-03  0.5002E-03  0.5575E-03  0.5359E-03  0.2885E-04  0.1964E-04  0.2392E-04  0.1549E-04  0.3891E-04  0.2593E-04  0.2392E-04  0.1549E-04  0.2885E-04  0.1964E-04
      2.150  0.3317E-01  0.3385E-01  0.1023E-02  0.1038E-02  0.8529E-03  0.9009E-03  0.1023E-02  0.1038E-02  0.6986E-04  0.4801E-04  0.4833E-04  0.3525E-04  0.6455E-04  0.4592E-04  0.4833E-04  0.3525E-04  0.6986E-04  0.4801E-04
      2.340  0.1629E-01  0.1654E-01  0.7497E-03  0.7744E-03  0.2685E-03  0.2649E-03  0.7497E-03  0.7744E-03  0.7055E-04  0.4878E-04  0.4460E-04  0.3037E-04  0.2612E-04  0.1917E-04  0.4460E-04  0.3037E-04  0.7055E-04  0.4878E-04
      2.531  0.1914E-01  0.1921E-01  0.5819E-03  0.5936E-03  0.1377E-02  0.1398E-02  0.5819E-03  0.5936E-03  0.3951E-04  0.2699E-04  0.1276E-03  0.8866E-04  0.8931E-04  0.5540E-04  0.1276E-03  0.8866E-04  0.3951E-04  0.2699E-04
      2.722  0.4187E-01  0.3658E-01  0.1832E-02  0.1551E-02  0.3022E-02  0.2830E-02  0.1832E-02  0.1551E-02  0.2407E-03  0.1264E-03  0.2660E-03  0.1740E-03  0.4851E-03  0.2579E-03  0.2660E-03  0.1740E-03  0.2407E-03  0.1264E-03
      2.913  0.3769E-01  0.4134E-01  0.3002E-02  0.3226E-02  0.6667E-03  0.9331E-03  0.3002E-02  0.3226E-02  0.5237E-03  0.3612E-03  0.1989E-03  0.1283E-03  0.3308E-03  0.2651E-03  0.1989E-03  0.1283E-03  0.5237E-03  0.3612E-03
      3.103  0.1486E-01  0.8511E-02  0.8457E-03  0.5155E-03  0.1440E-02  0.7310E-03  0.8457E-03  0.5155E-03  0.1764E-03  0.5665E-04  0.2090E-03  0.7489E-04  0.2441E-03  0.7511E-04  0.2090E-03  0.7489E-04  0.1764E-03  0.5665E-04
      3.294  0.6160E-01  0.5376E-01  0.4879E-02  0.4354E-02  0.4151E-02  0.3574E-02  0.4879E-02  0.4354E-02  0.1218E-02  0.6481E-03  0.1332E-02  0.6535E-03  0.5773E-03  0.3432E-03  0.1332E-02  0.6535E-03  0.1218E-02  0.6481E-03
      3.485  0.9158E-02  0.2556E-01  0.3592E-03  0.1629E-02  0.1438E-02  0.2849E-02  0.3592E-03  0.1629E-02  0.6828E-04  0.2165E-03  0.1924E-03  0.3814E-03  0.4887E-03  0.3430E-03  0.1924E-03  0.3814E-03  0.6828E-04  0.2165E-03
      3.675  0.2898E-01  0.2379E-01  0.1877E-02  0.1293E-02  0.3878E-02  0.3957E-02  0.1877E-02  0.1293E-02  0.7155E-03  0.2627E-03  0.7603E-03  0.3736E-03  0.2040E-02  0.1096E-02  0.7603E-03  0.3736E-03  0.7155E-03  0.2627E-03
      3.866  0.5377E-01  0.1988E-01  0.6350E-02  0.2538E-02  0.3873E-02  0.9707E-03  0.6350E-02  0.2538E-02  0.2466E-02  0.5337E-03  0.2061E-02  0.2836E-03  0.1370E-02  0.3865E-03  0.2061E-02  0.2836E-03  0.2466E-02  0.5337E-03
      4.057  0.4683E-01  0.7348E-01  0.5208E-02  0.8521E-02  0.4516E-02  0.6976E-02  0.5208E-02  0.8521E-02  0.2758E-02  0.2109E-02  0.1722E-02  0.1663E-02  0.2906E-02  0.1792E-02  0.1722E-02  0.1663E-02  0.2758E-02  0.2109E-02
      4.248  0.5801E-01  0.3807E-01  0.6739E-02  0.4267E-02  0.6432E-02  0.5070E-02  0.6739E-02  0.4267E-02  0.4659E-02  0.1118E-02  0.5101E-02  0.1415E-02  0.3560E-02  0.1165E-02  0.5101E-02  0.1415E-02  0.4659E-02  0.1118E-02
      4.438  0.2619E-01  0.3978E-01  0.2672E-02  0.5598E-02  0.3280E-02  0.3597E-02  0.2672E-02  0.5598E-02  0.3544E-02  0.2088E-02  0.1299E-02  0.1973E-02  0.7935E-02  0.1111E-02  0.1299E-02  0.1973E-02  0.3544E-02  0.2088E-02
      4.629  0.5459E-01  0.2316E-01  0.6339E-02  0.2998E-02  0.9858E-02  0.2749E-02  0.6339E-02  0.2998E-02  0.6239E-02  0.1734E-02  0.1200E-01  0.3920E-03  0.2506E-02  0.3067E-02  0.1200E-01  0.3920E-03  0.6239E-02  0.1734E-02
      4.820  0.6627E-01  0.4606E-01  0.9725E-02  0.5107E-02  0.7901E-02  0.1026E-01  0.9725E-02  0.5107E-02  0.1702E-01  0.2012E-02  0.1188E-01  0.4200E-02  0.2165E-01  0.2729E-02  0.1188E-01  0.4200E-02  0.1702E-01  0.2012E-02
      5.011  0.1055E+00  0.4566E-01  0.1361E-01  0.6773E-02  0.7918E-02  0.7954E-02  0.1361E-01  0.6773E-02  0.5833E-01  0.3390E-02  0.6087E-01  0.4563E-02  0.5847E-01  0.3336E-02  0.6087E-01  0.4563E-02  0.5833E-01  0.3390E-02
      5.201  0.6972E-01  0.4985E-01  0.8006E-02  0.9076E-02  0.1105E-01  0.7028E-02  0.8006E-02  0.9076E-02  0.5028E-01  0.5264E-02  0.6913E-01  0.3107E-02  0.3795E-01  0.6387E-02  0.6913E-01  0.3107E-02  0.5028E-01  0.5264E-02
      5.392  0.8585E-01  0.5268E-01  0.1230E-01  0.1152E-01  0.1601E-01  0.3172E-02  0.1230E-01  0.1152E-01  0.1148E+00  0.1009E-01  0.9834E-01  0.5169E-02  0.1137E+00  0.6560E-02  0.9834E-01  0.5169E-02  0.1148E+00  0.1009E-01
      5.583  0.5133E-01  0.5519E-01  0.1129E-01  0.8149E-02  0.1324E-01  0.1283E-01  0.1129E-01  0.8149E-02  0.1166E+00  0.8592E-02  0.8690E-01  0.1177E-01  0.7410E-01  0.1238E-01  0.8690E-01  0.1177E-01  0.1166E+00  0.8592E-02
      5.773  0.5395E-01  0.6927E-01  0.1728E-01  0.1146E-01  0.1746E-01  0.1314E-01  0.1728E-01  0.1146E-01  0.1435E+00  0.1955E-01  0.1966E+00  0.2274E-01  0.1947E+00  0.1261E-01  0.1966E+00  0.2274E-01  0.1435E+00  0.1955E-01
      5.964  0.2606E-01  0.3540E-01  0.1494E-01  0.2696E-02  0.1860E-01  0.8666E-02  0.1494E-01  0.2696E-02  0.9427E-01  0.1130E-01  0.1596E+00  0.1441E-01  0.1032E+00  0.3563E-01  0.1596E+00  0.1441E-01  0.9427E-01  0.1130E-01
      6.155  0.2119E-01  0.1083E+00  0.2062E-01  0.2240E-01  0.1470E-01  0.1230E-01  0.2062E-01  0.2240E-01  0.1370E+00  0.6718E-01  0.1336E+00  0.6084E-01  0.2079E+00  0.3727E-01  0.1336E+00  0.6084E-01  0.1370E+00  0.6718E-01
      6.346  0.1028E-01  0.6375E-01  0.1751E-01  0.1207E-01  0.1452E-01  0.1473E-01  0.1751E-01  0.1207E-01  0.1715E+00  0.3499E-01  0.1162E+00  0.4804E-01  0.2121E+00  0.5090E-01  0.1162E+00  0.4804E-01  0.1715E+00  0.3499E-01
      6.536  0.1036E-01  0.5209E-01  0.2366E-01  0.1060E-01  0.1434E-01  0.1392E-01  0.2366E-01  0.1060E-01  0.2289E+00  0.5417E-01  0.1259E+00  0.6247E-01  0.2040E+00  0.4153E-01  0.1259E+00  0.6247E-01  0.2289E+00  0.5417E-01
      6.727  0.1347E-01  0.4060E-01  0.2590E-01  0.1109E-01  0.2175E-01  0.1652E-01  0.2590E-01  0.1109E-01  0.2497E+00  0.8593E-01  0.1382E+00  0.6209E-01  0.2070E+00  0.6446E-01  0.1382E+00  0.6209E-01  0.2497E+00  0.8593E-01
      6.918  0.4847E-02  0.4274E-01  0.9439E-02  0.1784E-01  0.8476E-02  0.1836E-01  0.9439E-02  0.1784E-01  0.1221E+00  0.9427E-01  0.4611E-01  0.1204E+00  0.1038E+00  0.9419E-01  0.4611E-01  0.1204E+00  0.1221E+00  0.9427E-01
      7.109  0.7237E-02  0.1806E-01  0.1546E-01  0.1391E-01  0.1941E-01  0.2092E-01  0.1546E-01  0.1391E-01  0.1573E+00  0.6618E-01  0.2534E+00  0.1770E+00  0.3036E+00  0.7984E-01  0.2534E+00  0.1770E+00  0.1573E+00  0.6618E-01
      7.299  0.1294E-01  0.9900E-02  0.1992E-01  0.1812E-01  0.2240E-01  0.1336E-01  0.1992E-01  0.1812E-01  0.2160E+00  0.9680E-01  0.3193E+00  0.7988E-01  0.3079E+00  0.1130E+00  0.3193E+00  0.7988E-01  0.2160E+00  0.9680E-01
      7.490  0.1245E-01  0.8872E-02  0.1389E-01  0.2631E-01  0.2285E-01  0.1449E-01  0.1389E-01  0.2631E-01  0.2838E+00  0.1238E+00  0.2794E+00  0.8079E-01  0.2203E+00  0.1590E+00  0.2794E+00  0.8079E-01  0.2838E+00  0.1238E+00
      7.681  0.1222E-01  0.9672E-02  0.1571E-01  0.3100E-01  0.2426E-01  0.1775E-01  0.1571E-01  0.3100E-01  0.3011E+00  0.1597E+00  0.3067E+00  0.9106E-01  0.2136E+00  0.2110E+00  0.3067E+00  0.9106E-01  0.3011E+00  0.1597E+00
      7.871  0.1093E-01  0.8724E-02  0.1974E-01  0.3412E-01  0.2251E-01  0.2440E-01  0.1974E-01  0.3412E-01  0.2606E+00  0.1741E+00  0.2854E+00  0.1024E+00  0.2525E+00  0.1899E+00  0.2854E+00  0.1024E+00  0.2606E+00  0.1741E+00
      8.062  0.5336E-02  0.9026E-02  0.1405E-01  0.3469E-01  0.1116E-01  0.2210E-01  0.1405E-01  0.3469E-01  0.2272E+00  0.2131E+00  0.2314E+00  0.8642E-01  0.1381E+00  0.1834E+00  0.2314E+00  0.8642E-01  0.2272E+00  0.2131E+00