    2    2  100    2
  0.1099296E+02  0.2506045E-09  0.2506045E-09  0.4042370E-09  0.5000000E-15
  1.000000000000000E-004
  CAR 
 Co-hcc                                  
     18     95     24
 
  0.0000000E+00  0.0000000E+00  0.0000000E+00  0.8680556E-03
      1          1.238373        1.234169   1.000000   1.000000
      2          4.992772        5.959401   1.000000   1.000000
      3          7.470413        9.134890   1.000000   1.000000
      4          7.477543        9.146426   1.000000   1.000000
      5          7.477543        9.146426   1.000000   1.000000
      6          7.784177        9.507681   1.000000   1.000000
      7          7.784177        9.507681   1.000000   1.000000
      8          8.119350        9.903717   1.000000   0.999843
      9          8.119350        9.903717   1.000000   0.999843
     10          9.204479        9.964284   1.000000   0.970652
     11          9.204479       11.107189   1.000000   0.000000
     12         10.032972       11.107190   0.479127   0.000000
     13         16.331492       17.357487   0.000000   0.000000
     14         31.901815       31.616960   0.000000   0.000000
     15         34.306827       34.661634   0.000000   0.000000
     16         34.306829       34.661634   0.000000   0.000000
     17         34.978813       34.820788   0.000000   0.000000
     18         35.444676       35.209970   0.000000   0.000000
     19         35.676691       35.974108   0.000000   0.000000
     20         35.676692       35.974111   0.000000   0.000000
     21         40.328223       40.258967   0.000000   0.000000
     22         40.328224       40.258969   0.000000   0.000000
     23         41.145206       41.382851   0.000000   0.000000
     24         41.717484       41.387382   0.000000   0.000000
 
  0.8333333E-01  0.1387779E-16  0.0000000E+00  0.5208333E-02
      1          1.478661        1.475352   1.000000   1.000000
      2          5.134741        6.122079   1.000000   1.000000
      3          7.251547        8.873181   1.000000   1.000000
      4          7.588086        9.268507   1.000000   1.000000
      5          7.659618        9.277740   1.000000   1.000000
      6          7.741003        9.351959   1.000000   1.000000
      7          7.881894        9.448057   1.000000   1.000000
      8          7.976484        9.615597   1.000000   1.000000
      9          8.050398        9.822811   1.000000   1.000000
     10          8.478247        9.849988   1.000000   1.000000
     11          9.233966       11.142382   1.000000   0.000000
     12         11.067995       11.998125   0.000000   0.000000
     13         16.375357       17.377839   0.000000   0.000000
     14         29.985754       30.086905   0.000000   0.000000
     15         32.218763       32.367059   0.000000   0.000000
     16         32.314530       32.549338   0.000000   0.000000
     17         35.454364       35.232320   0.000000   0.000000
     18         35.822994       35.759503   0.000000   0.000000
     19         37.209626       37.083044   0.000000   0.000000
     20         37.998245       38.296180   0.000000   0.000000
     21         38.762410       38.999491   0.000000   0.000000
     22         39.793651       39.804048   0.000000   0.000000
     23         40.716779       40.988096   0.000000   0.000000
     24         40.901741       41.203319   0.000000   0.000000
 
  0.1666667E+00  0.0000000E+00  0.0000000E+00  0.5208333E-02
      1          2.174018        2.177768   1.000000   1.000000
      2          5.484889        6.539389   1.000000   1.000000
      3          6.985568        8.425307   1.000000   1.000000
      4          7.301065        8.527649   1.000000   1.000000
      5          7.575428        9.230957   1.000000   1.000000
      6          7.880054        9.614594   1.000000   1.000000
      7          7.899768        9.624305   1.000000   1.000000
      8          7.956913        9.675889   1.000000   1.000000
      9          8.097048        9.694480   1.000000   1.000000
     10          8.154869        9.917634   1.000000   0.999336
     11          9.296959       11.216676   1.000000   0.000000
     12         12.632203       13.469755   0.000000   0.000000
     13         16.528243       17.457179   0.000000   0.000000
     14         26.168474       26.500954   0.000000   0.000000
     15         29.852454       30.160647   0.000000   0.000000
     16         31.387336       31.467446   0.000000   0.000000
     17         33.292368       33.298824   0.000000   0.000000
     18         35.558041       35.324875   0.000000   0.000000
     19         36.227438       36.397062   0.000000   0.000000
     20         38.375646       38.648497   0.000000   0.000000
     21         38.955069       39.059779   0.000000   0.000000
     22         39.577522       39.847327   0.000000   0.000000
     23         40.108997       40.395564   0.000000   0.000000
     24         41.559604       42.097382   0.000000   0.000000
 
  0.2500000E+00  0.4163336E-16  0.0000000E+00  0.5208333E-02
      1          3.226633        3.267326   1.000000   1.000000
      2          5.762942        6.947022   1.000000   1.000000
      3          6.593613        7.749883   1.000000   1.000000
      4          6.827590        8.225206   1.000000   1.000000
      5          7.489170        9.083994   1.000000   1.000000
      6          7.675093        9.387170   1.000000   1.000000
      7          7.901794        9.485508   1.000000   1.000000
      8          8.350458       10.106902   1.000000   0.016041
      9          8.373680       10.120948   1.000000   0.005532
     10          8.546997       10.353483   1.000000   0.000000
     11          9.356741       11.286154   1.000000   0.000000
     12         14.406080       15.156458   0.000000   0.000000
     13         16.822851       17.622297   0.000000   0.000000
     14         22.480719       22.951298   0.000000   0.000000
     15         27.801113       28.070592   0.000000   0.000000
     16         29.953380       30.085234   0.000000   0.000000
     17         30.180354       30.392432   0.000000   0.000000
     18         33.898658       34.358431   0.000000   0.000000
     19         34.531954       34.372955   0.000000   0.000000
     20         38.089363       38.452138   0.000000   0.000000
     21         38.277183       38.485448   0.000000   0.000000
     22         39.049833       39.116545   0.000000   0.000000
     23         40.167172       40.354832   0.000000   0.000000
     24         43.061140       43.347089   0.000000   0.000000
 
  0.3333333E+00  0.0000000E+00  0.0000000E+00  0.5208333E-02
      1          4.374230        4.572981   1.000000   1.000000
      2          5.695278        6.978744   1.000000   1.000000
      3          6.077192        7.274784   1.000000   1.000000
      4          6.944443        8.116496   1.000000   1.000000
      5          7.490460        9.174677   1.000000   1.000000
      6          7.612564        9.180778   1.000000   1.000000
      7          7.731745        9.280141   1.000000   1.000000
      8          8.829833       10.669475   1.000000   0.000000
      9          8.971883       10.744131   1.000000   0.000000
     10          9.043344       10.828722   1.000000   0.000000
     11          9.398046       11.333509   1.000000   0.000000
     12         16.344864       16.998029   0.000000   0.000000
     13         16.909234       17.548802   0.000000   0.000000
     14         19.631856       20.241905   0.000000   0.000000
     15         26.176056       26.391910   0.000000   0.000000
     16         26.896351       27.161625   0.000000   0.000000
     17         27.906322       28.278956   0.000000   0.000000
     18         32.439803       32.889920   0.000000   0.000000
     19         33.404253       33.243300   0.000000   0.000000
     20         36.321491       36.682557   0.000000   0.000000
     21         37.812355       38.037609   0.000000   0.000000
     22         39.803795       39.962975   0.000000   0.000000
     23         41.941946       42.106388   0.000000   0.000000
     24         44.148092       44.434987   0.000000   0.000000
 
  0.4166667E+00  0.5551115E-16  0.0000000E+00  0.5208333E-02
      1          5.121957        5.732877   1.000000   1.000000
      2          5.513199        6.773205   1.000000   1.000000
      3          5.767556        6.995233   1.000000   1.000000
      4          7.312466        8.154466   1.000000   1.000000
      5          7.364434        9.030131   1.000000   1.000000
      6          7.612070        9.131487   1.000000   1.000000
      7          7.811007        9.400846   1.000000   1.000000
      8          9.187446       11.082916   1.000000   0.000000
      9          9.323123       11.229565   1.000000   0.000000
     10          9.420271       11.358691   1.000000   0.000000
     11         10.148102       11.669213   0.000469   0.000000
     12         15.037609       15.808150   0.000000   0.000000
     13         18.353853       18.887572   0.000000   0.000000
     14         19.567330       20.073971   0.000000   0.000000
     15         24.228368       24.639209   0.000000   0.000000
     16         25.109337       25.272222   0.000000   0.000000
     17         25.286311       25.767620   0.000000   0.000000
     18         31.955581       32.402802   0.000000   0.000000
     19         32.639393       32.469231   0.000000   0.000000
     20         35.175336       35.499355   0.000000   0.000000
     21         37.546015       37.801846   0.000000   0.000000
     22         40.272848       40.509807   0.000000   0.000000
     23         44.340060       44.508431   0.000000   0.000000
     24         44.720674       44.992669   0.000000   0.000000
 
  0.5000000E+00  0.8326673E-16  0.0000000E+00  0.2604167E-02
      1          5.367970        6.259937   1.000000   1.000000
      2          5.381344        6.594742   1.000000   1.000000
      3          5.664776        6.903424   1.000000   1.000000
      4          7.319845        8.240577   1.000000   1.000000
      5          7.559880        8.979074   1.000000   1.000000
      6          7.569003        9.077483   1.000000   1.000000
      7          7.885412        9.488135   1.000000   1.000000
      8          9.316666       11.231279   1.000000   0.000000
      9          9.427118       11.366396   1.000000   0.000000
     10          9.465030       11.395990   1.000000   0.000000
     11         11.316332       12.569674   0.000000   0.000000
     12         13.294857       14.293113   0.000000   0.000000
     13         19.668698       20.081613   0.000000   0.000000
     14         20.298703       20.679348   0.000000   0.000000
     15         22.696538       23.237656   0.000000   0.000000
     16         23.864615       24.430871   0.000000   0.000000
     17         24.733868       24.873410   0.000000   0.000000
     18         31.837415       32.198660   0.000000   0.000000
     19         32.374161       32.289168   0.000000   0.000000
     20         34.777537       35.086372   0.000000   0.000000
     21         37.459405       37.725551   0.000000   0.000000
     22         40.447977       40.715460   0.000000   0.000000
     23         44.874983       45.083615   0.000000   0.000000
     24         46.619988       46.856952   0.000000   0.000000
 
  0.8333333E-01  0.8333333E-01  0.0000000E+00  0.5208333E-02
      1          1.947332        1.947638   1.000000   1.000000
      2          5.386461        6.416279   1.000000   1.000000
      3          7.041508        8.612474   1.000000   1.000000
      4          7.540299        8.648728   1.000000   1.000000
      5          7.639318        9.311590   1.000000   1.000000
      6          7.813021        9.517121   1.000000   1.000000
      7          7.813528        9.523786   1.000000   1.000000
      8          7.854631        9.586323   1.000000   1.000000
      9          8.097653        9.838012   1.000000   1.000000
     10          8.212583        9.849812   1.000000   1.000000
     11          9.270866       11.185714   1.000000   0.000000
     12         12.192074       13.054477   0.000000   0.000000
     13         16.475609       17.429647   0.000000   0.000000
     14         27.917112       28.136761   0.000000   0.000000
     15         28.596746       28.939003   0.000000   0.000000
     16         33.847111       33.894217   0.000000   0.000000
     17         34.818413       34.704380   0.000000   0.000000
     18         34.991491       34.881814   0.000000   0.000000
     19         35.085269       35.128886   0.000000   0.000000
     20         38.167862       38.329807   0.000000   0.000000
     21         38.971755       39.420264   0.000000   0.000000
     22         39.528353       40.012824   0.000000   0.000000
     23         41.736602       41.847066   0.000000   0.000000
     24         42.171965       42.310502   0.000000   0.000000
 
  0.1666667E+00  0.8333333E-01  0.0000000E+00  0.1041667E-01
      1          2.829827        2.848189   1.000000   1.000000
      2          5.744186        6.864053   1.000000   1.000000
      3          6.778336        7.988562   1.000000   1.000000
      4          6.855071        8.258339   1.000000   1.000000
      5          7.525494        9.144762   1.000000   1.000000
      6          7.638581        9.321215   1.000000   1.000000
      7          8.058993        9.701216   1.000000   1.000000
      8          8.060041        9.795578   1.000000   1.000000
      9          8.224410        9.970405   1.000000   0.957039
     10          8.501909       10.280494   1.000000   0.000000
     11          9.316488       11.238899   1.000000   0.000000
     12         13.764922       14.550908   0.000000   0.000000
     13         16.719963       17.573210   0.000000   0.000000
     14         24.366935       24.758565   0.000000   0.000000
     15         26.563452       26.894919   0.000000   0.000000
     16         31.650188       31.681141   0.000000   0.000000
     17         32.601413       32.757185   0.000000   0.000000
     18         33.688274       33.698636   0.000000   0.000000
     19         35.199109       35.379265   0.000000   0.000000
     20         36.487190       36.940115   0.000000   0.000000
     21         38.416179       38.440556   0.000000   0.000000
     22         40.168292       40.618440   0.000000   0.000000
     23         41.742687       41.912085   0.000000   0.000000
     24         42.201817       42.404994   0.000000   0.000000
 
  0.2500000E+00  0.8333333E-01  0.0000000E+00  0.1041667E-01
      1          3.967052        4.064572   1.000000   1.000000
      2          5.858404        7.111512   1.000000   1.000000
      3          6.289270        7.470981   1.000000   1.000000
      4          6.715226        8.027280   1.000000   1.000000
      5          7.457000        9.099837   1.000000   1.000000
      6          7.540908        9.113527   1.000000   1.000000
      7          7.870228        9.481860   1.000000   1.000000
      8          8.449249       10.213802   1.000000   0.000000
      9          8.710719       10.518743   1.000000   0.000000
     10          9.053423       10.836657   1.000000   0.000000
     11          9.354994       11.283376   1.000000   0.000000
     12         15.583774       16.284204   0.000000   0.000000
     13         17.090826       17.791216   0.000000   0.000000
     14         20.933237       21.462146   0.000000   0.000000
     15         25.040229       25.359406   0.000000   0.000000
     16         28.497396       28.680197   0.000000   0.000000
     17         29.886601       30.206648   0.000000   0.000000
     18         32.437238       32.450638   0.000000   0.000000
     19         34.462115       34.797961   0.000000   0.000000
     20         34.898901       35.263413   0.000000   0.000000
     21         39.068590       39.074242   0.000000   0.000000
     22         41.605762       41.794469   0.000000   0.000000
     23         41.855738       42.059553   0.000000   0.000000
     24         42.873662       43.163818   0.000000   0.000000
 
  0.3333333E+00  0.8333333E-01  0.0000000E+00  0.1041667E-01
      1          4.962818        5.343203   1.000000   1.000000
      2          5.688249        6.973832   1.000000   1.000000
      3          5.905235        7.127901   1.000000   1.000000
      4          6.952068        8.006607   1.000000   1.000000
      5          7.338946        8.963097   1.000000   1.000000
      6          7.684600        9.251305   1.000000   1.000000
      7          7.729910        9.311134   1.000000   1.000000
      8          8.935161       10.751616   1.000000   0.000000
      9          9.125418       10.993001   1.000000   0.000000
     10          9.379073       11.310817   1.000000   0.000000
     11          9.845799       11.514707   1.000000   0.000000
     12         16.387839       17.037259   0.000000   0.000000
     13         17.564993       18.164034   0.000000   0.000000
     14         19.328142       19.906357   0.000000   0.000000
     15         23.862037       24.149343   0.000000   0.000000
     16         25.627791       25.956041   0.000000   0.000000
     17         26.919837       27.332222   0.000000   0.000000
     18         31.531857       31.525382   0.000000   0.000000
     19         33.801231       34.130252   0.000000   0.000000
     20         33.873109       34.249643   0.000000   0.000000
     21         39.103744       39.174764   0.000000   0.000000
     22         41.942336       42.151666   0.000000   0.000000
     23         43.478515       43.659617   0.000000   0.000000
     24         44.492011       44.775103   0.000000   0.000000
 
  0.4166667E+00  0.8333333E-01  0.0000000E+00  0.1041667E-01
      1          5.399066        6.226828   1.000000   1.000000
      2          5.531975        6.756671   1.000000   1.000000
      3          5.712806        6.958744   1.000000   1.000000
      4          7.291336        8.096534   1.000000   1.000000
      5          7.319449        8.926461   1.000000   1.000000
      6          7.562145        9.080982   1.000000   1.000000
      7          7.881468        9.487780   1.000000   1.000000
      8          9.280332       11.175427   1.000000   0.000000
      9          9.349416       11.252674   1.000000   0.000000
     10          9.389774       11.322849   1.000000   0.000000
     11         11.134198       12.453974   0.000000   0.000000
     12         14.063512       14.964760   0.000000   0.000000
     13         19.467189       19.935154   0.000000   0.000000
     14         20.196458       20.617183   0.000000   0.000000
     15         23.082661       23.381518   0.000000   0.000000
     16         23.286743       23.768786   0.000000   0.000000
     17         24.678226       25.136704   0.000000   0.000000
     18         31.061616       31.040854   0.000000   0.000000
     19         33.219556       33.539872   0.000000   0.000000
     20         33.577872       33.959222   0.000000   0.000000
     21         38.987954       39.095427   0.000000   0.000000
     22         42.152193       42.405971   0.000000   0.000000
     23         44.897986       45.129568   0.000000   0.000000
     24         45.919487       46.066332   0.000000   0.000000
 
  0.1666667E+00  0.1666667E+00  0.0000000E+00  0.5208333E-02
      1          3.823023        3.888511   1.000000   1.000000
      2          6.033248        7.232561   1.000000   1.000000
      3          6.401087        7.573225   1.000000   1.000000
      4          6.494107        7.898923   1.000000   1.000000
      5          7.389766        9.023813   1.000000   1.000000
      6          7.536730        9.117280   1.000000   1.000000
      7          7.959593        9.590592   1.000000   1.000000
      8          8.222284        9.983144   1.000000   0.912613
      9          8.700078       10.495416   1.000000   0.000000
     10          9.073832       10.849315   1.000000   0.000000
     11          9.318187       11.240514   1.000000   0.000000
     12         15.326105       16.046992   0.000000   0.000000
     13         17.124890       17.855349   0.000000   0.000000
     14         22.653116       23.074905   0.000000   0.000000
     15         23.083116       23.508793   0.000000   0.000000
     16         30.046571       30.042696   0.000000   0.000000
     17         30.814907       31.068655   0.000000   0.000000
     18         31.893398       32.211081   0.000000   0.000000
     19         32.644666       32.940402   0.000000   0.000000
     20         37.315539       37.573725   0.000000   0.000000
     21         39.458836       39.401311   0.000000   0.000000
     22         39.841453       40.284361   0.000000   0.000000
     23         43.355861       43.586216   0.000000   0.000000
     24         44.597344       44.753061   0.000000   0.000000
 
  0.2500000E+00  0.1666667E+00  0.0000000E+00  0.1041667E-01
      1          4.907869        5.132659   1.000000   1.000000
      2          6.017244        7.265332   1.000000   1.000000
      3          6.042775        7.300507   1.000000   1.000000
      4          6.474038        7.719609   1.000000   1.000000
      5          7.240074        8.833051   1.000000   1.000000
      6          7.678969        9.254135   1.000000   1.000000
      7          7.774690        9.368741   1.000000   1.000000
      8          8.520261       10.311999   1.000000   0.000000
      9          9.127840       10.984659   1.000000   0.000000
     10          9.316037       11.237901   1.000000   0.000000
     11          9.864239       11.554879   0.999999   0.000000
     12         17.168154       17.810059   0.000000   0.000000
     13         17.517755       18.106146   0.000000   0.000000
     14         19.827401       20.377649   0.000000   0.000000
     15         21.695625       22.108299   0.000000   0.000000
     16         27.383566       27.602776   0.000000   0.000000
     17         28.870321       29.253041   0.000000   0.000000
     18         29.455807       29.630376   0.000000   0.000000
     19         31.353273       31.698055   0.000000   0.000000
     20         37.463915       37.747569   0.000000   0.000000
     21         40.810838       40.726266   0.000000   0.000000
     22         42.177589       42.514676   0.000000   0.000000
     23         43.977638       44.174357   0.000000   0.000000
     24         44.553120       44.712593   0.000000   0.000000
 
  0.3333333E+00  0.1666667E+00  0.0000000E+00  0.1041667E-01
      1          5.582084        6.220401   1.000000   1.000000
      2          5.820703        7.083456   1.000000   1.000000
      3          5.822688        7.085957   1.000000   1.000000
      4          6.788412        7.780816   1.000000   1.000000
      5          7.198860        8.777286   1.000000   1.000000
      6          7.574363        9.120244   1.000000   1.000000
      7          7.875793        9.484275   1.000000   1.000000
      8          8.913445       10.746608   1.000000   0.000000
      9          9.313349       11.234528   1.000000   0.000000
     10          9.340008       11.236877   1.000000   0.000000
     11         11.041664       12.459482   0.000000   0.000000
     12         15.724407       16.441570   0.000000   0.000000
     13         19.170463       19.713399   0.000000   0.000000
     14         19.783317       20.268494   0.000000   0.000000
     15         20.943306       21.327999   0.000000   0.000000
     16         24.713784       25.095011   0.000000   0.000000
     17         25.999652       26.436946   0.000000   0.000000
     18         28.811386       28.956448   0.000000   0.000000
     19         30.605800       30.950530   0.000000   0.000000
     20         37.123707       37.430206   0.000000   0.000000
     21         41.598752       41.531139   0.000000   0.000000
     22         44.250974       44.440799   0.000000   0.000000
     23         45.484475       45.768464   0.000000   0.000000
     24         45.615209       45.773241   0.000000   0.000000
 
  0.4166667E+00  0.1666667E+00  0.0000000E+00  0.5208333E-02
      1          5.728503        6.668512   1.000000   1.000000
      2          5.745130        6.955458   1.000000   1.000000
      3          5.746166        7.024145   1.000000   1.000000
      4          7.008195        7.853544   1.000000   1.000000
      5          7.215011        8.812150   1.000000   1.000000
      6          7.470615        8.974084   1.000000   1.000000
      7          7.959564        9.586784   1.000000   1.000000
      8          9.178594       11.049670   1.000000   0.000000
      9          9.312135       11.219988   1.000000   0.000000
     10          9.319614       11.232984   1.000000   0.000000
     11         12.326369       13.382066   0.000000   0.000000
     12         13.858179       14.847559   0.000000   0.000000
     13         20.288868       20.686757   0.000000   0.000000
     14         20.596160       21.031619   0.000000   0.000000
     15         20.986253       21.360289   0.000000   0.000000
     16         23.063557       23.569299   0.000000   0.000000
     17         24.514121       25.002243   0.000000   0.000000
     18         28.599515       28.738296   0.000000   0.000000
     19         30.341639       30.682401   0.000000   0.000000
     20         36.990242       37.302282   0.000000   0.000000
     21         41.746288       41.699879   0.000000   0.000000
     22         45.071608       45.263016   0.000000   0.000000
     23         45.138190       45.392328   0.000000   0.000000
     24         46.589390       47.303238   0.000000   0.000000
 
  0.2500000E+00  0.2500000E+00  0.0000000E+00  0.5208333E-02
      1          5.714341        6.232089   1.000000   1.000000
      2          5.882583        7.155249   1.000000   1.000000
      3          6.210829        7.428281   1.000000   1.000000
      4          6.266074        7.448207   1.000000   1.000000
      5          7.137401        8.690131   1.000000   1.000000
      6          7.589212        9.144533   1.000000   1.000000
      7          7.880858        9.486542   1.000000   1.000000
      8          8.694177       10.514518   1.000000   0.000000
      9          9.274079       11.189553   1.000000   0.000000
     10          9.346294       11.241869   1.000000   0.000000
     11         11.043482       12.493643   0.000000   0.000000
     12         17.503992       18.036923   0.000000   0.000000
     13         18.220259       18.801696   0.000000   0.000000
     14         19.053048       19.624897   0.000000   0.000000
     15         20.364480       20.829488   0.000000   0.000000
     16         26.529789       26.870493   0.000000   0.000000
     17         26.704693       26.908382   0.000000   0.000000
     18         27.638917       28.049846   0.000000   0.000000
     19         28.514996       28.874809   0.000000   0.000000
     20         40.473295       40.666200   0.000000   0.000000
     21         42.233841       42.636292   0.000000   0.000000
     22         42.795301       42.687327   0.000000   0.000000
     23         45.157991       45.417897   0.000000   0.000000
     24         46.820068       47.110833   0.000000   0.000000
 
  0.3333333E+00  0.2500000E+00  0.0000000E+00  0.1041667E-01
      1          5.806559        6.927839   1.000000   1.000000
      2          5.988299        7.115779   1.000000   1.000000
      3          6.081390        7.271025   1.000000   1.000000
      4          6.576924        7.546136   1.000000   1.000000
      5          7.156741        8.694283   1.000000   1.000000
      6          7.397036        8.912560   1.000000   1.000000
      7          8.043235        9.680345   1.000000   1.000000
      8          8.959402       10.809540   1.000000   0.000000
      9          9.249336       11.161029   1.000000   0.000000
     10          9.293697       11.188008   1.000000   0.000000
     11         12.707343       13.782654   0.000000   0.000000
     12         15.257667       16.028537   0.000000   0.000000
     13         17.583161       18.133226   0.000000   0.000000
     14         21.069853       21.553494   0.000000   0.000000
     15         21.435119       21.827114   0.000000   0.000000
     16         24.087411       24.509543   0.000000   0.000000
     17         25.468122       25.909579   0.000000   0.000000
     18         26.274648       26.524959   0.000000   0.000000
     19         27.728301       28.100580   0.000000   0.000000
     20         40.881053       41.124164   0.000000   0.000000
     21         44.387438       44.262250   0.000000   0.000000
     22         44.638446       44.903387   0.000000   0.000000
     23         46.205024       47.024009   0.000000   0.000000
     24         46.972038       47.564361   0.000000   0.000000
 
  0.3333333E+00  0.3333333E+00  0.0000000E+00  0.1736111E-02
      1          5.811780        7.144173   1.000000   1.000000
      2          6.177539        7.266535   1.000000   1.000000
      3          6.177539        7.266536   1.000000   1.000000
      4          6.460761        7.476882   1.000000   1.000000
      5          7.232172        8.742084   1.000000   1.000000
      6          7.232172        8.742084   1.000000   1.000000
      7          8.137759        9.784777   1.000000   1.000000
      8          9.100364       10.971510   1.000000   0.000000
      9          9.100364       10.971511   1.000000   0.000000
     10          9.223753       11.131748   1.000000   0.000000
     11         14.459385       15.244892   0.000000   0.000000
     12         15.247800       16.016328   0.000000   0.000000
     13         15.247801       16.016330   0.000000   0.000000
     14         22.305607       22.669293   0.000000   0.000000
     15         23.040613       23.478796   0.000000   0.000000