    2    2  100    2
  0.1102894E+02  0.2506236E-09  0.2506236E-09  0.4054987E-09  0.5000000E-15
  1.000000000000000E-004
  CAR 
 Co-hcc                                  
     18     70     16
 
  0.0000000E+00  0.0000000E+00  0.0000000E+00  0.1250000E-02
      1          1.205893        1.212455   1.000000   1.000000
      2          4.946974        5.934339   1.000000   1.000000
      3          7.398068        9.093106   1.000000   1.000000
      4          7.418754        9.124957   1.000000   1.000000
      5          7.418755        9.124958   1.000000   1.000000
      6          7.720323        9.481432   1.000000   1.000000
      7          7.720325        9.481433   1.000000   1.000000
      8          8.062491        9.891284   1.000000   0.993487
      9          8.062491        9.891285   1.000000   0.993486
     10          9.129827        9.891314   1.000000   0.993472
     11          9.129827       11.077618   1.000000   0.000000
     12          9.950305       11.077620   0.792090   0.000000
     13         16.200527       17.253666   0.000000   0.000000
     14         31.867090       31.587724   0.000000   0.000000
     15         34.258880       34.630405   0.000000   0.000000
     16         34.258885       34.630693   0.000000   0.000000
 
  0.1000000E+00  0.0000000E+00  0.0000000E+00  0.7500000E-02
      1          1.550520        1.558570   1.000000   1.000000
      2          5.148158        6.166159   1.000000   1.000000
      3          7.140610        8.784522   1.000000   1.000000
      4          7.576308        9.049407   1.000000   1.000000
      5          7.603669        9.299317   1.000000   1.000000
      6          7.683445        9.330908   1.000000   1.000000
      7          7.824617        9.422533   1.000000   1.000000
      8          7.859622        9.635513   1.000000   1.000000
      9          7.966259        9.778104   1.000000   1.000000
     10          8.282016        9.807982   1.000000   0.999999
     11          9.169818       11.125473   1.000000   0.000000
     12         11.274807       12.219290   0.000000   0.000000
     13         16.265526       17.283990   0.000000   0.000000
     14         29.201164       29.387068   0.000000   0.000000
     15         31.679685       32.022429   0.000000   0.000000
     16         32.059723       32.102648   0.000000   0.000000
 
  0.2000000E+00  0.0000000E+00  0.0000000E+00  0.7500000E-02
      1          2.528473        2.551698   1.000000   1.000000
      2          5.584248        6.706684   1.000000   1.000000
      3          6.841299        8.096664   1.000000   1.000000
      4          6.938440        8.370261   1.000000   1.000000
      5          7.457105        9.123552   1.000000   1.000000
      6          7.744617        9.519635   1.000000   1.000000
      7          7.950691        9.592648   1.000000   1.000000
      8          8.007719        9.780628   1.000000   1.000000
      9          8.029217        9.788689   1.000000   1.000000
     10          8.236865       10.054105   1.000000   0.016909
     11          9.245311       11.214462   1.000000   0.000000
     12         13.227870       14.059429   0.000000   0.000000
     13         16.501851       17.410334   0.000000   0.000000
     14         24.599149       25.003286   0.000000   0.000000
     15         28.943942       29.253940   0.000000   0.000000
     16         30.932270       31.069869   0.000000   0.000000
 
  0.3000000E+00  0.2775558E-16  0.0000000E+00  0.7500000E-02
      1          3.898074        4.020805   1.000000   1.000000
      2          5.708749        6.998247   1.000000   1.000000
      3          6.203267        7.415323   1.000000   1.000000
      4          6.818464        8.122031   1.000000   1.000000
      5          7.469904        9.072991   1.000000   1.000000
      6          7.506949        9.244637   1.000000   1.000000
      7          7.728424        9.331755   1.000000   1.000000
      8          8.582145       10.420676   1.000000   0.000000
      9          8.664495       10.432990   1.000000   0.000000
     10          8.738778       10.614603   1.000000   0.000000
     11          9.304916       11.283519   1.000000   0.000000
     12         15.456394       16.174412   0.000000   0.000000
     13         16.876146       17.593794   0.000000   0.000000
     14         20.500795       21.078238   0.000000   0.000000
     15         26.726431       26.979382   0.000000   0.000000
     16         27.982476       28.207772   0.000000   0.000000
 
  0.4000000E+00  0.2775558E-16  0.0000000E+00  0.7500000E-02
      1          4.981522        5.517077   1.000000   1.000000
      2          5.500107        6.802148   1.000000   1.000000
      3          5.760221        7.016208   1.000000   1.000000
      4          7.183273        8.117801   1.000000   1.000000
      5          7.332677        9.043970   1.000000   1.000000
      6          7.561243        9.123942   1.000000   1.000000
      7          7.710786        9.326312   1.000000   1.000000
      8          9.068675       10.995992   1.000000   0.000000
      9          9.198415       11.135846   1.000000   0.000000
     10          9.336636       11.319675   1.000000   0.000000
     11          9.816666       11.420979   0.999998   0.000000
     12         15.455435       16.193962   0.000000   0.000000
     13         17.859097       18.439728   0.000000   0.000000
     14         19.295845       19.858888   0.000000   0.000000
     15         24.617457       25.014930   0.000000   0.000000
     16         25.233284       25.419155   0.000000   0.000000
 
  0.5000000E+00  0.5551115E-16  0.0000000E+00  0.3750000E-02
      1          5.322086        6.241437   1.000000   1.000000
      2          5.336376        6.578859   1.000000   1.000000
      3          5.613315        6.885910   1.000000   1.000000
      4          7.268948        8.222254   1.000000   1.000000
      5          7.498464        8.970704   1.000000   1.000000
      6          7.517225        9.044747   1.000000   1.000000
      7          7.817240        9.450479   1.000000   1.000000
      8          9.252714       11.208003   1.000000   0.000000
      9          9.345992       11.330225   1.000000   0.000000
     10          9.397597       11.369161   1.000000   0.000000
     11         11.255997       12.532606   0.000000   0.000000
     12         13.231547       14.251196   0.000000   0.000000
     13         19.568599       19.998163   0.000000   0.000000
     14         20.194828       20.593464   0.000000   0.000000
     15         22.592074       23.153846   0.000000   0.000000
     16         23.747180       24.332482   0.000000   0.000000
 
  0.1000000E+00  0.1000000E+00  0.0000000E+00  0.7500000E-02
      1          2.214573        2.229751   1.000000   1.000000
      2          5.484769        6.565714   1.000000   1.000000
      3          6.876235        8.342587   1.000000   1.000000
      4          7.210875        8.453011   1.000000   1.000000
      5          7.529666        9.219553   1.000000   1.000000
      6          7.704906        9.461100   1.000000   1.000000
      7          7.814228        9.566553   1.000000   1.000000
      8          7.897467        9.652420   1.000000   1.000000
      9          8.098534        9.788107   1.000000   1.000000
     10          8.174981        9.975065   1.000000   0.545130
     11          9.210352       11.172975   1.000000   0.000000
     12         12.678769       13.542188   0.000000   0.000000
     13         16.422171       17.368580   0.000000   0.000000
     14         26.768168       27.053973   0.000000   0.000000
     15         27.362883       27.739047   0.000000   0.000000
     16         33.668144       33.580089   0.000000   0.000000
 
  0.2000000E+00  0.1000000E+00  0.0000000E+00  0.1500000E-01
      1          3.417839        3.475757   1.000000   1.000000
      2          5.846264        7.061012   1.000000   1.000000
      3          6.473461        7.660927   1.000000   1.000000
      4          6.609385        8.052186   1.000000   1.000000
      5          7.444856        9.069294   1.000000   1.000000
      6          7.448670        9.144795   1.000000   1.000000
      7          7.914228        9.590764   1.000000   1.000000
      8          8.143373        9.928240   1.000000   0.924752
      9          8.447864       10.263979   1.000000   0.000000
     10          8.752649       10.575228   1.000000   0.000000
     11          9.252347       11.221896   1.000000   0.000000
     12         14.657988       15.425424   0.000000   0.000000
     13         16.815923       17.613230   0.000000   0.000000
     14         22.556815       23.025605   0.000000   0.000000
     15         25.143006       25.505196   0.000000   0.000000
     16         29.991363       30.100155   0.000000   0.000000
 
  0.3000000E+00  0.1000000E+00  0.0000000E+00  0.1500000E-01
      1          4.737351        5.018551   1.000000   1.000000
      2          5.737291        7.057955   1.000000   1.000000
      3          5.947012        7.193938   1.000000   1.000000
      4          6.749272        7.936476   1.000000   1.000000
      5          7.281266        8.938545   1.000000   1.000000
      6          7.605763        9.211885   1.000000   1.000000
      7          7.677847        9.305035   1.000000   1.000000
      8          8.667528       10.497118   1.000000   0.000000
      9          8.987498       10.880228   1.000000   0.000000
     10          9.281235       11.255113   1.000000   0.000000
     11          9.592930       11.344782   1.000000   0.000000
     12         16.884302       17.514778   0.000000   0.000000
     13         16.952620       17.606151   0.000000   0.000000
     14         19.359795       19.976306   0.000000   0.000000
     15         23.595829       23.929289   0.000000   0.000000
     16         26.407577       26.703859   0.000000   0.000000
 
  0.4000000E+00  0.1000000E+00  0.0000000E+00  0.1500000E-01
      1          5.382647        6.203119   1.000000   1.000000
      2          5.535415        6.799440   1.000000   1.000000
      3          5.681283        6.964149   1.000000   1.000000
      4          7.183561        8.023513   1.000000   1.000000
      5          7.224399        8.887873   1.000000   1.000000
      6          7.494196        9.059624   1.000000   1.000000
      7          7.811759        9.450478   1.000000   1.000000
      8          9.156592       11.073767   1.000000   0.000000
      9          9.271551       11.213358   1.000000   0.000000
     10          9.293642       11.269083   1.000000   0.000000
     11         11.038986       12.408891   0.000000   0.000000
     12         14.287332       15.174102   0.000000   0.000000
     13         19.301286       19.804616   0.000000   0.000000
     14         20.048408       20.501935   0.000000   0.000000
     15         22.605694       22.927004   0.000000   0.000000
     16         23.418120       23.899611   0.000000   0.000000
 
  0.2000000E+00  0.2000000E+00  0.0000000E+00  0.7500000E-02
      1          4.661990        4.839792   1.000000   1.000000
      2          6.066913        7.310446   1.000000   1.000000
      3          6.110767        7.384876   1.000000   1.000000
      4          6.280296        7.639275   1.000000   1.000000
      5          7.191037        8.829404   1.000000   1.000000
      6          7.568846        9.174163   1.000000   1.000000
      7          7.764047        9.410809   1.000000   1.000000
      8          8.336457       10.154716   1.000000   0.000000
      9          8.992558       10.875770   1.000000   0.000000
     10          9.227820       11.193215   1.000000   0.000000
     11          9.623518       11.378236   1.000000   0.000000
     12         16.650187       17.335978   0.000000   0.000000
     13         17.463368       18.098916   0.000000   0.000000
     14         20.715945       21.217464   0.000000   0.000000
     15         21.261115       21.735561   0.000000   0.000000
     16         28.455176       28.526022   0.000000   0.000000
 
  0.3000000E+00  0.2000000E+00  0.0000000E+00  0.1500000E-01
      1          5.621034        6.207965   1.000000   1.000000
      2          5.808894        7.111564   1.000000   1.000000
      3          5.923771        7.213081   1.000000   1.000000
      4          6.515268        7.628427   1.000000   1.000000
      5          7.104667        8.706740   1.000000   1.000000
      6          7.519675        9.112137   1.000000   1.000000
      7          7.809231        9.449420   1.000000   1.000000
      8          8.707545       10.566369   1.000000   0.000000
      9          9.206087       11.167974   1.000000   0.000000
     10          9.275278       11.209576   1.000000   0.000000
     11         10.981385       12.451259   0.000000   0.000000
     12         16.453218       17.112744   0.000000   0.000000
     13         18.995166       19.576750   0.000000   0.000000
     14         19.133450       19.654832   0.000000   0.000000
     15         20.420970       20.876183   0.000000   0.000000
     16         25.328155       25.685583   0.000000   0.000000
 
  0.4000000E+00  0.2000000E+00  0.0000000E+00  0.7500000E-02
      1          5.722000        6.793402   1.000000   1.000000
      2          5.812889        7.049950   1.000000   1.000000
      3          5.820305        7.064077   1.000000   1.000000
      4          6.806344        7.718550   1.000000   1.000000
      5          7.134819        8.750249   1.000000   1.000000
      6          7.362523        8.903304   1.000000   1.000000
      7          7.928846        9.596171   1.000000   1.000000
      8          9.036211       10.935529   1.000000   0.000000
      9          9.197729       11.158144   1.000000   0.000000
     10          9.225007       11.158543   1.000000   0.000000
     11         12.664727       13.686404   0.000000   0.000000
     12         14.015509       15.003416   0.000000   0.000000
     13         19.124292       19.591207   0.000000   0.000000
     14         20.880523       21.338210   0.000000   0.000000
     15         21.171355       21.562150   0.000000   0.000000
     16         23.108180       23.618114   0.000000   0.000000
 
  0.3000000E+00  0.3000000E+00  0.0000000E+00  0.7500000E-02
      1          5.767813        7.042211   1.000000   1.000000
      2          6.017468        7.124335   1.000000   1.000000
      3          6.172281        7.364072   1.000000   1.000000
      4          6.405000        7.414184   1.000000   1.000000
      5          7.098779        8.659954   1.000000   1.000000
      6          7.287927        8.841148   1.000000   1.000000
      7          8.017500        9.692759   1.000000   1.000000
      8          8.881269       10.769747   1.000000   0.000000
      9          9.150159       11.103688   1.000000   0.000000
     10          9.184125       11.110375   1.000000   0.000000
     11         13.058460       14.099925   0.000000   0.000000
     12         16.010427       16.701589   0.000000   0.000000
     13         16.031923       16.728013   0.000000   0.000000
     14         21.414849       21.912994   0.000000   0.000000
     15         21.642131       22.047152   0.000000   0.000000
     16         24.224232       24.662726   0.000000   0.000000
 
  0.0000000E+00  0.0000000E+00  0.1250000E+00  0.2500000E-02
      1          1.361476        1.368589   1.000000   1.000000
      2          4.915642        5.814238   1.000000   1.000000
      3          7.359098        9.042237   1.000000   1.000000
      4          7.378517        9.082571   1.000000   1.000000
      5          7.378518        9.082571   1.000000   1.000000
      6          7.679097        9.433744   1.000000   1.000000
      7          7.679098        9.433745   1.000000   1.000000
      8          8.156722        9.502166   1.000000   1.000000
      9          8.156722        9.995036   1.000000   0.325823
     10          9.121504        9.995036   1.000000   0.325814
     11          9.121505       11.070312   1.000000   0.000000
     12          9.331016       11.070313   1.000000   0.000000
     13         17.129408       18.041394   0.000000   0.000000
     14         31.812879       31.506245   0.000000   0.000000
     15         33.956171       33.958524   0.000000   0.000000
     16         34.408920       34.429705   0.000000   0.000000
 
  0.1000000E+00  0.0000000E+00  0.1250000E+00  0.1500000E-01
      1          1.702676        1.711761   1.000000   1.000000
      2          5.128864        6.058277   1.000000   1.000000
      3          7.143390        8.786190   1.000000   1.000000
      4          7.498069        8.794112   1.000000   1.000000
      5          7.517638        9.211994   1.000000   1.000000
      6          7.520957        9.238231   1.000000   1.000000
      7          7.810666        9.443539   1.000000   1.000000
      8          7.962386        9.577606   1.000000   1.000000
      9          8.089814        9.914385   1.000000   0.966351
     10          8.250483        9.942446   1.000000   0.849891
     11          9.155751       11.111152   1.000000   0.000000
     12         10.696442       11.923349   0.000000   0.000000
     13         17.266547       18.138551   0.000000   0.000000
     14         29.302824       29.471294   0.000000   0.000000
     15         31.836070       32.038255   0.000000   0.000000
     16         32.022007       32.176569   0.000000   0.000000
 
  0.2000000E+00  0.0000000E+00  0.1250000E+00  0.1500000E-01
      1          2.666051        2.693688   1.000000   1.000000
      2          5.599467        6.640007   1.000000   1.000000
      3          6.804405        7.960587   1.000000   1.000000
      4          6.875264        8.397571   1.000000   1.000000
      5          7.392497        9.072209   1.000000   1.000000
      6          7.706977        9.440883   1.000000   1.000000
      7          7.827469        9.468053   1.000000   1.000000
      8          8.083775        9.867723   1.000000   0.999182
      9          8.210947        9.988673   1.000000   0.393002
     10          8.219146       10.040946   1.000000   0.040057
     11          9.219712       11.186071   1.000000   0.000000
     12         12.327954       13.384610   0.000000   0.000000
     13         17.740305       18.495902   0.000000   0.000000
     14         24.734281       25.134144   0.000000   0.000000
     15         29.131908       29.444800   0.000000   0.000000
     16         30.243427       30.392452   0.000000   0.000000
 
  0.3000000E+00  0.2775558E-16  0.1250000E+00  0.1500000E-01
      1          3.987133        4.132528   1.000000   1.000000
      2          5.741599        6.971882   1.000000   1.000000
      3          6.175040        7.375718   1.000000   1.000000
      4          6.798713        8.151555   1.000000   1.000000
      5          7.381365        8.963061   1.000000   1.000000
      6          7.549041        9.289861   1.000000   1.000000
      7          7.860721        9.396945   1.000000   1.000000
      8          8.601387       10.446888   1.000000   0.000000
      9          8.658319       10.451188   1.000000   0.000000
     10          8.695178       10.569192   1.000000   0.000000
     11          9.271710       11.245093   1.000000   0.000000
     12         14.000107       14.880517   0.000000   0.000000
     13         18.536501       19.140800   0.000000   0.000000
     14         20.676204       21.241310   0.000000   0.000000
     15         26.719982       27.056079   0.000000   0.000000
     16         26.940912       27.201976   0.000000   0.000000
 
  0.4000000E+00  0.2775558E-16  0.1250000E+00  0.1500000E-01
      1          4.935666        5.545642   1.000000   1.000000
      2          5.498808        6.761068   1.000000   1.000000
      3          5.927354        7.126300   1.000000   1.000000
      4          6.800283        7.993063   1.000000   1.000000
      5          7.392935        9.110067   1.000000   1.000000
      6          7.703303        9.261588   1.000000   1.000000
      7          8.060189        9.407353   1.000000   1.000000
      8          9.070052       11.001123   1.000000   0.000000
      9          9.126339       11.053234   1.000000   0.000000
     10          9.321531       11.296280   1.000000   0.000000
     11          9.736990       11.346526   1.000000   0.000000
     12         14.792110       15.484722   0.000000   0.000000
     13         17.559072       18.324246   0.000000   0.000000
     14         20.292262       20.726241   0.000000   0.000000
     15         23.658396       24.169300   0.000000   0.000000
     16         25.467584       25.666675   0.000000   0.000000
 
  0.5000000E+00  0.5551115E-16  0.1250000E+00  0.7500000E-02
      1          5.135776        6.131368   1.000000   1.000000
      2          5.352641        6.590691   1.000000   1.000000
      3          5.914383        7.122480   1.000000   1.000000
      4          6.827748        7.906294   1.000000   1.000000
      5          7.334469        9.042864   1.000000   1.000000
      6          7.819663        9.421407   1.000000   1.000000
      7          8.288995        9.510655   1.000000   1.000000
      8          9.200358       11.155906   1.000000   0.000000
      9          9.307530       11.274129   1.000000   0.000000
     10          9.393324       11.364355   1.000000   0.000000
     11         11.152245       12.361288   0.000000   0.000000
     12         13.144556       14.127178   0.000000   0.000000
     13         18.977828       19.516098   0.000000   0.000000
     14         19.326236       19.883493   0.000000   0.000000
     15         23.746780       24.173066   0.000000   0.000000
     16         24.656885       25.107853   0.000000   0.000000
 
  0.1000000E+00  0.1000000E+00  0.1250000E+00  0.1500000E-01
      1          2.358042        2.375996   1.000000   1.000000
      2          5.490213        6.485151   1.000000   1.000000
      3          6.894579        8.173877   1.000000   1.000000
      4          7.036379        8.475592   1.000000   1.000000
      5          7.517020        9.226262   1.000000   1.000000
      6          7.596347        9.264772   1.000000   1.000000
      7          7.801596        9.510614   1.000000   1.000000
      8          7.956667        9.729271   1.000000   1.000000
      9          8.194171        9.956706   1.000000   0.736514
     10          8.203589       10.006923   1.000000   0.215433
     11          9.191482       11.151497   1.000000   0.000000
     12         11.886611       12.985315   0.000000   0.000000
     13         17.577787       18.371714   0.000000   0.000000
     14         26.888419       27.167159   0.000000   0.000000
     15         27.510708       27.884806   0.000000   0.000000
     16         32.527322       32.540539   0.000000   0.000000
 
  0.2000000E+00  0.1000000E+00  0.1250000E+00  0.3000000E-01
      1          3.533789        3.603063   1.000000   1.000000
      2          5.889372        7.037430   1.000000   1.000000
      3          6.379939        7.563376   1.000000   1.000000
      4          6.646710        8.089361   1.000000   1.000000
      5          7.327064        8.977790   1.000000   1.000000
      6          7.553541        9.201781   1.000000   1.000000
      7          7.834596        9.516542   1.000000   1.000000
      8          8.190350        9.982299   1.000000   0.463652
      9          8.523937       10.342917   1.000000   0.000000
     10          8.705237       10.537229   1.000000   0.000000
     11          9.242342       11.201459   1.000000   0.000000
     12         13.448481       14.407066   0.000000   0.000000
     13         18.307365       18.964713   0.000000   0.000000
     14         22.702055       23.168149   0.000000   0.000000
     15         25.299003       25.663578   0.000000   0.000000
     16         28.865692       29.084848   0.000000   0.000000
 
  0.3000000E+00  0.1000000E+00  0.1250000E+00  0.3000000E-01
      1          4.766376        5.096514   1.000000   1.000000
      2          5.770583        7.025875   1.000000   1.000000
      3          5.978429        7.216869   1.000000   1.000000
      4          6.682656        7.963442   1.000000   1.000000
      5          7.317942        8.913713   1.000000   1.000000
      6          7.622728        9.267494   1.000000   1.000000
      7          7.769761        9.307060   1.000000   1.000000
      8          8.653015       10.489732   1.000000   0.000000
      9          9.030126       10.925259   1.000000   0.000000
     10          9.153593       11.069361   1.000000   0.000000
     11          9.628651       11.426965   1.000000   0.000000
     12         15.006947       15.749204   0.000000   0.000000
     13         18.411176       19.072952   0.000000   0.000000
     14         20.080572       20.594173   0.000000   0.000000
     15         23.739558       24.090709   0.000000   0.000000
     16         25.292529       25.682664   0.000000   0.000000
 
  0.4000000E+00  0.1000000E+00  0.1250000E+00  0.3000000E-01
      1          5.238249        6.153505   1.000000   1.000000
      2          5.534433        6.785911   1.000000   1.000000
      3          5.963197        7.153122   1.000000   1.000000
      4          6.754664        7.859086   1.000000   1.000000
      5          7.257106        8.916652   1.000000   1.000000
      6          7.838022        9.274680   1.000000   1.000000
      7          7.940997        9.474887   1.000000   1.000000
      8          9.117447       11.039002   1.000000   0.000000
      9          9.214180       11.158553   1.000000   0.000000
     10          9.299129       11.246182   1.000000   0.000000
     11         11.027393       12.361606   0.000000   0.000000
     12         14.143760       14.980454   0.000000   0.000000
     13         18.292366       18.949874   0.000000   0.000000
     14         20.399295       20.840296   0.000000   0.000000
     15         22.735226       23.101643   0.000000   0.000000
     16         23.626408       24.065854   0.000000   0.000000
 
  0.2000000E+00  0.2000000E+00  0.1250000E+00  0.1500000E-01
      1          4.726191        4.934993   1.000000   1.000000
      2          5.982927        7.224543   1.000000   1.000000
      3          6.225536        7.453387   1.000000   1.000000
      4          6.307383        7.678365   1.000000   1.000000
      5          7.232919        8.828139   1.000000   1.000000
      6          7.553854        9.167809   1.000000   1.000000
      7          7.697722        9.341814   1.000000   1.000000
      8          8.365281       10.184191   1.000000   0.000000
      9          9.048632       10.939671   1.000000   0.000000
     10          9.089340       11.009140   1.000000   0.000000
     11          9.692950       11.479152   1.000000   0.000000
     12         14.967975       15.765129   0.000000   0.000000
     13         19.327584       19.885891   0.000000   0.000000
     14         20.866802       21.368979   0.000000   0.000000
     15         21.458209       21.928413   0.000000   0.000000
     16         27.304558       27.519793   0.000000   0.000000
 
  0.3000000E+00  0.2000000E+00  0.1250000E+00  0.3000000E-01
      1          5.540801        6.237149   1.000000   1.000000
      2          5.905960        7.092586   1.000000   1.000000
      3          5.979973        7.267790   1.000000   1.000000
      4          6.480467        7.689640   1.000000   1.000000
      5          7.181357        8.731344   1.000000   1.000000
      6          7.495017        9.042049   1.000000   1.000000
      7          7.825203        9.464609   1.000000   1.000000
      8          8.714851       10.575485   1.000000   0.000000
      9          9.087932       11.026064   1.000000   0.000000
     10          9.313444       11.255747   1.000000   0.000000
     11         11.045872       12.502678   0.000000   0.000000
     12         15.993483       16.624183   0.000000   0.000000
     13         18.074965       18.761685   0.000000   0.000000
     14         19.899227       20.402892   0.000000   0.000000
     15         21.292800       21.709301   0.000000   0.000000
     16         24.336364       24.780836   0.000000   0.000000
 
  0.4000000E+00  0.2000000E+00  0.1250000E+00  0.1500000E-01
      1          5.563473        6.689001   1.000000   1.000000
      2          5.860020        7.102859   1.000000   1.000000
      3          6.080303        7.271326   1.000000   1.000000
      4          6.608411        7.639891   1.000000   1.000000
      5          7.110270        8.710176   1.000000   1.000000
      6          7.513077        8.952456   1.000000   1.000000
      7          7.958922        9.623560   1.000000   1.000000
      8          9.039785       10.940597   1.000000   0.000000
      9          9.067932       11.003475   1.000000   0.000000
     10          9.257138       11.196337   1.000000   0.000000
     11         12.760351       13.753398   0.000000   0.000000
     12         14.017049       14.979561   0.000000   0.000000
     13         19.064570       19.567016   0.000000   0.000000
     14         20.139778       20.658850   0.000000   0.000000
     15         20.393182       20.895590   0.000000   0.000000
     16         24.292654       24.713768   0.000000   0.000000
 
  0.3000000E+00  0.3000000E+00  0.1250000E+00  0.1500000E-01
      1          5.793255        7.076956   1.000000   1.000000
      2          6.036502        7.123272   1.000000   1.000000
      3          6.223682        7.430426   1.000000   1.000000
      4          6.375934        7.450993   1.000000   1.000000
      5          7.146754        8.658373   1.000000   1.000000
      6          7.237163        8.761957   1.000000   1.000000