    2    2  100    2
  0.1114038E+02  0.2517198E-09  0.2517198E-09  0.4060360E-09  0.5000000E-15
  1.000000000000000E-004
  CAR 
 Co-hcc                                  
     18     95     28
 
  0.0000000E+00  0.0000000E+00  0.0000000E+00  0.8680556E-03
      1          1.129446        1.126597   1.000000   1.000000
      2          4.864345        5.842156   1.000000   1.000000
      3          7.296740        8.976001   1.000000   1.000000
      4          7.305647        8.992486   1.000000   1.000000
      5          7.305647        8.992486   1.000000   1.000000
      6          7.605243        9.346600   1.000000   1.000000
      7          7.605243        9.346601   1.000000   1.000000
      8          7.930616        9.732364   1.000000   0.999266
      9          7.930616        9.732365   1.000000   0.999266
     10          8.993481        9.783860   1.000000   0.957686
     11          8.993481       10.913767   1.000000   0.000000
     12          9.853913       10.913767   0.398600   0.000000
     13         16.026512       17.059684   0.000000   0.000000
     14         31.602117       31.316674   0.000000   0.000000
     15         33.877093       34.234832   0.000000   0.000000
     16         33.877095       34.234833   0.000000   0.000000
     17         34.637913       34.480433   0.000000   0.000000
     18         35.112436       34.877997   0.000000   0.000000
     19         35.261135       35.561094   0.000000   0.000000
     20         35.261137       35.561097   0.000000   0.000000
     21         39.944256       39.873574   0.000000   0.000000
     22         39.944256       39.873576   0.000000   0.000000
     23         40.688129       40.930668   0.000000   0.000000
     24         41.318330       40.981310   0.000000   0.000000
     25         42.955865       43.149002   0.000000   0.000000
     26         42.955865       43.149003   0.000000   0.000000
     27         43.548788       44.095069   0.000000   0.000000
     28         45.116165       45.577707   0.000000   0.000000
 
  0.8333333E-01  0.2081668E-16  0.0000000E+00  0.5208333E-02
      1          1.367308        1.365326   1.000000   1.000000
      2          5.004238        6.002979   1.000000   1.000000
      3          7.084138        8.722778   1.000000   1.000000
      4          7.413888        9.110744   1.000000   1.000000
      5          7.482862        9.112260   1.000000   1.000000
      6          7.563019        9.191316   1.000000   1.000000
      7          7.700929        9.287742   1.000000   1.000000
      8          7.792224        9.452487   1.000000   1.000000
      9          7.863227        9.653045   1.000000   1.000000
     10          8.290657        9.679306   1.000000   0.999999
     11          9.022228       10.948182   1.000000   0.000000
     12         10.861062       11.790741   0.000000   0.000000
     13         16.071337       17.080723   0.000000   0.000000
     14         29.639451       29.749895   0.000000   0.000000
     15         31.815838       32.008148   0.000000   0.000000
     16         31.958632       32.148969   0.000000   0.000000
     17         35.121830       34.898794   0.000000   0.000000
     18         35.460030       35.395508   0.000000   0.000000
     19         36.841941       36.715652   0.000000   0.000000
     20         37.559048       37.860224   0.000000   0.000000
     21         38.320566       38.561190   0.000000   0.000000
     22         39.397823       39.408563   0.000000   0.000000
     23         40.259619       40.532112   0.000000   0.000000
     24         40.423982       40.729875   0.000000   0.000000
     25         42.621144       43.183566   0.000000   0.000000
     26         42.729451       43.233866   0.000000   0.000000
     27         43.926559       44.045450   0.000000   0.000000
     28         44.466137       44.330059   0.000000   0.000000
 
  0.1666667E+00  0.1387779E-16  0.0000000E+00  0.5208333E-02
      1          2.055995        2.060959   1.000000   1.000000
      2          5.349371        6.415959   1.000000   1.000000
      3          6.824410        8.274255   1.000000   1.000000
      4          7.134743        8.383910   1.000000   1.000000
      5          7.401119        9.074296   1.000000   1.000000
      6          7.696810        9.451680   1.000000   1.000000
      7          7.718936        9.458546   1.000000   1.000000
      8          7.773810        9.508605   1.000000   1.000000
      9          7.912019        9.526589   1.000000   1.000000
     10          7.968259        9.748892   1.000000   0.996671
     11          9.083636       11.020827   1.000000   0.000000
     12         12.403708       13.242691   0.000000   0.000000
     13         16.227205       17.162231   0.000000   0.000000
     14         25.824567       26.160161   0.000000   0.000000
     15         29.472804       29.783202   0.000000   0.000000
     16         31.040399       31.121435   0.000000   0.000000
     17         32.938872       32.946343   0.000000   0.000000
     18         35.224570       34.988877   0.000000   0.000000
     19         35.805515       35.992393   0.000000   0.000000
     20         37.932336       38.193178   0.000000   0.000000
     21         38.548431       38.653831   0.000000   0.000000
     22         39.115462       39.388893   0.000000   0.000000
     23         39.653794       39.949453   0.000000   0.000000
     24         41.041100       41.575773   0.000000   0.000000
     25         41.552072       41.856723   0.000000   0.000000
     26         43.726335       43.821998   0.000000   0.000000
     27         45.943124       46.079899   0.000000   0.000000
     28         46.036041       48.038405   0.000000   0.000000
 
  0.2500000E+00  0.4163336E-16  0.0000000E+00  0.5208333E-02
      1          3.099843        3.141473   1.000000   1.000000
      2          5.624518        6.822151   1.000000   1.000000
      3          6.441228        7.612742   1.000000   1.000000
      4          6.670727        8.085706   1.000000   1.000000
      5          7.316602        8.928787   1.000000   1.000000
      6          7.496520        9.226152   1.000000   1.000000
      7          7.720185        9.321414   1.000000   1.000000
      8          8.160442        9.931299   1.000000   0.007227
      9          8.182196        9.948956   1.000000   0.001614
     10          8.352244       10.176615   1.000000   0.000000
     11          9.142046       11.088906   1.000000   0.000000
     12         14.158009       14.909691   0.000000   0.000000
     13         16.528006       17.332208   0.000000   0.000000
     14         22.153374       22.626242   0.000000   0.000000
     15         27.443111       27.714496   0.000000   0.000000
     16         29.611380       29.744832   0.000000   0.000000
     17         29.831004       30.044629   0.000000   0.000000
     18         33.438183       33.917778   0.000000   0.000000
     19         34.194078       34.017881   0.000000   0.000000
     20         37.624983       38.027667   0.000000   0.000000
     21         37.863839       38.039366   0.000000   0.000000
     22         38.634065       38.701273   0.000000   0.000000
     23         39.717424       39.908006   0.000000   0.000000
     24         42.605350       42.880932   0.000000   0.000000
     25         44.181884       44.555938   0.000000   0.000000
     26         45.938210       47.283342   0.000000   0.000000
     27         46.780368       48.780829   0.000000   0.000000
     28         47.699876       49.557764   0.000000   0.000000
 
  0.3333333E+00  0.0000000E+00  0.0000000E+00  0.5208333E-02
      1          4.240988        4.440228   1.000000   1.000000
      2          5.559567        6.858958   1.000000   1.000000
      3          5.934625        7.148130   1.000000   1.000000
      4          6.786241        7.974558   1.000000   1.000000
      5          7.315855        9.017620   1.000000   1.000000
      6          7.437231        9.021953   1.000000   1.000000
      7          7.553505        9.119326   1.000000   1.000000
      8          8.629379       10.486980   1.000000   0.000000
      9          8.768077       10.556085   1.000000   0.000000
     10          8.839386       10.642748   1.000000   0.000000
     11          9.182376       11.135266   1.000000   0.000000
     12         16.078535       16.732421   0.000000   0.000000
     13         16.631948       17.273750   0.000000   0.000000
     14         19.311321       19.925452   0.000000   0.000000
     15         25.836678       26.054290   0.000000   0.000000
     16         26.566459       26.833121   0.000000   0.000000
     17         27.545808       27.922226   0.000000   0.000000
     18         32.000069       32.451641   0.000000   0.000000
     19         33.071020       32.907392   0.000000   0.000000
     20         35.875663       36.242329   0.000000   0.000000
     21         37.393977       37.619773   0.000000   0.000000
     22         39.367776       39.529077   0.000000   0.000000
     23         41.483024       41.650776   0.000000   0.000000
     24         43.712159       43.977435   0.000000   0.000000
     25         46.312786       48.040495   0.000000   0.000000
     26         46.946740       49.467836   0.000000   0.000000
     27         47.691843       50.571442   0.000000   0.000000
     28         50.186383       50.742943   0.000000   0.000000
 
  0.4166667E+00  0.5551115E-16  0.0000000E+00  0.5208333E-02
      1          4.988203        5.601971   1.000000   1.000000
      2          5.380800        6.658261   1.000000   1.000000
      3          5.631309        6.875578   1.000000   1.000000
      4          7.149083        8.004530   1.000000   1.000000
      5          7.192482        8.875708   1.000000   1.000000
      6          7.436408        8.973145   1.000000   1.000000
      7          7.631515        9.237259   1.000000   1.000000
      8          8.978975       10.892244   1.000000   0.000000
      9          9.111736       11.035956   1.000000   0.000000
     10          9.204097       11.159941   1.000000   0.000000
     11          9.929552       11.464003   0.008279   0.000000
     12         14.775715       15.550471   0.000000   0.000000
     13         18.071364       18.605159   0.000000   0.000000
     14         19.253266       19.763486   0.000000   0.000000
     15         23.910679       24.322685   0.000000   0.000000
     16         24.783292       24.947948   0.000000   0.000000
     17         24.926239       25.411423   0.000000   0.000000
     18         31.526707       31.975109   0.000000   0.000000
     19         32.312402       32.139782   0.000000   0.000000
     20         34.743834       35.073217   0.000000   0.000000
     21         37.124512       37.380899   0.000000   0.000000
     22         39.822570       40.060673   0.000000   0.000000
     23         43.861196       44.033702   0.000000   0.000000
     24         44.305399       44.545216   0.000000   0.000000
     25         46.438289       49.917109   0.000000   0.000000
     26         47.053528       50.047780   0.000000   0.000000
     27         49.766763       50.635515   0.000000   0.000000
     28         51.125202       51.431328   0.000000   0.000000
 
  0.5000000E+00  0.8326673E-16  0.0000000E+00  0.2604167E-02
      1          5.239944        6.132577   1.000000   1.000000
      2          5.244784        6.482684   1.000000   1.000000
      3          5.530525        6.786001   1.000000   1.000000
      4          7.148757        8.084001   1.000000   1.000000
      5          7.393154        8.825485   1.000000   1.000000
      6          7.394141        8.919852   1.000000   1.000000
      7          7.704183        9.322691   1.000000   1.000000
      8          9.105182       11.037496   1.000000   0.000000
      9          9.210659       11.167328   1.000000   0.000000
     10          9.250315       11.198949   1.000000   0.000000
     11         11.091493       12.351324   0.000000   0.000000
     12         13.038911       14.046971   0.000000   0.000000
     13         19.376881       19.789280   0.000000   0.000000
     14         19.990910       20.373693   0.000000   0.000000
     15         22.386650       22.929211   0.000000   0.000000
     16         23.503890       24.074892   0.000000   0.000000
     17         24.412670       24.554027   0.000000   0.000000
     18         31.410560       31.863565   0.000000   0.000000
     19         32.049383       31.871598   0.000000   0.000000
     20         34.351166       34.665331   0.000000   0.000000
     21         37.036696       37.303427   0.000000   0.000000
     22         39.991269       40.259751   0.000000   0.000000
     23         44.460690       44.641739   0.000000   0.000000
     24         46.343699       46.383361   0.000000   0.000000
     25         46.361224       47.424630   0.000000   0.000000
     26         47.009896       49.747349   0.000000   0.000000
     27         47.033206       50.630311   0.000000   0.000000
     28         52.061934       52.722057   0.000000   0.000000
 
  0.8333333E-01  0.8333333E-01  0.0000000E+00  0.5208333E-02
      1          1.831416        1.832987   1.000000   1.000000
      2          5.252322        6.294000   1.000000   1.000000
      3          6.879070        8.467416   1.000000   1.000000
      4          7.369227        8.493286   1.000000   1.000000
      5          7.463731        9.153929   1.000000   1.000000
      6          7.632902        9.356219   1.000000   1.000000
      7          7.634667        9.359421   1.000000   1.000000
      8          7.672305        9.421600   1.000000   1.000000
      9          7.912249        9.667530   1.000000   1.000000
     10          8.025252        9.682153   1.000000   0.999998
     11          9.058223       10.990582   1.000000   0.000000
     12         11.969018       12.832689   0.000000   0.000000
     13         16.173511       17.133914   0.000000   0.000000
     14         27.577477       27.800772   0.000000   0.000000
     15         28.222300       28.567315   0.000000   0.000000
     16         33.475677       33.522844   0.000000   0.000000
     17         34.469759       34.354950   0.000000   0.000000
     18         34.644197       34.535785   0.000000   0.000000
     19         34.715538       34.760831   0.000000   0.000000
     20         37.746721       37.912228   0.000000   0.000000
     21         38.486127       38.941307   0.000000   0.000000
     22         39.031599       39.523925   0.000000   0.000000
     23         41.301937       41.412998   0.000000   0.000000
     24         41.727019       41.863776   0.000000   0.000000
     25         41.929584       42.171241   0.000000   0.000000
     26         42.232972       42.632367   0.000000   0.000000
     27         43.108152       43.192736   0.000000   0.000000
     28         46.198244       48.353381   0.000000   0.000000
 
  0.1666667E+00  0.8333333E-01  0.0000000E+00  0.1041667E-01
      1          2.705965        2.725435   1.000000   1.000000
      2          5.605166        6.737872   1.000000   1.000000
      3          6.622063        7.846276   1.000000   1.000000
      4          6.697699        8.119610   1.000000   1.000000
      5          7.352381        8.989409   1.000000   1.000000
      6          7.461172        9.161454   1.000000   1.000000
      7          7.873511        9.533069   1.000000   1.000000
      8          7.874883        9.626282   1.000000   1.000000
      9          8.037070        9.801007   1.000000   0.892412
     10          8.308076       10.104293   1.000000   0.000000
     11          9.102750       11.042643   1.000000   0.000000
     12         13.523415       14.310829   0.000000   0.000000
     13         16.421893       17.280451   0.000000   0.000000
     14         24.032375       24.426438   0.000000   0.000000
     15         26.212279       26.545564   0.000000   0.000000
     16         31.306681       31.339720   0.000000   0.000000
     17         32.231045       32.389604   0.000000   0.000000
     18         33.330632       33.340810   0.000000   0.000000
     19         34.791423       34.979430   0.000000   0.000000
     20         36.020140       36.474664   0.000000   0.000000
     21         38.018371       38.042585   0.000000   0.000000
     22         39.676786       40.124446   0.000000   0.000000
     23         41.291143       41.461187   0.000000   0.000000
     24         41.746880       41.951306   0.000000   0.000000
     25         43.580313       43.859692   0.000000   0.000000
     26         45.319010       45.379348   0.000000   0.000000
     27         45.526070       45.606931   0.000000   0.000000
     28         46.339136       49.517548   0.000000   0.000000
 
  0.2500000E+00  0.8333333E-01  0.0000000E+00  0.1041667E-01
      1          3.834884        3.933216   1.000000   1.000000
      2          5.719195        6.987003   1.000000   1.000000
      3          6.142757        7.340112   1.000000   1.000000
      4          6.561020        7.890067   1.000000   1.000000
      5          7.283564        8.944017   1.000000   1.000000
      6          7.367333        8.957148   1.000000   1.000000
      7          7.688657        9.317722   1.000000   1.000000
      8          8.256247       10.036944   1.000000   0.000000
      9          8.512995       10.338867   1.000000   0.000000
     10          8.848654       10.649354   1.000000   0.000000
     11          9.140349       11.086195   1.000000   0.000000
     12         15.323954       16.025354   0.000000   0.000000
     13         16.801762       17.505887   0.000000   0.000000
     14         20.612949       21.144444   0.000000   0.000000
     15         24.703448       25.024333   0.000000   0.000000
     16         28.162225       28.346897   0.000000   0.000000
     17         29.508406       29.833592   0.000000   0.000000
     18         32.088288       32.100606   0.000000   0.000000
     19         34.028806       34.369260   0.000000   0.000000
     20         34.463781       34.829856   0.000000   0.000000
     21         38.673346       38.677039   0.000000   0.000000
     22         41.146243       41.337615   0.000000   0.000000
     23         41.392156       41.599468   0.000000   0.000000
     24         42.415143       42.697220   0.000000   0.000000
     25         45.034984       45.616629   0.000000   0.000000
     26         46.684789       48.494026   0.000000   0.000000
     27         46.944423       49.751712   0.000000   0.000000
     28         48.469948       50.082500   0.000000   0.000000
 
  0.3333333E+00  0.8333333E-01  0.0000000E+00  0.1041667E-01
      1          4.826947        5.208582   1.000000   1.000000
      2          5.552935        6.855174   1.000000   1.000000
      3          5.766281        7.005330   1.000000   1.000000
      4          6.794136        7.864165   1.000000   1.000000
      5          7.167929        8.809582   1.000000   1.000000
      6          7.507131        9.091278   1.000000   1.000000
      7          7.552317        9.150014   1.000000   1.000000
      8          8.732203       10.565406   1.000000   0.000000
      9          8.918582       10.803828   1.000000   0.000000
     10          9.163878       11.113081   1.000000   0.000000
     11          9.628717       11.313503   1.000000   0.000000
     12         16.118624       16.770272   0.000000   0.000000
     13         17.287986       17.887383   0.000000   0.000000
     14         19.010493       19.593013   0.000000   0.000000
     15         23.538862       23.827792   0.000000   0.000000
     16         25.303556       25.633077   0.000000   0.000000
     17         26.546453       26.963702   0.000000   0.000000
     18         31.192394       31.185108   0.000000   0.000000
     19         33.378841       33.712656   0.000000   0.000000
     20         33.441852       33.818982   0.000000   0.000000
     21         38.697951       38.767251   0.000000   0.000000
     22         41.484539       41.695387   0.000000   0.000000
     23         43.004652       43.189705   0.000000   0.000000
     24         44.063467       44.319913   0.000000   0.000000
     25         46.179581       47.656202   0.000000   0.000000
     26         46.952541       50.106549   0.000000   0.000000
     27         47.813332       50.593721   0.000000   0.000000
     28         51.463660       51.619168   0.000000   0.000000
 
  0.4166667E+00  0.8333333E-01  0.0000000E+00  0.1041667E-01
      1          5.264614        6.097603   1.000000   1.000000
      2          5.398289        6.641662   1.000000   1.000000
      3          5.577721        6.840521   1.000000   1.000000
      4          7.121035        7.944857   1.000000   1.000000
      5          7.156164        8.773619   1.000000   1.000000
      6          7.387391        8.923534   1.000000   1.000000
      7          7.700607        9.323047   1.000000   1.000000
      8          9.069735       10.982113   1.000000   0.000000
      9          9.137499       11.058297   1.000000   0.000000
     10          9.174301       11.124824   1.000000   0.000000
     11         10.907319       12.236793   0.000000   0.000000
     12         13.804442       14.712320   0.000000   0.000000
     13         19.175811       19.643467   0.000000   0.000000
     14         19.885985       20.309539   0.000000   0.000000
     15         22.768694       23.069802   0.000000   0.000000
     16         22.973646       23.456883   0.000000   0.000000
     17         24.309812       24.772864   0.000000   0.000000
     18         30.727600       30.706320   0.000000   0.000000
     19         32.802836       33.128183   0.000000   0.000000
     20         33.149406       33.531159   0.000000   0.000000
     21         38.576395       38.682279   0.000000   0.000000
     22         41.689057       41.943221   0.000000   0.000000
     23         44.489846       44.687125   0.000000   0.000000
     24         45.430745       45.583359   0.000000   0.000000
     25         46.379388       48.761130   0.000000   0.000000
     26         47.020223       49.825673   0.000000   0.000000
     27         48.453533       50.575279   0.000000   0.000000
     28         50.414507       50.720321   0.000000   0.000000
 
  0.1666667E+00  0.1666667E+00  0.0000000E+00  0.5208333E-02
      1          3.691119        3.757667   1.000000   1.000000
      2          5.890123        7.103361   1.000000   1.000000
      3          6.252446        7.440103   1.000000   1.000000
      4          6.344192        7.766441   1.000000   1.000000
      5          7.217922        8.869634   1.000000   1.000000
      6          7.363571        8.961809   1.000000   1.000000
      7          7.775998        9.424451   1.000000   1.000000
      8          8.033677        9.810296   1.000000   0.835644
      9          8.502647       10.315756   1.000000   0.000000
     10          8.868757       10.661740   1.000000   0.000000
     11          9.104425       11.044251   1.000000   0.000000
     12         15.068413       15.790349   0.000000   0.000000
     13         16.831516       17.566161   0.000000   0.000000
     14         22.338477       22.761715   0.000000   0.000000
     15         22.743206       23.171412   0.000000   0.000000
     16         29.725654       29.721314   0.000000   0.000000
     17         30.444096       30.698957   0.000000   0.000000
     18         31.498654       31.821463   0.000000   0.000000
     19         32.235857       32.538070   0.000000   0.000000
     20         36.878273       37.136634   0.000000   0.000000
     21         39.065095       39.008543   0.000000   0.000000
     22         39.358507       39.796846   0.000000   0.000000
     23         42.891622       43.117754   0.000000   0.000000
     24         44.127872       44.284263   0.000000   0.000000
     25         44.517746       44.586533   0.000000   0.000000
     26         45.668822       45.865792   0.000000   0.000000
     27         46.201440       47.740746   0.000000   0.000000
     28         46.751306       50.335416   0.000000   0.000000
 
  0.2500000E+00  0.1666667E+00  0.0000000E+00  0.1041667E-01
      1          4.768919        4.995224   1.000000   1.000000
      2          5.875783        7.139942   1.000000   1.000000
      3          5.901139        7.174506   1.000000   1.000000
      4          6.324643        7.586736   1.000000   1.000000
      5          7.071427        8.681970   1.000000   1.000000
      6          7.502888        9.095360   1.000000   1.000000
      7          7.595064        9.206558   1.000000   1.000000
      8          8.325513       10.133171   1.000000   0.000000
      9          8.920898       10.795096   1.000000   0.000000
     10          9.102276       11.041635   1.000000   0.000000
     11          9.645930       11.353185   1.000000   0.000000
     12         16.893522       17.535918   0.000000   0.000000
     13         17.236429       17.827241   0.000000   0.000000
     14         19.515432       20.068844   0.000000   0.000000
     15         21.375163       21.790107   0.000000   0.000000
     16         27.054109       27.276230   0.000000   0.000000
     17         28.483894       28.871405   0.000000   0.000000
     18         29.111983       29.283783   0.000000   0.000000
     19         30.947212       31.297204   0.000000   0.000000
     20         37.022725       37.306953   0.000000   0.000000
     21         40.412594       40.327716   0.000000   0.000000
     22         41.706752       42.037654   0.000000   0.000000
     23         43.512556       43.704658   0.000000   0.000000
     24         44.077821       44.239764   0.000000   0.000000
     25         45.891324       46.761528   0.000000   0.000000
     26         46.738954       47.675080   0.000000   0.000000
     27         47.362915       49.747743   0.000000   0.000000
     28         47.620917       50.326165   0.000000   0.000000
 
  0.3333333E+00  0.1666667E+00  0.0000000E+00  0.1041667E-01
      1          5.441343        6.084193   1.000000   1.000000
      2          5.683610        6.963281   1.000000   1.000000
      3          5.685267        6.965191   1.000000   1.000000
      4          6.633496        7.640477   1.000000   1.000000
      5          7.031075        8.626982   1.000000   1.000000
      6          7.399163        8.962423   1.000000   1.000000
      7          7.695506        9.320927   1.000000   1.000000
      8          8.710662       10.560256   1.000000   0.000000
      9          9.099694       11.038387   1.000000   0.000000
     10          9.128129       11.041966   1.000000   0.000000
     11         10.811172       12.241706   0.000000   0.000000
     12         15.456106       16.176807   0.000000   0.000000
     13         18.879621       19.422487   0.000000   0.000000
     14         19.480038       19.968250   0.000000   0.000000
     15         20.629502       21.016634   0.000000   0.000000
     16         24.392760       24.775197   0.000000   0.000000
     17         25.624887       26.066996   0.000000   0.000000
     18         28.477275       28.621220   0.000000   0.000000
     19         30.204911       30.554543   0.000000   0.000000
     20         36.682287       36.988827   0.000000   0.000000
     21         41.193368       41.123752   0.000000   0.000000
     22         43.812097       43.989263   0.000000   0.000000
     23         45.021153       45.287546   0.000000   0.000000
     24         45.129401       45.291775   0.000000   0.000000
     25         45.951944       46.917045   0.000000   0.000000
     26         46.874229       50.024549   0.000000   0.000000
     27         47.297445       50.495368   0.000000   0.000000
     28         50.433686       50.553573   0.000000   0.000000
 
  0.4166667E+00  0.1666667E+00  0.0000000E+00  0.5208333E-02
      1          5.593599        6.536944   1.000000   1.000000
      2          5.603473        6.836810   1.000000   1.000000
      3          5.610607        6.905770   1.000000   1.000000
      4          6.849824        7.706655   1.000000   1.000000
      5          7.046655        8.661316   1.000000   1.000000
      6          7.297713        8.818390   1.000000   1.000000
      7          7.777548        9.421565   1.000000   1.000000
      8          8.970333       10.858446   1.000000   0.000000
      9          9.098449       11.024808   1.000000   0.000000
     10          9.107896       11.036797   1.000000   0.000000
     11         12.092706       13.154237   0.000000   0.000000
     12         13.594332       14.591992   0.000000   0.000000
     13         19.992359       20.391985   0.000000   0.000000
     14         20.294287       20.729254   0.000000   0.000000
     15         20.675279       21.051824   0.000000   0.000000
     16         22.751486       23.258237   0.000000   0.000000
     17         24.139901       24.633839   0.000000   0.000000
     18         28.268033       28.406147   0.000000   0.000000
     19         29.942952       30.288623   0.000000   0.000000
     20         36.548961       36.861026   0.000000   0.000000
     21         41.336218       41.287676   0.000000   0.000000
     22         44.667203       44.824340   0.000000   0.000000
     23         44.669523       44.916160   0.000000   0.000000
     24         46.356578       46.828841   0.000000   0.000000
     25         46.804803       48.776850   0.000000   0.000000
     26         46.952234       49.865110   0.000000   0.000000
     27         48.349342       49.868506   0.000000   0.000000
     28         49.696888       50.274256   0.000000   0.000000
 
  0.2500000E+00  0.2500000E+00  0.0000000E+00  0.5208333E-02
      1          5.569882        6.091597   1.000000   1.000000