       N       E                     dE             d eps       ncg     rms          rms(c)
DAV:   1    -0.228850950476E+00   -0.22885E+00   -0.84881E+03 10640   0.740E+02
DAV:   2    -0.156222822400E+02   -0.15393E+02   -0.15250E+02 14308   0.572E+01
DAV:   3    -0.156860845621E+02   -0.63802E-01   -0.63776E-01 13804   0.433E+00
DAV:   4    -0.156862055837E+02   -0.12102E-03   -0.12102E-03 17192   0.844E-02
DAV:   5    -0.156862055876E+02   -0.38547E-08   -0.39464E-08 13972   0.488E-04    0.157E+01
DAV:   6    -0.145130054415E+02    0.11732E+01   -0.31856E+01 19208   0.398E+01    0.673E+00
DAV:   7    -0.140937660036E+02    0.41924E+00   -0.40558E+00 17416   0.131E+01    0.368E+00
DAV:   8    -0.140707419452E+02    0.23024E-01   -0.42455E-02 16968   0.993E-01    0.161E+00
DAV:   9    -0.140571565135E+02    0.13585E-01   -0.21907E-02 19348   0.726E-01    0.493E-01
DAV:  10    -0.140561090417E+02    0.10475E-02   -0.18146E-03 19208   0.195E-01    0.676E-02
DAV:  11    -0.140561269814E+02   -0.17940E-04   -0.22131E-04 16128   0.859E-02    0.260E-02
DAV:  12    -0.140561234669E+02    0.35144E-05   -0.47972E-06 18172   0.128E-02    0.142E-02
DAV:  13    -0.140561232698E+02    0.19709E-06   -0.52648E-06 19208   0.103E-02
   1 F= -.14056123E+02 E0= -.14054786E+02  d E =-.140561E+02  mag=     3.3098
