 vasp.6.3.2 27Jun22 (build Aug 12 2022 00:53:59) complex                        
  
 executed on               tv2STD date 2024.11.30  17:13:30
 running   24 mpi-ranks, with    1 threads/rank
 distrk:  each k-point on   24 cores,    1 groups
 distr:  one band on NCORE=   6 cores,    4 groups


--------------------------------------------------------------------------------------------------------


 INCAR:
   SYSTEM = Co-hcc
   NWRITE = 2    write-flag
   ISTART = 0    job   : 0-new, 1-cont, 2-samecut
   ICHARG = 2    charge: 0-wave, 1-file, 2-atom, >10-const
   INIWAV = 1    electr: 0-lowe 1-rand  2-diag
   ENCUT = 400     energy cutoff in eV
   PREC = Accurate      normal | accurate
   ADDGRID = .FALSE.  (use fine grid)
   NELM = 100     number of ELM steps
   EDIFF = 1E-06    energy stopping-criterion for ELM
   LREAL = .FALSE.      real-space projection (.FALSE., .TRUE., On, Auto)
   ALGO = Normal     Normal, Fast, Very_Fast
   LWAVE = .TRUE.
   LCHARG = .TRUE.
   NSW = 100       max number of geometry steps
   IBRION = 2     ionic relax: 0-MD, 1-quasi-Newton, 2-CG, 3-Damped MD
   EDIFFG = -0.02  force (eV/A) stopping-criterion for geometry steps
   ISIF = 2     (1:force\=y stress\=trace only ions\=y shape\=n volume\=n)
   ISYM = 1     (1-use symmetry, 0-no symmetry)
   ISMEAR = 0     (-1-Fermi, 1-Methfessel/Paxton)
   SIGMA = 0.05   broadening in eV
   LORBIT = 11 magnetic props in OUTCAR should be on
   NPAR = 4
   ISPIN = 2
   MAGMOM = 2*3

 POTCAR:    PAW_PBE Co 02Aug2007                  
 POTCAR:    PAW_PBE Co 02Aug2007                  
   SHA256 =  0e690c60710354995174544f52f9f2c30879afabeffe3b3fbd4001cb294e56d4 Co/POTCAR             
   COPYR  = (c) Copyright 02Aug2007 Georg Kresse                                                    
   COPYR  = This file is part of the software VASP. Any use, copying, and all other rights are regul
   COPYR  = If you do not have a valid VASP license, you may not use, copy or distribute this file. 
   VRHFIN =Co: d8 s1                                                                                
   LEXCH  = PE                                                                                      
   EATOM  =   813.3670 eV,   59.7808 Ry                                                             
                                                                                                    
   TITEL  = PAW_PBE Co 02Aug2007                                                                    
   LULTRA =        F    use ultrasoft PP ?                                                          
   IUNSCR =        1    unscreen: 0-lin 1-nonlin 2-no                                               
   RPACOR =    2.000    partial core radius                                                         
   POMASS =   58.933; ZVAL   =    9.000    mass and valenz                                          
   RCORE  =    2.300    outmost cutoff radius                                                       
   RWIGS  =    2.460; RWIGS  =    1.302    wigner-seitz radius (au A)                               
   ENMAX  =  267.968; ENMIN  =  200.976 eV                                                          
   RCLOC  =    1.203    cutoff for local pot                                                        
   LCOR   =        T    correct aug charges                                                         
   LPAW   =        T    paw PP                                                                      
   EAUG   =  477.818                                                                                
   DEXC   =    0.000                                                                                
   RMAX   =    2.360    core radius for proj-oper                                                   
   RAUG   =    1.300    factor for augmentation sphere                                              
   RDEP   =    2.393    radius for radial grids                                                     
   RDEPT  =    1.864    core radius for aug-charge                                                  
                                                                                                    
   Atomic configuration                                                                             
    9 entries                                                                                       
     n  l   j            E        occ.                                                              
     1  0  0.50     -7587.6674   2.0000                                                             
     2  0  0.50      -893.6084   2.0000                                                             
     2  1  1.50      -764.5805   6.0000                                                             
     3  0  0.50       -97.5973   2.0000                                                             
     3  1  1.50       -60.9648   6.0000                                                             
     3  2  2.50        -4.2382   8.0000                                                             
     4  0  0.50        -4.3746   1.0000                                                             
     4  1  1.50        -4.0817   0.0000                                                             
     4  3  2.50        -1.3606   0.0000                                                             
   Description                                                                                      
     l       E           TYP  RCUT    TYP  RCUT                                                     
     2     -4.2382362     23  2.300                                                                 
     2     -5.5988188     23  2.300                                                                 
     0     -4.3745797     23  2.300                                                                 
     0      5.7660125     23  2.300                                                                 
     1     -2.7211652     23  2.300                                                                 
     1     16.9860234     23  2.300                                                                 
  local pseudopotential read in
  partial core-charges read in
  partial kinetic energy density read in
  atomic valenz-charges read in
  non local Contribution for L=           2  read in
    real space projection operators read in
  non local Contribution for L=           2  read in
    real space projection operators read in
  non local Contribution for L=           0  read in
    real space projection operators read in
  non local Contribution for L=           0  read in
    real space projection operators read in
  non local Contribution for L=           1  read in
    real space projection operators read in
  non local Contribution for L=           1  read in
    real space projection operators read in
    PAW grid and wavefunctions read in
 
   number of l-projection  operators is LMAX  =           6
   number of lm-projection operators is LMMAX =          18
 
  PAW_PBE Co 02Aug2007                  :
 energy of atom  1       EATOM= -813.3670
 kinetic energy error for atom=    0.0093 (will be added to EATOM!!)
 
 
 POSCAR: Co
  positions in cartesian coordinates
  No initial velocities read in
 exchange correlation table for  LEXCH =        8
   RHO(1)=    0.500       N(1)  =     2000
   RHO(2)=  100.500       N(2)  =     4000
 


--------------------------------------------------------------------------------------------------------


 ion  position               nearest neighbor table
   1  0.000  0.000  0.000-   2 2.49   2 2.49   2 2.49   2 2.49   2 2.49   2 2.49
   2  0.333  0.667  0.500-   1 2.49   1 2.49   1 2.49   1 2.49   1 2.49   1 2.49
 
  LATTYP: Found a hexagonal cell.
 ALAT       =     2.5062355504
 C/A-ratio  =     1.6179593006
  
  Lattice vectors:
  
 A1 = (   2.5062355504,   0.0000000000,   0.0000000000)
 A2 = (  -1.2531177752,   2.1704636545,   0.0000000000)
 A3 = (   0.0000000000,   0.0000000000,   4.0549871183)


Analysis of symmetry for initial positions (statically):
=====================================================================
 Subroutine PRICEL returns:
 Original cell was already a primitive cell.
 

 Routine SETGRP: Setting up the symmetry group for a 
 hexagonal supercell.


 Subroutine GETGRP returns: Found 24 space group operations
 (whereof 12 operations were pure point group operations)
 out of a pool of 24 trial point group operations.


The static configuration has the point symmetry D_3h.
 The point group associated with its full space group is D_6h.


Analysis of symmetry for dynamics (positions and initial velocities):
=====================================================================
 Subroutine PRICEL returns:
 Original cell was already a primitive cell.
 

 Routine SETGRP: Setting up the symmetry group for a 
 hexagonal supercell.


 Subroutine GETGRP returns: Found 24 space group operations
 (whereof 12 operations were pure point group operations)
 out of a pool of 24 trial point group operations.


The dynamic configuration has the point symmetry D_3h.
 The point group associated with its full space group is D_6h.


Analysis of structural, dynamic, and magnetic symmetry:
=====================================================================
 Subroutine PRICEL returns:
 Original cell was already a primitive cell.
 

 Routine SETGRP: Setting up the symmetry group for a 
 hexagonal supercell.


 Subroutine GETGRP returns: Found 24 space group operations
 (whereof 12 operations were pure point group operations)
 out of a pool of 24 trial point group operations.


The overall configuration has the point symmetry D_3h.
 The point group associated with its full space group is D_6h.


 Subroutine INISYM returns: Found 24 space group operations
 (whereof 12 operations are pure point group operations),
 and found     1 'primitive' translations


----------------------------------------------------------------------------------------

                                     Primitive cell                                     

  volume of cell :      22.0579

  direct lattice vectors                    reciprocal lattice vectors
     2.506235550  0.000000000  0.000000000     0.399004794  0.230365525  0.000000000
    -1.253117775  2.170463655  0.000000000     0.000000000  0.460731051  0.000000000
     0.000000000  0.000000000  4.054987118     0.000000000  0.000000000  0.246609908

  length of vectors
     2.506235550  2.506235550  4.054987118     0.460731051  0.460731051  0.246609908

  position of ions in fractional coordinates (direct lattice)
     0.000000000  0.000000000  0.000000000
     0.333333333  0.666666667  0.500000000

  ion indices of the primitive-cell ions
   primitive index   ion index
                 1           1
                 2           2

----------------------------------------------------------------------------------------

 
 
 KPOINTS: Automatic mesh                          

Automatic generation of k-mesh.
 Grid dimensions read from file:
 generate k-points for:   10   10    8

 Generating k-lattice:

  Cartesian coordinates                     Fractional coordinates (reciprocal lattice)
     0.039900479  0.023036553  0.000000000     0.100000000  0.000000000  0.000000000
     0.000000000  0.046073105  0.000000000     0.000000000  0.100000000  0.000000000
     0.000000000  0.000000000  0.030826238     0.000000000  0.000000000  0.125000000

  Length of vectors
     0.046073105  0.046073105  0.030826238

  Shift w.r.t. Gamma in fractional coordinates (k-lattice)
     0.000000000  0.000000000  0.000000000

 
 Subroutine IBZKPT returns following result:
 ===========================================
 
 Found     70 irreducible k-points:
 
 Following reciprocal coordinates:
            Coordinates               Weight
  0.000000  0.000000  0.000000      1.000000
  0.100000  0.000000  0.000000      6.000000
  0.200000  0.000000  0.000000      6.000000
  0.300000  0.000000  0.000000      6.000000
  0.400000  0.000000  0.000000      6.000000
  0.500000  0.000000  0.000000      3.000000
  0.100000  0.100000  0.000000      6.000000
  0.200000  0.100000  0.000000     12.000000
  0.300000  0.100000  0.000000     12.000000
  0.400000  0.100000  0.000000     12.000000
  0.200000  0.200000  0.000000      6.000000
  0.300000  0.200000  0.000000     12.000000
  0.400000  0.200000  0.000000      6.000000
  0.300000  0.300000  0.000000      6.000000
  0.000000  0.000000  0.125000      2.000000
  0.100000  0.000000  0.125000     12.000000
  0.200000  0.000000  0.125000     12.000000
  0.300000  0.000000  0.125000     12.000000
  0.400000  0.000000  0.125000     12.000000
  0.500000  0.000000  0.125000      6.000000
  0.100000  0.100000  0.125000     12.000000
  0.200000  0.100000  0.125000     24.000000
  0.300000  0.100000  0.125000     24.000000
  0.400000  0.100000  0.125000     24.000000
  0.200000  0.200000  0.125000     12.000000
  0.300000  0.200000  0.125000     24.000000
  0.400000  0.200000  0.125000     12.000000
  0.300000  0.300000  0.125000     12.000000
  0.000000  0.000000  0.250000      2.000000
  0.100000  0.000000  0.250000     12.000000
  0.200000  0.000000  0.250000     12.000000
  0.300000  0.000000  0.250000     12.000000
  0.400000  0.000000  0.250000     12.000000
  0.500000  0.000000  0.250000      6.000000
  0.100000  0.100000  0.250000     12.000000
  0.200000  0.100000  0.250000     24.000000
  0.300000  0.100000  0.250000     24.000000
  0.400000  0.100000  0.250000     24.000000
  0.200000  0.200000  0.250000     12.000000
  0.300000  0.200000  0.250000     24.000000
  0.400000  0.200000  0.250000     12.000000
  0.300000  0.300000  0.250000     12.000000
  0.000000  0.000000  0.375000      2.000000
  0.100000  0.000000  0.375000     12.000000
  0.200000  0.000000  0.375000     12.000000
  0.300000  0.000000  0.375000     12.000000
  0.400000  0.000000  0.375000     12.000000
  0.500000  0.000000  0.375000      6.000000
  0.100000  0.100000  0.375000     12.000000
  0.200000  0.100000  0.375000     24.000000
  0.300000  0.100000  0.375000     24.000000
  0.400000  0.100000  0.375000     24.000000
  0.200000  0.200000  0.375000     12.000000
  0.300000  0.200000  0.375000     24.000000
  0.400000  0.200000  0.375000     12.000000
  0.300000  0.300000  0.375000     12.000000
  0.000000  0.000000  0.500000      1.000000
  0.100000  0.000000  0.500000      6.000000
  0.200000  0.000000  0.500000      6.000000
  0.300000  0.000000  0.500000      6.000000
  0.400000  0.000000  0.500000      6.000000
  0.500000  0.000000  0.500000      3.000000
  0.100000  0.100000  0.500000      6.000000
  0.200000  0.100000  0.500000     12.000000
  0.300000  0.100000  0.500000     12.000000
  0.400000  0.100000  0.500000     12.000000
  0.200000  0.200000  0.500000      6.000000
  0.300000  0.200000  0.500000     12.000000
  0.400000  0.200000  0.500000      6.000000
  0.300000  0.300000  0.500000      6.000000
 
 Following cartesian coordinates:
            Coordinates               Weight
  0.000000  0.000000  0.000000      1.000000
  0.039900  0.023037  0.000000      6.000000
  0.079801  0.046073  0.000000      6.000000
  0.119701  0.069110  0.000000      6.000000
  0.159602  0.092146  0.000000      6.000000
  0.199502  0.115183  0.000000      3.000000
  0.039900  0.069110  0.000000      6.000000
  0.079801  0.092146  0.000000     12.000000
  0.119701  0.115183  0.000000     12.000000
  0.159602  0.138219  0.000000     12.000000
  0.079801  0.138219  0.000000      6.000000
  0.119701  0.161256  0.000000     12.000000
  0.159602  0.184292  0.000000      6.000000
  0.119701  0.207329  0.000000      6.000000
  0.000000  0.000000  0.030826      2.000000
  0.039900  0.023037  0.030826     12.000000
  0.079801  0.046073  0.030826     12.000000
  0.119701  0.069110  0.030826     12.000000
  0.159602  0.092146  0.030826     12.000000
  0.199502  0.115183  0.030826      6.000000
  0.039900  0.069110  0.030826     12.000000
  0.079801  0.092146  0.030826     24.000000
  0.119701  0.115183  0.030826     24.000000
  0.159602  0.138219  0.030826     24.000000
  0.079801  0.138219  0.030826     12.000000
  0.119701  0.161256  0.030826     24.000000
  0.159602  0.184292  0.030826     12.000000
  0.119701  0.207329  0.030826     12.000000
  0.000000  0.000000  0.061652      2.000000
  0.039900  0.023037  0.061652     12.000000
  0.079801  0.046073  0.061652     12.000000
  0.119701  0.069110  0.061652     12.000000
  0.159602  0.092146  0.061652     12.000000
  0.199502  0.115183  0.061652      6.000000
  0.039900  0.069110  0.061652     12.000000
  0.079801  0.092146  0.061652     24.000000
  0.119701  0.115183  0.061652     24.000000
  0.159602  0.138219  0.061652     24.000000
  0.079801  0.138219  0.061652     12.000000
  0.119701  0.161256  0.061652     24.000000
  0.159602  0.184292  0.061652     12.000000
  0.119701  0.207329  0.061652     12.000000
  0.000000  0.000000  0.092479      2.000000
  0.039900  0.023037  0.092479     12.000000
  0.079801  0.046073  0.092479     12.000000
  0.119701  0.069110  0.092479     12.000000
  0.159602  0.092146  0.092479     12.000000
  0.199502  0.115183  0.092479      6.000000
  0.039900  0.069110  0.092479     12.000000
  0.079801  0.092146  0.092479     24.000000
  0.119701  0.115183  0.092479     24.000000
  0.159602  0.138219  0.092479     24.000000
  0.079801  0.138219  0.092479     12.000000
  0.119701  0.161256  0.092479     24.000000
  0.159602  0.184292  0.092479     12.000000
  0.119701  0.207329  0.092479     12.000000
  0.000000  0.000000  0.123305      1.000000
  0.039900  0.023037  0.123305      6.000000
  0.079801  0.046073  0.123305      6.000000
  0.119701  0.069110  0.123305      6.000000
  0.159602  0.092146  0.123305      6.000000
  0.199502  0.115183  0.123305      3.000000
  0.039900  0.069110  0.123305      6.000000
  0.079801  0.092146  0.123305     12.000000
  0.119701  0.115183  0.123305     12.000000
  0.159602  0.138219  0.123305     12.000000
  0.079801  0.138219  0.123305      6.000000
  0.119701  0.161256  0.123305     12.000000
  0.159602  0.184292  0.123305      6.000000
  0.119701  0.207329  0.123305      6.000000
 


--------------------------------------------------------------------------------------------------------




 Dimension of arrays:
   k-points           NKPTS =     70   k-points in BZ     NKDIM =     70   number of bands    NBANDS=     16
   number of dos      NEDOS =    301   number of ions     NIONS =      2
   non local maximal  LDIM  =      6   non local SUM 2l+1 LMDIM =     18
   total plane-waves  NPLWV =   7168
   max r-space proj   IRMAX =      1   max aug-charges    IRDMAX=  13014
   dimension x,y,z NGX =    16 NGY =   16 NGZ =   28
   dimension x,y,z NGXF=    32 NGYF=   32 NGZF=   56
   support grid    NGXF=    32 NGYF=   32 NGZF=   56
   ions per type =               2
   NGX,Y,Z   is equivalent  to a cutoff of  10.61, 10.61, 11.48 a.u.
   NGXF,Y,Z  is equivalent  to a cutoff of  21.23, 21.23, 22.96 a.u.

 SYSTEM =  Co-hcc                                  
 POSCAR =  Co                                      

 Startparameter for this run:
   NWRITE =      2    write-flag & timer
   PREC   = accura    normal or accurate (medium, high low for compatibility)
   ISTART =      0    job   : 0-new  1-cont  2-samecut
   ICHARG =      2    charge: 1-file 2-atom 10-const
   ISPIN  =      2    spin polarized calculation?
   LNONCOLLINEAR =      F non collinear calculations
   LSORBIT =      F    spin-orbit coupling
   INIWAV =      1    electr: 0-lowe 1-rand  2-diag
   LASPH  =      F    aspherical Exc in radial PAW
 Electronic Relaxation 1
   ENCUT  =  400.0 eV  29.40 Ry    5.42 a.u.   4.09  4.09  6.61*2*pi/ulx,y,z
   ENINI  =  400.0     initial cutoff
   ENAUG  =  477.8 eV  augmentation charge cutoff
   NELM   =    100;   NELMIN=  2; NELMDL= -5     # of ELM steps 
   EDIFF  = 0.1E-05   stopping-criterion for ELM
   LREAL  =      F    real-space projection
   NLSPLINE    = F    spline interpolate recip. space projectors
   LCOMPAT=      F    compatible to vasp.4.4
   GGA_COMPAT  = T    GGA compatible to vasp.4.4-vasp.4.6
   LMAXPAW     = -100 max onsite density
   LMAXMIX     =    2 max onsite mixed and CHGCAR
   VOSKOWN=      0    Vosko Wilk Nusair interpolation
   ROPT   =    0.00000
 Ionic relaxation
   EDIFFG = -.2E-01   stopping-criterion for IOM
   NSW    =    100    number of steps for IOM
   NBLOCK =      1;   KBLOCK =    100    inner block; outer block 
   IBRION =      2    ionic relax: 0-MD 1-quasi-New 2-CG
   NFREE  =      1    steps in history (QN), initial steepest desc. (CG)
   ISIF   =      2    stress and relaxation
   IWAVPR =     11    prediction:  0-non 1-charg 2-wave 3-comb
   ISYM   =      1    0-nonsym 1-usesym 2-fastsym
   LCORR  =      T    Harris-Foulkes like correction to forces

   POTIM  = 0.5000    time-step for ionic-motion
   TEIN   =    0.0    initial temperature
   TEBEG  =    0.0;   TEEND  =   0.0 temperature during run
   SMASS  =  -3.00    Nose mass-parameter (am)
   estimated Nose-frequenzy (Omega)   =  0.10E-29 period in steps = 0.13E+47 mass=  -0.144E-27a.u.
   SCALEE = 1.0000    scale energy and forces
   NPACO  =    256;   APACO  = 10.0  distance and # of slots for P.C.
   PSTRESS=    0.0 pullay stress

  Mass of Ions in am
   POMASS =  58.93
  Ionic Valenz
   ZVAL   =   9.00
  Atomic Wigner-Seitz radii
   RWIGS  =  -1.00
  virtual crystal weights 
   VCA    =   1.00
   NELECT =      18.0000    total number of electrons
   NUPDOWN=      -1.0000    fix difference up-down

 DOS related values:
   EMIN   =  10.00;   EMAX   =-10.00  energy-range for DOS
   EFERMI =   0.00
   ISMEAR =     0;   SIGMA  =   0.05  broadening in eV -4-tet -1-fermi 0-gaus

 Electronic relaxation 2 (details)
   IALGO  =     38    algorithm
   LDIAG  =      T    sub-space diagonalisation (order eigenvalues)
   LSUBROT=      F    optimize rotation matrix (better conditioning)
   TURBO    =      0    0=normal 1=particle mesh
   IRESTART =      0    0=no restart 2=restart with 2 vectors
   NREBOOT  =      0    no. of reboots
   NMIN     =      0    reboot dimension
   EREF     =   0.00    reference energy to select bands
   IMIX   =      4    mixing-type and parameters
     AMIX     =   0.40;   BMIX     =  1.00
     AMIX_MAG =   1.60;   BMIX_MAG =  1.00
     AMIN     =   0.10
     WC   =   100.;   INIMIX=   1;  MIXPRE=   1;  MAXMIX= -45

 Intra band minimization:
   WEIMIN = 0.0010     energy-eigenvalue tresh-hold
   EBREAK =  0.16E-07  absolut break condition
   DEPER  =   0.30     relativ break condition  

   TIME   =   0.40     timestep for ELM

  volume/ion in A,a.u.               =      11.03        74.43
  Fermi-wavevector in a.u.,A,eV,Ry     =   1.529834  2.890967 31.842976  2.340393
  Thomas-Fermi vector in A             =   2.637400
 
 Write flags
   LWAVE        =      T    write WAVECAR
   LDOWNSAMPLE  =      F    k-point downsampling of WAVECAR
   LCHARG       =      T    write CHGCAR
   LVTOT        =      F    write LOCPOT, total local potential
   LVHAR        =      F    write LOCPOT, Hartree potential only
   LELF         =      F    write electronic localiz. function (ELF)
   LORBIT       =     11    0 simple, 1 ext, 2 COOP (PROOUT), +10 PAW based schemes


 Dipole corrections
   LMONO  =      F    monopole corrections only (constant potential shift)
   LDIPOL =      F    correct potential (dipole corrections)
   IDIPOL =      0    1-x, 2-y, 3-z, 4-all directions 
   EPSILON=  1.0000000 bulk dielectric constant

 Exchange correlation treatment:
   GGA     =    --    GGA type
   LEXCH   =     8    internal setting for exchange type
   LIBXC   =     F    Libxc                    
   VOSKOWN =     0    Vosko Wilk Nusair interpolation
   LHFCALC =     F    Hartree Fock is set to
   LHFONE  =     F    Hartree Fock one center treatment
   AEXX    =    0.0000 exact exchange contribution

 Linear response parameters
   LEPSILON=     F    determine dielectric tensor
   LRPA    =     F    only Hartree local field effects (RPA)
   LNABLA  =     F    use nabla operator in PAW spheres
   LVEL    =     F    velocity operator in full k-point grid
   CSHIFT  =0.1000    complex shift for real part using Kramers Kronig
   OMEGAMAX=  -1.0    maximum frequency
   DEG_THRESHOLD= 0.2000000E-02 threshold for treating states as degnerate
   RTIME   =   -0.100 relaxation time in fs
  (WPLASMAI=    0.000 imaginary part of plasma frequency in eV, 0.658/RTIME)
   DFIELD  = 0.0000000 0.0000000 0.0000000 field for delta impulse in time
 
  Optional k-point grid parameters
   LKPOINTS_OPT  =     F    use optional k-point grid
   KPOINTS_OPT_MODE=     1    mode for optional k-point grid
 
 Orbital magnetization related:
   ORBITALMAG=     F  switch on orbital magnetization
   LCHIMAG   =     F  perturbation theory with respect to B field
   DQ        =  0.001000  dq finite difference perturbation B field
   LLRAUG    =     F  two centre corrections for induced B field



--------------------------------------------------------------------------------------------------------


 conjugate gradient relaxation of ions
 charge density and potential will be updated during run
 spin polarized calculation
 Variant of blocked Davidson
 Davidson routine will perform the subspace rotation
 perform sub-space diagonalisation
    after iterative eigenvector-optimisation
 modified Broyden-mixing scheme, WC =      100.0
 initial mixing is a Kerker type mixing with AMIX =  0.4000 and BMIX =      1.0000
 Hartree-type preconditioning will be used
 using additional bands            7
 reciprocal scheme for non local part
 use partial core corrections
 calculate Harris-corrections to forces 
   (improved forces if not selfconsistent)
 use gradient corrections 
 use of overlap-Matrix (Vanderbilt PP)
 Gauss-broadening in eV      SIGMA  =   0.05


--------------------------------------------------------------------------------------------------------


  energy-cutoff  :      400.00
  volume of cell :       22.06
      direct lattice vectors                 reciprocal lattice vectors
     2.506235550  0.000000000  0.000000000     0.399004794  0.230365525  0.000000000
    -1.253117775  2.170463655  0.000000000     0.000000000  0.460731051  0.000000000
     0.000000000  0.000000000  4.054987118     0.000000000  0.000000000  0.246609908

  length of vectors
     2.506235550  2.506235550  4.054987118     0.460731051  0.460731051  0.246609908


 
 k-points in units of 2pi/SCALE and weight: Automatic mesh                          
   0.00000000  0.00000000  0.00000000       0.001
   0.03990048  0.02303655  0.00000000       0.007
   0.07980096  0.04607311  0.00000000       0.007
   0.11970144  0.06910966  0.00000000       0.007
   0.15960192  0.09214621  0.00000000       0.007
   0.19950240  0.11518276  0.00000000       0.004
   0.03990048  0.06910966  0.00000000       0.007
   0.07980096  0.09214621  0.00000000       0.015
   0.11970144  0.11518276  0.00000000       0.015
   0.15960192  0.13821932  0.00000000       0.015
   0.07980096  0.13821932  0.00000000       0.007
   0.11970144  0.16125587  0.00000000       0.015
   0.15960192  0.18429242  0.00000000       0.007
   0.11970144  0.20732897  0.00000000       0.007
   0.00000000  0.00000000  0.03082624       0.003
   0.03990048  0.02303655  0.03082624       0.015
   0.07980096  0.04607311  0.03082624       0.015
   0.11970144  0.06910966  0.03082624       0.015
   0.15960192  0.09214621  0.03082624       0.015
   0.19950240  0.11518276  0.03082624       0.007
   0.03990048  0.06910966  0.03082624       0.015
   0.07980096  0.09214621  0.03082624       0.030
   0.11970144  0.11518276  0.03082624       0.030
   0.15960192  0.13821932  0.03082624       0.030
   0.07980096  0.13821932  0.03082624       0.015
   0.11970144  0.16125587  0.03082624       0.030
   0.15960192  0.18429242  0.03082624       0.015
   0.11970144  0.20732897  0.03082624       0.015
   0.00000000  0.00000000  0.06165248       0.003
   0.03990048  0.02303655  0.06165248       0.015
   0.07980096  0.04607311  0.06165248       0.015
   0.11970144  0.06910966  0.06165248       0.015
   0.15960192  0.09214621  0.06165248       0.015
   0.19950240  0.11518276  0.06165248       0.007
   0.03990048  0.06910966  0.06165248       0.015
   0.07980096  0.09214621  0.06165248       0.030
   0.11970144  0.11518276  0.06165248       0.030
   0.15960192  0.13821932  0.06165248       0.030
   0.07980096  0.13821932  0.06165248       0.015
   0.11970144  0.16125587  0.06165248       0.030
   0.15960192  0.18429242  0.06165248       0.015
   0.11970144  0.20732897  0.06165248       0.015
   0.00000000  0.00000000  0.09247872       0.003
   0.03990048  0.02303655  0.09247872       0.015
   0.07980096  0.04607311  0.09247872       0.015
   0.11970144  0.06910966  0.09247872       0.015
   0.15960192  0.09214621  0.09247872       0.015
   0.19950240  0.11518276  0.09247872       0.007
   0.03990048  0.06910966  0.09247872       0.015
   0.07980096  0.09214621  0.09247872       0.030
   0.11970144  0.11518276  0.09247872       0.030
   0.15960192  0.13821932  0.09247872       0.030
   0.07980096  0.13821932  0.09247872       0.015
   0.11970144  0.16125587  0.09247872       0.030
   0.15960192  0.18429242  0.09247872       0.015
   0.11970144  0.20732897  0.09247872       0.015
   0.00000000  0.00000000  0.12330495       0.001
   0.03990048  0.02303655  0.12330495       0.007
   0.07980096  0.04607311  0.12330495       0.007
   0.11970144  0.06910966  0.12330495       0.007
   0.15960192  0.09214621  0.12330495       0.007
   0.19950240  0.11518276  0.12330495       0.004
   0.03990048  0.06910966  0.12330495       0.007
   0.07980096  0.09214621  0.12330495       0.015
   0.11970144  0.11518276  0.12330495       0.015
   0.15960192  0.13821932  0.12330495       0.015
   0.07980096  0.13821932  0.12330495       0.007
   0.11970144  0.16125587  0.12330495       0.015
   0.15960192  0.18429242  0.12330495       0.007
   0.11970144  0.20732897  0.12330495       0.007
 
 k-points in reciprocal lattice and weights: Automatic mesh                          
   0.00000000  0.00000000  0.00000000       0.001
   0.10000000  0.00000000  0.00000000       0.007
   0.20000000  0.00000000  0.00000000       0.007
   0.30000000  0.00000000  0.00000000       0.007
   0.40000000  0.00000000  0.00000000       0.007
   0.50000000  0.00000000  0.00000000       0.004
   0.10000000  0.10000000  0.00000000       0.007
   0.20000000  0.10000000  0.00000000       0.015
   0.30000000  0.10000000  0.00000000       0.015
   0.40000000  0.10000000  0.00000000       0.015
   0.20000000  0.20000000  0.00000000       0.007
   0.30000000  0.20000000  0.00000000       0.015
   0.40000000  0.20000000  0.00000000       0.007
   0.30000000  0.30000000  0.00000000       0.007
   0.00000000  0.00000000  0.12500000       0.003
   0.10000000  0.00000000  0.12500000       0.015
   0.20000000  0.00000000  0.12500000       0.015
   0.30000000  0.00000000  0.12500000       0.015
   0.40000000  0.00000000  0.12500000       0.015
   0.50000000  0.00000000  0.12500000       0.007
   0.10000000  0.10000000  0.12500000       0.015
   0.20000000  0.10000000  0.12500000       0.030
   0.30000000  0.10000000  0.12500000       0.030
   0.40000000  0.10000000  0.12500000       0.030
   0.20000000  0.20000000  0.12500000       0.015
   0.30000000  0.20000000  0.12500000       0.030
   0.40000000  0.20000000  0.12500000       0.015
   0.30000000  0.30000000  0.12500000       0.015
   0.00000000  0.00000000  0.25000000       0.003
   0.10000000  0.00000000  0.25000000       0.015
   0.20000000  0.00000000  0.25000000       0.015
   0.30000000  0.00000000  0.25000000       0.015
   0.40000000  0.00000000  0.25000000       0.015
   0.50000000  0.00000000  0.25000000       0.007
   0.10000000  0.10000000  0.25000000       0.015
   0.20000000  0.10000000  0.25000000       0.030
   0.30000000  0.10000000  0.25000000       0.030
   0.40000000  0.10000000  0.25000000       0.030
   0.20000000  0.20000000  0.25000000       0.015
   0.30000000  0.20000000  0.25000000       0.030
   0.40000000  0.20000000  0.25000000       0.015
   0.30000000  0.30000000  0.25000000       0.015
   0.00000000  0.00000000  0.37500000       0.003
   0.10000000  0.00000000  0.37500000       0.015
   0.20000000  0.00000000  0.37500000       0.015
   0.30000000  0.00000000  0.37500000       0.015
   0.40000000  0.00000000  0.37500000       0.015
   0.50000000  0.00000000  0.37500000       0.007
   0.10000000  0.10000000  0.37500000       0.015
   0.20000000  0.10000000  0.37500000       0.030
   0.30000000  0.10000000  0.37500000       0.030
   0.40000000  0.10000000  0.37500000       0.030
   0.20000000  0.20000000  0.37500000       0.015
   0.30000000  0.20000000  0.37500000       0.030
   0.40000000  0.20000000  0.37500000       0.015
   0.30000000  0.30000000  0.37500000       0.015
   0.00000000  0.00000000  0.50000000       0.001
   0.10000000  0.00000000  0.50000000       0.007
   0.20000000  0.00000000  0.50000000       0.007
   0.30000000  0.00000000  0.50000000       0.007
   0.40000000  0.00000000  0.50000000       0.007
   0.50000000  0.00000000  0.50000000       0.004
   0.10000000  0.10000000  0.50000000       0.007
   0.20000000  0.10000000  0.50000000       0.015
   0.30000000  0.10000000  0.50000000       0.015
   0.40000000  0.10000000  0.50000000       0.015
   0.20000000  0.20000000  0.50000000       0.007
   0.30000000  0.20000000  0.50000000       0.015
   0.40000000  0.20000000  0.50000000       0.007
   0.30000000  0.30000000  0.50000000       0.007
 
 position of ions in fractional coordinates (direct lattice) 
   0.00000000  0.00000000  0.00000000
   0.33333333  0.66666667  0.50000000
 
 position of ions in cartesian coordinates  (Angst):
   0.00000000  0.00000000  0.00000000
   0.00000000  1.44697577  2.02749356
 


--------------------------------------------------------------------------------------------------------


 k-point   1 :   0.0000 0.0000 0.0000  plane waves:     391
 k-point   2 :   0.1000 0.0000 0.0000  plane waves:     389
 k-point   3 :   0.2000 0.0000 0.0000  plane waves:     397
 k-point   4 :   0.3000 0.0000 0.0000  plane waves:     399
 k-point   5 :   0.4000 0.0000 0.0000  plane waves:     407
 k-point   6 :   0.5000 0.0000 0.0000  plane waves:     412
 k-point   7 :   0.1000 0.1000 0.0000  plane waves:     396
 k-point   8 :   0.2000 0.1000 0.0000  plane waves:     399
 k-point   9 :   0.3000 0.1000 0.0000  plane waves:     403
 k-point  10 :   0.4000 0.1000 0.0000  plane waves:     405
 k-point  11 :   0.2000 0.2000 0.0000  plane waves:     410
 k-point  12 :   0.3000 0.2000 0.0000  plane waves:     403
 k-point  13 :   0.4000 0.2000 0.0000  plane waves:     406
 k-point  14 :   0.3000 0.3000 0.0000  plane waves:     398
 k-point  15 :   0.0000 0.0000 0.1250  plane waves:     391
 k-point  16 :   0.1000 0.0000 0.1250  plane waves:     391
 k-point  17 :   0.2000 0.0000 0.1250  plane waves:     398
 k-point  18 :   0.3000 0.0000 0.1250  plane waves:     402
 k-point  19 :   0.4000 0.0000 0.1250  plane waves:     405
 k-point  20 :   0.5000 0.0000 0.1250  plane waves:     408
 k-point  21 :   0.1000 0.1000 0.1250  plane waves:     397
 k-point  22 :   0.2000 0.1000 0.1250  plane waves:     399
 k-point  23 :   0.3000 0.1000 0.1250  plane waves:     402
 k-point  24 :   0.4000 0.1000 0.1250  plane waves:     404
 k-point  25 :   0.2000 0.2000 0.1250  plane waves:     403
 k-point  26 :   0.3000 0.2000 0.1250  plane waves:     406
 k-point  27 :   0.4000 0.2000 0.1250  plane waves:     403
 k-point  28 :   0.3000 0.3000 0.1250  plane waves:     405
 k-point  29 :   0.0000 0.0000 0.2500  plane waves:     397
 k-point  30 :   0.1000 0.0000 0.2500  plane waves:     391
 k-point  31 :   0.2000 0.0000 0.2500  plane waves:     403
 k-point  32 :   0.3000 0.0000 0.2500  plane waves:     402
 k-point  33 :   0.4000 0.0000 0.2500  plane waves:     403
 k-point  34 :   0.5000 0.0000 0.2500  plane waves:     400
 k-point  35 :   0.1000 0.1000 0.2500  plane waves:     395
 k-point  36 :   0.2000 0.1000 0.2500  plane waves:     401
 k-point  37 :   0.3000 0.1000 0.2500  plane waves:     403
 k-point  38 :   0.4000 0.1000 0.2500  plane waves:     403
 k-point  39 :   0.2000 0.2000 0.2500  plane waves:     404
 k-point  40 :   0.3000 0.2000 0.2500  plane waves:     406
 k-point  41 :   0.4000 0.2000 0.2500  plane waves:     402
 k-point  42 :   0.3000 0.3000 0.2500  plane waves:     402
 k-point  43 :   0.0000 0.0000 0.3750  plane waves:     385
 k-point  44 :   0.1000 0.0000 0.3750  plane waves:     383
 k-point  45 :   0.2000 0.0000 0.3750  plane waves:     396
 k-point  46 :   0.3000 0.0000 0.3750  plane waves:     401
 k-point  47 :   0.4000 0.0000 0.3750  plane waves:     407
 k-point  48 :   0.5000 0.0000 0.3750  plane waves:     406
 k-point  49 :   0.1000 0.1000 0.3750  plane waves:     393
 k-point  50 :   0.2000 0.1000 0.3750  plane waves:     401
 k-point  51 :   0.3000 0.1000 0.3750  plane waves:     403
 k-point  52 :   0.4000 0.1000 0.3750  plane waves:     400
 k-point  53 :   0.2000 0.2000 0.3750  plane waves:     395
 k-point  54 :   0.3000 0.2000 0.3750  plane waves:     400
 k-point  55 :   0.4000 0.2000 0.3750  plane waves:     405
 k-point  56 :   0.3000 0.3000 0.3750  plane waves:     403
 k-point  57 :   0.0000 0.0000 0.5000  plane waves:     374
 k-point  58 :   0.1000 0.0000 0.5000  plane waves:     386
 k-point  59 :   0.2000 0.0000 0.5000  plane waves:     394
 k-point  60 :   0.3000 0.0000 0.5000  plane waves:     396
 k-point  61 :   0.4000 0.0000 0.5000  plane waves:     402
 k-point  62 :   0.5000 0.0000 0.5000  plane waves:     396
 k-point  63 :   0.1000 0.1000 0.5000  plane waves:     390
 k-point  64 :   0.2000 0.1000 0.5000  plane waves:     398
 k-point  65 :   0.3000 0.1000 0.5000  plane waves:     402
 k-point  66 :   0.4000 0.1000 0.5000  plane waves:     402
 k-point  67 :   0.2000 0.2000 0.5000  plane waves:     398
 k-point  68 :   0.3000 0.2000 0.5000  plane waves:     402
 k-point  69 :   0.4000 0.2000 0.5000  plane waves:     402
 k-point  70 :   0.3000 0.3000 0.5000  plane waves:     404

 maximum and minimum number of plane-waves per node :        72       59

 maximum number of plane-waves:       412
 maximum index in each direction: 
   IXMAX=    4   IYMAX=    4   IZMAX=    6
   IXMIN=   -4   IYMIN=   -4   IZMIN=   -7


 parallel 3D FFT for wavefunctions:
    minimum data exchange during FFTs selected (reduces bandwidth)
 parallel 3D FFT for charge:
    minimum data exchange during FFTs selected (reduces bandwidth)


 total amount of memory used by VASP MPI-rank0    32110. kBytes
=======================================================================

   base      :      30000. kBytes
   nonl-proj :        728. kBytes
   fftplans  :        153. kBytes
   grid      :        374. kBytes
   one-center:         31. kBytes
   wavefun   :        824. kBytes
 
     INWAV:  cpu time      0.0000: real time      0.0001
 Broyden mixing: mesh for mixing (old mesh)
   NGX =  9   NGY =  9   NGZ = 13
  (NGX  = 32   NGY  = 32   NGZ  = 56)
  gives a total of   1053 points

 initial charge density was supplied:
 charge density of overlapping atoms calculated
 number of electron      18.0000000 magnetization       6.0000000
 keeping initial charge density in first step


--------------------------------------------------------------------------------------------------------


 Maximum index for augmentation-charges         1054 (set IRDMAX)


--------------------------------------------------------------------------------------------------------


 First call to EWALD:  gamma=   0.632
 Maximum number of real-space cells 3x 3x 2
 Maximum number of reciprocal cells 3x 3x 4

    FEWALD:  cpu time      0.0015: real time      0.0015


--------------------------------------- Iteration      1(   1)  ---------------------------------------


    POTLOK:  cpu time      0.0062: real time      0.0064
    SETDIJ:  cpu time      0.0054: real time      0.0054
     EDDAV:  cpu time      0.4246: real time      0.4271
       DOS:  cpu time      0.0021: real time      0.0021
    --------------------------------------------
      LOOP:  cpu time      0.4384: real time      0.4410

 eigenvalue-minimisations  :  4736
 total energy-change (2. order) : 0.6778047E+02  (-0.6790876E+03)
 number of electron      18.0000000 magnetization       6.0000000
 augmentation part       18.0000000 magnetization       6.0000000

 Free energy of the ion-electron system (eV)
  ---------------------------------------------------
  alpha Z        PSCENC =        76.81187835
  Ewald energy   TEWEN  =     -1513.37036830
  -Hartree energ DENC   =      -303.51064936
  -exchange      EXHF   =         0.00000000
  -V(xc)+E(xc)   XCENC  =        35.52364371
  PAW double counting   =      1439.98163886    -1545.88690193
  entropy T*S    EENTRO =        -0.00251598
  eigenvalues    EBANDS =       251.51827756
  atomic energy  EATOM  =      1626.71546820
  Solvation  Ediel_sol  =         0.00000000
  ---------------------------------------------------
  free energy    TOTEN  =        67.78047111 eV

  energy without entropy =       67.78298709  energy(sigma->0) =       67.78172910


--------------------------------------------------------------------------------------------------------




--------------------------------------- Iteration      1(   2)  ---------------------------------------


     EDDAV:  cpu time      0.3908: real time      0.3941
       DOS:  cpu time      0.0014: real time      0.0014
    --------------------------------------------
      LOOP:  cpu time      0.3921: real time      0.3955

 eigenvalue-minimisations  :  4488
 total energy-change (2. order) :-0.8153075E+02  (-0.7521052E+02)
 number of electron      18.0000000 magnetization       6.0000000
 augmentation part       18.0000000 magnetization       6.0000000

 Free energy of the ion-electron system (eV)
  ---------------------------------------------------
  alpha Z        PSCENC =        76.81187835
  Ewald energy   TEWEN  =     -1513.37036830
  -Hartree energ DENC   =      -303.51064936
  -exchange      EXHF   =         0.00000000
  -V(xc)+E(xc)   XCENC  =        35.52364371
  PAW double counting   =      1439.98163886    -1545.88690193
  entropy T*S    EENTRO =        -0.00226807
  eigenvalues    EBANDS =       169.98727952
  atomic energy  EATOM  =      1626.71546820
  Solvation  Ediel_sol  =         0.00000000
  ---------------------------------------------------
  free energy    TOTEN  =       -13.75027902 eV

  energy without entropy =      -13.74801094  energy(sigma->0) =      -13.74914498


--------------------------------------------------------------------------------------------------------




--------------------------------------- Iteration      1(   3)  ---------------------------------------


     EDDAV:  cpu time      0.4888: real time      0.4927
       DOS:  cpu time      0.0014: real time      0.0014
    --------------------------------------------
      LOOP:  cpu time      0.4902: real time      0.4941

 eigenvalue-minimisations  :  5616
 total energy-change (2. order) :-0.1886808E+01  (-0.1863013E+01)
 number of electron      18.0000000 magnetization       6.0000000
 augmentation part       18.0000000 magnetization       6.0000000

 Free energy of the ion-electron system (eV)
  ---------------------------------------------------
  alpha Z        PSCENC =        76.81187835
  Ewald energy   TEWEN  =     -1513.37036830
  -Hartree energ DENC   =      -303.51064936
  -exchange      EXHF   =         0.00000000
  -V(xc)+E(xc)   XCENC  =        35.52364371
  PAW double counting   =      1439.98163886    -1545.88690193
  entropy T*S    EENTRO =        -0.00252384
  eigenvalues    EBANDS =       168.10072776
  atomic energy  EATOM  =      1626.71546820
  Solvation  Ediel_sol  =         0.00000000
  ---------------------------------------------------
  free energy    TOTEN  =       -15.63708654 eV

  energy without entropy =      -15.63456270  energy(sigma->0) =      -15.63582462


--------------------------------------------------------------------------------------------------------




--------------------------------------- Iteration      1(   4)  ---------------------------------------


     EDDAV:  cpu time      0.5433: real time      0.5461
       DOS:  cpu time      0.0014: real time      0.0014
    --------------------------------------------
      LOOP:  cpu time      0.5447: real time      0.5475

 eigenvalue-minimisations  :  6456
 total energy-change (2. order) :-0.3525060E-01  (-0.3524240E-01)
 number of electron      18.0000000 magnetization       6.0000000
 augmentation part       18.0000000 magnetization       6.0000000

 Free energy of the ion-electron system (eV)
  ---------------------------------------------------
  alpha Z        PSCENC =        76.81187835
  Ewald energy   TEWEN  =     -1513.37036830
  -Hartree energ DENC   =      -303.51064936
  -exchange      EXHF   =         0.00000000
  -V(xc)+E(xc)   XCENC  =        35.52364371
  PAW double counting   =      1439.98163886    -1545.88690193
  entropy T*S    EENTRO =        -0.00252505
  eigenvalues    EBANDS =       168.06547836
  atomic energy  EATOM  =      1626.71546820
  Solvation  Ediel_sol  =         0.00000000
  ---------------------------------------------------
  free energy    TOTEN  =       -15.67233715 eV

  energy without entropy =      -15.66981210  energy(sigma->0) =      -15.67107462


--------------------------------------------------------------------------------------------------------




--------------------------------------- Iteration      1(   5)  ---------------------------------------


     EDDAV:  cpu time      0.4810: real time      0.4835
       DOS:  cpu time      0.0014: real time      0.0014
    CHARGE:  cpu time      0.0195: real time      0.0196
    MIXING:  cpu time      0.0003: real time      0.0003
    --------------------------------------------
      LOOP:  cpu time      0.5022: real time      0.5048

 eigenvalue-minimisations  :  5712
 total energy-change (2. order) :-0.1361224E-03  (-0.1361222E-03)
 number of electron      18.0000010 magnetization       3.4999621
 augmentation part        9.1518831 magnetization       2.7274616

 Broyden mixing:
  rms(total) = 0.15846E+01    rms(broyden)= 0.15846E+01
  rms(prec ) = 0.26875E+01
  weight for this iteration     100.00

 Free energy of the ion-electron system (eV)
  ---------------------------------------------------
  alpha Z        PSCENC =        76.81187835
  Ewald energy   TEWEN  =     -1513.37036830
  -Hartree energ DENC   =      -303.51064936
  -exchange      EXHF   =         0.00000000
  -V(xc)+E(xc)   XCENC  =        35.52364371
  PAW double counting   =      1439.98163886    -1545.88690193
  entropy T*S    EENTRO =        -0.00252502
  eigenvalues    EBANDS =       168.06534222
  atomic energy  EATOM  =      1626.71546820
  Solvation  Ediel_sol  =         0.00000000
  ---------------------------------------------------
  free energy    TOTEN  =       -15.67247327 eV

  energy without entropy =      -15.66994825  energy(sigma->0) =      -15.67121076


--------------------------------------------------------------------------------------------------------




--------------------------------------- Iteration      1(   6)  ---------------------------------------


    POTLOK:  cpu time      0.0046: real time      0.0047
    SETDIJ:  cpu time      0.0052: real time      0.0052
     EDDAV:  cpu time      0.4079: real time      0.4099
       DOS:  cpu time      0.0013: real time      0.0013
    CHARGE:  cpu time      0.0187: real time      0.0188
    MIXING:  cpu time      0.0003: real time      0.0003
    --------------------------------------------
      LOOP:  cpu time      0.4379: real time      0.4402

 eigenvalue-minimisations  :  4744
 total energy-change (2. order) : 0.1195041E+01  (-0.1138831E+01)
 number of electron      18.0000012 magnetization       3.3254738
 augmentation part       10.7224767 magnetization       2.9177230

 Broyden mixing:
  rms(total) = 0.67481E+00    rms(broyden)= 0.67478E+00
  rms(prec ) = 0.92406E+00
  weight for this iteration     100.00

 eigenvalues of (default mixing * dielectric matrix)
  average eigenvalue GAMMA=   0.8579
  0.8579

 Free energy of the ion-electron system (eV)
  ---------------------------------------------------
  alpha Z        PSCENC =        76.81187835
  Ewald energy   TEWEN  =     -1513.37036830
  -Hartree energ DENC   =      -265.84429933
  -exchange      EXHF   =         0.00000000
  -V(xc)+E(xc)   XCENC  =        32.50340236
  PAW double counting   =      1576.01252735    -1671.49749002
  entropy T*S    EENTRO =        -0.00243070
  eigenvalues    EBANDS =       124.19387936
  atomic energy  EATOM  =      1626.71546820
  Solvation  Ediel_sol  =         0.00000000
  ---------------------------------------------------
  free energy    TOTEN  =       -14.47743272 eV

  energy without entropy =      -14.47500202  energy(sigma->0) =      -14.47621737


--------------------------------------------------------------------------------------------------------




--------------------------------------- Iteration      1(   7)  ---------------------------------------


    POTLOK:  cpu time      0.0043: real time      0.0045
    SETDIJ:  cpu time      0.0050: real time      0.0050
     EDDAV:  cpu time      0.4250: real time      0.4272
       DOS:  cpu time      0.0014: real time      0.0014
    CHARGE:  cpu time      0.0183: real time      0.0183
    MIXING:  cpu time      0.0003: real time      0.0003
    --------------------------------------------
      LOOP:  cpu time      0.4543: real time      0.4567

 eigenvalue-minimisations  :  5024
 total energy-change (2. order) : 0.3712308E+00  (-0.1609965E+00)
 number of electron      18.0000011 magnetization       3.3242010
 augmentation part       10.1786125 magnetization       2.9529238

 Broyden mixing:
  rms(total) = 0.37895E+00    rms(broyden)= 0.37895E+00
  rms(prec ) = 0.44990E+00
  weight for this iteration     100.00

 eigenvalues of (default mixing * dielectric matrix)
  average eigenvalue GAMMA=   0.7398
  0.9934  0.4861

 Free energy of the ion-electron system (eV)
  ---------------------------------------------------
  alpha Z        PSCENC =        76.81187835
  Ewald energy   TEWEN  =     -1513.37036830
  -Hartree energ DENC   =      -274.30841609
  -exchange      EXHF   =         0.00000000
  -V(xc)+E(xc)   XCENC  =        33.02568296
  PAW double counting   =      1652.66780654    -1755.16456078
  entropy T*S    EENTRO =        -0.00271493
  eigenvalues    EBANDS =       139.51902209
  atomic energy  EATOM  =      1626.71546820
  Solvation  Ediel_sol  =         0.00000000
  ---------------------------------------------------
  free energy    TOTEN  =       -14.10620196 eV

  energy without entropy =      -14.10348703  energy(sigma->0) =      -14.10484450


--------------------------------------------------------------------------------------------------------




--------------------------------------- Iteration      1(   8)  ---------------------------------------


    POTLOK:  cpu time      0.0042: real time      0.0044
    SETDIJ:  cpu time      0.0048: real time      0.0048
     EDDAV:  cpu time      0.5192: real time      0.5217
       DOS:  cpu time      0.0014: real time      0.0014
    CHARGE:  cpu time      0.0191: real time      0.0192
    MIXING:  cpu time      0.0003: real time      0.0003
    --------------------------------------------
      LOOP:  cpu time      0.5489: real time      0.5517

 eigenvalue-minimisations  :  6232
 total energy-change (2. order) : 0.1980943E-01  (-0.1971087E-02)
 number of electron      18.0000011 magnetization       3.3495236
 augmentation part       10.2136093 magnetization       3.0021255

 Broyden mixing:
  rms(total) = 0.16673E+00    rms(broyden)= 0.16673E+00
  rms(prec ) = 0.21907E+00
  weight for this iteration     100.00

 eigenvalues of (default mixing * dielectric matrix)
  average eigenvalue GAMMA=   1.0201
  1.7189  0.7711  0.5702

 Free energy of the ion-electron system (eV)
  ---------------------------------------------------
  alpha Z        PSCENC =        76.81187835
  Ewald energy   TEWEN  =     -1513.37036830
  -Hartree energ DENC   =      -271.79244471
  -exchange      EXHF   =         0.00000000
  -V(xc)+E(xc)   XCENC  =        32.96669781
  PAW double counting   =      1704.44114808    -1808.13108233
  entropy T*S    EENTRO =        -0.00283364
  eigenvalues    EBANDS =       138.27514401
  atomic energy  EATOM  =      1626.71546820
  Solvation  Ediel_sol  =         0.00000000
  ---------------------------------------------------
  free energy    TOTEN  =       -14.08639253 eV

  energy without entropy =      -14.08355889  energy(sigma->0) =      -14.08497571


--------------------------------------------------------------------------------------------------------




--------------------------------------- Iteration      1(   9)  ---------------------------------------


    POTLOK:  cpu time      0.0045: real time      0.0046
    SETDIJ:  cpu time      0.0050: real time      0.0050
     EDDAV:  cpu time      0.5506: real time      0.5533
       DOS:  cpu time      0.0014: real time      0.0014
    CHARGE:  cpu time      0.0184: real time      0.0185
    MIXING:  cpu time      0.0002: real time      0.0002
    --------------------------------------------
      LOOP:  cpu time      0.5801: real time      0.5831

 eigenvalue-minimisations  :  6760
 total energy-change (2. order) : 0.1429969E-01  (-0.5800251E-03)
 number of electron      18.0000011 magnetization       3.3660620
 augmentation part       10.2513385 magnetization       3.0294192

 Broyden mixing:
  rms(total) = 0.48798E-01    rms(broyden)= 0.48797E-01
  rms(prec ) = 0.58546E-01
  weight for this iteration     100.00

 eigenvalues of (default mixing * dielectric matrix)
  average eigenvalue GAMMA=   1.1073
  2.2153  0.8381  0.7595  0.6162

 Free energy of the ion-electron system (eV)
  ---------------------------------------------------
  alpha Z        PSCENC =        76.81187835
  Ewald energy   TEWEN  =     -1513.37036830
  -Hartree energ DENC   =      -269.03357572
  -exchange      EXHF   =         0.00000000
  -V(xc)+E(xc)   XCENC  =        32.88450099
  PAW double counting   =      1762.45131796    -1867.60022236
  entropy T*S    EENTRO =        -0.00291252
  eigenvalues    EBANDS =       137.07182057
  atomic energy  EATOM  =      1626.71546820
  Solvation  Ediel_sol  =         0.00000000
  ---------------------------------------------------
  free energy    TOTEN  =       -14.07209284 eV

  energy without entropy =      -14.06918032  energy(sigma->0) =      -14.07063658


--------------------------------------------------------------------------------------------------------




--------------------------------------- Iteration      1(  10)  ---------------------------------------


    POTLOK:  cpu time      0.0043: real time      0.0044
    SETDIJ:  cpu time      0.0048: real time      0.0048
     EDDAV:  cpu time      0.4951: real time      0.4975
       DOS:  cpu time      0.0013: real time      0.0013
    CHARGE:  cpu time      0.0182: real time      0.0183
    MIXING:  cpu time      0.0004: real time      0.0004
    --------------------------------------------
      LOOP:  cpu time      0.5241: real time      0.5268

 eigenvalue-minimisations  :  6032
 total energy-change (2. order) : 0.9036033E-03  (-0.7232222E-04)
 number of electron      18.0000011 magnetization       3.3571132
 augmentation part       10.2559780 magnetization       3.0118640

 Broyden mixing:
  rms(total) = 0.77708E-02    rms(broyden)= 0.77705E-02
  rms(prec ) = 0.99727E-02
  weight for this iteration     100.00

 eigenvalues of (default mixing * dielectric matrix)
  average eigenvalue GAMMA=   1.1557
  2.2967  1.0846  1.0846  0.6562  0.6562

 Free energy of the ion-electron system (eV)
  ---------------------------------------------------
  alpha Z        PSCENC =        76.81187835
  Ewald energy   TEWEN  =     -1513.37036830
  -Hartree energ DENC   =      -268.17210845
  -exchange      EXHF   =         0.00000000
  -V(xc)+E(xc)   XCENC  =        32.83185666
  PAW double counting   =      1785.09474975    -1890.92930347
  entropy T*S    EENTRO =        -0.00295460
  eigenvalues    EBANDS =       136.94959263
  atomic energy  EATOM  =      1626.71546820
  Solvation  Ediel_sol  =         0.00000000
  ---------------------------------------------------
  free energy    TOTEN  =       -14.07118924 eV

  energy without entropy =      -14.06823464  energy(sigma->0) =      -14.06971194


--------------------------------------------------------------------------------------------------------




--------------------------------------- Iteration      1(  11)  ---------------------------------------


    POTLOK:  cpu time      0.0043: real time      0.0044
    SETDIJ:  cpu time      0.0048: real time      0.0048
     EDDAV:  cpu time      0.5426: real time      0.5453
       DOS:  cpu time      0.0014: real time      0.0014
    CHARGE:  cpu time      0.0186: real time      0.0187
    MIXING:  cpu time      0.0003: real time      0.0003
    --------------------------------------------
      LOOP:  cpu time      0.5720: real time      0.5750

 eigenvalue-minimisations  :  6656
 total energy-change (2. order) :-0.9883980E-05  (-0.7866658E-05)
 number of electron      18.0000011 magnetization       3.3557142
 augmentation part       10.2568513 magnetization       3.0084034

 Broyden mixing:
  rms(total) = 0.25965E-02    rms(broyden)= 0.25963E-02
  rms(prec ) = 0.40391E-02
  weight for this iteration     100.00

 eigenvalues of (default mixing * dielectric matrix)
  average eigenvalue GAMMA=   1.0880
  2.3005  1.1058  1.1058  0.6161  0.7000  0.7000

 Free energy of the ion-electron system (eV)
  ---------------------------------------------------
  alpha Z        PSCENC =        76.81187835
  Ewald energy   TEWEN  =     -1513.37036830
  -Hartree energ DENC   =      -268.08779312
  -exchange      EXHF   =         0.00000000
  -V(xc)+E(xc)   XCENC  =        32.81537161
  PAW double counting   =      1787.28558756    -1893.18679357
  entropy T*S    EENTRO =        -0.00294616
  eigenvalues    EBANDS =       136.94839631
  atomic energy  EATOM  =      1626.71546820
  Solvation  Ediel_sol  =         0.00000000
  ---------------------------------------------------
  free energy    TOTEN  =       -14.07119912 eV

  energy without entropy =      -14.06825296  energy(sigma->0) =      -14.06972604


--------------------------------------------------------------------------------------------------------




--------------------------------------- Iteration      1(  12)  ---------------------------------------


    POTLOK:  cpu time      0.0044: real time      0.0045
    SETDIJ:  cpu time      0.0049: real time      0.0050
     EDDAV:  cpu time      0.4166: real time      0.4187
       DOS:  cpu time      0.0014: real time      0.0014
    CHARGE:  cpu time      0.0184: real time      0.0184
    MIXING:  cpu time      0.0003: real time      0.0003
    --------------------------------------------
      LOOP:  cpu time      0.4461: real time      0.4484

 eigenvalue-minimisations  :  4864
 total energy-change (2. order) : 0.3955574E-05  (-0.6799033E-06)
 number of electron      18.0000011 magnetization       3.3553251
 augmentation part       10.2571197 magnetization       3.0079211

 Broyden mixing:
  rms(total) = 0.15409E-02    rms(broyden)= 0.15408E-02
  rms(prec ) = 0.25085E-02
  weight for this iteration     100.00

 eigenvalues of (default mixing * dielectric matrix)
  average eigenvalue GAMMA=   1.1663
  2.3188  1.6876  1.0828  1.0828  0.6379  0.6379  0.7159

 Free energy of the ion-electron system (eV)
  ---------------------------------------------------
  alpha Z        PSCENC =        76.81187835
  Ewald energy   TEWEN  =     -1513.37036830
  -Hartree energ DENC   =      -268.05645162
  -exchange      EXHF   =         0.00000000
  -V(xc)+E(xc)   XCENC  =        32.81320921
  PAW double counting   =      1788.12745252    -1894.05029988
  entropy T*S    EENTRO =        -0.00294761
  eigenvalues    EBANDS =       136.94086397
  atomic energy  EATOM  =      1626.71546820
  Solvation  Ediel_sol  =         0.00000000
  ---------------------------------------------------
  free energy    TOTEN  =       -14.07119517 eV

  energy without entropy =      -14.06824756  energy(sigma->0) =      -14.06972136


--------------------------------------------------------------------------------------------------------




--------------------------------------- Iteration      1(  13)  ---------------------------------------


    POTLOK:  cpu time      0.0042: real time      0.0044
    SETDIJ:  cpu time      0.0048: real time      0.0048
     EDDAV:  cpu time      0.3255: real time      0.3272
       DOS:  cpu time      0.0014: real time      0.0014
    CHARGE:  cpu time      0.0182: real time      0.0183
    MIXING:  cpu time      0.0003: real time      0.0003
    --------------------------------------------
      LOOP:  cpu time      0.3545: real time      0.3564

 eigenvalue-minimisations  :  3208
 total energy-change (2. order) : 0.1311404E-05  (-0.1168752E-06)
 number of electron      18.0000011 magnetization       3.3553699
 augmentation part       10.2576505 magnetization       3.0079376

 Broyden mixing:
  rms(total) = 0.60786E-03    rms(broyden)= 0.60770E-03
  rms(prec ) = 0.61781E-03
  weight for this iteration     100.00

 eigenvalues of (default mixing * dielectric matrix)
  average eigenvalue GAMMA=   1.2285
  2.5113  2.4218  1.0910  1.0910  0.7581  0.6642  0.6642  0.6264

 Free energy of the ion-electron system (eV)
  ---------------------------------------------------
  alpha Z        PSCENC =        76.81187835
  Ewald energy   TEWEN  =     -1513.37036830
  -Hartree energ DENC   =      -268.00661204
  -exchange      EXHF   =         0.00000000
  -V(xc)+E(xc)   XCENC  =        32.81065217
  PAW double counting   =      1789.49970577    -1895.45429347
  entropy T*S    EENTRO =        -0.00294854
  eigenvalues    EBANDS =       136.92532400
  atomic energy  EATOM  =      1626.71546820
  Solvation  Ediel_sol  =         0.00000000
  ---------------------------------------------------
  free energy    TOTEN  =       -14.07119385 eV

  energy without entropy =      -14.06824531  energy(sigma->0) =      -14.06971958


--------------------------------------------------------------------------------------------------------




--------------------------------------- Iteration      1(  14)  ---------------------------------------


    POTLOK:  cpu time      0.0042: real time      0.0044
    SETDIJ:  cpu time      0.0047: real time      0.0047
     EDDAV:  cpu time      0.3161: real time      0.3177
       DOS:  cpu time      0.0014: real time      0.0014
    --------------------------------------------
      LOOP:  cpu time      0.3264: real time      0.3282

 eigenvalue-minimisations  :  3120
 total energy-change (2. order) :-0.1308042E-06  (-0.6003169E-07)
 number of electron      18.0000011 magnetization       3.3553699
 augmentation part       10.2576505 magnetization       3.0079376

 Free energy of the ion-electron system (eV)
  ---------------------------------------------------
  alpha Z        PSCENC =        76.81187835
  Ewald energy   TEWEN  =     -1513.37036830
  -Hartree energ DENC   =      -268.00484219
  -exchange      EXHF   =         0.00000000
  -V(xc)+E(xc)   XCENC  =        32.81055105
  PAW double counting   =      1789.59009594    -1895.54451415
  entropy T*S    EENTRO =        -0.00294864
  eigenvalues    EBANDS =       136.92348576
  atomic energy  EATOM  =      1626.71546820
  Solvation  Ediel_sol  =         0.00000000
  ---------------------------------------------------
  free energy    TOTEN  =       -14.07119399 eV

  energy without entropy =      -14.06824535  energy(sigma->0) =      -14.06971967


--------------------------------------------------------------------------------------------------------




 average (electrostatic) potential at core
  the test charge radii are     1.0452
  (the norm of the test charge is              1.0000)
       1 -78.5247       2 -78.5247
 
 
 
 E-fermi :   9.9791     XC(G=0): -13.3103     alpha+bet :-17.4399

 Fermi energy:         9.9790734313

 spin component 1

 k-point     1 :       0.0000    0.0000    0.0000
  band No.  band energies     occupation 
      1       1.2059      1.00000
      2       4.9470      1.00000
      3       7.3981      1.00000
      4       7.4188      1.00000
      5       7.4188      1.00000
      6       7.7203      1.00000
      7       7.7203      1.00000
      8       8.0625      1.00000
      9       8.0625      1.00000
     10       9.1298      1.00000
     11       9.1298      1.00000
     12       9.9503      0.79209
     13      16.2005      0.00000
     14      31.8671      0.00000
     15      34.2589      0.00000
     16      34.2589      0.00000

 k-point     2 :       0.1000    0.0000    0.0000
  band No.  band energies     occupation 
      1       1.5505      1.00000
      2       5.1482      1.00000
      3       7.1406      1.00000
      4       7.5763      1.00000
      5       7.6037      1.00000
      6       7.6834      1.00000
      7       7.8246      1.00000
      8       7.8596      1.00000
      9       7.9663      1.00000
     10       8.2820      1.00000
     11       9.1698      1.00000
     12      11.2748      0.00000
     13      16.2655      0.00000
     14      29.2012      0.00000
     15      31.6797      0.00000
     16      32.0597      0.00000

 k-point     3 :       0.2000    0.0000    0.0000
  band No.  band energies     occupation 
      1       2.5285      1.00000
      2       5.5842      1.00000
      3       6.8413      1.00000
      4       6.9384      1.00000
      5       7.4571      1.00000
      6       7.7446      1.00000
      7       7.9507      1.00000
      8       8.0077      1.00000
      9       8.0292      1.00000
     10       8.2369      1.00000
     11       9.2453      1.00000
     12      13.2279      0.00000
     13      16.5019      0.00000
     14      24.5991      0.00000
     15      28.9439      0.00000
     16      30.9323      0.00000

 k-point     4 :       0.3000    0.0000    0.0000
  band No.  band energies     occupation 
      1       3.8981      1.00000
      2       5.7087      1.00000
      3       6.2033      1.00000
      4       6.8185      1.00000
      5       7.4699      1.00000
      6       7.5069      1.00000
      7       7.7284      1.00000
      8       8.5821      1.00000
      9       8.6645      1.00000
     10       8.7388      1.00000
     11       9.3049      1.00000
     12      15.4564      0.00000
     13      16.8761      0.00000
     14      20.5008      0.00000
     15      26.7264      0.00000
     16      27.9825      0.00000

 k-point     5 :       0.4000    0.0000    0.0000
  band No.  band energies     occupation 
      1       4.9815      1.00000
      2       5.5001      1.00000
      3       5.7602      1.00000
      4       7.1833      1.00000
      5       7.3327      1.00000
      6       7.5612      1.00000
      7       7.7108      1.00000
      8       9.0687      1.00000
      9       9.1984      1.00000
     10       9.3366      1.00000
     11       9.8167      1.00000
     12      15.4554      0.00000
     13      17.8591      0.00000
     14      19.2958      0.00000
     15      24.6175      0.00000
     16      25.2333      0.00000

 k-point     6 :       0.5000    0.0000    0.0000
  band No.  band energies     occupation 
      1       5.3221      1.00000
      2       5.3364      1.00000
      3       5.6133      1.00000
      4       7.2689      1.00000
      5       7.4985      1.00000
      6       7.5172      1.00000
      7       7.8172      1.00000
      8       9.2527      1.00000
      9       9.3460      1.00000
     10       9.3976      1.00000
     11      11.2560      0.00000
     12      13.2315      0.00000
     13      19.5686      0.00000
     14      20.1948      0.00000
     15      22.5921      0.00000
     16      23.7472      0.00000

 k-point     7 :       0.1000    0.1000    0.0000
  band No.  band energies     occupation 
      1       2.2146      1.00000
      2       5.4848      1.00000
      3       6.8762      1.00000
      4       7.2109      1.00000
      5       7.5297      1.00000
      6       7.7049      1.00000
      7       7.8142      1.00000
      8       7.8975      1.00000
      9       8.0985      1.00000
     10       8.1750      1.00000
     11       9.2104      1.00000
     12      12.6788      0.00000
     13      16.4222      0.00000
     14      26.7682      0.00000
     15      27.3629      0.00000
     16      33.6681      0.00000

 k-point     8 :       0.2000    0.1000    0.0000
  band No.  band energies     occupation 
      1       3.4178      1.00000
      2       5.8463      1.00000
      3       6.4735      1.00000
      4       6.6094      1.00000
      5       7.4449      1.00000
      6       7.4487      1.00000
      7       7.9142      1.00000
      8       8.1434      1.00000
      9       8.4479      1.00000
     10       8.7526      1.00000
     11       9.2523      1.00000
     12      14.6580      0.00000
     13      16.8159      0.00000
     14      22.5568      0.00000
     15      25.1430      0.00000
     16      29.9914      0.00000

 k-point     9 :       0.3000    0.1000    0.0000
  band No.  band energies     occupation 
      1       4.7374      1.00000
      2       5.7373      1.00000
      3       5.9470      1.00000
      4       6.7493      1.00000
      5       7.2813      1.00000
      6       7.6058      1.00000
      7       7.6778      1.00000
      8       8.6675      1.00000
      9       8.9875      1.00000
     10       9.2812      1.00000
     11       9.5929      1.00000
     12      16.8843      0.00000
     13      16.9526      0.00000
     14      19.3598      0.00000
     15      23.5958      0.00000
     16      26.4076      0.00000

 k-point    10 :       0.4000    0.1000    0.0000
  band No.  band energies     occupation 
      1       5.3826      1.00000
      2       5.5354      1.00000
      3       5.6813      1.00000
      4       7.1836      1.00000
      5       7.2244      1.00000
      6       7.4942      1.00000
      7       7.8118      1.00000
      8       9.1566      1.00000
      9       9.2716      1.00000
     10       9.2936      1.00000
     11      11.0390      0.00000
     12      14.2873      0.00000
     13      19.3013      0.00000
     14      20.0484      0.00000
     15      22.6057      0.00000
     16      23.4181      0.00000

 k-point    11 :       0.2000    0.2000    0.0000
  band No.  band energies     occupation 
      1       4.6620      1.00000
      2       6.0669      1.00000
      3       6.1108      1.00000
      4       6.2803      1.00000
      5       7.1910      1.00000
      6       7.5688      1.00000
      7       7.7640      1.00000
      8       8.3365      1.00000
      9       8.9926      1.00000
     10       9.2278      1.00000
     11       9.6235      1.00000
     12      16.6502      0.00000
     13      17.4634      0.00000
     14      20.7159      0.00000
     15      21.2611      0.00000
     16      28.4552      0.00000

 k-point    12 :       0.3000    0.2000    0.0000
  band No.  band energies     occupation 
      1       5.6210      1.00000
      2       5.8089      1.00000
      3       5.9238      1.00000
      4       6.5153      1.00000
      5       7.1047      1.00000
      6       7.5197      1.00000
      7       7.8092      1.00000
      8       8.7075      1.00000
      9       9.2061      1.00000
     10       9.2753      1.00000
     11      10.9814      0.00000
     12      16.4532      0.00000
     13      18.9952      0.00000
     14      19.1335      0.00000
     15      20.4210      0.00000
     16      25.3282      0.00000

 k-point    13 :       0.4000    0.2000    0.0000
  band No.  band energies     occupation 
      1       5.7220      1.00000
      2       5.8129      1.00000
      3       5.8203      1.00000
      4       6.8063      1.00000
      5       7.1348      1.00000
      6       7.3625      1.00000
      7       7.9288      1.00000
      8       9.0362      1.00000
      9       9.1977      1.00000
     10       9.2250      1.00000
     11      12.6647      0.00000
     12      14.0155      0.00000
     13      19.1243      0.00000
     14      20.8805      0.00000
     15      21.1714      0.00000
     16      23.1082      0.00000

 k-point    14 :       0.3000    0.3000    0.0000
  band No.  band energies     occupation 
      1       5.7678      1.00000
      2       6.0175      1.00000
      3       6.1723      1.00000
      4       6.4050      1.00000
      5       7.0988      1.00000
      6       7.2879      1.00000
      7       8.0175      1.00000
      8       8.8813      1.00000
      9       9.1502      1.00000
     10       9.1841      1.00000
     11      13.0585      0.00000
     12      16.0104      0.00000
     13      16.0319      0.00000
     14      21.4148      0.00000
     15      21.6421      0.00000
     16      24.2242      0.00000

 k-point    15 :       0.0000    0.0000    0.1250
  band No.  band energies     occupation 
      1       1.3615      1.00000
      2       4.9156      1.00000
      3       7.3591      1.00000
      4       7.3785      1.00000
      5       7.3785      1.00000
      6       7.6791      1.00000
      7       7.6791      1.00000
      8       8.1567      1.00000
      9       8.1567      1.00000
     10       9.1215      1.00000
     11       9.1215      1.00000
     12       9.3310      1.00000
     13      17.1294      0.00000
     14      31.8129      0.00000
     15      33.9562      0.00000
     16      34.4089      0.00000

 k-point    16 :       0.1000    0.0000    0.1250
  band No.  band energies     occupation 
      1       1.7027      1.00000
      2       5.1289      1.00000
      3       7.1434      1.00000
      4       7.4981      1.00000
      5       7.5176      1.00000
      6       7.5210      1.00000
      7       7.8107      1.00000
      8       7.9624      1.00000
      9       8.0898      1.00000
     10       8.2505      1.00000
     11       9.1558      1.00000
     12      10.6964      0.00000
     13      17.2665      0.00000
     14      29.3028      0.00000
     15      31.8361      0.00000
     16      32.0220      0.00000

 k-point    17 :       0.2000    0.0000    0.1250
  band No.  band energies     occupation 
      1       2.6661      1.00000
      2       5.5995      1.00000
      3       6.8044      1.00000
      4       6.8753      1.00000
      5       7.3925      1.00000
      6       7.7070      1.00000
      7       7.8275      1.00000
      8       8.0838      1.00000
      9       8.2109      1.00000
     10       8.2191      1.00000
     11       9.2197      1.00000
     12      12.3280      0.00000
     13      17.7403      0.00000
     14      24.7343      0.00000
     15      29.1319      0.00000
     16      30.2434      0.00000

 k-point    18 :       0.3000    0.0000    0.1250
  band No.  band energies     occupation 
      1       3.9871      1.00000
      2       5.7416      1.00000
      3       6.1750      1.00000
      4       6.7987      1.00000
      5       7.3814      1.00000
      6       7.5490      1.00000
      7       7.8607      1.00000
      8       8.6014      1.00000
      9       8.6583      1.00000
     10       8.6952      1.00000
     11       9.2717      1.00000
     12      14.0001      0.00000
     13      18.5365      0.00000
     14      20.6762      0.00000
     15      26.7200      0.00000
     16      26.9409      0.00000

 k-point    19 :       0.4000    0.0000    0.1250
  band No.  band energies     occupation 
      1       4.9357      1.00000
      2       5.4988      1.00000
      3       5.9274      1.00000
      4       6.8003      1.00000
      5       7.3929      1.00000
      6       7.7033      1.00000
      7       8.0602      1.00000
      8       9.0701      1.00000
      9       9.1263      1.00000
     10       9.3215      1.00000
     11       9.7370      1.00000
     12      14.7921      0.00000
     13      17.5591      0.00000
     14      20.2923      0.00000
     15      23.6584      0.00000
     16      25.4676      0.00000

 k-point    20 :       0.5000    0.0000    0.1250
  band No.  band energies     occupation 
      1       5.1358      1.00000
      2       5.3526      1.00000
      3       5.9144      1.00000
      4       6.8277      1.00000
      5       7.3345      1.00000
      6       7.8197      1.00000
      7       8.2890      1.00000
      8       9.2004      1.00000
      9       9.3075      1.00000
     10       9.3933      1.00000
     11      11.1522      0.00000
     12      13.1446      0.00000
     13      18.9778      0.00000
     14      19.3262      0.00000
     15      23.7468      0.00000
     16      24.6569      0.00000

 k-point    21 :       0.1000    0.1000    0.1250
  band No.  band energies     occupation 
      1       2.3580      1.00000
      2       5.4902      1.00000
      3       6.8946      1.00000
      4       7.0364      1.00000
      5       7.5170      1.00000
      6       7.5963      1.00000
      7       7.8016      1.00000
      8       7.9567      1.00000
      9       8.1942      1.00000
     10       8.2036      1.00000
     11       9.1915      1.00000
     12      11.8866      0.00000
     13      17.5778      0.00000
     14      26.8884      0.00000
     15      27.5107      0.00000
     16      32.5273      0.00000

 k-point    22 :       0.2000    0.1000    0.1250
  band No.  band energies     occupation 
      1       3.5338      1.00000
      2       5.8894      1.00000
      3       6.3799      1.00000
      4       6.6467      1.00000
      5       7.3271      1.00000
      6       7.5535      1.00000
      7       7.8346      1.00000
      8       8.1903      1.00000
      9       8.5239      1.00000
     10       8.7052      1.00000
     11       9.2423      1.00000
     12      13.4485      0.00000
     13      18.3074      0.00000
     14      22.7021      0.00000
     15      25.2990      0.00000
     16      28.8657      0.00000

 k-point    23 :       0.3000    0.1000    0.1250
  band No.  band energies     occupation 
      1       4.7664      1.00000
      2       5.7706      1.00000
      3       5.9784      1.00000
      4       6.6827      1.00000
      5       7.3179      1.00000
      6       7.6227      1.00000
      7       7.7698      1.00000
      8       8.6530      1.00000
      9       9.0301      1.00000
     10       9.1536      1.00000
     11       9.6287      1.00000
     12      15.0069      0.00000
     13      18.4112      0.00000
     14      20.0806      0.00000
     15      23.7396      0.00000
     16      25.2925      0.00000

 k-point    24 :       0.4000    0.1000    0.1250
  band No.  band energies     occupation 
      1       5.2382      1.00000
      2       5.5344      1.00000
      3       5.9632      1.00000
      4       6.7547      1.00000
      5       7.2571      1.00000
      6       7.8380      1.00000
      7       7.9410      1.00000
      8       9.1174      1.00000
      9       9.2142      1.00000
     10       9.2991      1.00000
     11      11.0274      0.00000
     12      14.1438      0.00000
     13      18.2924      0.00000
     14      20.3993      0.00000
     15      22.7352      0.00000
     16      23.6264      0.00000

[...]
      4       7.7378      1.00000
      5       9.9981      0.29528
      6       9.9981      0.29528
      7      10.2911      0.00000
      8      10.2911      0.00000
      9      11.3061      0.00000
     10      11.3061      0.00000
     11      12.2118      0.00000
     12      12.2118      0.00000
     13      18.0546      0.00000
     14      18.0546      0.00000
     15      28.4340      0.00000
     16      28.4340      0.00000

 k-point    63 :       0.1000    0.1000    0.5000
  band No.  band energies     occupation 
      1       4.3660      1.00000
      2       4.3660      1.00000
      3       8.2421      1.00000
      4       8.2421      1.00000
      5       8.8881      1.00000
      6       8.8881      1.00000
      7       9.4572      1.00000
      8       9.4572      1.00000
      9      10.7172      0.00000
     10      10.7172      0.00000
     11      11.0107      0.00000
     12      11.0107      0.00000
     13      25.9273      0.00000
     14      25.9273      0.00000
     15      28.6946      0.00000
     16      28.6946      0.00000

 k-point    64 :       0.2000    0.1000    0.5000
  band No.  band energies     occupation 
      1       5.2872      1.00000
      2       5.2872      1.00000
      3       8.0605      1.00000
      4       8.0605      1.00000
      5       8.7449      1.00000
      6       8.7449      1.00000
      7       9.7790      1.00000
      8       9.7790      1.00000
      9      10.8533      0.00000
     10      10.8533      0.00000
     11      11.3003      0.00000
     12      11.3003      0.00000
     13      24.9481      0.00000
     14      24.9481      0.00000
     15      26.8624      0.00000
     16      26.8624      0.00000

 k-point    65 :       0.3000    0.1000    0.5000
  band No.  band energies     occupation 
      1       6.0545      1.00000
      2       6.0545      1.00000
      3       7.9228      1.00000
      4       7.9228      1.00000
      5       8.9974      1.00000
      6       8.9974      1.00000
      7       9.9295      0.91952
      8       9.9295      0.91952
      9      11.1544      0.00000
     10      11.1544      0.00000
     11      11.8431      0.00000
     12      11.8431      0.00000
     13      21.2815      0.00000
     14      21.2815      0.00000
     15      26.5319      0.00000
     16      26.5319      0.00000

 k-point    66 :       0.4000    0.1000    0.5000
  band No.  band energies     occupation 
      1       6.3161      1.00000
      2       6.3161      1.00000
      3       7.8354      1.00000
      4       7.8354      1.00000
      5       9.3772      1.00000
      6       9.3772      1.00000
      7      10.2090      0.00000
      8      10.2090      0.00000
      9      11.2052      0.00000
     10      11.2052      0.00000
     11      12.7729      0.00000
     12      12.7729      0.00000
     13      18.5725      0.00000
     14      18.5725      0.00000
     15      25.8767      0.00000
     16      25.8767      0.00000

 k-point    67 :       0.2000    0.2000    0.5000
  band No.  band energies     occupation 
      1       6.1098      1.00000
      2       6.1098      1.00000
      3       8.0239      1.00000
      4       8.0239      1.00000
      5       8.5776      1.00000
      6       8.5776      1.00000
      7       9.8077      1.00000
      8       9.8077      1.00000
      9      11.2179      0.00000
     10      11.2179      0.00000
     11      11.9216      0.00000
     12      11.9216      0.00000
     13      23.2459      0.00000
     14      23.2459      0.00000
     15      24.0745      0.00000
     16      24.0745      0.00000

 k-point    68 :       0.3000    0.2000    0.5000
  band No.  band energies     occupation 
      1       6.6485      1.00000
      2       6.6485      1.00000
      3       8.0060      1.00000
      4       8.0060      1.00000
      5       8.6078      1.00000
      6       8.6078      1.00000
      7       9.8706      0.99893
      8       9.8706      0.99893
      9      11.2419      0.00000
     10      11.2419      0.00000
     11      13.3258      0.00000
     12      13.3258      0.00000
     13      20.0989      0.00000
     14      20.0989      0.00000
     15      22.8273      0.00000
     16      22.8273      0.00000

 k-point    69 :       0.4000    0.2000    0.5000
  band No.  band energies     occupation 
      1       6.7900      1.00000
      2       6.7900      1.00000
      3       8.0047      1.00000
      4       8.0047      1.00000
      5       8.6241      1.00000
      6       8.6241      1.00000
      7      10.0435      0.03417
      8      10.0435      0.03417
      9      11.1544      0.00000
     10      11.1544      0.00000
     11      14.4636      0.00000
     12      14.4636      0.00000
     13      18.2665      0.00000
     14      18.2665      0.00000
     15      22.4826      0.00000
     16      22.4826      0.00000

 k-point    70 :       0.3000    0.3000    0.5000
  band No.  band energies     occupation 
      1       7.2139      1.00000
      2       7.2139      1.00000
      3       7.8740      1.00000
      4       7.8740      1.00000
      5       8.3585      1.00000
      6       8.3585      1.00000
      7       9.8750      0.99838
      8       9.8750      0.99838
      9      11.1356      0.00000
     10      11.1356      0.00000
     11      15.3948      0.00000
     12      15.3948      0.00000
     13      18.7123      0.00000
     14      18.7123      0.00000
     15      20.4577      0.00000
     16      20.4577      0.00000


--------------------------------------------------------------------------------------------------------


 soft charge-density along one line, spin component           1
         0         1         2         3         4         5         6         7         8         9
 total charge-density along one line
 
 soft charge-density along one line, spin component           2
         0         1         2         3         4         5         6         7         8         9
 total charge-density along one line
 
 pseudopotential strength for first ion, spin component:           1
 -0.807   0.000   0.000  -0.000   0.000  -1.434   0.000   0.000
  0.000  -0.810   0.000  -0.000   0.000   0.000  -1.437   0.000
  0.000   0.000  -0.804   0.000  -0.000   0.000   0.000  -1.431
 -0.000  -0.000   0.000  -0.810  -0.000  -0.000  -0.000   0.000
  0.000   0.000  -0.000  -0.000  -0.807   0.000   0.000  -0.000
 -1.434   0.000   0.000  -0.000   0.000  -2.002   0.000   0.000
  0.000  -1.437   0.000  -0.000   0.000   0.000  -2.004   0.000
  0.000   0.000  -1.431   0.000  -0.000   0.000   0.000  -1.999
 -0.000  -0.000   0.000  -1.437  -0.000  -0.000  -0.000   0.000
  0.000   0.000  -0.000  -0.000  -1.434   0.000   0.000  -0.000
  0.000   0.000   0.000   0.000  -0.000   0.000   0.000   0.000
  0.000   0.000   0.000   0.000  -0.000   0.000   0.000   0.000
 -0.000  -0.000  -0.000   0.000  -0.001  -0.000  -0.000  -0.000
  0.000   0.000   0.000  -0.000   0.000   0.000   0.000   0.000
 -0.001   0.000   0.000   0.000  -0.000  -0.001   0.000   0.000
 -0.000  -0.000  -0.000   0.000  -0.001  -0.000  -0.000  -0.000
  0.000   0.000   0.000  -0.000   0.000   0.000   0.000   0.000
 -0.001   0.000   0.000   0.000  -0.000  -0.001   0.000   0.000
 pseudopotential strength for first ion, spin component:           2
  0.578  -0.000   0.000   0.000   0.000  -0.107  -0.000   0.000
 -0.000   0.586  -0.000  -0.000  -0.000  -0.000  -0.100  -0.000
  0.000  -0.000   0.567  -0.000  -0.000   0.000  -0.000  -0.118
  0.000  -0.000  -0.000   0.586   0.000   0.000  -0.000  -0.000
  0.000  -0.000  -0.000   0.000   0.578   0.000  -0.000  -0.000
 -0.107  -0.000   0.000   0.000   0.000  -0.731  -0.000   0.000
 -0.000  -0.100  -0.000  -0.000  -0.000  -0.000  -0.724  -0.000
  0.000  -0.000  -0.118  -0.000  -0.000   0.000  -0.000  -0.742
  0.000  -0.000  -0.000  -0.100   0.000   0.000  -0.000  -0.000
  0.000  -0.000  -0.000   0.000  -0.107   0.000  -0.000  -0.000
  0.000  -0.000   0.000  -0.000  -0.000   0.000  -0.000   0.000
  0.000  -0.000   0.000  -0.000  -0.000   0.000  -0.000   0.000
  0.000  -0.000   0.000   0.000  -0.000   0.000  -0.000   0.000
  0.000  -0.000   0.000   0.000   0.000   0.000  -0.000   0.000
 -0.000   0.000  -0.000   0.000   0.000  -0.000   0.000  -0.000
  0.000  -0.000   0.000   0.000  -0.000   0.000  -0.000   0.000
  0.000  -0.000   0.000   0.000   0.000   0.000  -0.000   0.000
 -0.000   0.000  -0.000   0.000   0.000  -0.000   0.000  -0.000
 total augmentation occupancy for first ion, spin component:           1
  2.934   0.000  -0.000   0.000   0.000  -1.555  -0.000   0.000  -0.000  -0.000  -0.000   0.000  -0.000   0.000   0.042   0.000
  0.000   3.043   0.000   0.000  -0.000  -0.000  -1.604  -0.000  -0.000   0.000   0.000   0.000   0.000   0.000  -0.000   0.000
 -0.000   0.000   2.790   0.000   0.000   0.000  -0.000  -1.498   0.000  -0.000  -0.021   0.000   0.000   0.000  -0.000  -0.000
 -0.000   0.000   0.000   3.043   0.000  -0.000  -0.000  -0.000  -1.604   0.000   0.000   0.000   0.000   0.000  -0.000   0.000
  0.000   0.000   0.000   0.000   2.934  -0.000   0.000  -0.000  -0.000  -1.555   0.000  -0.000   0.042  -0.000   0.000  -0.003
 -1.555  -0.000   0.000  -0.000  -0.000   1.724  -0.000  -0.000   0.000   0.000   0.000  -0.000   0.000   0.000  -0.057  -0.000
  0.000  -1.604   0.000  -0.000   0.000   0.000   1.712  -0.000   0.000   0.000   0.000  -0.000   0.000  -0.000   0.000   0.000
  0.000  -0.000  -1.498   0.000  -0.000  -0.000   0.000   1.753  -0.000   0.000   0.021  -0.001  -0.000   0.000   0.000   0.000
  0.000  -0.000   0.000  -1.604  -0.000   0.000   0.000   0.000   1.712   0.000   0.000   0.000   0.000   0.000   0.000   0.000
 -0.000   0.000  -0.000  -0.000  -1.555   0.000  -0.000   0.000   0.000   1.724  -0.000   0.000  -0.057   0.000  -0.000   0.004
 -0.000   0.000  -0.021   0.000   0.000   0.000   0.000   0.021   0.000  -0.000   2.258  -0.261  -0.000   0.000   0.000   0.000
  0.000  -0.000   0.000   0.000  -0.000  -0.000  -0.000  -0.001   0.000   0.000  -0.261   0.039   0.000   0.000  -0.000   0.000
 -0.000   0.000   0.000   0.000   0.042   0.000   0.000  -0.000   0.000  -0.057  -0.000   0.000   0.304  -0.000   0.000  -0.029
 -0.000   0.000   0.000   0.000   0.000   0.000  -0.000   0.000   0.000  -0.000   0.000   0.000   0.000   0.311  -0.000   0.000
  0.042   0.000  -0.000   0.000   0.000  -0.057  -0.000   0.000   0.000  -0.000   0.000   0.000   0.000   0.000   0.304   0.000
  0.000   0.000  -0.000   0.000  -0.003  -0.000   0.000   0.000   0.000   0.004  -0.000   0.000  -0.029   0.000   0.000   0.003
  0.000   0.000   0.000   0.000  -0.000  -0.000  -0.000   0.000  -0.000   0.000   0.000   0.000   0.000  -0.029   0.000   0.000
 -0.003   0.000   0.000  -0.000  -0.000   0.004   0.000   0.000  -0.000   0.000  -0.000   0.000   0.000   0.000  -0.029   0.000
 total augmentation occupancy for first ion, spin component:           2
  2.143   0.000  -0.000  -0.000   0.000  -1.027   0.000   0.000   0.000  -0.000   0.000  -0.000   0.000   0.000  -0.004  -0.000
 -0.000   2.169  -0.000   0.000  -0.000   0.000  -1.044   0.000  -0.000   0.000  -0.000   0.000  -0.000   0.000  -0.000   0.000
 -0.000  -0.000   2.133   0.000   0.000   0.000  -0.000  -1.020  -0.000  -0.000   0.000  -0.001  -0.000   0.000  -0.000  -0.000
  0.000   0.000   0.000   2.169   0.000   0.000  -0.000  -0.000  -1.044   0.000   0.000   0.000   0.000   0.000  -0.000  -0.000
  0.000   0.000   0.000   0.000   2.143  -0.000   0.000  -0.000   0.000  -1.027  -0.000   0.000  -0.004   0.000  -0.000   0.000
 -1.027  -0.000   0.000  -0.000  -0.000   0.299   0.000   0.000  -0.000   0.000  -0.000   0.000  -0.000  -0.000   0.008   0.000
  0.000  -1.044   0.000  -0.000   0.000   0.000   0.317   0.000   0.000  -0.000   0.000  -0.000   0.000   0.000  -0.000   0.000
  0.000  -0.000  -1.020  -0.000  -0.000   0.000  -0.000   0.281  -0.000   0.000  -0.002   0.001   0.000   0.000   0.000  -0.000
 -0.000  -0.000  -0.000  -1.044   0.000   0.000   0.000   0.000   0.317   0.000   0.000   0.000  -0.000  -0.000   0.000   0.000
 -0.000  -0.000  -0.000  -0.000  -1.027   0.000   0.000   0.000   0.000   0.299   0.000  -0.000   0.008  -0.000   0.000  -0.000
  0.000   0.000   0.000   0.000  -0.000  -0.000   0.000  -0.002   0.000   0.000  -0.300   0.092  -0.000   0.000   0.000  -0.000
 -0.000   0.000  -0.001   0.000   0.000   0.000   0.000   0.001   0.000  -0.000   0.092  -0.016  -0.000   0.000   0.000   0.000
  0.000   0.000   0.000   0.000  -0.004  -0.000  -0.000   0.000  -0.000   0.008  -0.000   0.000  -0.033   0.000   0.000   0.005
  0.000   0.000   0.000   0.000   0.000   0.000   0.000   0.000  -0.000  -0.000   0.000   0.000   0.000  -0.038   0.000   0.000
 -0.004   0.000   0.000   0.000  -0.000   0.008  -0.000  -0.000   0.000   0.000   0.000   0.000   0.000   0.000  -0.033   0.000
 -0.000   0.000   0.000   0.000   0.000   0.000   0.000  -0.000   0.000  -0.000  -0.000   0.000   0.005  -0.000   0.000  -0.001
  0.000  -0.000   0.000  -0.000   0.000   0.000   0.000   0.000   0.000   0.000   0.000   0.000  -0.000   0.005   0.000  -0.000
  0.000  -0.000   0.000  -0.000   0.000  -0.000  -0.000   0.000   0.000  -0.000   0.000  -0.000   0.000   0.000   0.005   0.000


------------------------ aborting loop because EDIFF is reached ----------------------------------------





 total charge

# of ion       s       p       d       tot
------------------------------------------
    1        0.484   0.511   7.242   8.237
    2        0.484   0.511   7.242   8.237
--------------------------------------------------
tot          0.968   1.021  14.485  16.474



 magnetization (x)

# of ion       s       p       d       tot
------------------------------------------
    1       -0.013  -0.051   1.763   1.699
    2       -0.013  -0.051   1.763   1.699
--------------------------------------------------
tot         -0.026  -0.102   3.526   3.398
 
    CHARGE:  cpu time      0.0182: real time      0.0183
    FORLOC:  cpu time      0.0001: real time      0.0001
    FORNL :  cpu time      0.0171: real time      0.0171
    STRESS:  cpu time      0.0526: real time      0.0527
    FORCOR:  cpu time      0.0042: real time      0.0043
    FORHAR:  cpu time      0.0004: real time      0.0004
    MIXING:  cpu time      0.0003: real time      0.0003
    OFIELD:  cpu time      0.0000: real time      0.0000

  FORCE on cell =-STRESS in cart. coord.  units (eV):
  Direction    XX          YY          ZZ          XY          YZ          ZX
  --------------------------------------------------------------------------------------
  Alpha Z    76.81188    76.81188    76.81188
  Ewald    -506.73312  -506.73312  -499.90519     0.00000     0.00000    -0.00000
  Hartree    88.28389    88.28389    91.43688    -0.00000    -0.00000    -0.00000
  E(xc)     -92.44244   -92.44244   -92.44650     0.00000    -0.00000    -0.00000
  Local     -19.16837   -19.16849   -28.84870    -0.00011    -0.00000    -0.00000
  n-local   -10.14757    -9.83244   -10.02127    -6.16429     1.73725     1.71753
  augment   311.23417   311.23429   311.10597     0.00010    -0.00000    -0.00000
  Kinetic   152.90800   150.16075   151.36164     4.28038     0.21602     0.84397
  Fock        0.00000     0.00000     0.00000     0.00000     0.00000     0.00000
  -------------------------------------------------------------------------------------
  Total      -0.46961    -0.46961    -0.50528    -0.00000     0.00000     0.00000
  in kB     -34.10998   -34.10998   -36.70110    -0.00000     0.00000     0.00000
  external pressure =      -34.97 kB  Pullay stress =        0.00 kB


 VOLUME and BASIS-vectors are now :
 -----------------------------------------------------------------------------
  energy-cutoff  :      400.00
  volume of cell :       22.06
      direct lattice vectors                 reciprocal lattice vectors
     2.506235550  0.000000000  0.000000000     0.399004794  0.230365525  0.000000000
    -1.253117775  2.170463655  0.000000000     0.000000000  0.460731051  0.000000000
     0.000000000  0.000000000  4.054987118     0.000000000  0.000000000  0.246609908

  length of vectors
     2.506235550  2.506235550  4.054987118     0.460731051  0.460731051  0.246609908


 FORCES acting on ions
    electron-ion (+dipol)            ewald-force                    non-local-force                 convergence-correction
 -----------------------------------------------------------------------------------------------
   -.565E-05 0.326E-05 0.583E-13   0.106E-11 -.575E-12 -.228E-13   -.173E-17 0.000E+00 0.000E+00   0.510E-09 -.294E-09 -.305E-13
   -.414E-05 0.239E-05 -.919E-12   -.106E-11 0.571E-12 0.228E-13   0.867E-17 0.000E+00 0.000E+00   -.508E-09 0.294E-09 -.888E-13
 -----------------------------------------------------------------------------------------------
   -.980E-05 0.566E-05 -.860E-12   0.441E-14 -.346E-14 0.000E+00   0.694E-17 0.000E+00 0.000E+00   0.131E-11 -.877E-12 -.119E-12
 
 
 POSITION                                       TOTAL-FORCE (eV/Angst)
 -----------------------------------------------------------------------------------
      0.00000      0.00000      0.00000        -0.000000      0.000000      0.000000
      0.00000      1.44698      2.02749         0.000000      0.000000      0.000000
 -----------------------------------------------------------------------------------
    total drift:                               -0.000010      0.000006     -0.000000


--------------------------------------------------------------------------------------------------------



  FREE ENERGIE OF THE ION-ELECTRON SYSTEM (eV)
  ---------------------------------------------------
  free  energy   TOTEN  =       -14.07119399 eV

  energy  without entropy=      -14.06824535  energy(sigma->0) =      -14.06971967
 


--------------------------------------------------------------------------------------------------------


    POTLOK:  cpu time      0.0103: real time      0.0104


--------------------------------------------------------------------------------------------------------




--------------------------------------------------------------------------------------------------------


  
 reached required accuracy - stopping structural energy minimisation
 writing wavefunctions
     LOOP+:  cpu time      6.8492: real time      7.0016
    4ORBIT:  cpu time      0.0000: real time      0.0000



 total charge

# of ion       s       p       d       tot
------------------------------------------
    1        0.484   0.511   7.242   8.237
    2        0.484   0.511   7.242   8.237
--------------------------------------------------
tot          0.968   1.021  14.485  16.474



 magnetization (x)

# of ion       s       p       d       tot
------------------------------------------
    1       -0.013  -0.051   1.763   1.699
    2       -0.013  -0.051   1.763   1.699
--------------------------------------------------
tot         -0.026  -0.102   3.526   3.398
 

 total amount of memory used by VASP MPI-rank0    32110. kBytes
=======================================================================

   base      :      30000. kBytes
   nonl-proj :        728. kBytes
   fftplans  :        153. kBytes
   grid      :        374. kBytes
   one-center:         31. kBytes
   wavefun   :        824. kBytes
 
  
  
 General timing and accounting informations for this job:
 ========================================================
  
                  Total CPU time used (sec):        7.784
                            User time (sec):        7.281
                          System time (sec):        0.503
                         Elapsed time (sec):        9.637
  
                   Maximum memory used (kb):      224528.
                   Average memory used (kb):          N/A
  
                          Minor page faults:        21618
                          Major page faults:           42
                 Voluntary context switches:         2174
