PROCAR lm decomposed
# of k-points:   95         # of bands:   28         # of ions:    2

 k-point     1 :    0.00000000 0.00000000 0.00000000     weight = 0.00086806

band     1 # energy    1.12944568 # occ.  1.00000000
 
ion      s     py     pz     px    dxy    dyz    dz2    dxz  x2-y2    tot
    1  0.352  0.000  0.000  0.000  0.000  0.000  0.000  0.000  0.000  0.352
    2  0.352  0.000  0.000  0.000  0.000  0.000  0.000  0.000  0.000  0.352
tot    0.703  0.000  0.000  0.000  0.000  0.000  0.000  0.000  0.000  0.703
 
band     2 # energy    4.86434486 # occ.  1.00000000
 
ion      s     py     pz     px    dxy    dyz    dz2    dxz  x2-y2    tot
    1  0.077  0.000  0.000  0.000  0.000  0.000  0.365  0.000  0.000  0.442
    2  0.077  0.000  0.000  0.000  0.000  0.000  0.365  0.000  0.000  0.442
tot    0.153  0.000  0.000  0.000  0.000  0.000  0.730  0.000  0.000  0.883
 
band     3 # energy    7.29673983 # occ.  1.00000000
 
ion      s     py     pz     px    dxy    dyz    dz2    dxz  x2-y2    tot
    1  0.000  0.000  0.000  0.000  0.000  0.000  0.485  0.000  0.000  0.485
    2  0.000  0.000  0.000  0.000  0.000  0.000  0.485  0.000  0.000  0.485
tot    0.000  0.000  0.000  0.000  0.000  0.000  0.970  0.000  0.000  0.970
 
band     4 # energy    7.30564702 # occ.  1.00000000
 
ion      s     py     pz     px    dxy    dyz    dz2    dxz  x2-y2    tot
    1  0.000  0.001  0.000  0.000  0.000  0.000  0.000  0.000  0.481  0.482
    2  0.000  0.001  0.000  0.000  0.000  0.000  0.000  0.000  0.481  0.482
tot    0.000  0.001  0.000  0.000  0.000  0.000  0.000  0.000  0.963  0.964
 
band     5 # energy    7.30564715 # occ.  1.00000000
 
ion      s     py     pz     px    dxy    dyz    dz2    dxz  x2-y2    tot
    1  0.000  0.000  0.000  0.001  0.481  0.000  0.000  0.000  0.000  0.482
    2  0.000  0.000  0.000  0.001  0.481  0.000  0.000  0.000  0.000  0.482
tot    0.000  0.000  0.000  0.001  0.963  0.000  0.000  0.000  0.000  0.964
 
band     6 # energy    7.60524328 # occ.  1.00000000
 
ion      s     py     pz     px    dxy    dyz    dz2    dxz  x2-y2    tot
    1  0.000  0.001  0.000  0.000  0.000  0.000  0.000  0.000  0.486  0.487
    2  0.000  0.001  0.000  0.000  0.000  0.000  0.000  0.000  0.486  0.487
tot    0.000  0.001  0.000  0.000  0.000  0.000  0.000  0.000  0.972  0.973
 
band     7 # energy    7.60524343 # occ.  1.00000000
 
ion      s     py     pz     px    dxy    dyz    dz2    dxz  x2-y2    tot
    1  0.000  0.000  0.000  0.001  0.486  0.000  0.000  0.000  0.000  0.487
    2  0.000  0.000  0.000  0.001  0.486  0.000  0.000  0.000  0.000  0.487
tot    0.000  0.000  0.000  0.001  0.972  0.000  0.000  0.000  0.000  0.973
 
band     8 # energy    7.93061585 # occ.  1.00000000
 
ion      s     py     pz     px    dxy    dyz    dz2    dxz  x2-y2    tot
    1  0.000  0.000  0.000  0.000  0.000  0.489  0.000  0.000  0.000  0.489
    2  0.000  0.000  0.000  0.000  0.000  0.489  0.000  0.000  0.000  0.489
tot    0.000  0.000  0.000  0.000  0.000  0.978  0.000  0.000  0.000  0.978
 
band     9 # energy    7.93061586 # occ.  1.00000000
 
ion      s     py     pz     px    dxy    dyz    dz2    dxz  x2-y2    tot
    1  0.000  0.000  0.000  0.000  0.000  0.000  0.000  0.489  0.000  0.489
    2  0.000  0.000  0.000  0.000  0.000  0.000  0.000  0.489  0.000  0.489
tot    0.000  0.000  0.000  0.000  0.000  0.000  0.000  0.978  0.000  0.978
 
band    10 # energy    8.99348097 # occ.  1.00000000
 
ion      s     py     pz     px    dxy    dyz    dz2    dxz  x2-y2    tot
    1  0.000  0.000  0.000  0.000  0.000  0.000  0.000  0.492  0.000  0.492
    2  0.000  0.000  0.000  0.000  0.000  0.000  0.000  0.492  0.000  0.492
tot    0.000  0.000  0.000  0.000  0.000  0.000  0.000  0.985  0.000  0.985
 
band    11 # energy    8.99348101 # occ.  1.00000000
 
ion      s     py     pz     px    dxy    dyz    dz2    dxz  x2-y2    tot
    1  0.000  0.000  0.000  0.000  0.000  0.492  0.000  0.000  0.000  0.492
    2  0.000  0.000  0.000  0.000  0.000  0.492  0.000  0.000  0.000  0.492
tot    0.000  0.000  0.000  0.000  0.000  0.985  0.000  0.000  0.000  0.985
 
band    12 # energy    9.85391340 # occ.  0.39860049
 
ion      s     py     pz     px    dxy    dyz    dz2    dxz  x2-y2    tot
    1  0.000  0.000  0.334  0.000  0.000  0.000  0.000  0.000  0.000  0.334
    2  0.000  0.000  0.334  0.000  0.000  0.000  0.000  0.000  0.000  0.334
tot    0.000  0.000  0.668  0.000  0.000  0.000  0.000  0.000  0.000  0.668
 
band    13 # energy   16.02651247 # occ.  0.00000000
 
ion      s     py     pz     px    dxy    dyz    dz2    dxz  x2-y2    tot
    1  0.223  0.000  0.000  0.000  0.000  0.000  0.223  0.000  0.000  0.446
    2  0.223  0.000  0.000  0.000  0.000  0.000  0.223  0.000  0.000  0.446
tot    0.446  0.000  0.000  0.000  0.000  0.000  0.446  0.000  0.000  0.891
 
band    14 # energy   31.60211723 # occ.  0.00000000
 
ion      s     py     pz     px    dxy    dyz    dz2    dxz  x2-y2    tot
    1  0.007  0.000  0.000  0.000  0.000  0.000  0.033  0.000  0.000  0.039
    2  0.007  0.000  0.000  0.000  0.000  0.000  0.033  0.000  0.000  0.039
tot    0.013  0.000  0.000  0.000  0.000  0.000  0.065  0.000  0.000  0.079
 
band    15 # energy   33.87709272 # occ.  0.00000000
 
ion      s     py     pz     px    dxy    dyz    dz2    dxz  x2-y2    tot
    1  0.000  0.272  0.000  0.000  0.000  0.000  0.000  0.000  0.112  0.384
    2  0.000  0.272  0.000  0.000  0.000  0.000  0.000  0.000  0.112  0.384
tot    0.000  0.544  0.000  0.000  0.000  0.000  0.000  0.000  0.225  0.769
 
band    16 # energy   33.87709489 # occ.  0.00000000
 
ion      s     py     pz     px    dxy    dyz    dz2    dxz  x2-y2    tot
    1  0.000  0.000  0.000  0.272  0.112  0.000  0.000  0.000  0.000  0.384
    2  0.000  0.000  0.000  0.272  0.112  0.000  0.000  0.000  0.000  0.384
tot    0.000  0.000  0.000  0.544  0.225  0.000  0.000  0.000  0.000  0.769
 
band    17 # energy   34.63791296 # occ.  0.00000000
 
ion      s     py     pz     px    dxy    dyz    dz2    dxz  x2-y2    tot
    1  0.024  0.000  0.000  0.000  0.000  0.000  0.074  0.000  0.000  0.098
    2  0.024  0.000  0.000  0.000  0.000  0.000  0.074  0.000  0.000  0.098
tot    0.047  0.000  0.000  0.000  0.000  0.000  0.148  0.000  0.000  0.196
 
band    18 # energy   35.11243602 # occ.  0.00000000
 
ion      s     py     pz     px    dxy    dyz    dz2    dxz  x2-y2    tot
    1  0.000  0.000  0.030  0.000  0.000  0.000  0.000  0.000  0.000  0.030
    2  0.000  0.000  0.030  0.000  0.000  0.000  0.000  0.000  0.000  0.030
tot    0.000  0.000  0.060  0.000  0.000  0.000  0.000  0.000  0.000  0.060
 
band    19 # energy   35.26113518 # occ.  0.00000000
 
ion      s     py     pz     px    dxy    dyz    dz2    dxz  x2-y2    tot
    1  0.000  0.090  0.000  0.000  0.000  0.000  0.000  0.000  0.361  0.451
    2  0.000  0.090  0.000  0.000  0.000  0.000  0.000  0.000  0.361  0.451
tot    0.000  0.180  0.000  0.000  0.000  0.000  0.000  0.000  0.722  0.902
 
band    20 # energy   35.26113722 # occ.  0.00000000
 
ion      s     py     pz     px    dxy    dyz    dz2    dxz  x2-y2    tot
    1  0.000  0.000  0.000  0.090  0.361  0.000  0.000  0.000  0.000  0.451
    2  0.000  0.000  0.000  0.090  0.361  0.000  0.000  0.000  0.000  0.451
tot    0.000  0.000  0.000  0.180  0.722  0.000  0.000  0.000  0.000  0.902
 
band    21 # energy   39.94425560 # occ.  0.00000000
 
ion      s     py     pz     px    dxy    dyz    dz2    dxz  x2-y2    tot
    1  0.000  0.000  0.000  0.000  0.000  0.132  0.000  0.000  0.000  0.132
    2  0.000  0.000  0.000  0.000  0.000  0.132  0.000  0.000  0.000  0.132
tot    0.000  0.000  0.000  0.000  0.000  0.263  0.000  0.000  0.000  0.263
 
band    22 # energy   39.94425607 # occ.  0.00000000
 
ion      s     py     pz     px    dxy    dyz    dz2    dxz  x2-y2    tot
    1  0.000  0.000  0.000  0.000  0.000  0.000  0.000  0.132  0.000  0.132
    2  0.000  0.000  0.000  0.000  0.000  0.000  0.000  0.132  0.000  0.132
tot    0.000  0.000  0.000  0.000  0.000  0.000  0.000  0.263  0.000  0.263
 
band    23 # energy   40.68812906 # occ.  0.00000000
 
ion      s     py     pz     px    dxy    dyz    dz2    dxz  x2-y2    tot
    1  0.004  0.000  0.000  0.000  0.000  0.000  0.592  0.000  0.000  0.596
    2  0.004  0.000  0.000  0.000  0.000  0.000  0.592  0.000  0.000  0.596
tot    0.007  0.000  0.000  0.000  0.000  0.000  1.185  0.000  0.000  1.192
 
band    24 # energy   41.31832959 # occ.  0.00000000
 
ion      s     py     pz     px    dxy    dyz    dz2    dxz  x2-y2    tot
    1  0.000  0.000  0.048  0.000  0.000  0.000  0.000  0.000  0.000  0.048
    2  0.000  0.000  0.048  0.000  0.000  0.000  0.000  0.000  0.000  0.048
tot    0.000  0.000  0.096  0.000  0.000  0.000  0.000  0.000  0.000  0.096
 
band    25 # energy   42.95586500 # occ.  0.00000000
 
ion      s     py     pz     px    dxy    dyz    dz2    dxz  x2-y2    tot
    1  0.000  0.000  0.000  0.000  0.000  0.501  0.000  0.000  0.000  0.501
    2  0.000  0.000  0.000  0.000  0.000  0.501  0.000  0.000  0.000  0.501
tot    0.000  0.000  0.000  0.000  0.000  1.002  0.000  0.000  0.000  1.002
 
band    26 # energy   42.95586545 # occ.  0.00000000
 
ion      s     py     pz     px    dxy    dyz    dz2    dxz  x2-y2    tot
    1  0.000  0.000  0.000  0.000  0.000  0.000  0.000  0.501  0.000  0.501
    2  0.000  0.000  0.000  0.000  0.000  0.000  0.000  0.501  0.000  0.501
tot    0.000  0.000  0.000  0.000  0.000  0.000  0.000  1.002  0.000  1.002
 
band    27 # energy   43.54878824 # occ.  0.00000000
 
ion      s     py     pz     px    dxy    dyz    dz2    dxz  x2-y2    tot
    1  0.000  0.000  0.354  0.000  0.000  0.000  0.000  0.000  0.000  0.354
    2  0.000  0.000  0.354  0.000  0.000  0.000  0.000  0.000  0.000  0.354
tot    0.000  0.000  0.707  0.000  0.000  0.000  0.000  0.000  0.000  0.707
 
band    28 # energy   45.11616474 # occ.  0.00000000
 
ion      s     py     pz     px    dxy    dyz    dz2    dxz  x2-y2    tot
    1  0.000  0.045  0.000  0.059  0.306  0.000  0.000  0.000  0.235  0.646
    2  0.000  0.045  0.000  0.059  0.306  0.000  0.000  0.000  0.235  0.646
tot    0.000  0.091  0.000  0.118  0.613  0.000  0.000  0.000  0.470  1.292
 

 k-point     2 :    0.08333333 0.00000000 0.00000000     weight = 0.00520833

band     1 # energy    1.36730823 # occ.  1.00000000
 
ion      s     py     pz     px    dxy    dyz    dz2    dxz  x2-y2    tot
    1  0.344  0.002  0.000  0.006  0.000  0.000  0.000  0.000  0.000  0.352
    2  0.344  0.002  0.000  0.006  0.000  0.000  0.000  0.000  0.000  0.352
tot    0.687  0.004  0.000  0.012  0.000  0.000  0.000  0.000  0.000  0.704
 
band     2 # energy    5.00423833 # occ.  1.00000000
 
ion      s     py     pz     px    dxy    dyz    dz2    dxz  x2-y2    tot
    1  0.070  0.001  0.000  0.004  0.002  0.000  0.366  0.000  0.001  0.443
    2  0.070  0.001  0.000  0.004  0.002  0.000  0.366  0.000  0.001  0.443
tot    0.139  0.002  0.000  0.007  0.004  0.000  0.732  0.000  0.001  0.886
 
band     3 # energy    7.08413809 # occ.  1.00000000
 
ion      s     py     pz     px    dxy    dyz    dz2    dxz  x2-y2    tot
    1  0.000  0.000  0.000  0.001  0.236  0.000  0.163  0.000  0.079  0.480
    2  0.000  0.000  0.000  0.001  0.236  0.000  0.163  0.000  0.079  0.480
tot    0.000  0.001  0.000  0.002  0.473  0.000  0.326  0.000  0.158  0.959
 
band     4 # energy    7.41388825 # occ.  1.00000000
 
ion      s     py     pz     px    dxy    dyz    dz2    dxz  x2-y2    tot
    1  0.000  0.001  0.000  0.000  0.120  0.000  0.000  0.000  0.361  0.482
    2  0.000  0.001  0.000  0.000  0.120  0.000  0.000  0.000  0.361  0.482
tot    0.000  0.001  0.000  0.000  0.241  0.000  0.000  0.000  0.722  0.964
 
band     5 # energy    7.48286182 # occ.  1.00000000
 
ion      s     py     pz     px    dxy    dyz    dz2    dxz  x2-y2    tot
    1  0.000  0.000  0.000  0.000  0.152  0.000  0.281  0.000  0.051  0.485
    2  0.000  0.000  0.000  0.000  0.152  0.000  0.281  0.000  0.051  0.485
tot    0.000  0.000  0.000  0.001  0.305  0.000  0.563  0.000  0.102  0.970
 
band     6 # energy    7.56301872 # occ.  1.00000000
 
ion      s     py     pz     px    dxy    dyz    dz2    dxz  x2-y2    tot
    1  0.001  0.000  0.000  0.000  0.331  0.000  0.042  0.000  0.110  0.485
    2  0.001  0.000  0.000  0.000  0.331  0.000  0.042  0.000  0.110  0.485
tot    0.002  0.000  0.000  0.001  0.662  0.000  0.084  0.000  0.221  0.970
 
band     7 # energy    7.70092917 # occ.  1.00000000
 
ion      s     py     pz     px    dxy    dyz    dz2    dxz  x2-y2    tot
    1  0.000  0.001  0.000  0.000  0.121  0.000  0.000  0.000  0.364  0.487
    2  0.000  0.001  0.000  0.000  0.121  0.000  0.000  0.000  0.364  0.487
tot    0.000  0.002  0.000  0.001  0.243  0.000  0.000  0.000  0.728  0.973
 
band     8 # energy    7.79222418 # occ.  1.00000000
 
ion      s     py     pz     px    dxy    dyz    dz2    dxz  x2-y2    tot
    1  0.000  0.000  0.010  0.000  0.000  0.118  0.000  0.354  0.000  0.482
    2  0.000  0.000  0.010  0.000  0.000  0.118  0.000  0.354  0.000  0.482
tot    0.000  0.000  0.019  0.000  0.000  0.236  0.000  0.708  0.000  0.963
 
band     9 # energy    7.86322662 # occ.  1.00000000
 
ion      s     py     pz     px    dxy    dyz    dz2    dxz  x2-y2    tot
    1  0.000  0.000  0.000  0.000  0.000  0.366  0.000  0.122  0.000  0.488
    2  0.000  0.000  0.000  0.000  0.000  0.366  0.000  0.122  0.000  0.488
tot    0.000  0.000  0.000  0.000  0.000  0.732  0.000  0.244  0.000  0.976
 
band    10 # energy    8.29065684 # occ.  1.00000000
 
ion      s     py     pz     px    dxy    dyz    dz2    dxz  x2-y2    tot
    1  0.000  0.000  0.080  0.000  0.000  0.092  0.000  0.277  0.000  0.449
    2  0.000  0.000  0.080  0.000  0.000  0.092  0.000  0.277  0.000  0.449
tot    0.000  0.000  0.160  0.000  0.000  0.185  0.000  0.554  0.000  0.898
 
band    11 # energy    9.02222766 # occ.  1.00000000
 
ion      s     py     pz     px    dxy    dyz    dz2    dxz  x2-y2    tot
    1  0.000  0.000  0.000  0.000  0.000  0.370  0.000  0.123  0.000  0.493
    2  0.000  0.000  0.000  0.000  0.000  0.370  0.000  0.123  0.000  0.493
tot    0.000  0.000  0.000  0.000  0.000  0.739  0.000  0.246  0.000  0.986
 
band    12 # energy   10.86106162 # occ.  0.00000000
 
ion      s     py     pz     px    dxy    dyz    dz2    dxz  x2-y2    tot
    1  0.000  0.000  0.241  0.000  0.000  0.036  0.000  0.107  0.000  0.385
    2  0.000  0.000  0.241  0.000  0.000  0.036  0.000  0.107  0.000  0.385
tot    0.000  0.000  0.483  0.000  0.000  0.072  0.000  0.215  0.000  0.769
 
band    13 # energy   16.07133706 # occ.  0.00000000
 
ion      s     py     pz     px    dxy    dyz    dz2    dxz  x2-y2    tot
    1  0.219  0.002  0.000  0.005  0.000  0.000  0.217  0.000  0.000  0.443
    2  0.219  0.002  0.000  0.005  0.000  0.000  0.217  0.000  0.000  0.443
tot    0.438  0.003  0.000  0.010  0.000  0.000  0.434  0.000  0.000  0.886
 
band    14 # energy   29.63945085 # occ.  0.00000000
 
ion      s     py     pz     px    dxy    dyz    dz2    dxz  x2-y2    tot
    1  0.015  0.026  0.000  0.078  0.107  0.000  0.023  0.000  0.036  0.284
    2  0.015  0.026  0.000  0.078  0.107  0.000  0.023  0.000  0.036  0.284
tot    0.029  0.052  0.000  0.155  0.215  0.000  0.046  0.000  0.072  0.568
 
band    15 # energy   31.81583762 # occ.  0.00000000
 
ion      s     py     pz     px    dxy    dyz    dz2    dxz  x2-y2    tot
    1  0.000  0.176  0.000  0.059  0.039  0.000  0.000  0.000  0.118  0.392
    2  0.000  0.176  0.000  0.059  0.039  0.000  0.000  0.000  0.118  0.392
tot    0.000  0.352  0.000  0.117  0.079  0.000  0.000  0.000  0.236  0.784
 
band    16 # energy   31.95863190 # occ.  0.00000000
 
ion      s     py     pz     px    dxy    dyz    dz2    dxz  x2-y2    tot
    1  0.021  0.021  0.000  0.063  0.060  0.000  0.039  0.000  0.020  0.224
    2  0.021  0.021  0.000  0.063  0.060  0.000  0.039  0.000  0.020  0.224
tot    0.043  0.042  0.000  0.126  0.120  0.000  0.078  0.000  0.040  0.449
 
band    17 # energy   35.12183006 # occ.  0.00000000
 
ion      s     py     pz     px    dxy    dyz    dz2    dxz  x2-y2    tot
    1  0.000  0.000  0.011  0.000  0.000  0.012  0.000  0.037  0.000  0.060
    2  0.000  0.000  0.011  0.000  0.000  0.012  0.000  0.037  0.000  0.060
tot    0.000  0.000  0.022  0.000  0.000  0.024  0.000  0.073  0.000  0.119
 
band    18 # energy   35.46003002 # occ.  0.00000000
 
ion      s     py     pz     px    dxy    dyz    dz2    dxz  x2-y2    tot
    1  0.004  0.015  0.000  0.046  0.036  0.000  0.036  0.000  0.012  0.149
    2  0.004  0.015  0.000  0.046  0.036  0.000  0.036  0.000  0.012  0.149
tot    0.008  0.030  0.000  0.091  0.073  0.000  0.071  0.000  0.024  0.298
 
band    19 # energy   36.84194101 # occ.  0.00000000
 
ion      s     py     pz     px    dxy    dyz    dz2    dxz  x2-y2    tot
    1  0.000  0.000  0.032  0.000  0.000  0.028  0.000  0.083  0.000  0.143
    2  0.000  0.000  0.032  0.000  0.000  0.028  0.000  0.083  0.000  0.143
tot    0.000  0.000  0.064  0.000  0.000  0.055  0.000  0.166  0.000  0.285
 
band    20 # energy   37.55904785 # occ.  0.00000000
 
ion      s     py     pz     px    dxy    dyz    dz2    dxz  x2-y2    tot
    1  0.000  0.086  0.000  0.029  0.082  0.000  0.000  0.000  0.246  0.443
    2  0.000  0.086  0.000  0.029  0.082  0.000  0.000  0.000  0.246  0.443
tot    0.000  0.172  0.000  0.057  0.164  0.000  0.000  0.000  0.493  0.886
 
band    21 # energy   38.32056600 # occ.  0.00000000
 
ion      s     py     pz     px    dxy    dyz    dz2    dxz  x2-y2    tot
    1  0.006  0.040  0.000  0.120  0.115  0.000  0.006  0.000  0.038  0.325
    2  0.006  0.040  0.000  0.120  0.115  0.000  0.006  0.000  0.038  0.325
tot    0.012  0.080  0.000  0.239  0.231  0.000  0.012  0.000  0.077  0.651
 
band    22 # energy   39.39782315 # occ.  0.00000000
 
ion      s     py     pz     px    dxy    dyz    dz2    dxz  x2-y2    tot
    1  0.000  0.000  0.000  0.000  0.000  0.184  0.000  0.061  0.000  0.245
    2  0.000  0.000  0.000  0.000  0.000  0.184  0.000  0.061  0.000  0.245
tot    0.000  0.000  0.000  0.000  0.000  0.368  0.000  0.123  0.000  0.491
 
band    23 # energy   40.25961920 # occ.  0.00000000
 
ion      s     py     pz     px    dxy    dyz    dz2    dxz  x2-y2    tot
    1  0.001  0.008  0.000  0.023  0.054  0.000  0.460  0.000  0.018  0.564
    2  0.001  0.008  0.000  0.023  0.054  0.000  0.460  0.000  0.018  0.564
tot    0.003  0.015  0.000  0.046  0.108  0.000  0.920  0.000  0.036  1.128
 
band    24 # energy   40.42398193 # occ.  0.00000000
 
ion      s     py     pz     px    dxy    dyz    dz2    dxz  x2-y2    tot
    1  0.000  0.000  0.202  0.000  0.000  0.039  0.000  0.117  0.000  0.358
    2  0.000  0.000  0.202  0.000  0.000  0.039  0.000  0.117  0.000  0.358
tot    0.000  0.000  0.404  0.000  0.000  0.078  0.000  0.234  0.000  0.716
 
band    25 # energy   42.62114355 # occ.  0.00000000
 
ion      s     py     pz     px    dxy    dyz    dz2    dxz  x2-y2    tot
    1  0.000  0.185  0.000  0.062  0.068  0.000  0.000  0.000  0.204  0.518
    2  0.000  0.185  0.000  0.062  0.068  0.000  0.000  0.000  0.204  0.518
tot    0.000  0.369  0.000  0.123  0.136  0.000  0.000  0.000  0.407  1.035
 
band    26 # energy   42.72945147 # occ.  0.00000000
 
ion      s     py     pz     px    dxy    dyz    dz2    dxz  x2-y2    tot
    1  0.117  0.028  0.000  0.084  0.211  0.000  0.112  0.000  0.070  0.624
    2  0.117  0.028  0.000  0.084  0.211  0.000  0.112  0.000  0.070  0.624
tot    0.234  0.056  0.000  0.169  0.423  0.000  0.225  0.000  0.141  1.248
 
band    27 # energy   43.92655942 # occ.  0.00000000
 
ion      s     py     pz     px    dxy    dyz    dz2    dxz  x2-y2    tot
    1  0.000  0.000  0.000  0.000  0.000  0.289  0.000  0.096  0.000  0.386
    2  0.000  0.000  0.000  0.000  0.000  0.289  0.000  0.096  0.000  0.386
tot    0.000  0.000  0.000  0.000  0.000  0.579  0.000  0.193  0.000  0.772
 
band    28 # energy   44.46613680 # occ.  0.00000000
 
ion      s     py     pz     px    dxy    dyz    dz2    dxz  x2-y2    tot
    1  0.000  0.000  0.061  0.000  0.000  0.015  0.000  0.046  0.000  0.123
    2  0.000  0.000  0.061  0.000  0.000  0.015  0.000  0.046  0.000  0.123
tot    0.000  0.000  0.122  0.000  0.000  0.031  0.000  0.093  0.000  0.246
 

 k-point     3 :    0.16666667 0.00000000 0.00000000     weight = 0.00520833

band     1 # energy    2.05599500 # occ.  1.00000000
 
ion      s     py     pz     px    dxy    dyz    dz2    dxz  x2-y2    tot
    1  0.320  0.007  0.000  0.022  0.002  0.000  0.001  0.000  0.001  0.353
    2  0.320  0.007  0.000  0.022  0.002  0.000  0.001  0.000  0.001  0.353
tot    0.640  0.015  0.000  0.044  0.004  0.000  0.002  0.000  0.001  0.706
 
band     2 # energy    5.34937093 # occ.  1.00000000
 
ion      s     py     pz     px    dxy    dyz    dz2    dxz  x2-y2    tot
    1  0.050  0.004  0.000  0.011  0.019  0.000  0.357  0.000  0.006  0.447
    2  0.050  0.004  0.000  0.011  0.019  0.000  0.357  0.000  0.006  0.447
tot    0.099  0.007  0.000  0.022  0.038  0.000  0.715  0.000  0.013  0.894
 
band     3 # energy    6.82440966 # occ.  1.00000000
 
ion      s     py     pz     px    dxy    dyz    dz2    dxz  x2-y2    tot
    1  0.000  0.001  0.000  0.004  0.264  0.000  0.116  0.000  0.088  0.473
    2  0.000  0.001  0.000  0.004  0.264  0.000  0.116  0.000  0.088  0.473
tot    0.001  0.003  0.000  0.008  0.527  0.000  0.231  0.000  0.176  0.946
 
band     4 # energy    7.13474317 # occ.  1.00000000
 
ion      s     py     pz     px    dxy    dyz    dz2    dxz  x2-y2    tot
    1  0.000  0.000  0.055  0.000  0.000  0.098  0.000  0.295  0.000  0.449
    2  0.000  0.000  0.055  0.000  0.000  0.098  0.000  0.295  0.000  0.449
tot    0.000  0.000  0.110  0.000  0.000  0.197  0.000  0.591  0.000  0.898
 
band     5 # energy    7.40111916 # occ.  1.00000000
 
ion      s     py     pz     px    dxy    dyz    dz2    dxz  x2-y2    tot
    1  0.004  0.000  0.000  0.001  0.315  0.000  0.056  0.000  0.105  0.482
    2  0.004  0.000  0.000  0.001  0.315  0.000  0.056  0.000  0.105  0.482
tot    0.008  0.001  0.000  0.003  0.629  0.000  0.112  0.000  0.210  0.963
 
band     6 # energy    7.69680959 # occ.  1.00000000
 
ion      s     py     pz     px    dxy    dyz    dz2    dxz  x2-y2    tot
    1  0.000  0.000  0.000  0.000  0.000  0.365  0.000  0.122  0.000  0.486
    2  0.000  0.000  0.000  0.000  0.000  0.365  0.000  0.122  0.000  0.486
tot    0.000  0.000  0.000  0.000  0.000  0.729  0.000  0.243  0.000  0.972
 
band     7 # energy    7.71893642 # occ.  1.00000000
 
ion      s     py     pz     px    dxy    dyz    dz2    dxz  x2-y2    tot
    1  0.000  0.001  0.000  0.000  0.120  0.000  0.000  0.000  0.361  0.483
    2  0.000  0.001  0.000  0.000  0.120  0.000  0.000  0.000  0.361  0.483
tot    0.000  0.003  0.000  0.001  0.241  0.000  0.000  0.000  0.722  0.966
 
band     8 # energy    7.77380954 # occ.  1.00000000
 
ion      s     py     pz     px    dxy    dyz    dz2    dxz  x2-y2    tot
    1  0.001  0.000  0.000  0.001  0.113  0.000  0.332  0.000  0.038  0.486
    2  0.001  0.000  0.000  0.001  0.113  0.000  0.332  0.000  0.038  0.486
tot    0.003  0.001  0.000  0.002  0.226  0.000  0.664  0.000  0.075  0.971
 
band     9 # energy    7.91201943 # occ.  1.00000000
 
ion      s     py     pz     px    dxy    dyz    dz2    dxz  x2-y2    tot
    1  0.000  0.000  0.034  0.000  0.000  0.109  0.000  0.328  0.000  0.472
    2  0.000  0.000  0.034  0.000  0.000  0.109  0.000  0.328  0.000  0.472
tot    0.000  0.000  0.068  0.000  0.000  0.219  0.000  0.657  0.000  0.943
 
band    10 # energy    7.96825872 # occ.  1.00000000
 
ion      s     py     pz     px    dxy    dyz    dz2    dxz  x2-y2    tot
    1  0.000  0.001  0.000  0.000  0.121  0.000  0.000  0.000  0.364  0.488
    2  0.000  0.001  0.000  0.000  0.121  0.000  0.000  0.000  0.364  0.488
tot    0.000  0.003  0.000  0.001  0.243  0.000  0.000  0.000  0.729  0.975
 
band    11 # energy    9.08363626 # occ.  1.00000000
 
ion      s     py     pz     px    dxy    dyz    dz2    dxz  x2-y2    tot
    1  0.000  0.000  0.000  0.000  0.000  0.371  0.000  0.124  0.000  0.494
    2  0.000  0.000  0.000  0.000  0.000  0.371  0.000  0.124  0.000  0.494
tot    0.000  0.000  0.000  0.000  0.000  0.741  0.000  0.247  0.000  0.988
 
band    12 # energy   12.40370773 # occ.  0.00000000
 
ion      s     py     pz     px    dxy    dyz    dz2    dxz  x2-y2    tot
    1  0.000  0.000  0.233  0.000  0.000  0.040  0.000  0.121  0.000  0.395
    2  0.000  0.000  0.233  0.000  0.000  0.040  0.000  0.121  0.000  0.395
tot    0.000  0.000  0.466  0.000  0.000  0.081  0.000  0.243  0.000  0.790
 
band    13 # energy   16.22720451 # occ.  0.00000000
 
ion      s     py     pz     px    dxy    dyz    dz2    dxz  x2-y2    tot
    1  0.205  0.008  0.000  0.023  0.001  0.000  0.199  0.000  0.000  0.435
    2  0.205  0.008  0.000  0.023  0.001  0.000  0.199  0.000  0.000  0.435
tot    0.411  0.015  0.000  0.046  0.001  0.000  0.397  0.000  0.000  0.871
 
band    14 # energy   25.82456704 # occ.  0.00000000
 
ion      s     py     pz     px    dxy    dyz    dz2    dxz  x2-y2    tot
    1  0.043  0.037  0.000  0.112  0.111  0.000  0.022  0.000  0.037  0.363
    2  0.043  0.037  0.000  0.112  0.111  0.000  0.022  0.000  0.037  0.363
tot    0.086  0.075  0.000  0.224  0.222  0.000  0.044  0.000  0.074  0.726
 
band    15 # energy   29.47280375 # occ.  0.00000000
 
ion      s     py     pz     px    dxy    dyz    dz2    dxz  x2-y2    tot
    1  0.000  0.190  0.000  0.063  0.030  0.000  0.000  0.000  0.091  0.375
    2  0.000  0.190  0.000  0.063  0.030  0.000  0.000  0.000  0.091  0.375
tot    0.000  0.380  0.000  0.127  0.061  0.000  0.000  0.000  0.183  0.751
 
band    16 # energy   31.04039936 # occ.  0.00000000
 
ion      s     py     pz     px    dxy    dyz    dz2    dxz  x2-y2    tot
    1  0.023  0.005  0.000  0.016  0.139  0.000  0.047  0.000  0.046  0.276
    2  0.023  0.005  0.000  0.016  0.139  0.000  0.047  0.000  0.046  0.276
tot    0.045  0.011  0.000  0.032  0.277  0.000  0.094  0.000  0.092  0.552
 
band    17 # energy   32.93887187 # occ.  0.00000000
 
ion      s     py     pz     px    dxy    dyz    dz2    dxz  x2-y2    tot
    1  0.000  0.000  0.041  0.000  0.000  0.053  0.000  0.158  0.000  0.252
    2  0.000  0.000  0.041  0.000  0.000  0.053  0.000  0.158  0.000  0.252
tot    0.000  0.000  0.083  0.000  0.000  0.105  0.000  0.315  0.000  0.503
 
band    18 # energy   35.22456951 # occ.  0.00000000
 
ion      s     py     pz     px    dxy    dyz    dz2    dxz  x2-y2    tot
    1  0.000  0.000  0.009  0.000  0.000  0.013  0.000  0.039  0.000  0.061
    2  0.000  0.000  0.009  0.000  0.000  0.013  0.000  0.039  0.000  0.061
tot    0.000  0.000  0.018  0.000  0.000  0.026  0.000  0.078  0.000  0.122
 
band    19 # energy   35.80551486 # occ.  0.00000000
 
ion      s     py     pz     px    dxy    dyz    dz2    dxz  x2-y2    tot
    1  0.033  0.040  0.000  0.121  0.051  0.000  0.032  0.000  0.017  0.294
    2  0.033  0.040  0.000  0.121  0.051  0.000  0.032  0.000  0.017  0.294
tot    0.066  0.080  0.000  0.241  0.102  0.000  0.064  0.000  0.034  0.588
 
band    20 # energy   37.93233626 # occ.  0.00000000
 
ion      s     py     pz     px    dxy    dyz    dz2    dxz  x2-y2    tot
    1  0.035  0.039  0.000  0.117  0.000  0.000  0.102  0.000  0.000  0.294
    2  0.035  0.039  0.000  0.117  0.000  0.000  0.102  0.000  0.000  0.294
tot    0.070  0.078  0.000  0.235  0.001  0.000  0.204  0.000  0.000  0.588
 
band    21 # energy   38.54843092 # occ.  0.00000000
 
ion      s     py     pz     px    dxy    dyz    dz2    dxz  x2-y2    tot
    1  0.000  0.000  0.000  0.000  0.000  0.273  0.000  0.091  0.000  0.364
    2  0.000  0.000  0.000  0.000  0.000  0.273  0.000  0.091  0.000  0.364
tot    0.000  0.000  0.000  0.000  0.000  0.546  0.000  0.182  0.000  0.728
 
band    22 # energy   39.11546207 # occ.  0.00000000
 
ion      s     py     pz     px    dxy    dyz    dz2    dxz  x2-y2    tot
    1  0.000  0.000  0.240  0.000  0.000  0.007  0.000  0.020  0.000  0.267
    2  0.000  0.000  0.240  0.000  0.000  0.007  0.000  0.020  0.000  0.267
tot    0.000  0.000  0.480  0.000  0.000  0.014  0.000  0.041  0.000  0.534
 
band    23 # energy   39.65379447 # occ.  0.00000000
 
ion      s     py     pz     px    dxy    dyz    dz2    dxz  x2-y2    tot
    1  0.000  0.064  0.000  0.021  0.100  0.000  0.000  0.000  0.301  0.487
    2  0.000  0.064  0.000  0.021  0.100  0.000  0.000  0.000  0.301  0.487
tot    0.000  0.128  0.000  0.043  0.201  0.000  0.000  0.000  0.602  0.973
 
band    24 # energy   41.04109966 # occ.  0.00000000
 
ion      s     py     pz     px    dxy    dyz    dz2    dxz  x2-y2    tot
    1  0.000  0.220  0.000  0.073  0.028  0.000  0.000  0.000  0.084  0.405
    2  0.000  0.220  0.000  0.073  0.028  0.000  0.000  0.000  0.084  0.405
tot    0.000  0.440  0.000  0.147  0.056  0.000  0.000  0.000  0.168  0.811
 
band    25 # energy   41.55207176 # occ.  0.00000000
 
ion      s     py     pz     px    dxy    dyz    dz2    dxz  x2-y2    tot
    1  0.070  0.007  0.000  0.020  0.053  0.000  0.362  0.000  0.018  0.529
    2  0.070  0.007  0.000  0.020  0.053  0.000  0.362  0.000  0.018  0.529
tot    0.140  0.013  0.000  0.040  0.106  0.000  0.724  0.000  0.035  1.059
 
band    26 # energy   43.72633463 # occ.  0.00000000
 
ion      s     py     pz     px    dxy    dyz    dz2    dxz  x2-y2    tot
    1  0.059  0.002  0.000  0.007  0.193  0.000  0.047  0.000  0.064  0.373
    2  0.059  0.002  0.000  0.007  0.193  0.000  0.047  0.000  0.064  0.373
tot    0.118  0.005  0.000  0.014  0.386  0.000  0.094  0.000  0.129  0.746
 
band    27 # energy   45.94312415 # occ.  0.00000000
 
ion      s     py     pz     px    dxy    dyz    dz2    dxz  x2-y2    tot
    1  2.579  0.002  0.000  0.006  0.030  0.000  0.021  0.000  0.010  2.648