PROCAR lm decomposed
# of k-points:   70         # of bands:   16         # of ions:    2

 k-point     1 :    0.00000000 0.00000000 0.00000000     weight = 0.00125000

band     1 # energy    1.20589284 # occ.  1.00000000
 
ion      s     py     pz     px    dxy    dyz    dz2    dxz  x2-y2    tot
    1  0.356  0.000  0.000  0.000  0.000  0.000  0.000  0.000  0.000  0.356
    2  0.356  0.000  0.000  0.000  0.000  0.000  0.000  0.000  0.000  0.356
tot    0.711  0.000  0.000  0.000  0.000  0.000  0.000  0.000  0.000  0.711
 
band     2 # energy    4.94697415 # occ.  1.00000000
 
ion      s     py     pz     px    dxy    dyz    dz2    dxz  x2-y2    tot
    1  0.079  0.000  0.000  0.000  0.000  0.000  0.365  0.000  0.000  0.444
    2  0.079  0.000  0.000  0.000  0.000  0.000  0.365  0.000  0.000  0.444
tot    0.157  0.000  0.000  0.000  0.000  0.000  0.730  0.000  0.000  0.887
 
band     3 # energy    7.39806802 # occ.  1.00000000
 
ion      s     py     pz     px    dxy    dyz    dz2    dxz  x2-y2    tot
    1  0.000  0.000  0.000  0.000  0.000  0.000  0.485  0.000  0.000  0.485
    2  0.000  0.000  0.000  0.000  0.000  0.000  0.485  0.000  0.000  0.485
tot    0.000  0.000  0.000  0.000  0.000  0.000  0.970  0.000  0.000  0.970
 
band     4 # energy    7.41875362 # occ.  1.00000000
 
ion      s     py     pz     px    dxy    dyz    dz2    dxz  x2-y2    tot
    1  0.000  0.000  0.000  0.000  0.361  0.000  0.000  0.000  0.120  0.482
    2  0.000  0.000  0.000  0.000  0.361  0.000  0.000  0.000  0.120  0.482
tot    0.000  0.000  0.000  0.001  0.722  0.000  0.000  0.000  0.241  0.964
 
band     5 # energy    7.41875496 # occ.  1.00000000
 
ion      s     py     pz     px    dxy    dyz    dz2    dxz  x2-y2    tot
    1  0.000  0.000  0.000  0.000  0.120  0.000  0.000  0.000  0.361  0.482
    2  0.000  0.000  0.000  0.000  0.120  0.000  0.000  0.000  0.361  0.482
tot    0.000  0.001  0.000  0.000  0.241  0.000  0.000  0.000  0.722  0.964
 
band     6 # energy    7.72032321 # occ.  1.00000000
 
ion      s     py     pz     px    dxy    dyz    dz2    dxz  x2-y2    tot
    1  0.000  0.000  0.000  0.001  0.365  0.000  0.000  0.000  0.122  0.487
    2  0.000  0.000  0.000  0.001  0.365  0.000  0.000  0.000  0.122  0.487
tot    0.000  0.000  0.000  0.001  0.729  0.000  0.000  0.000  0.243  0.973
 
band     7 # energy    7.72032458 # occ.  1.00000000
 
ion      s     py     pz     px    dxy    dyz    dz2    dxz  x2-y2    tot
    1  0.000  0.001  0.000  0.000  0.122  0.000  0.000  0.000  0.365  0.487
    2  0.000  0.001  0.000  0.000  0.122  0.000  0.000  0.000  0.365  0.487
tot    0.000  0.001  0.000  0.000  0.243  0.000  0.000  0.000  0.729  0.973
 
band     8 # energy    8.06249081 # occ.  1.00000000
 
ion      s     py     pz     px    dxy    dyz    dz2    dxz  x2-y2    tot
    1  0.000  0.000  0.000  0.000  0.000  0.367  0.000  0.122  0.000  0.489
    2  0.000  0.000  0.000  0.000  0.000  0.367  0.000  0.122  0.000  0.489
tot    0.000  0.000  0.000  0.000  0.000  0.734  0.000  0.245  0.000  0.978
 
band     9 # energy    8.06249124 # occ.  1.00000000
 
ion      s     py     pz     px    dxy    dyz    dz2    dxz  x2-y2    tot
    1  0.000  0.000  0.000  0.000  0.000  0.122  0.000  0.367  0.000  0.489
    2  0.000  0.000  0.000  0.000  0.000  0.122  0.000  0.367  0.000  0.489
tot    0.000  0.000  0.000  0.000  0.000  0.245  0.000  0.734  0.000  0.978
 
band    10 # energy    9.12982654 # occ.  1.00000000
 
ion      s     py     pz     px    dxy    dyz    dz2    dxz  x2-y2    tot
    1  0.000  0.000  0.000  0.000  0.000  0.369  0.000  0.123  0.000  0.492
    2  0.000  0.000  0.000  0.000  0.000  0.369  0.000  0.123  0.000  0.492
tot    0.000  0.000  0.000  0.000  0.000  0.739  0.000  0.246  0.000  0.985
 
band    11 # energy    9.12982715 # occ.  1.00000000
 
ion      s     py     pz     px    dxy    dyz    dz2    dxz  x2-y2    tot
    1  0.000  0.000  0.000  0.000  0.000  0.123  0.000  0.369  0.000  0.492
    2  0.000  0.000  0.000  0.000  0.000  0.123  0.000  0.369  0.000  0.492
tot    0.000  0.000  0.000  0.000  0.000  0.246  0.000  0.739  0.000  0.985
 
band    12 # energy    9.95030500 # occ.  0.79208992
 
ion      s     py     pz     px    dxy    dyz    dz2    dxz  x2-y2    tot
    1  0.000  0.000  0.337  0.000  0.000  0.000  0.000  0.000  0.000  0.337
    2  0.000  0.000  0.337  0.000  0.000  0.000  0.000  0.000  0.000  0.337
tot    0.000  0.000  0.675  0.000  0.000  0.000  0.000  0.000  0.000  0.675
 
band    13 # energy   16.20052702 # occ.  0.00000000
 
ion      s     py     pz     px    dxy    dyz    dz2    dxz  x2-y2    tot
    1  0.224  0.000  0.000  0.000  0.000  0.000  0.225  0.000  0.000  0.449
    2  0.224  0.000  0.000  0.000  0.000  0.000  0.225  0.000  0.000  0.449
tot    0.448  0.000  0.000  0.000  0.000  0.000  0.450  0.000  0.000  0.898
 
band    14 # energy   31.86709047 # occ.  0.00000000
 
ion      s     py     pz     px    dxy    dyz    dz2    dxz  x2-y2    tot
    1  0.007  0.000  0.000  0.000  0.000  0.000  0.032  0.000  0.000  0.039
    2  0.007  0.000  0.000  0.000  0.000  0.000  0.032  0.000  0.000  0.039
tot    0.013  0.000  0.000  0.000  0.000  0.000  0.065  0.000  0.000  0.078
 
band    15 # energy   34.25887957 # occ.  0.00000000
 
ion      s     py     pz     px    dxy    dyz    dz2    dxz  x2-y2    tot
    1  0.000  0.067  0.000  0.204  0.087  0.000  0.000  0.000  0.028  0.386
    2  0.000  0.067  0.000  0.204  0.087  0.000  0.000  0.000  0.028  0.386
tot    0.000  0.133  0.000  0.408  0.173  0.000  0.000  0.000  0.057  0.771
 
band    16 # energy   34.25888473 # occ.  0.00000000
 
ion      s     py     pz     px    dxy    dyz    dz2    dxz  x2-y2    tot
    1  0.000  0.204  0.000  0.067  0.028  0.000  0.000  0.000  0.087  0.386
    2  0.000  0.204  0.000  0.067  0.028  0.000  0.000  0.000  0.087  0.386
tot    0.000  0.408  0.000  0.133  0.057  0.000  0.000  0.000  0.173  0.771
 

 k-point     2 :    0.10000000 0.00000000 0.00000000     weight = 0.00750000

band     1 # energy    1.55052045 # occ.  1.00000000
 
ion      s     py     pz     px    dxy    dyz    dz2    dxz  x2-y2    tot
    1  0.344  0.003  0.000  0.009  0.000  0.000  0.000  0.000  0.000  0.356
    2  0.344  0.003  0.000  0.009  0.000  0.000  0.000  0.000  0.000  0.356
tot    0.688  0.006  0.000  0.017  0.000  0.000  0.000  0.000  0.000  0.712
 
band     2 # energy    5.14815771 # occ.  1.00000000
 
ion      s     py     pz     px    dxy    dyz    dz2    dxz  x2-y2    tot
    1  0.068  0.002  0.000  0.005  0.003  0.000  0.366  0.000  0.001  0.445
    2  0.068  0.002  0.000  0.005  0.003  0.000  0.366  0.000  0.001  0.445
tot    0.136  0.003  0.000  0.010  0.006  0.000  0.732  0.000  0.002  0.891
 
band     3 # energy    7.14060955 # occ.  1.00000000
 
ion      s     py     pz     px    dxy    dyz    dz2    dxz  x2-y2    tot
    1  0.000  0.000  0.000  0.001  0.243  0.000  0.153  0.000  0.081  0.479
    2  0.000  0.000  0.000  0.001  0.243  0.000  0.153  0.000  0.081  0.479
tot    0.000  0.001  0.000  0.002  0.486  0.000  0.306  0.000  0.162  0.958
 
band     4 # energy    7.57630828 # occ.  1.00000000
 
ion      s     py     pz     px    dxy    dyz    dz2    dxz  x2-y2    tot
    1  0.000  0.001  0.000  0.000  0.120  0.000  0.000  0.000  0.361  0.482
    2  0.000  0.001  0.000  0.000  0.120  0.000  0.000  0.000  0.361  0.482
tot    0.000  0.002  0.000  0.001  0.241  0.000  0.000  0.000  0.722  0.965
 
band     5 # energy    7.60366914 # occ.  1.00000000
 
ion      s     py     pz     px    dxy    dyz    dz2    dxz  x2-y2    tot
    1  0.001  0.000  0.000  0.001  0.232  0.000  0.174  0.000  0.077  0.485
    2  0.001  0.000  0.000  0.001  0.232  0.000  0.174  0.000  0.077  0.485
tot    0.001  0.000  0.000  0.001  0.465  0.000  0.347  0.000  0.155  0.970
 
band     6 # energy    7.68344511 # occ.  1.00000000
 
ion      s     py     pz     px    dxy    dyz    dz2    dxz  x2-y2    tot
    1  0.001  0.000  0.000  0.000  0.242  0.000  0.161  0.000  0.081  0.485
    2  0.001  0.000  0.000  0.000  0.242  0.000  0.161  0.000  0.081  0.485
tot    0.002  0.000  0.000  0.001  0.484  0.000  0.323  0.000  0.161  0.970
 
band     7 # energy    7.82461662 # occ.  1.00000000
 
ion      s     py     pz     px    dxy    dyz    dz2    dxz  x2-y2    tot
    1  0.000  0.000  0.024  0.000  0.000  0.112  0.000  0.337  0.000  0.473
    2  0.000  0.000  0.024  0.000  0.000  0.112  0.000  0.337  0.000  0.473
tot    0.000  0.000  0.048  0.000  0.000  0.225  0.000  0.674  0.000  0.946
 
band     8 # energy    7.85962215 # occ.  1.00000000
 
ion      s     py     pz     px    dxy    dyz    dz2    dxz  x2-y2    tot
    1  0.000  0.001  0.000  0.000  0.121  0.000  0.000  0.000  0.364  0.487
    2  0.000  0.001  0.000  0.000  0.121  0.000  0.000  0.000  0.364  0.487
tot    0.000  0.002  0.000  0.001  0.243  0.000  0.000  0.000  0.729  0.974
 
band     9 # energy    7.96625870 # occ.  1.00000000
 
ion      s     py     pz     px    dxy    dyz    dz2    dxz  x2-y2    tot
    1  0.000  0.000  0.000  0.000  0.000  0.366  0.000  0.122  0.000  0.488
    2  0.000  0.000  0.000  0.000  0.000  0.366  0.000  0.122  0.000  0.488
tot    0.000  0.000  0.000  0.000  0.000  0.732  0.000  0.244  0.000  0.976
 
band    10 # energy    8.28201631 # occ.  1.00000000
 
ion      s     py     pz     px    dxy    dyz    dz2    dxz  x2-y2    tot
    1  0.000  0.000  0.072  0.000  0.000  0.096  0.000  0.287  0.000  0.454
    2  0.000  0.000  0.072  0.000  0.000  0.096  0.000  0.287  0.000  0.454
tot    0.000  0.000  0.143  0.000  0.000  0.191  0.000  0.574  0.000  0.909
 
band    11 # energy    9.16981810 # occ.  1.00000000
 
ion      s     py     pz     px    dxy    dyz    dz2    dxz  x2-y2    tot
    1  0.000  0.000  0.000  0.000  0.000  0.370  0.000  0.123  0.000  0.493
    2  0.000  0.000  0.000  0.000  0.000  0.370  0.000  0.123  0.000  0.493
tot    0.000  0.000  0.000  0.000  0.000  0.740  0.000  0.247  0.000  0.987
 
band    12 # energy   11.27480673 # occ.  0.00000000
 
ion      s     py     pz     px    dxy    dyz    dz2    dxz  x2-y2    tot
    1  0.000  0.000  0.237  0.000  0.000  0.039  0.000  0.116  0.000  0.392
    2  0.000  0.000  0.237  0.000  0.000  0.039  0.000  0.116  0.000  0.392
tot    0.000  0.000  0.475  0.000  0.000  0.077  0.000  0.232  0.000  0.784
 
band    13 # energy   16.26552556 # occ.  0.00000000
 
ion      s     py     pz     px    dxy    dyz    dz2    dxz  x2-y2    tot
    1  0.219  0.003  0.000  0.008  0.000  0.000  0.216  0.000  0.000  0.445
    2  0.219  0.003  0.000  0.008  0.000  0.000  0.216  0.000  0.000  0.445
tot    0.437  0.005  0.000  0.015  0.000  0.000  0.432  0.000  0.000  0.890
 
band    14 # energy   29.20116390 # occ.  0.00000000
 
ion      s     py     pz     px    dxy    dyz    dz2    dxz  x2-y2    tot
    1  0.019  0.030  0.000  0.089  0.115  0.000  0.023  0.000  0.038  0.313
    2  0.019  0.030  0.000  0.089  0.115  0.000  0.023  0.000  0.038  0.313
tot    0.038  0.059  0.000  0.178  0.230  0.000  0.045  0.000  0.077  0.626
 
band    15 # energy   31.67968518 # occ.  0.00000000
 
ion      s     py     pz     px    dxy    dyz    dz2    dxz  x2-y2    tot
    1  0.000  0.177  0.000  0.059  0.039  0.000  0.000  0.000  0.116  0.392
    2  0.000  0.177  0.000  0.059  0.039  0.000  0.000  0.000  0.116  0.392
tot    0.000  0.355  0.000  0.118  0.077  0.000  0.000  0.000  0.232  0.783
 
band    16 # energy   32.05972289 # occ.  0.00000000
 
ion      s     py     pz     px    dxy    dyz    dz2    dxz  x2-y2    tot
    1  0.023  0.016  0.000  0.047  0.073  0.000  0.042  0.000  0.024  0.226
    2  0.023  0.016  0.000  0.047  0.073  0.000  0.042  0.000  0.024  0.226
tot    0.046  0.032  0.000  0.095  0.146  0.000  0.084  0.000  0.049  0.451
 

 k-point     3 :    0.20000000 0.00000000 0.00000000     weight = 0.00750000

band     1 # energy    2.52847349 # occ.  1.00000000
 
ion      s     py     pz     px    dxy    dyz    dz2    dxz  x2-y2    tot
    1  0.309  0.010  0.000  0.031  0.005  0.000  0.002  0.000  0.002  0.358
    2  0.309  0.010  0.000  0.031  0.005  0.000  0.002  0.000  0.002  0.358
tot    0.617  0.021  0.000  0.062  0.009  0.000  0.004  0.000  0.003  0.717
 
band     2 # energy    5.58424799 # occ.  1.00000000
 
ion      s     py     pz     px    dxy    dyz    dz2    dxz  x2-y2    tot
    1  0.040  0.004  0.000  0.013  0.041  0.000  0.339  0.000  0.014  0.451
    2  0.040  0.004  0.000  0.013  0.041  0.000  0.339  0.000  0.014  0.451
tot    0.080  0.009  0.000  0.026  0.082  0.000  0.677  0.000  0.027  0.903
 
band     3 # energy    6.84129922 # occ.  1.00000000
 
ion      s     py     pz     px    dxy    dyz    dz2    dxz  x2-y2    tot
    1  0.001  0.003  0.000  0.008  0.258  0.000  0.114  0.000  0.086  0.469
    2  0.001  0.003  0.000  0.008  0.258  0.000  0.114  0.000  0.086  0.469
tot    0.001  0.005  0.000  0.016  0.516  0.000  0.229  0.000  0.172  0.939
 
band     4 # energy    6.93844002 # occ.  1.00000000
 
ion      s     py     pz     px    dxy    dyz    dz2    dxz  x2-y2    tot
    1  0.000  0.000  0.057  0.000  0.000  0.097  0.000  0.292  0.000  0.446
    2  0.000  0.000  0.057  0.000  0.000  0.097  0.000  0.292  0.000  0.446
tot    0.000  0.000  0.113  0.000  0.000  0.195  0.000  0.584  0.000  0.892
 
band     5 # energy    7.45710500 # occ.  1.00000000
 
ion      s     py     pz     px    dxy    dyz    dz2    dxz  x2-y2    tot
    1  0.006  0.001  0.000  0.002  0.298  0.000  0.073  0.000  0.099  0.480
    2  0.006  0.001  0.000  0.002  0.298  0.000  0.073  0.000  0.099  0.480
tot    0.013  0.001  0.000  0.004  0.597  0.000  0.147  0.000  0.199  0.960
 
band     6 # energy    7.74461695 # occ.  1.00000000
 
ion      s     py     pz     px    dxy    dyz    dz2    dxz  x2-y2    tot
    1  0.000  0.000  0.000  0.000  0.000  0.364  0.000  0.121  0.000  0.485
    2  0.000  0.000  0.000  0.000  0.000  0.364  0.000  0.121  0.000  0.485
tot    0.000  0.000  0.000  0.000  0.000  0.728  0.000  0.243  0.000  0.971
 
band     7 # energy    7.95069140 # occ.  1.00000000
 
ion      s     py     pz     px    dxy    dyz    dz2    dxz  x2-y2    tot
    1  0.000  0.000  0.029  0.000  0.000  0.111  0.000  0.334  0.000  0.474
    2  0.000  0.000  0.029  0.000  0.000  0.111  0.000  0.334  0.000  0.474
tot    0.000  0.000  0.057  0.000  0.000  0.223  0.000  0.668  0.000  0.949
 
band     8 # energy    8.00771917 # occ.  1.00000000
 
ion      s     py     pz     px    dxy    dyz    dz2    dxz  x2-y2    tot
    1  0.000  0.002  0.000  0.001  0.120  0.000  0.000  0.000  0.361  0.484
    2  0.000  0.002  0.000  0.001  0.120  0.000  0.000  0.000  0.361  0.484
tot    0.000  0.003  0.000  0.001  0.241  0.000  0.000  0.000  0.723  0.968
 
band     9 # energy    8.02921722 # occ.  1.00000000
 
ion      s     py     pz     px    dxy    dyz    dz2    dxz  x2-y2    tot
    1  0.003  0.001  0.000  0.002  0.106  0.000  0.339  0.000  0.035  0.486
    2  0.003  0.001  0.000  0.002  0.106  0.000  0.339  0.000  0.035  0.486
tot    0.005  0.001  0.000  0.004  0.211  0.000  0.679  0.000  0.070  0.971
 
band    10 # energy    8.23686467 # occ.  1.00000000
 
ion      s     py     pz     px    dxy    dyz    dz2    dxz  x2-y2    tot
    1  0.000  0.002  0.000  0.001  0.122  0.000  0.000  0.000  0.365  0.488
    2  0.000  0.002  0.000  0.001  0.122  0.000  0.000  0.000  0.365  0.488
tot    0.000  0.003  0.000  0.001  0.243  0.000  0.000  0.000  0.729  0.977
 
band    11 # energy    9.24531091 # occ.  1.00000000
 
ion      s     py     pz     px    dxy    dyz    dz2    dxz  x2-y2    tot
    1  0.000  0.000  0.000  0.000  0.000  0.371  0.000  0.124  0.000  0.495
    2  0.000  0.000  0.000  0.000  0.000  0.371  0.000  0.124  0.000  0.495
tot    0.000  0.000  0.000  0.000  0.000  0.742  0.000  0.247  0.000  0.989
 
band    12 # energy   13.22787015 # occ.  0.00000000
 
ion      s     py     pz     px    dxy    dyz    dz2    dxz  x2-y2    tot
    1  0.000  0.000  0.235  0.000  0.000  0.041  0.000  0.123  0.000  0.399
    2  0.000  0.000  0.235  0.000  0.000  0.041  0.000  0.123  0.000  0.399
tot    0.000  0.000  0.470  0.000  0.000  0.082  0.000  0.246  0.000  0.799
 
band    13 # energy   16.50185052 # occ.  0.00000000
 
ion      s     py     pz     px    dxy    dyz    dz2    dxz  x2-y2    tot
    1  0.196  0.012  0.000  0.035  0.001  0.000  0.190  0.000  0.000  0.434
    2  0.196  0.012  0.000  0.035  0.001  0.000  0.190  0.000  0.000  0.434
tot    0.392  0.024  0.000  0.071  0.001  0.000  0.380  0.000  0.000  0.868
 
band    14 # energy   24.59914892 # occ.  0.00000000
 
ion      s     py     pz     px    dxy    dyz    dz2    dxz  x2-y2    tot
    1  0.059  0.038  0.000  0.113  0.109  0.000  0.021  0.000  0.036  0.377
    2  0.059  0.038  0.000  0.113  0.109  0.000  0.021  0.000  0.036  0.377
tot    0.119  0.075  0.000  0.226  0.218  0.000  0.042  0.000  0.073  0.753
 
band    15 # energy   28.94394189 # occ.  0.00000000
 
ion      s     py     pz     px    dxy    dyz    dz2    dxz  x2-y2    tot
    1  0.000  0.197  0.000  0.066  0.027  0.000  0.000  0.000  0.081  0.370
    2  0.000  0.197  0.000  0.066  0.027  0.000  0.000  0.000  0.081  0.370
tot    0.000  0.394  0.000  0.131  0.054  0.000  0.000  0.000  0.161  0.740
 
band    16 # energy   30.93226996 # occ.  0.00000000
 
ion      s     py     pz     px    dxy    dyz    dz2    dxz  x2-y2    tot
    1  0.016  0.004  0.000  0.013  0.175  0.000  0.046  0.000  0.058  0.312
    2  0.016  0.004  0.000  0.013  0.175  0.000  0.046  0.000  0.058  0.312
tot    0.033  0.008  0.000  0.025  0.350  0.000  0.092  0.000  0.117  0.625
 

 k-point     4 :    0.30000000 0.00000000 0.00000000     weight = 0.00750000

band     1 # energy    3.89807431 # occ.  1.00000000
 
ion      s     py     pz     px    dxy    dyz    dz2    dxz  x2-y2    tot
    1  0.240  0.017  0.000  0.052  0.037  0.000  0.011  0.000  0.012  0.371
    2  0.240  0.017  0.000  0.052  0.037  0.000  0.011  0.000  0.012  0.371
tot    0.481  0.035  0.000  0.105  0.074  0.000  0.022  0.000  0.025  0.741
 
band     2 # energy    5.70874863 # occ.  1.00000000
 
ion      s     py     pz     px    dxy    dyz    dz2    dxz  x2-y2    tot
    1  0.016  0.002  0.000  0.006  0.178  0.000  0.199  0.000  0.059  0.460
    2  0.016  0.002  0.000  0.006  0.178  0.000  0.199  0.000  0.059  0.460
tot    0.032  0.004  0.000  0.011  0.356  0.000  0.398  0.000  0.119  0.920
 
band     3 # energy    6.20326659 # occ.  1.00000000
 
ion      s     py     pz     px    dxy    dyz    dz2    dxz  x2-y2    tot
    1  0.000  0.000  0.039  0.000  0.000  0.101  0.000  0.304  0.000  0.445
    2  0.000  0.000  0.039  0.000  0.000  0.101  0.000  0.304  0.000  0.445
tot    0.000  0.000  0.078  0.000  0.000  0.203  0.000  0.608  0.000  0.889
 
band     4 # energy    6.81846383 # occ.  1.00000000
 
ion      s     py     pz     px    dxy    dyz    dz2    dxz  x2-y2    tot
    1  0.004  0.012  0.000  0.036  0.196  0.000  0.139  0.000  0.065  0.452
    2  0.004  0.012  0.000  0.036  0.196  0.000  0.139  0.000  0.065  0.452
tot    0.007  0.024  0.000  0.071  0.392  0.000  0.278  0.000  0.131  0.903
 
band     5 # energy    7.46990389 # occ.  1.00000000
 
ion      s     py     pz     px    dxy    dyz    dz2    dxz  x2-y2    tot
    1  0.010  0.002  0.000  0.007  0.176  0.000  0.222  0.000  0.059  0.477
    2  0.010  0.002  0.000  0.007  0.176  0.000  0.222  0.000  0.059  0.477
tot    0.021  0.005  0.000  0.015  0.352  0.000  0.444  0.000  0.117  0.954
 
band     6 # energy    7.50694876 # occ.  1.00000000
 
ion      s     py     pz     px    dxy    dyz    dz2    dxz  x2-y2    tot
    1  0.000  0.000  0.000  0.000  0.000  0.362  0.000  0.121  0.000  0.483
    2  0.000  0.000  0.000  0.000  0.000  0.362  0.000  0.121  0.000  0.483
tot    0.000  0.000  0.000  0.000  0.000  0.725  0.000  0.242  0.000  0.967
 
band     7 # energy    7.72842354 # occ.  1.00000000
 
ion      s     py     pz     px    dxy    dyz    dz2    dxz  x2-y2    tot
    1  0.000  0.000  0.026  0.000  0.000  0.112  0.000  0.336  0.000  0.474
    2  0.000  0.000  0.026  0.000  0.000  0.112  0.000  0.336  0.000  0.474
tot    0.000  0.000  0.052  0.000  0.000  0.224  0.000  0.672  0.000  0.948
 
band     8 # energy    8.58214486 # occ.  1.00000000
 
ion      s     py     pz     px    dxy    dyz    dz2    dxz  x2-y2    tot
    1  0.000  0.001  0.000  0.000  0.122  0.000  0.000  0.000  0.365  0.488
    2  0.000  0.001  0.000  0.000  0.122  0.000  0.000  0.000  0.365  0.488
tot    0.000  0.003  0.000  0.001  0.243  0.000  0.000  0.000  0.729  0.976
 
band     9 # energy    8.66449488 # occ.  1.00000000
 
ion      s     py     pz     px    dxy    dyz    dz2    dxz  x2-y2    tot
    1  0.012  0.003  0.000  0.010  0.103  0.000  0.319  0.000  0.034  0.482
    2  0.012  0.003  0.000  0.010  0.103  0.000  0.319  0.000  0.034  0.482
tot    0.023  0.007  0.000  0.021  0.207  0.000  0.638  0.000  0.069  0.965
 
band    10 # energy    8.73877781 # occ.  1.00000000
 
ion      s     py     pz     px    dxy    dyz    dz2    dxz  x2-y2    tot
    1  0.000  0.002  0.000  0.001  0.122  0.000  0.000  0.000  0.366  0.491
    2  0.000  0.002  0.000  0.001  0.122  0.000  0.000  0.000  0.366  0.491
tot    0.000  0.005  0.000  0.002  0.244  0.000  0.000  0.000  0.732  0.982
 
band    11 # energy    9.30491609 # occ.  1.00000000
 
ion      s     py     pz     px    dxy    dyz    dz2    dxz  x2-y2    tot
    1  0.000  0.000  0.000  0.000  0.000  0.372  0.000  0.124  0.000  0.496
    2  0.000  0.000  0.000  0.000  0.000  0.372  0.000  0.124  0.000  0.496
tot    0.000  0.000  0.000  0.000  0.000  0.743  0.000  0.248  0.000  0.991
 
band    12 # energy   15.45639425 # occ.  0.00000000
 
ion      s     py     pz     px    dxy    dyz    dz2    dxz  x2-y2    tot
    1  0.000  0.000  0.239  0.000  0.000  0.040  0.000  0.121  0.000  0.401
    2  0.000  0.000  0.239  0.000  0.000  0.040  0.000  0.121  0.000  0.401
tot    0.000  0.000  0.478  0.000  0.000  0.081  0.000  0.242  0.000  0.802
 
band    13 # energy   16.87614560 # occ.  0.00000000
 
ion      s     py     pz     px    dxy    dyz    dz2    dxz  x2-y2    tot
    1  0.112  0.037  0.000  0.112  0.000  0.000  0.155  0.000  0.000  0.416
    2  0.112  0.037  0.000  0.112  0.000  0.000  0.155  0.000  0.000  0.416
tot    0.223  0.075  0.000  0.224  0.000  0.000  0.310  0.000  0.000  0.833
 
band    14 # energy   20.50079497 # occ.  0.00000000
 
ion      s     py     pz     px    dxy    dyz    dz2    dxz  x2-y2    tot
    1  0.156  0.024  0.000  0.071  0.100  0.000  0.011  0.000  0.033  0.396
    2  0.156  0.024  0.000  0.071  0.100  0.000  0.011  0.000  0.033  0.396
tot    0.312  0.047  0.000  0.142  0.201  0.000  0.022  0.000  0.067  0.791
 
band    15 # energy   26.72643085 # occ.  0.00000000
 
ion      s     py     pz     px    dxy    dyz    dz2    dxz  x2-y2    tot
    1  0.000  0.217  0.000  0.072  0.014  0.000  0.000  0.000  0.043  0.346
    2  0.000  0.217  0.000  0.072  0.014  0.000  0.000  0.000  0.043  0.346
tot    0.000  0.434  0.000  0.145  0.028  0.000  0.000  0.000  0.085  0.692
 
band    16 # energy   27.98247582 # occ.  0.00000000
 
ion      s     py     pz     px    dxy    dyz    dz2    dxz  x2-y2    tot
    1  0.000  0.000  0.091  0.000  0.000  0.060  0.000  0.179  0.000  0.330
    2  0.000  0.000  0.091  0.000  0.000  0.060  0.000  0.179  0.000  0.330
tot    0.000  0.000  0.181  0.000  0.000  0.120  0.000  0.359  0.000  0.659
 

 k-point     5 :    0.40000000 0.00000000 0.00000000     weight = 0.00750000

band     1 # energy    4.98152166 # occ.  1.00000000
 
ion      s     py     pz     px    dxy    dyz    dz2    dxz  x2-y2    tot
    1  0.126  0.012  0.000  0.035  0.157  0.000  0.031  0.000  0.052  0.413
    2  0.126  0.012  0.000  0.035  0.157  0.000  0.031  0.000  0.052  0.413
tot    0.252  0.023  0.000  0.070  0.314  0.000  0.061  0.000  0.105  0.826
 
band     2 # energy    5.50010701 # occ.  1.00000000
 
ion      s     py     pz     px    dxy    dyz    dz2    dxz  x2-y2    tot
    1  0.018  0.000  0.000  0.001  0.243  0.000  0.114  0.000  0.081  0.458
    2  0.018  0.000  0.000  0.001  0.243  0.000  0.114  0.000  0.081  0.458
tot    0.036  0.001  0.000  0.003  0.487  0.000  0.228  0.000  0.162  0.917
 
band     3 # energy    5.76022115 # occ.  1.00000000
 
ion      s     py     pz     px    dxy    dyz    dz2    dxz  x2-y2    tot
    1  0.000  0.000  0.022  0.000  0.000  0.106  0.000  0.318  0.000  0.446
    2  0.000  0.000  0.022  0.000  0.000  0.106  0.000  0.318  0.000  0.446
tot    0.000  0.000  0.044  0.000  0.000  0.212  0.000  0.636  0.000  0.892
 
band     4 # energy    7.18327273 # occ.  1.00000000
 
ion      s     py     pz     px    dxy    dyz    dz2    dxz  x2-y2    tot
    1  0.025  0.026  0.000  0.079  0.094  0.000  0.168  0.000  0.031  0.423
    2  0.025  0.026  0.000  0.079  0.094  0.000  0.168  0.000  0.031  0.423
tot    0.049  0.053  0.000  0.158  0.187  0.000  0.335  0.000  0.062  0.845
 
band     5 # energy    7.33267697 # occ.  1.00000000
 
ion      s     py     pz     px    dxy    dyz    dz2    dxz  x2-y2    tot
    1  0.000  0.000  0.000  0.000  0.000  0.362  0.000  0.121  0.000  0.482
    2  0.000  0.000  0.000  0.000  0.000  0.362  0.000  0.121  0.000  0.482
tot    0.000  0.000  0.000  0.000  0.000  0.723  0.000  0.241  0.000  0.964
 
band     6 # energy    7.56124264 # occ.  1.00000000
 
ion      s     py     pz     px    dxy    dyz    dz2    dxz  x2-y2    tot
    1  0.000  0.000  0.027  0.000  0.000  0.111  0.000  0.334  0.000  0.473
    2  0.000  0.000  0.027  0.000  0.000  0.111  0.000  0.334  0.000  0.473
tot    0.000  0.000  0.055  0.000  0.000  0.223  0.000  0.668  0.000  0.945
 
band     7 # energy    7.71078610 # occ.  1.00000000
 
ion      s     py     pz     px    dxy    dyz    dz2    dxz  x2-y2    tot
    1  0.003  0.005  0.000  0.014  0.076  0.000  0.356  0.000  0.025  0.479
    2  0.003  0.005  0.000  0.014  0.076  0.000  0.356  0.000  0.025  0.479
tot    0.006  0.009  0.000  0.028  0.152  0.000  0.713  0.000  0.051  0.958
 
band     8 # energy    9.06867523 # occ.  1.00000000
 
ion      s     py     pz     px    dxy    dyz    dz2    dxz  x2-y2    tot
    1  0.000  0.000  0.000  0.000  0.123  0.000  0.000  0.000  0.370  0.493
    2  0.000  0.000  0.000  0.000  0.123  0.000  0.000  0.000  0.370  0.493
tot    0.000  0.000  0.000  0.000  0.246  0.000  0.000  0.000  0.739  0.986
 
band     9 # energy    9.19841524 # occ.  1.00000000
 
ion      s     py     pz     px    dxy    dyz    dz2    dxz  x2-y2    tot
    1  0.000  0.001  0.000  0.000  0.123  0.000  0.000  0.000  0.369  0.494
    2  0.000  0.001  0.000  0.000  0.123  0.000  0.000  0.000  0.369  0.494
tot    0.000  0.003  0.000  0.001  0.246  0.000  0.000  0.000  0.739  0.989
 
band    10 # energy    9.33663629 # occ.  1.00000000
 
ion      s     py     pz     px    dxy    dyz    dz2    dxz  x2-y2    tot
    1  0.000  0.000  0.000  0.000  0.000  0.372  0.000  0.124  0.000  0.496
    2  0.000  0.000  0.000  0.000  0.000  0.372  0.000  0.124  0.000  0.496
tot    0.000  0.000  0.000  0.000  0.000  0.744  0.000  0.248  0.000  0.992
 
band    11 # energy    9.81666601 # occ.  0.99999782
 
ion      s     py     pz     px    dxy    dyz    dz2    dxz  x2-y2    tot
    1  0.036  0.014  0.000  0.043  0.099  0.000  0.238  0.000  0.033  0.463
    2  0.036  0.014  0.000  0.043  0.099  0.000  0.238  0.000  0.033  0.463
tot    0.072  0.029  0.000  0.086  0.198  0.000  0.476  0.000  0.066  0.926
 
band    12 # energy   15.45543462 # occ.  0.00000000
 
ion      s     py     pz     px    dxy    dyz    dz2    dxz  x2-y2    tot
    1  0.032  0.055  0.000  0.165  0.046  0.000  0.100  0.000  0.015  0.412
    2  0.032  0.055  0.000  0.165  0.046  0.000  0.100  0.000  0.015  0.412
tot    0.063  0.110  0.000  0.329  0.092  0.000  0.199  0.000  0.031  0.825
 
band    13 # energy   17.85909663 # occ.  0.00000000
 
ion      s     py     pz     px    dxy    dyz    dz2    dxz  x2-y2    tot
    1  0.000  0.000  0.246  0.000  0.000  0.038  0.000  0.115  0.000  0.399
    2  0.000  0.000  0.246  0.000  0.000  0.038  0.000  0.115  0.000  0.399
tot    0.000  0.000  0.491  0.000  0.000  0.077  0.000  0.230  0.000  0.798
 
band    14 # energy   19.29584518 # occ.  0.00000000
 
ion      s     py     pz     px    dxy    dyz    dz2    dxz  x2-y2    tot
    1  0.223  0.017  0.000  0.051  0.061  0.000  0.021  0.000  0.020  0.393
    2  0.223  0.017  0.000  0.051  0.061  0.000  0.021  0.000  0.020  0.393
tot    0.446  0.034  0.000  0.101  0.122  0.000  0.043  0.000  0.041  0.787
 
band    15 # energy   24.61745729 # occ.  0.00000000
 
ion      s     py     pz     px    dxy    dyz    dz2    dxz  x2-y2    tot
    1  0.000  0.000  0.112  0.000  0.000  0.063  0.000  0.189  0.000  0.364
    2  0.000  0.000  0.112  0.000  0.000  0.063  0.000  0.189  0.000  0.364
tot    0.000  0.000  0.223  0.000  0.000  0.126  0.000  0.378  0.000  0.728
 
band    16 # energy   25.23328374 # occ.  0.00000000
 
ion      s     py     pz     px    dxy    dyz    dz2    dxz  x2-y2    tot
    1  0.000  0.232  0.000  0.077  0.004  0.000  0.000  0.000  0.012  0.326
    2  0.000  0.232  0.000  0.078  0.004  0.000  0.000  0.000  0.012  0.326
tot    0.000  0.465  0.000  0.155  0.008  0.000  0.000  0.000  0.024  0.652
 

 k-point     6 :    0.50000000 0.00000000 0.00000000     weight = 0.00375000

band     1 # energy    5.32208586 # occ.  1.00000000
 
ion      s     py     pz     px    dxy    dyz    dz2    dxz  x2-y2    tot
    1  0.009  0.000  0.000  0.001  0.261  0.000  0.095  0.000  0.087  0.453
    2  0.009  0.000  0.000  0.001  0.261  0.000  0.095  0.000  0.087  0.453
tot    0.018  0.001  0.000  0.002  0.523  0.000  0.189  0.000  0.174  0.906
 
band     2 # energy    5.33637581 # occ.  1.00000000
 
ion      s     py     pz     px    dxy    dyz    dz2    dxz  x2-y2    tot
    1  0.084  0.006  0.000  0.017  0.224  0.000  0.035  0.000  0.075  0.440
    2  0.084  0.006  0.000  0.017  0.224  0.000  0.035  0.000  0.075  0.440
tot    0.168  0.012  0.000  0.035  0.448  0.000  0.070  0.000  0.149  0.881