<?xml version="1.0" encoding="ISO-8859-1"?>
<modeling>
 <generator>
  <i name="program" type="string">vasp </i>
  <i name="version" type="string">6.3.2  </i>
  <i name="subversion" type="string">27Jun22 (build Aug 12 2022 00:53:59) complex                          parallel </i>
  <i name="platform" type="string">tv2STD </i>
  <i name="date" type="string">2024 12 03 </i>
  <i name="time" type="string">02:38:22 </i>
 </generator>
 <incar>
  <i type="string" name="SYSTEM">Co-hcc</i>
  <i type="int" name="ISTART">     0</i>
  <i type="string" name="PREC">Accurate      normal | accurate</i>
  <i type="string" name="ALGO">Normal     Normal, Fast, Very_Fast</i>
  <i type="logical" name="ADDGRID"> F  </i>
  <i type="int" name="ISPIN">     2</i>
  <i type="int" name="ICHARG">     2</i>
  <i type="int" name="INIWAV">     1</i>
  <i type="int" name="NELM">   100</i>
  <i type="int" name="IBRION">     2</i>
  <i name="EDIFF">      0.00000100</i>
  <i name="EDIFFG">     -0.02000000</i>
  <i type="int" name="NSW">   100</i>
  <i type="int" name="ISIF">     2</i>
  <i type="int" name="ISYM">     1</i>
  <i name="ENCUT">    425.00000000</i>
  <v name="MAGMOM">      3.00000000      3.00000000</v>
  <i type="logical" name="LREAL"> F  </i>
  <i type="int" name="ISMEAR">     0</i>
  <i name="SIGMA">      0.05000000</i>
  <i type="int" name="NWRITE">     2</i>
  <i type="logical" name="LWAVE"> F  </i>
  <i type="logical" name="LCHARG"> F  </i>
  <i type="int" name="LORBIT">    11</i>
 </incar>
 <primitive_cell>
  <structure name="primitive_cell" >
   <crystal>
    <varray name="basis" >
     <v>       1.25859918      -2.17995773       0.00000000 </v>
     <v>       1.25859918       2.17995773       0.00000000 </v>
     <v>       0.00000000       0.00000000       4.06036001 </v>
    </varray>
    <i name="volume">     22.28076284 </i>
    <varray name="rec_basis" >
     <v>       0.39726706      -0.22936225       0.00000000 </v>
     <v>       0.39726706       0.22936225       0.00000000 </v>
     <v>       0.00000000       0.00000000       0.24628358 </v>
    </varray>
   </crystal>
   <varray name="positions" >
    <v>       0.33333333       0.66666667       0.25000000 </v>
    <v>       0.66666667       0.33333333       0.75000000 </v>
   </varray>
  </structure>
  <varray name="primitive_index" >
   <v type="int" >        1 </v>
   <v type="int" >        2 </v>
  </varray>
 </primitive_cell>
 <kpoints>
  <generation param="Gamma">
   <v type="int" name="divisions">      12       12        8 </v>
   <v name="usershift">      0.00000000       0.00000000       0.00000000 </v>
   <v name="genvec1">      0.08333333      -0.00000000       0.00000000 </v>
   <v name="genvec2">     -0.00000000       0.08333333       0.00000000 </v>
   <v name="genvec3">      0.00000000       0.00000000       0.12500000 </v>
   <v name="shift">      0.00000000       0.00000000       0.00000000 </v>
  </generation>
  <varray name="kpointlist" >
   <v>       0.00000000       0.00000000       0.00000000 </v>
   <v>       0.08333333       0.00000000       0.00000000 </v>
   <v>       0.16666667       0.00000000       0.00000000 </v>
   <v>       0.25000000       0.00000000       0.00000000 </v>
   <v>       0.33333333       0.00000000       0.00000000 </v>
   <v>       0.41666667       0.00000000       0.00000000 </v>
   <v>       0.50000000       0.00000000       0.00000000 </v>
   <v>       0.08333333       0.08333333       0.00000000 </v>
   <v>       0.16666667       0.08333333       0.00000000 </v>
   <v>       0.25000000       0.08333333       0.00000000 </v>
   <v>       0.33333333       0.08333333       0.00000000 </v>
   <v>       0.41666667       0.08333333       0.00000000 </v>
   <v>       0.16666667       0.16666667       0.00000000 </v>
   <v>       0.25000000       0.16666667       0.00000000 </v>
   <v>       0.33333333       0.16666667       0.00000000 </v>
   <v>       0.41666667       0.16666667       0.00000000 </v>
   <v>       0.25000000       0.25000000       0.00000000 </v>
   <v>       0.33333333       0.25000000       0.00000000 </v>
   <v>       0.33333333       0.33333333       0.00000000 </v>
   <v>       0.00000000       0.00000000       0.12500000 </v>
   <v>       0.08333333       0.00000000       0.12500000 </v>
   <v>       0.16666667       0.00000000       0.12500000 </v>
   <v>       0.25000000       0.00000000       0.12500000 </v>
   <v>       0.33333333       0.00000000       0.12500000 </v>
   <v>       0.41666667       0.00000000       0.12500000 </v>
   <v>       0.50000000       0.00000000       0.12500000 </v>
   <v>       0.08333333       0.08333333       0.12500000 </v>
   <v>       0.16666667       0.08333333       0.12500000 </v>
   <v>       0.25000000       0.08333333       0.12500000 </v>
   <v>       0.33333333       0.08333333       0.12500000 </v>
   <v>       0.41666667       0.08333333       0.12500000 </v>
   <v>       0.16666667       0.16666667       0.12500000 </v>
   <v>       0.25000000       0.16666667       0.12500000 </v>
   <v>       0.33333333       0.16666667       0.12500000 </v>
   <v>       0.41666667       0.16666667       0.12500000 </v>
   <v>       0.25000000       0.25000000       0.12500000 </v>
   <v>       0.33333333       0.25000000       0.12500000 </v>
   <v>       0.33333333       0.33333333       0.12500000 </v>
   <v>       0.00000000       0.00000000       0.25000000 </v>
   <v>       0.08333333       0.00000000       0.25000000 </v>
   <v>       0.16666667       0.00000000       0.25000000 </v>
   <v>       0.25000000       0.00000000       0.25000000 </v>
   <v>       0.33333333       0.00000000       0.25000000 </v>
   <v>       0.41666667       0.00000000       0.25000000 </v>
   <v>       0.50000000       0.00000000       0.25000000 </v>
   <v>       0.08333333       0.08333333       0.25000000 </v>
   <v>       0.16666667       0.08333333       0.25000000 </v>
   <v>       0.25000000       0.08333333       0.25000000 </v>
   <v>       0.33333333       0.08333333       0.25000000 </v>
   <v>       0.41666667       0.08333333       0.25000000 </v>
   <v>       0.16666667       0.16666667       0.25000000 </v>
   <v>       0.25000000       0.16666667       0.25000000 </v>
   <v>       0.33333333       0.16666667       0.25000000 </v>
   <v>       0.41666667       0.16666667       0.25000000 </v>
   <v>       0.25000000       0.25000000       0.25000000 </v>
   <v>       0.33333333       0.25000000       0.25000000 </v>
   <v>       0.33333333       0.33333333       0.25000000 </v>
   <v>       0.00000000       0.00000000       0.37500000 </v>
   <v>       0.08333333       0.00000000       0.37500000 </v>
   <v>       0.16666667       0.00000000       0.37500000 </v>
   <v>       0.25000000       0.00000000       0.37500000 </v>
   <v>       0.33333333       0.00000000       0.37500000 </v>
   <v>       0.41666667       0.00000000       0.37500000 </v>
   <v>       0.50000000       0.00000000       0.37500000 </v>
   <v>       0.08333333       0.08333333       0.37500000 </v>
   <v>       0.16666667       0.08333333       0.37500000 </v>
   <v>       0.25000000       0.08333333       0.37500000 </v>
   <v>       0.33333333       0.08333333       0.37500000 </v>
   <v>       0.41666667       0.08333333       0.37500000 </v>
   <v>       0.16666667       0.16666667       0.37500000 </v>
   <v>       0.25000000       0.16666667       0.37500000 </v>
   <v>       0.33333333       0.16666667       0.37500000 </v>
   <v>       0.41666667       0.16666667       0.37500000 </v>
   <v>       0.25000000       0.25000000       0.37500000 </v>
   <v>       0.33333333       0.25000000       0.37500000 </v>
   <v>       0.33333333       0.33333333       0.37500000 </v>
   <v>       0.00000000       0.00000000       0.50000000 </v>
   <v>       0.08333333       0.00000000       0.50000000 </v>
   <v>       0.16666667       0.00000000       0.50000000 </v>
   <v>       0.25000000       0.00000000       0.50000000 </v>
   <v>       0.33333333       0.00000000       0.50000000 </v>
   <v>       0.41666667       0.00000000       0.50000000 </v>
   <v>       0.50000000       0.00000000       0.50000000 </v>
   <v>       0.08333333       0.08333333       0.50000000 </v>
   <v>       0.16666667       0.08333333       0.50000000 </v>
   <v>       0.25000000       0.08333333       0.50000000 </v>
   <v>       0.33333333       0.08333333       0.50000000 </v>
   <v>       0.41666667       0.08333333       0.50000000 </v>
   <v>       0.16666667       0.16666667       0.50000000 </v>
   <v>       0.25000000       0.16666667       0.50000000 </v>
   <v>       0.33333333       0.16666667       0.50000000 </v>
   <v>       0.41666667       0.16666667       0.50000000 </v>
   <v>       0.25000000       0.25000000       0.50000000 </v>
   <v>       0.33333333       0.25000000       0.50000000 </v>
   <v>       0.33333333       0.33333333       0.50000000 </v>
  </varray>
  <varray name="weights" >
   <v>       0.00086806 </v>
   <v>       0.00520833 </v>
   <v>       0.00520833 </v>
   <v>       0.00520833 </v>
   <v>       0.00520833 </v>
   <v>       0.00520833 </v>
   <v>       0.00260417 </v>
   <v>       0.00520833 </v>
   <v>       0.01041667 </v>
   <v>       0.01041667 </v>
   <v>       0.01041667 </v>
   <v>       0.01041667 </v>
   <v>       0.00520833 </v>
   <v>       0.01041667 </v>
   <v>       0.01041667 </v>
   <v>       0.00520833 </v>
   <v>       0.00520833 </v>
   <v>       0.01041667 </v>
   <v>       0.00173611 </v>
   <v>       0.00173611 </v>
   <v>       0.01041667 </v>
   <v>       0.01041667 </v>
   <v>       0.01041667 </v>
   <v>       0.01041667 </v>
   <v>       0.01041667 </v>
   <v>       0.00520833 </v>
   <v>       0.01041667 </v>
   <v>       0.02083333 </v>
   <v>       0.02083333 </v>
   <v>       0.02083333 </v>
   <v>       0.02083333 </v>
   <v>       0.01041667 </v>
   <v>       0.02083333 </v>
   <v>       0.02083333 </v>
   <v>       0.01041667 </v>
   <v>       0.01041667 </v>
   <v>       0.02083333 </v>
   <v>       0.00347222 </v>
   <v>       0.00173611 </v>
   <v>       0.01041667 </v>
   <v>       0.01041667 </v>
   <v>       0.01041667 </v>
   <v>       0.01041667 </v>
   <v>       0.01041667 </v>
   <v>       0.00520833 </v>
   <v>       0.01041667 </v>
   <v>       0.02083333 </v>
   <v>       0.02083333 </v>
   <v>       0.02083333 </v>
   <v>       0.02083333 </v>
   <v>       0.01041667 </v>
   <v>       0.02083333 </v>
   <v>       0.02083333 </v>
   <v>       0.01041667 </v>
   <v>       0.01041667 </v>
   <v>       0.02083333 </v>
   <v>       0.00347222 </v>
   <v>       0.00173611 </v>
   <v>       0.01041667 </v>
   <v>       0.01041667 </v>
   <v>       0.01041667 </v>
   <v>       0.01041667 </v>
   <v>       0.01041667 </v>
   <v>       0.00520833 </v>
   <v>       0.01041667 </v>
   <v>       0.02083333 </v>
   <v>       0.02083333 </v>
   <v>       0.02083333 </v>
   <v>       0.02083333 </v>
   <v>       0.01041667 </v>
   <v>       0.02083333 </v>
   <v>       0.02083333 </v>
   <v>       0.01041667 </v>
   <v>       0.01041667 </v>
   <v>       0.02083333 </v>
   <v>       0.00347222 </v>
   <v>       0.00086806 </v>
   <v>       0.00520833 </v>
   <v>       0.00520833 </v>
   <v>       0.00520833 </v>
   <v>       0.00520833 </v>
   <v>       0.00520833 </v>
   <v>       0.00260417 </v>
   <v>       0.00520833 </v>
   <v>       0.01041667 </v>
   <v>       0.01041667 </v>
   <v>       0.01041667 </v>
   <v>       0.01041667 </v>
   <v>       0.00520833 </v>
   <v>       0.01041667 </v>
   <v>       0.01041667 </v>
   <v>       0.00520833 </v>
   <v>       0.00520833 </v>
   <v>       0.01041667 </v>
   <v>       0.00173611 </v>
  </varray>
 </kpoints>
 <parameters>
  <separator name="general" >
   <i type="string" name="SYSTEM">Co-hcc</i>
   <i type="logical" name="LCOMPAT"> F  </i>
  </separator>
  <separator name="electronic" >
   <i type="string" name="PREC">accura</i>
   <i name="ENMAX">    425.00000000</i>
   <i name="ENAUG">    477.81800000</i>
   <i name="EDIFF">      0.00000100</i>
   <i type="int" name="IALGO">    38</i>
   <i type="int" name="IWAVPR">    11</i>
   <i type="int" name="NBANDS">    28</i>
   <i type="int" name="NBANDSLOW">    -1</i>
   <i type="int" name="NBANDSHIGH">    -1</i>
   <i name="NELECT">     18.00000000</i>
   <i type="int" name="TURBO">     0</i>
   <i type="int" name="IRESTART">     0</i>
   <i type="int" name="NREBOOT">     0</i>
   <i type="int" name="NMIN">     0</i>
   <i name="EREF">      0.00000000</i>
   <separator name="electronic smearing" >
    <i type="int" name="ISMEAR">     0</i>
    <i name="SIGMA">      0.05000000</i>
    <i name="KSPACING">      0.50000000</i>
    <i type="logical" name="KGAMMA"> T  </i>
    <i type="logical" name="KBLOWUP"> T  </i>
   </separator>
   <separator name="electronic projectors" >
    <i type="logical" name="LREAL"> F  </i>
    <v name="ROPT">      0.00000000</v>
    <i type="int" name="LMAXPAW">  -100</i>
    <i type="int" name="LMAXMIX">     2</i>
    <i type="logical" name="NLSPLINE"> F  </i>
   </separator>
   <separator name="electronic startup" >
    <i type="int" name="ISTART">     0</i>
    <i type="int" name="ICHARG">     2</i>
    <i type="int" name="INIWAV">     1</i>
   </separator>
   <separator name="electronic spin" >
    <i type="int" name="ISPIN">     2</i>
    <i type="logical" name="LNONCOLLINEAR"> F  </i>
    <v name="MAGMOM">      3.00000000      3.00000000</v>
    <i name="NUPDOWN">     -1.00000000</i>
    <i type="logical" name="LSORBIT"> F  </i>
    <v name="SAXIS">      0.00000000      0.00000000      1.00000000</v>
    <i type="logical" name="LSPIRAL"> F  </i>
    <v name="QSPIRAL">      0.00000000      0.00000000      0.00000000</v>
    <i type="logical" name="LZEROZ"> F  </i>
   </separator>
   <separator name="electronic exchange-correlation" >
    <i type="logical" name="LASPH"> F  </i>
    <i type="logical" name="LMETAGGA"> F  </i>
   </separator>
   <separator name="electronic convergence" >
    <i type="int" name="NELM">   100</i>
    <i type="int" name="NELMDL">    -5</i>
    <i type="int" name="NELMIN">     2</i>
    <i name="ENINI">    425.00000000</i>
    <separator name="electronic convergence detail" >
     <i type="logical" name="LDIAG"> T  </i>
     <i type="logical" name="LSUBROT"> F  </i>
     <i name="WEIMIN">      0.00100000</i>
     <i name="EBREAK">      0.00000001</i>
     <i name="DEPER">      0.30000000</i>
     <i type="int" name="NRMM">     4</i>
     <i name="TIME">      0.40000000</i>
    </separator>
   </separator>
   <separator name="electronic mixer" >
    <i name="AMIX">      0.40000000</i>
    <i name="BMIX">      1.00000000</i>
    <i name="AMIN">      0.10000000</i>
    <i name="AMIX_MAG">      1.60000000</i>
    <i name="BMIX_MAG">      1.00000000</i>
    <separator name="electronic mixer details" >
     <i type="int" name="IMIX">     4</i>
     <i type="logical" name="MIXFIRST"> F  </i>
     <i type="int" name="MAXMIX">   -45</i>
     <i name="WC">    100.00000000</i>
     <i type="int" name="INIMIX">     1</i>
     <i type="int" name="MIXPRE">     1</i>
     <i type="int" name="MREMOVE">     5</i>
    </separator>
   </separator>
   <separator name="electronic dipolcorrection" >
    <i type="logical" name="LDIPOL"> F  </i>
    <i type="logical" name="LMONO"> F  </i>
    <i type="int" name="IDIPOL">     0</i>
    <i name="EPSILON">      1.00000000</i>
    <v name="DIPOL">   -100.00000000   -100.00000000   -100.00000000</v>
    <i name="EFIELD">      0.00000000</i>
   </separator>
  </separator>
  <separator name="grids" >
   <i type="int" name="NGX">    18</i>
   <i type="int" name="NGY">    18</i>
   <i type="int" name="NGZ">    28</i>
   <i type="int" name="NGXF">    36</i>
   <i type="int" name="NGYF">    36</i>
   <i type="int" name="NGZF">    56</i>
   <i type="logical" name="ADDGRID"> F  </i>
  </separator>
  <separator name="ionic" >
   <i type="int" name="NSW">   100</i>
   <i type="int" name="IBRION">     2</i>
   <i type="int" name="MDALGO">     0</i>
   <i type="int" name="ISIF">     2</i>
   <i name="PSTRESS">      0.00000000</i>
   <i name="EDIFFG">     -0.02000000</i>
   <i type="int" name="NFREE">     1</i>
   <i name="POTIM">      0.50000000</i>
   <i name="SMASS">     -3.00000000</i>
   <i name="SCALEE">      1.00000000</i>
  </separator>
  <separator name="ionic md" >
   <i name="TEBEG">      0.00010000</i>
   <i name="TEEND">      0.00010000</i>
   <i type="int" name="NBLOCK">     1</i>
   <i type="int" name="KBLOCK">   100</i>
   <i type="int" name="NPACO">   256</i>
   <i name="APACO">     10.00000000</i>
  </separator>
  <separator name="symmetry" >
   <i type="int" name="ISYM">     1</i>
   <i name="SYMPREC">      0.00001000</i>
  </separator>
  <separator name="dos" >
   <i type="int" name="LORBIT">    11</i>
   <v name="RWIGS">     -1.00000000</v>
   <i type="int" name="NEDOS">   301</i>
   <i name="EMIN">     10.00000000</i>
   <i name="EMAX">    -10.00000000</i>
   <i name="EFERMI">      0.00000000</i>
  </separator>
  <separator name="writing" >
   <i type="int" name="NWRITE">     2</i>
   <i type="logical" name="LWAVE"> F  </i>
   <i type="logical" name="LDOWNSAMPLE"> F  </i>
   <i type="logical" name="LCHARG"> F  </i>
   <i type="logical" name="LPARD"> F  </i>
   <i type="logical" name="LVTOT"> F  </i>
   <i type="logical" name="LVHAR"> F  </i>
   <i type="logical" name="LELF"> F  </i>
   <i type="logical" name="LOPTICS"> F  </i>
   <v name="STM">      0.00000000      0.00000000      0.00000000      0.00000000      0.00000000      0.00000000      0.00000000</v>
  </separator>
  <separator name="performance" >
   <i type="int" name="NPAR">    28</i>
   <i type="int" name="NSIM">     4</i>
   <i type="int" name="NBLK">    -1</i>
   <i type="logical" name="LPLANE"> T  </i>
   <i type="logical" name="LSCALAPACK"> T  </i>
   <i type="logical" name="LSCAAWARE"> T  </i>
   <i type="logical" name="LSCALU"> F  </i>
   <i type="logical" name="LASYNC"> F  </i>
   <i type="logical" name="LORBITALREAL"> F  </i>
  </separator>
  <separator name="miscellaneous" >
   <i type="int" name="IDIOT">     3</i>
   <i type="int" name="PHON_NSTRUCT">    -1</i>
   <i type="logical" name="LMUSIC"> F  </i>
   <v name="POMASS">     58.93300000</v>
   <v name="DARWINR">      0.00000000</v>
   <v name="DARWINV">      1.00000000</v>
   <i type="logical" name="LCORR"> T  </i>
  </separator>
  <i type="logical" name="GGA_COMPAT"> T  </i>
  <i type="logical" name="LBERRY"> F  </i>
  <i type="int" name="ICORELEVEL">     0</i>
  <i type="logical" name="LDAU"> F  </i>
  <i type="int" name="I_CONSTRAINED_M">     0</i>
  <separator name="electronic exchange-correlation" >
   <i type="string" name="GGA">--</i>
   <i type="int" name="VOSKOWN">     0</i>
   <i type="logical" name="LHFCALC"> F  </i>
   <i type="string" name="PRECFOCK"></i>
   <i type="logical" name="LSYMGRAD"> F  </i>
   <i type="logical" name="LHFONE"> F  </i>
   <i type="logical" name="LRHFCALC"> F  </i>
   <i type="logical" name="LTHOMAS"> F  </i>
   <i type="logical" name="LMODELHF"> F  </i>
   <i type="logical" name="LFOCKACE"> F  </i>
   <i name="ENCUT4O">     -1.00000000</i>
   <i type="int" name="EXXOEP">     0</i>
   <i type="int" name="FOURORBIT">     0</i>
   <i name="AEXX">      0.00000000</i>
   <i name="HFALPHA">      0.00000000</i>
   <i name="MCALPHA">      0.00000000</i>
   <i name="ALDAX">      1.00000000</i>
   <i name="AGGAX">      1.00000000</i>
   <i name="ALDAC">      1.00000000</i>
   <i name="AGGAC">      1.00000000</i>
   <i type="int" name="NKREDX">     1</i>
   <i type="int" name="NKREDY">     1</i>
   <i type="int" name="NKREDZ">     1</i>
   <i type="logical" name="SHIFTRED"> F  </i>
   <i type="logical" name="ODDONLY"> F  </i>
   <i type="logical" name="EVENONLY"> F  </i>
   <i type="int" name="LMAXFOCK">     0</i>
   <i type="int" name="NMAXFOCKAE">     0</i>
   <i type="logical" name="LFOCKAEDFT"> F  </i>
   <i name="HFSCREEN">      0.00000000</i>
   <i name="HFSCREENC">      0.00000000</i>
   <i type="int" name="NBANDSGWLOW">     0</i>
  </separator>
  <separator name="vdW DFT" >
   <i type="logical" name="LUSE_VDW"> F  </i>
   <i name="Zab_VDW">     -0.84910000</i>
   <i name="PARAM1">      0.12340000</i>
   <i name="PARAM2">      1.00000000</i>
   <i name="PARAM3">      0.00000000</i>
  </separator>
  <separator name="model GW" >
   <i type="int" name="MODEL_GW">     0</i>
   <i name="MODEL_EPS0">      6.68422885</i>
   <i name="MODEL_ALPHA">      1.00000000</i>
  </separator>
  <separator name="linear response parameters" >
   <i type="logical" name="LEPSILON"> F  </i>
   <i type="logical" name="LRPA"> F  </i>
   <i type="logical" name="LNABLA"> F  </i>
   <i type="logical" name="LVEL"> F  </i>
   <i name="CSHIFT">      0.10000000</i>
   <i name="OMEGAMAX">     -1.00000000</i>
   <i name="DEG_THRESHOLD">      0.00200000</i>
   <i name="RTIME">     -0.10000000</i>
   <i name="WPLASMAI">      0.00000000</i>
   <v name="DFIELD">      0.00000000      0.00000000      0.00000000</v>
   <v name="WPLASMA">      0.00000000      0.00000000      0.00000000      0.00000000      0.00000000      0.00000000      0.00000000      0.00000000      0.00000000</v>
  </separator>
  <separator name="orbital magnetization" >
   <i type="logical" name="NUCIND"> F  </i>
   <v name="MAGPOS">      0.00000000      0.00000000      0.00000000</v>
   <i type="logical" name="LNICSALL"> T  </i>
   <i type="logical" name="ORBITALMAG"> F  </i>
   <i type="logical" name="LMAGBLOCH"> F  </i>
   <i type="logical" name="LCHIMAG"> F  </i>
   <i type="logical" name="LGAUGE"> T  </i>
   <i type="int" name="MAGATOM">     0</i>
   <v name="MAGDIPOL">      0.00000000      0.00000000      0.00000000</v>
   <v name="AVECCONST">      0.00000000      0.00000000      0.00000000</v>
  </separator>
  <separator name="response functions" >
   <i type="logical" name="LFINITE_TEMPERATURE"> F  </i>
   <i type="logical" name="LADDER"> F  </i>
   <i type="logical" name="LRPAFORCE"> F  </i>
   <i type="logical" name="LFXC"> F  </i>
   <i type="logical" name="LHARTREE"> T  </i>
   <i type="int" name="IBSE">     0</i>
   <v type="int" name="KPOINT">    -1     0     0     0</v>
   <i type="logical" name="LTCTC"> F  </i>
   <i type="logical" name="LTCTE"> F  </i>
   <i type="logical" name="LTETE"> F  </i>
   <i type="logical" name="LTRIPLET"> F  </i>
   <i type="logical" name="LFXCEPS"> F  </i>
   <i type="logical" name="LFXHEG"> F  </i>
   <i type="int" name="NATURALO">     2</i>
   <i type="logical" name="LHOLEGF"> F  </i>
   <i type="logical" name="L2ORDER"> F  </i>
   <i type="logical" name="LDMP1"> F  </i>
   <i type="logical" name="LMP2LT"> F  </i>
   <i type="logical" name="LSMP2LT"> F  </i>
   <i type="logical" name="LGWLF"> F  </i>
   <i name="ENCUTGW">     -2.00000000</i>
   <i name="ENCUTGWSOFT">     -2.00000000</i>
   <i name="ENCUTLF">     -1.00000000</i>
   <i type="logical" name="LESF_SPLINES"> F  </i>
   <i type="int" name="LMAXMP2">    -1</i>
   <i name="SCISSOR">      0.00000000</i>
   <i type="int" name="NOMEGA">     0</i>
   <i type="int" name="NOMEGAR">     0</i>
   <i type="int" name="NBANDSGW">    -1</i>
   <i type="int" name="NBANDSO">    -1</i>
   <i type="int" name="NBANDSV">    -1</i>
   <i type="int" name="NELMGW">     1</i>
   <i type="int" name="NELMHF">     1</i>
   <i type="int" name="DIM">     3</i>
   <i type="int" name="IESPILON">     4</i>
   <i type="int" name="ANTIRES">     0</i>
   <i name="OMEGAMAX">    -30.00000000</i>
   <i name="OMEGAMIN">    -30.00000000</i>
   <i name="OMEGATL">   -200.00000000</i>
   <i type="int" name="OMEGAGRID">     0</i>
   <i name="CSHIFT">     -0.10000000</i>
   <i type="logical" name="LSELFENERGY"> F  </i>
   <i type="logical" name="LSPECTRAL"> F  </i>
   <i type="logical" name="LSPECTRALGW"> F  </i>
   <i type="logical" name="LSINGLES"> F  </i>
   <i type="logical" name="LFERMIGW"> F  </i>
   <i type="logical" name="ODDONLYGW"> F  </i>
   <i type="logical" name="EVENONLYGW"> F  </i>
   <i type="int" name="NKREDLFX">     1</i>
   <i type="int" name="NKREDLFY">     1</i>
   <i type="int" name="NKREDLFZ">     1</i>
   <i type="int" name="MAXMEM">  2800</i>
   <i type="int" name="TELESCOPE">     0</i>
   <i type="int" name="NTAUPAR">    -1</i>
   <i type="int" name="NOMEGAPAR">    -1</i>
   <i name="DAMP_NEWTON">      0.80000001</i>
   <i name="LAMBDA">      1.00000000</i>
  </separator>
  <separator name="External order field" >
   <i name="OFIELD_KAPPA">      0.00000000</i>
   <v name="OFIELD_K">      0.00000000      0.00000000      0.00000000</v>
   <i name="OFIELD_Q6_NEAR">      0.00000000</i>
   <i name="OFIELD_Q6_FAR">      0.00000000</i>
   <i name="OFIELD_A">      0.00000000</i>
  </separator>
  <separator name="optional k-points parameters" >
   <i type="int" name="KPOINTS_OPT_MODE">     1</i>
   <i type="logical" name="LKPOINTS_OPT"> F  </i>
  </separator>
 </parameters>
 <atominfo>
  <atoms>       2 </atoms>
  <types>       1 </types>
  <array name="atoms" >
   <dimension dim="1">ion</dimension>
   <field type="string">element</field>
   <field type="int">atomtype</field>
   <set>
    <rc><c>Co</c><c>   1</c></rc>
    <rc><c>Co</c><c>   1</c></rc>
   </set>
  </array>
  <array name="atomtypes" >
   <dimension dim="1">type</dimension>
   <field type="int">atomspertype</field>
   <field type="string">element</field>
   <field>mass</field>
   <field>valence</field>
   <field type="string">pseudopotential</field>
   <set>
    <rc><c>   2</c><c>Co</c><c>     58.93300000</c><c>      9.00000000</c><c>  PAW_PBE Co 02Aug2007                  </c></rc>
   </set>
  </array>
 </atominfo>
 <structure name="initialpos" >
  <crystal>
   <varray name="basis" >
    <v>       1.25859918      -2.17995773       0.00000000 </v>
    <v>       1.25859918       2.17995773       0.00000000 </v>
    <v>       0.00000000       0.00000000       4.06036001 </v>
   </varray>
   <i name="volume">     22.28076284 </i>
   <varray name="rec_basis" >
    <v>       0.39726706      -0.22936225       0.00000000 </v>
    <v>       0.39726706       0.22936225       0.00000000 </v>
    <v>       0.00000000       0.00000000       0.24628358 </v>
   </varray>
  </crystal>
  <varray name="positions" >
   <v>       0.33333333       0.66666667       0.25000000 </v>
   <v>       0.66666667       0.33333333       0.75000000 </v>
  </varray>
 </structure>
 <calculation>
  <scstep>
   <time name="dav">    0.90    0.90</time>
   <time name="total">    0.91    0.91</time>
   <energy>
    <i name="alphaZ">     76.04352005 </i>
    <i name="ewald">  -1508.29162874 </i>
    <i name="hartreedc">   -305.66984218 </i>
    <i name="XCdc">     35.45982644 </i>
    <i name="pawpsdc">   1439.98163886 </i>
    <i name="pawaedc">  -1545.88690193 </i>
    <i name="eentropy">     -0.00226037 </i>
    <i name="bandstr">    181.41356704 </i>
    <i name="atom">   1626.72322989 </i>
    <i name="e_fr_energy">     -0.22885095 </i>
    <i name="e_wo_entrp">     -0.22659058 </i>
    <i name="e_0_energy">     -0.22772077 </i>
   </energy>
  </scstep>
  <scstep>
   <time name="dav">    1.52    1.53</time>
   <time name="total">    1.52    1.53</time>
   <energy>
    <i name="e_fr_energy">    -15.62228224 </i>
    <i name="e_wo_entrp">    -15.62034390 </i>
    <i name="e_0_energy">    -15.62131307 </i>
   </energy>
  </scstep>
  <scstep>
   <time name="dav">    1.51    1.51</time>
   <time name="total">    1.51    1.51</time>
   <energy>
    <i name="e_fr_energy">    -15.68608456 </i>
    <i name="e_wo_entrp">    -15.68413912 </i>
    <i name="e_0_energy">    -15.68511184 </i>
   </energy>
  </scstep>
  <scstep>
   <time name="dav">    2.18    2.19</time>
   <time name="total">    2.18    2.19</time>
   <energy>
    <i name="e_fr_energy">    -15.68620558 </i>
    <i name="e_wo_entrp">    -15.68426016 </i>
    <i name="e_0_energy">    -15.68523287 </i>
   </energy>
  </scstep>
  <scstep>
   <time name="dav">    1.57    1.57</time>
   <time name="total">    1.60    1.61</time>
   <energy>
    <i name="e_fr_energy">    -15.68620559 </i>
    <i name="e_wo_entrp">    -15.68426016 </i>
    <i name="e_0_energy">    -15.68523287 </i>
   </energy>
  </scstep>
  <scstep>
   <time name="dav">    2.57    2.58</time>
   <time name="total">    2.62    2.63</time>
   <energy>
    <i name="e_fr_energy">    -14.51300544 </i>
    <i name="e_wo_entrp">    -14.51134677 </i>
    <i name="e_0_energy">    -14.51217611 </i>
   </energy>
  </scstep>
  <scstep>
   <time name="dav">    2.24    2.25</time>
   <time name="total">    2.28    2.29</time>
   <energy>
    <i name="e_fr_energy">    -14.09376600 </i>
    <i name="e_wo_entrp">    -14.09127476 </i>
    <i name="e_0_energy">    -14.09252038 </i>
   </energy>
  </scstep>
  <scstep>
   <time name="dav">    2.12    2.13</time>
   <time name="total">    2.16    2.17</time>
   <energy>
    <i name="e_fr_energy">    -14.07074195 </i>
    <i name="e_wo_entrp">    -14.06813736 </i>
    <i name="e_0_energy">    -14.06943965 </i>
   </energy>
  </scstep>
  <scstep>
   <time name="dav">    2.58    2.60</time>
   <time name="total">    2.63    2.64</time>
   <energy>
    <i name="e_fr_energy">    -14.05715651 </i>
    <i name="e_wo_entrp">    -14.05447791 </i>
    <i name="e_0_energy">    -14.05581721 </i>
   </energy>
  </scstep>
  <scstep>
   <time name="dav">    2.57    2.58</time>
   <time name="total">    2.61    2.62</time>
   <energy>
    <i name="e_fr_energy">    -14.05610904 </i>
    <i name="e_wo_entrp">    -14.05341497 </i>
    <i name="e_0_energy">    -14.05476200 </i>
   </energy>
  </scstep>
  <scstep>
   <time name="dav">    2.00    2.01</time>
   <time name="total">    2.05    2.05</time>
   <energy>
    <i name="e_fr_energy">    -14.05612698 </i>
    <i name="e_wo_entrp">    -14.05344661 </i>
    <i name="e_0_energy">    -14.05478679 </i>
   </energy>
  </scstep>
  <scstep>
   <time name="dav">    2.37    2.38</time>
   <time name="total">    2.41    2.42</time>
   <energy>
    <i name="e_fr_energy">    -14.05612347 </i>
    <i name="e_wo_entrp">    -14.05344563 </i>
    <i name="e_0_energy">    -14.05478455 </i>
   </energy>
  </scstep>
  <scstep>
   <time name="dav">    2.57    2.58</time>
   <time name="total">    2.58    2.59</time>
   <energy>
    <i name="alphaZ">     76.04352005 </i>
    <i name="ewald">  -1508.29162874 </i>
    <i name="hartreedc">   -270.26792327 </i>
    <i name="XCdc">     32.72723658 </i>
    <i name="pawpsdc">   1778.29810948 </i>
    <i name="pawaedc">  -1884.10490941 </i>
    <i name="eentropy">     -0.00267394 </i>
    <i name="bandstr">    134.81891611 </i>
    <i name="atom">   1626.72322989 </i>
    <i name="e_fr_energy">    -14.05612327 </i>
    <i name="e_wo_entrp">    -14.05344933 </i>
    <i name="e_0_energy">    -14.05478630 </i>
   </energy>
  </scstep>
  <structure>
   <crystal>
    <varray name="basis" >
     <v>       1.25859918      -2.17995773       0.00000000 </v>
     <v>       1.25859918       2.17995773       0.00000000 </v>
     <v>       0.00000000       0.00000000       4.06036001 </v>
    </varray>
    <i name="volume">     22.28076284 </i>
    <varray name="rec_basis" >
     <v>       0.39726706      -0.22936225       0.00000000 </v>
     <v>       0.39726706       0.22936225       0.00000000 </v>
     <v>       0.00000000       0.00000000       0.24628358 </v>
    </varray>
   </crystal>
   <varray name="positions" >
    <v>       0.33333333       0.66666667       0.25000000 </v>
    <v>       0.66666667       0.33333333       0.75000000 </v>
   </varray>
  </structure>
  <varray name="forces" >
   <v>       0.00000000      -0.00000000      -0.00000000 </v>
   <v>      -0.00000000       0.00000000       0.00000000 </v>
  </varray>
  <varray name="stress" >
   <v>     -56.38221602       0.00000000       0.00000000 </v>
   <v>       0.00000000     -56.38221602       0.00000000 </v>
   <v>       0.00000000       0.00000000     -58.55709854 </v>
  </varray>
  <energy>
   <i name="e_fr_energy">    -14.05612327 </i>
   <i name="e_wo_entrp">    -14.05344933 </i>
   <i name="e_0_energy">    -14.05478630 </i>
  </energy>
  <time name="totalsc">   27.30   27.43</time>
  <eigenvalues>
   <array>
    <dimension dim="1">band</dimension>
    <dimension dim="2">kpoint</dimension>
    <dimension dim="3">spin</dimension>
    <field>eigene</field>
    <field>occ</field>
    <set>
     <set comment="spin 1">
      <set comment="kpoint 1">
       <r>    1.1294    1.0000 </r>
       <r>    4.8643    1.0000 </r>
       <r>    7.2967    1.0000 </r>
       <r>    7.3056    1.0000 </r>
       <r>    7.3056    1.0000 </r>
       <r>    7.6052    1.0000 </r>
       <r>    7.6052    1.0000 </r>
       <r>    7.9306    1.0000 </r>
       <r>    7.9306    1.0000 </r>
       <r>    8.9935    1.0000 </r>
       <r>    8.9935    1.0000 </r>
       <r>    9.8539    0.3986 </r>
       <r>   16.0265    0.0000 </r>
       <r>   31.6021    0.0000 </r>
       <r>   33.8771    0.0000 </r>
       <r>   33.8771    0.0000 </r>
       <r>   34.6379    0.0000 </r>
       <r>   35.1124    0.0000 </r>
       <r>   35.2611    0.0000 </r>
       <r>   35.2611    0.0000 </r>
       <r>   39.9443    0.0000 </r>
       <r>   39.9443    0.0000 </r>
       <r>   40.6881    0.0000 </r>
       <r>   41.3183    0.0000 </r>
       <r>   42.9559    0.0000 </r>
       <r>   42.9559    0.0000 </r>
       <r>   43.5488    0.0000 </r>
       <r>   45.1162    0.0000 </r>
      </set>
      <set comment="kpoint 2">
       <r>    1.3673    1.0000 </r>
       <r>    5.0042    1.0000 </r>
       <r>    7.0841    1.0000 </r>
       <r>    7.4139    1.0000 </r>
       <r>    7.4829    1.0000 </r>
       <r>    7.5630    1.0000 </r>
       <r>    7.7009    1.0000 </r>
       <r>    7.7922    1.0000 </r>
       <r>    7.8632    1.0000 </r>
       <r>    8.2907    1.0000 </r>
       <r>    9.0222    1.0000 </r>
       <r>   10.8611    0.0000 </r>
       <r>   16.0713    0.0000 </r>
       <r>   29.6395    0.0000 </r>
       <r>   31.8158    0.0000 </r>
       <r>   31.9586    0.0000 </r>
       <r>   35.1218    0.0000 </r>
       <r>   35.4600    0.0000 </r>
       <r>   36.8419    0.0000 </r>
       <r>   37.5590    0.0000 </r>
       <r>   38.3206    0.0000 </r>
       <r>   39.3978    0.0000 </r>
       <r>   40.2596    0.0000 </r>
       <r>   40.4240    0.0000 </r>
       <r>   42.6211    0.0000 </r>
       <r>   42.7295    0.0000 </r>
       <r>   43.9266    0.0000 </r>
       <r>   44.4661    0.0000 </r>
      </set>
      <set comment="kpoint 3">
       <r>    2.0560    1.0000 </r>
       <r>    5.3494    1.0000 </r>
       <r>    6.8244    1.0000 </r>
       <r>    7.1347    1.0000 </r>
       <r>    7.4011    1.0000 </r>
       <r>    7.6968    1.0000 </r>
       <r>    7.7189    1.0000 </r>
       <r>    7.7738    1.0000 </r>
       <r>    7.9120    1.0000 </r>
       <r>    7.9683    1.0000 </r>
       <r>    9.0836    1.0000 </r>
       <r>   12.4037    0.0000 </r>
       <r>   16.2272    0.0000 </r>
       <r>   25.8246    0.0000 </r>
       <r>   29.4728    0.0000 </r>
       <r>   31.0404    0.0000 </r>
       <r>   32.9389    0.0000 </r>
       <r>   35.2246    0.0000 </r>
       <r>   35.8055    0.0000 </r>
       <r>   37.9323    0.0000 </r>
       <r>   38.5484    0.0000 </r>
       <r>   39.1155    0.0000 </r>
       <r>   39.6538    0.0000 </r>
       <r>   41.0411    0.0000 </r>
       <r>   41.5521    0.0000 </r>
       <r>   43.7263    0.0000 </r>
       <r>   45.9431    0.0000 </r>
       <r>   46.0360    0.0000 </r>
      </set>
      <set comment="kpoint 4">
       <r>    3.0998    1.0000 </r>
       <r>    5.6245    1.0000 </r>
       <r>    6.4412    1.0000 </r>
       <r>    6.6707    1.0000 </r>
       <r>    7.3166    1.0000 </r>
       <r>    7.4965    1.0000 </r>
       <r>    7.7202    1.0000 </r>
       <r>    8.1604    1.0000 </r>
       <r>    8.1822    1.0000 </r>
       <r>    8.3522    1.0000 </r>
       <r>    9.1420    1.0000 </r>
       <r>   14.1580    0.0000 </r>
       <r>   16.5280    0.0000 </r>
       <r>   22.1534    0.0000 </r>
       <r>   27.4431    0.0000 </r>
       <r>   29.6114    0.0000 </r>
       <r>   29.8310    0.0000 </r>
       <r>   33.4382    0.0000 </r>
       <r>   34.1941    0.0000 </r>
       <r>   37.6250    0.0000 </r>
       <r>   37.8638    0.0000 </r>
       <r>   38.6341    0.0000 </r>
       <r>   39.7174    0.0000 </r>
       <r>   42.6053    0.0000 </r>
       <r>   44.1819    0.0000 </r>
       <r>   45.9382    0.0000 </r>
       <r>   46.7804    0.0000 </r>
       <r>   47.6999    0.0000 </r>
      </set>
      <set comment="kpoint 5">
       <r>    4.2410    1.0000 </r>
       <r>    5.5596    1.0000 </r>
       <r>    5.9346    1.0000 </r>
       <r>    6.7862    1.0000 </r>
       <r>    7.3159    1.0000 </r>
       <r>    7.4372    1.0000 </r>
       <r>    7.5535    1.0000 </r>
       <r>    8.6294    1.0000 </r>
       <r>    8.7681    1.0000 </r>
       <r>    8.8394    1.0000 </r>
       <r>    9.1824    1.0000 </r>
       <r>   16.0785    0.0000 </r>
       <r>   16.6319    0.0000 </r>
       <r>   19.3113    0.0000 </r>
       <r>   25.8367    0.0000 </r>
       <r>   26.5665    0.0000 </r>
       <r>   27.5458    0.0000 </r>
       <r>   32.0001    0.0000 </r>
       <r>   33.0710    0.0000 </r>
       <r>   35.8757    0.0000 </r>
       <r>   37.3940    0.0000 </r>
       <r>   39.3678    0.0000 </r>
       <r>   41.4830    0.0000 </r>
       <r>   43.7122    0.0000 </r>
       <r>   46.3128    0.0000 </r>
       <r>   46.9467    0.0000 </r>
       <r>   47.6918    0.0000 </r>
       <r>   50.1864    0.0000 </r>
      </set>
      <set comment="kpoint 6">
       <r>    4.9882    1.0000 </r>
       <r>    5.3808    1.0000 </r>
       <r>    5.6313    1.0000 </r>
       <r>    7.1491    1.0000 </r>
       <r>    7.1925    1.0000 </r>
       <r>    7.4364    1.0000 </r>
       <r>    7.6315    1.0000 </r>
       <r>    8.9790    1.0000 </r>
       <r>    9.1117    1.0000 </r>
       <r>    9.2041    1.0000 </r>
       <r>    9.9296    0.0083 </r>
       <r>   14.7757    0.0000 </r>
       <r>   18.0714    0.0000 </r>
       <r>   19.2533    0.0000 </r>
       <r>   23.9107    0.0000 </r>
       <r>   24.7833    0.0000 </r>
       <r>   24.9262    0.0000 </r>
       <r>   31.5267    0.0000 </r>
       <r>   32.3124    0.0000 </r>
       <r>   34.7438    0.0000 </r>
       <r>   37.1245    0.0000 </r>
       <r>   39.8226    0.0000 </r>
       <r>   43.8612    0.0000 </r>
       <r>   44.3054    0.0000 </r>
       <r>   46.4383    0.0000 </r>
       <r>   47.0535    0.0000 </r>
       <r>   49.7668    0.0000 </r>
       <r>   51.1252    0.0000 </r>
      </set>
      <set comment="kpoint 7">
       <r>    5.2399    1.0000 </r>
       <r>    5.2448    1.0000 </r>
       <r>    5.5305    1.0000 </r>
       <r>    7.1488    1.0000 </r>
       <r>    7.3932    1.0000 </r>
       <r>    7.3941    1.0000 </r>
       <r>    7.7042    1.0000 </r>
       <r>    9.1052    1.0000 </r>
       <r>    9.2107    1.0000 </r>
       <r>    9.2503    1.0000 </r>
       <r>   11.0915    0.0000 </r>
       <r>   13.0389    0.0000 </r>
       <r>   19.3769    0.0000 </r>
       <r>   19.9909    0.0000 </r>
       <r>   22.3866    0.0000 </r>
       <r>   23.5039    0.0000 </r>
       <r>   24.4127    0.0000 </r>
       <r>   31.4106    0.0000 </r>
       <r>   32.0494    0.0000 </r>
       <r>   34.3512    0.0000 </r>
       <r>   37.0367    0.0000 </r>
       <r>   39.9913    0.0000 </r>
       <r>   44.4607    0.0000 </r>
       <r>   46.3437    0.0000 </r>
       <r>   46.3612    0.0000 </r>
       <r>   47.0099    0.0000 </r>
       <r>   47.0332    0.0000 </r>
       <r>   52.0619    0.0000 </r>
      </set>
      <set comment="kpoint 8">
       <r>    1.8314    1.0000 </r>
       <r>    5.2523    1.0000 </r>
       <r>    6.8791    1.0000 </r>
       <r>    7.3692    1.0000 </r>
       <r>    7.4637    1.0000 </r>
       <r>    7.6329    1.0000 </r>
       <r>    7.6347    1.0000 </r>
       <r>    7.6723    1.0000 </r>
       <r>    7.9122    1.0000 </r>
       <r>    8.0253    1.0000 </r>
       <r>    9.0582    1.0000 </r>
       <r>   11.9690    0.0000 </r>
       <r>   16.1735    0.0000 </r>
       <r>   27.5775    0.0000 </r>
       <r>   28.2223    0.0000 </r>
       <r>   33.4757    0.0000 </r>
       <r>   34.4698    0.0000 </r>
       <r>   34.6442    0.0000 </r>
       <r>   34.7155    0.0000 </r>
       <r>   37.7467    0.0000 </r>
       <r>   38.4861    0.0000 </r>
       <r>   39.0316    0.0000 </r>
       <r>   41.3019    0.0000 </r>
       <r>   41.7270    0.0000 </r>
       <r>   41.9296    0.0000 </r>
       <r>   42.2330    0.0000 </r>
       <r>   43.1082    0.0000 </r>
       <r>   46.1982    0.0000 </r>
      </set>
      <set comment="kpoint 9">
       <r>    2.7060    1.0000 </r>
       <r>    5.6052    1.0000 </r>
       <r>    6.6221    1.0000 </r>
       <r>    6.6977    1.0000 </r>
       <r>    7.3524    1.0000 </r>
       <r>    7.4612    1.0000 </r>
       <r>    7.8735    1.0000 </r>
       <r>    7.8749    1.0000 </r>
       <r>    8.0371    1.0000 </r>
       <r>    8.3081    1.0000 </r>
       <r>    9.1028    1.0000 </r>
       <r>   13.5234    0.0000 </r>
       <r>   16.4219    0.0000 </r>
       <r>   24.0324    0.0000 </r>
       <r>   26.2123    0.0000 </r>
       <r>   31.3067    0.0000 </r>
       <r>   32.2310    0.0000 </r>
       <r>   33.3306    0.0000 </r>
       <r>   34.7914    0.0000 </r>
       <r>   36.0201    0.0000 </r>
       <r>   38.0184    0.0000 </r>
       <r>   39.6768    0.0000 </r>
       <r>   41.2911    0.0000 </r>
       <r>   41.7469    0.0000 </r>
       <r>   43.5803    0.0000 </r>
       <r>   45.3190    0.0000 </r>
       <r>   45.5261    0.0000 </r>
       <r>   46.3391    0.0000 </r>
      </set>
      <set comment="kpoint 10">
       <r>    3.8349    1.0000 </r>
       <r>    5.7192    1.0000 </r>
       <r>    6.1428    1.0000 </r>
       <r>    6.5610    1.0000 </r>
       <r>    7.2836    1.0000 </r>
       <r>    7.3673    1.0000 </r>
       <r>    7.6887    1.0000 </r>
       <r>    8.2562    1.0000 </r>
       <r>    8.5130    1.0000 </r>
       <r>    8.8487    1.0000 </r>
       <r>    9.1403    1.0000 </r>
       <r>   15.3240    0.0000 </r>
       <r>   16.8018    0.0000 </r>
       <r>   20.6129    0.0000 </r>
       <r>   24.7034    0.0000 </r>
       <r>   28.1622    0.0000 </r>
       <r>   29.5084    0.0000 </r>
       <r>   32.0883    0.0000 </r>
       <r>   34.0288    0.0000 </r>
       <r>   34.4638    0.0000 </r>
       <r>   38.6733    0.0000 </r>
       <r>   41.1462    0.0000 </r>
       <r>   41.3922    0.0000 </r>
       <r>   42.4151    0.0000 </r>
       <r>   45.0350    0.0000 </r>
       <r>   46.6848    0.0000 </r>
       <r>   46.9444    0.0000 </r>
       <r>   48.4699    0.0000 </r>
      </set>
      <set comment="kpoint 11">
       <r>    4.8269    1.0000 </r>
       <r>    5.5529    1.0000 </r>
       <r>    5.7663    1.0000 </r>
       <r>    6.7941    1.0000 </r>
       <r>    7.1679    1.0000 </r>
       <r>    7.5071    1.0000 </r>
       <r>    7.5523    1.0000 </r>
       <r>    8.7322    1.0000 </r>
       <r>    8.9186    1.0000 </r>
       <r>    9.1639    1.0000 </r>
       <r>    9.6287    1.0000 </r>
       <r>   16.1186    0.0000 </r>
       <r>   17.2880    0.0000 </r>
       <r>   19.0105    0.0000 </r>
       <r>   23.5389    0.0000 </r>
       <r>   25.3036    0.0000 </r>
       <r>   26.5465    0.0000 </r>
       <r>   31.1924    0.0000 </r>
       <r>   33.3788    0.0000 </r>
       <r>   33.4419    0.0000 </r>
       <r>   38.6980    0.0000 </r>
       <r>   41.4845    0.0000 </r>
       <r>   43.0047    0.0000 </r>
       <r>   44.0635    0.0000 </r>
       <r>   46.1796    0.0000 </r>
       <r>   46.9525    0.0000 </r>
       <r>   47.8133    0.0000 </r>
       <r>   51.4637    0.0000 </r>
      </set>
      <set comment="kpoint 12">
       <r>    5.2646    1.0000 </r>
       <r>    5.3983    1.0000 </r>
       <r>    5.5777    1.0000 </r>
       <r>    7.1210    1.0000 </r>
       <r>    7.1562    1.0000 </r>
       <r>    7.3874    1.0000 </r>
       <r>    7.7006    1.0000 </r>
       <r>    9.0697    1.0000 </r>
       <r>    9.1375    1.0000 </r>
       <r>    9.1743    1.0000 </r>
       <r>   10.9073    0.0000 </r>
       <r>   13.8044    0.0000 </r>
       <r>   19.1758    0.0000 </r>
       <r>   19.8860    0.0000 </r>
       <r>   22.7687    0.0000 </r>
       <r>   22.9736    0.0000 </r>
       <r>   24.3098    0.0000 </r>
       <r>   30.7276    0.0000 </r>
       <r>   32.8028    0.0000 </r>
       <r>   33.1494    0.0000 </r>
       <r>   38.5764    0.0000 </r>
       <r>   41.6891    0.0000 </r>
       <r>   44.4898    0.0000 </r>
       <r>   45.4307    0.0000 </r>
       <r>   46.3794    0.0000 </r>
       <r>   47.0202    0.0000 </r>
       <r>   48.4535    0.0000 </r>
       <r>   50.4145    0.0000 </r>
      </set>
      <set comment="kpoint 13">
       <r>    3.6911    1.0000 </r>
       <r>    5.8901    1.0000 </r>
       <r>    6.2524    1.0000 </r>
       <r>    6.3442    1.0000 </r>
       <r>    7.2179    1.0000 </r>
       <r>    7.3636    1.0000 </r>
       <r>    7.7760    1.0000 </r>
       <r>    8.0337    1.0000 </r>
       <r>    8.5026    1.0000 </r>
       <r>    8.8688    1.0000 </r>
       <r>    9.1044    1.0000 </r>
       <r>   15.0684    0.0000 </r>
       <r>   16.8315    0.0000 </r>
       <r>   22.3385    0.0000 </r>
       <r>   22.7432    0.0000 </r>
       <r>   29.7257    0.0000 </r>
       <r>   30.4441    0.0000 </r>
       <r>   31.4987    0.0000 </r>
       <r>   32.2359    0.0000 </r>
       <r>   36.8783    0.0000 </r>
       <r>   39.0651    0.0000 </r>
       <r>   39.3585    0.0000 </r>
       <r>   42.8916    0.0000 </r>
       <r>   44.1279    0.0000 </r>
       <r>   44.5177    0.0000 </r>
       <r>   45.6688    0.0000 </r>
       <r>   46.2014    0.0000 </r>
       <r>   46.7513    0.0000 </r>
      </set>
      <set comment="kpoint 14">
       <r>    4.7689    1.0000 </r>
       <r>    5.8758    1.0000 </r>
       <r>    5.9011    1.0000 </r>
       <r>    6.3246    1.0000 </r>
       <r>    7.0714    1.0000 </r>
       <r>    7.5029    1.0000 </r>
       <r>    7.5951    1.0000 </r>
       <r>    8.3255    1.0000 </r>
       <r>    8.9209    1.0000 </r>
       <r>    9.1023    1.0000 </r>
       <r>    9.6459    1.0000 </r>
       <r>   16.8935    0.0000 </r>
       <r>   17.2364    0.0000 </r>
       <r>   19.5154    0.0000 </r>
       <r>   21.3752    0.0000 </r>
       <r>   27.0541    0.0000 </r>
       <r>   28.4839    0.0000 </r>
       <r>   29.1120    0.0000 </r>
       <r>   30.9472    0.0000 </r>
       <r>   37.0227    0.0000 </r>
       <r>   40.4126    0.0000 </r>
       <r>   41.7068    0.0000 </r>
       <r>   43.5126    0.0000 </r>
       <r>   44.0778    0.0000 </r>
       <r>   45.8913    0.0000 </r>
       <r>   46.7390    0.0000 </r>
       <r>   47.3629    0.0000 </r>
       <r>   47.6209    0.0000 </r>
      </set>
      <set comment="kpoint 15">
       <r>    5.4413    1.0000 </r>
       <r>    5.6836    1.0000 </r>
       <r>    5.6853    1.0000 </r>
       <r>    6.6335    1.0000 </r>
       <r>    7.0311    1.0000 </r>
       <r>    7.3992    1.0000 </r>
       <r>    7.6955    1.0000 </r>
       <r>    8.7107    1.0000 </r>
       <r>    9.0997    1.0000 </r>
       <r>    9.1281    1.0000 </r>
       <r>   10.8112    0.0000 </r>
       <r>   15.4561    0.0000 </r>
       <r>   18.8796    0.0000 </r>
       <r>   19.4800    0.0000 </r>
       <r>   20.6295    0.0000 </r>
       <r>   24.3928    0.0000 </r>
       <r>   25.6249    0.0000 </r>
       <r>   28.4773    0.0000 </r>
       <r>   30.2049    0.0000 </r>
       <r>   36.6823    0.0000 </r>
       <r>   41.1934    0.0000 </r>
       <r>   43.8121    0.0000 </r>
       <r>   45.0212    0.0000 </r>
       <r>   45.1294    0.0000 </r>
       <r>   45.9519    0.0000 </r>
       <r>   46.8742    0.0000 </r>
       <r>   47.2974    0.0000 </r>
       <r>   50.4337    0.0000 </r>
      </set>
      <set comment="kpoint 16">
       <r>    5.5936    1.0000 </r>
       <r>    5.6035    1.0000 </r>
       <r>    5.6106    1.0000 </r>
       <r>    6.8498    1.0000 </r>
       <r>    7.0467    1.0000 </r>
       <r>    7.2977    1.0000 </r>
       <r>    7.7775    1.0000 </r>
       <r>    8.9703    1.0000 </r>
       <r>    9.0984    1.0000 </r>
       <r>    9.1079    1.0000 </r>
       <r>   12.0927    0.0000 </r>
       <r>   13.5943    0.0000 </r>
       <r>   19.9924    0.0000 </r>
       <r>   20.2943    0.0000 </r>
       <r>   20.6753    0.0000 </r>
       <r>   22.7515    0.0000 </r>
       <r>   24.1399    0.0000 </r>
       <r>   28.2680    0.0000 </r>
       <r>   29.9430    0.0000 </r>
       <r>   36.5490    0.0000 </r>
       <r>   41.3362    0.0000 </r>
       <r>   44.6672    0.0000 </r>
       <r>   44.6695    0.0000 </r>
       <r>   46.3566    0.0000 </r>
       <r>   46.8048    0.0000 </r>
       <r>   46.9522    0.0000 </r>
       <r>   48.3493    0.0000 </r>
       <r>   49.6969    0.0000 </r>
      </set>
      <set comment="kpoint 17">
       <r>    5.5699    1.0000 </r>
       <r>    5.7443    1.0000 </r>
       <r>    6.0651    1.0000 </r>
       <r>    6.1220    1.0000 </r>
       <r>    6.9711    1.0000 </r>
       <r>    7.4136    1.0000 </r>
       <r>    7.7011    1.0000 </r>
       <r>    8.4956    1.0000 </r>
       <r>    9.0613    1.0000 </r>
       <r>    9.1342    1.0000 </r>
       <r>   10.8113    0.0000 </r>
       <r>   17.2265    0.0000 </r>
       <r>   17.9356    0.0000 </r>
       <r>   18.7624    0.0000 </r>
       <r>   20.0400    0.0000 </r>
       <r>   26.1802    0.0000 </r>
       <r>   26.3971    0.0000 </r>
       <r>   27.2598    0.0000 </r>
       <r>   28.1233    0.0000 </r>
       <r>   40.0308    0.0000 </r>
       <r>   41.7583    0.0000 </r>
       <r>   42.3837    0.0000 </r>
       <r>   44.7192    0.0000 </r>
       <r>   46.5924    0.0000 </r>
       <r>   46.6477    0.0000 </r>
       <r>   46.7206    0.0000 </r>
       <r>   47.5734    0.0000 </r>
       <r>   48.3916    0.0000 </r>
      </set>
      <set comment="kpoint 18">
       <r>    5.6700    1.0000 </r>
       <r>    5.8438    1.0000 </r>
       <r>    5.9386    1.0000 </r>
       <r>    6.4262    1.0000 </r>
       <r>    6.9900    1.0000 </r>
       <r>    7.2256    1.0000 </r>
       <r>    7.8601    1.0000 </r>
       <r>    8.7553    1.0000 </r>
       <r>    9.0371    1.0000 </r>
       <r>    9.0825    1.0000 </r>
       <r>   12.4639    0.0000 </r>
       <r>   14.9892    0.0000 </r>
       <r>   17.3024    0.0000 </r>
       <r>   20.7630    0.0000 </r>
       <r>   21.1185    0.0000 </r>
       <r>   23.7649    0.0000 </r>
       <r>   25.0939    0.0000 </r>
       <r>   25.9562    0.0000 </r>
       <r>   27.3436    0.0000 </r>
       <r>   40.4294    0.0000 </r>
       <r>   43.9677    0.0000 </r>
       <r>   44.2054    0.0000 </r>
       <r>   45.8952    0.0000 </r>
       <r>   46.7259    0.0000 </r>
       <r>   46.9816    0.0000 </r>
       <r>   47.0870    0.0000 </r>
       <r>   47.2100    0.0000 </r>
       <r>   49.5704    0.0000 </r>
      </set>
      <set comment="kpoint 19">
       <r>    5.6752    1.0000 </r>
       <r>    6.0309    1.0000 </r>
       <r>    6.0309    1.0000 </r>
       <r>    6.3139    1.0000 </r>
       <r>    7.0641    1.0000 </r>
       <r>    7.0641    1.0000 </r>
       <r>    7.9531    1.0000 </r>
       <r>    8.8932    1.0000 </r>
       <r>    8.8932    1.0000 </r>
       <r>    9.0122    1.0000 </r>
       <r>   14.2138    0.0000 </r>
       <r>   14.9750    0.0000 </r>
       <r>   14.9750    0.0000 </r>
       <r>   21.9924    0.0000 </r>
       <r>   22.7162    0.0000 </r>
       <r>   22.7162    0.0000 </r>
       <r>   24.6302    0.0000 </r>
       <r>   25.4165    0.0000 </r>
       <r>   25.4165    0.0000 </r>
       <r>   43.0168    0.0000 </r>
       <r>   44.9643    0.0000 </r>
       <r>   44.9643    0.0000 </r>
       <r>   46.6307    0.0000 </r>
       <r>   46.6307    0.0000 </r>
       <r>   46.7150    0.0000 </r>
       <r>   46.7150    0.0000 </r>
       <r>   47.3739    0.0000 </r>
       <r>   48.5812    0.0000 </r>
      </set>
      <set comment="kpoint 20">
       <r>    1.2845    1.0000 </r>
       <r>    4.8333    1.0000 </r>
       <r>    7.2580    1.0000 </r>
       <r>    7.2644    1.0000 </r>
       <r>    7.2644    1.0000 </r>
       <r>    7.5638    1.0000 </r>
       <r>    7.5638    1.0000 </r>
       <r>    8.0255    1.0000 </r>
       <r>    8.0255    1.0000 </r>
       <r>    8.9856    1.0000 </r>
       <r>    8.9856    1.0000 </r>
       <r>    9.2305    1.0000 </r>
       <r>   16.9593    0.0000 </r>
       <r>   31.5539    0.0000 </r>
       <r>   33.7834    0.0000 </r>
       <r>   34.0195    0.0000 </r>
       <r>   34.0195    0.0000 </r>
       <r>   34.3299    0.0000 </r>
       <r>   35.3136    0.0000 </r>
       <r>   35.3136    0.0000 </r>
       <r>   39.5362    0.0000 </r>
       <r>   39.5362    0.0000 </r>
       <r>   41.0822    0.0000 </r>
       <r>   41.6444    0.0000 </r>
       <r>   41.8431    0.0000 </r>
       <r>   41.8431    0.0000 </r>
       <r>   44.6667    0.0000 </r>
       <r>   45.8252    0.0000 </r>
      </set>
      <set comment="kpoint 21">
       <r>    1.5201    1.0000 </r>
       <r>    4.9815    1.0000 </r>
       <r>    7.0813    1.0000 </r>
       <r>    7.3608    1.0000 </r>
       <r>    7.3775    1.0000 </r>
       <r>    7.4638    1.0000 </r>
       <r>    7.6548    1.0000 </r>
       <r>    7.9208    1.0000 </r>
       <r>    7.9772    1.0000 </r>
       <r>    8.2063    1.0000 </r>
       <r>    9.0102    1.0000 </r>
       <r>   10.3091    0.0000 </r>
       <r>   17.0536    0.0000 </r>
       <r>   29.7273    0.0000 </r>
       <r>   31.9468    0.0000 </r>
       <r>   31.9670    0.0000 </r>
       <r>   33.8114    0.0000 </r>
       <r>   34.7960    0.0000 </r>
       <r>   36.6785    0.0000 </r>
       <r>   37.4994    0.0000 </r>
       <r>   38.7151    0.0000 </r>
       <r>   38.9658    0.0000 </r>
       <r>   39.4719    0.0000 </r>
       <r>   41.3084    0.0000 </r>
       <r>   42.7892    0.0000 </r>
       <r>   43.8367    0.0000 </r>
       <r>   44.1704    0.0000 </r>
       <r>   44.5689    0.0000 </r>
      </set>
      <set comment="kpoint 22">
       <r>    2.2001    1.0000 </r>
       <r>    5.3516    1.0000 </r>
       <r>    6.8400    1.0000 </r>
       <r>    6.9779    1.0000 </r>
       <r>    7.3482    1.0000 </r>
       <r>    7.5646    1.0000 </r>
       <r>    7.6978    1.0000 </r>
       <r>    7.8616    1.0000 </r>
       <r>    7.9769    1.0000 </r>
       <r>    8.0585    1.0000 </r>
       <r>    9.0624    1.0000 </r>
       <r>   11.6301    0.0000 </r>
       <r>   17.3682    0.0000 </r>
       <r>   25.9539    0.0000 </r>
       <r>   29.6504    0.0000 </r>
       <r>   30.7758    0.0000 </r>
       <r>   32.4757    0.0000 </r>
       <r>   34.0470    0.0000 </r>
       <r>   36.2013    0.0000 </r>
       <r>   37.1177    0.0000 </r>
       <r>   37.9478    0.0000 </r>
       <r>   38.8858    0.0000 </r>
       <r>   40.2488    0.0000 </r>
       <r>   42.1610    0.0000 </r>
       <r>   42.7260    0.0000 </r>
       <r>   44.4608    0.0000 </r>
       <r>   45.4984    0.0000 </r>
       <r>   46.0863    0.0000 </r>
      </set>
      <set comment="kpoint 23">
       <r>    3.2205    1.0000 </r>
       <r>    5.6554    1.0000 </r>
       <r>    6.3593    1.0000 </r>
       <r>    6.6996    1.0000 </r>
       <r>    7.2247    1.0000 </r>
       <r>    7.5162    1.0000 </r>
       <r>    7.7318    1.0000 </r>
       <r>    8.1933    1.0000 </r>
       <r>    8.2448    1.0000 </r>
       <r>    8.3200    1.0000 </r>
       <r>    9.1119    1.0000 </r>
       <r>   13.0157    0.0000 </r>
       <r>   17.9606    0.0000 </r>
       <r>   22.2954    0.0000 </r>
       <r>   27.6444    0.0000 </r>
       <r>   28.2818    0.0000 </r>
       <r>   30.7259    0.0000 </r>
       <r>   33.5684    0.0000 </r>
       <r>   34.0505    0.0000 </r>
       <r>   35.6845    0.0000 </r>
       <r>   37.4815    0.0000 </r>
       <r>   39.6628    0.0000 </r>
       <r>   39.8181    0.0000 </r>
       <r>   44.4257    0.0000 </r>
       <r>   44.4610    0.0000 </r>
       <r>   46.1612    0.0000 </r>
       <r>   46.8019    0.0000 </r>
       <r>   47.7435    0.0000 </r>
      </set>
      <set comment="kpoint 24">
       <r>    4.2977    1.0000 </r>
       <r>    5.5863    1.0000 </r>
       <r>    5.9558    1.0000 </r>
       <r>    6.6868    1.0000 </r>
       <r>    7.3658    1.0000 </r>
       <r>    7.3745    1.0000 </r>
       <r>    7.7780    1.0000 </r>
       <r>    8.6459    1.0000 </r>
       <r>    8.7150    1.0000 </r>
       <r>    8.7998    1.0000 </r>
       <r>    9.1500    1.0000 </r>
       <r>   14.3425    0.0000 </r>
       <r>   18.2703    0.0000 </r>
       <r>   19.7364    0.0000 </r>
       <r>   25.3129    0.0000 </r>
       <r>   26.0579    0.0000 </r>
       <r>   28.8366    0.0000 </r>
       <r>   32.1782    0.0000 </r>
       <r>   32.8086    0.0000 </r>
       <r>   34.3885    0.0000 </r>
       <r>   38.3972    0.0000 </r>
       <r>   38.9694    0.0000 </r>
       <r>   40.7112    0.0000 </r>
       <r>   45.7372    0.0000 </r>
       <r>   46.3666    0.0000 </r>
       <r>   47.1336    0.0000 </r>
       <r>   47.8590    0.0000 </r>
       <r>   48.6919    0.0000 </r>
      </set>
      <set comment="kpoint 25">
       <r>    4.9178    1.0000 </r>
       <r>    5.3757    1.0000 </r>
       <r>    5.8305    1.0000 </r>
       <r>    6.7004    1.0000 </r>
       <r>    7.2537    1.0000 </r>
       <r>    7.6264    1.0000 </r>
       <r>    7.9982    1.0000 </r>
       <r>    8.9719    1.0000 </r>
       <r>    9.0402    1.0000 </r>
       <r>    9.1946    1.0000 </r>
       <r>    9.8475    0.4700 </r>
       <r>   14.3652    0.0000 </r>
       <r>   17.4194    0.0000 </r>
       <r>   20.1504    0.0000 </r>
       <r>   23.1630    0.0000 </r>
       <r>   25.0188    0.0000 </r>
       <r>   26.3160    0.0000 </r>
       <r>   31.5990    0.0000 </r>
       <r>   32.1395    0.0000 </r>
       <r>   33.4807    0.0000 </r>
       <r>   38.4931    0.0000 </r>
       <r>   39.5944    0.0000 </r>
       <r>   41.4271    0.0000 </r>
       <r>   45.5073    0.0000 </r>
       <r>   46.6249    0.0000 </r>
       <r>   47.0684    0.0000 </r>
       <r>   49.1425    0.0000 </r>
       <r>   51.0380    0.0000 </r>
      </set>
      <set comment="kpoint 26">
       <r>    5.0504    1.0000 </r>
       <r>    5.2709    1.0000 </r>
       <r>    5.8259    1.0000 </r>
       <r>    6.7219    1.0000 </r>
       <r>    7.2133    1.0000 </r>
       <r>    7.7051    1.0000 </r>
       <r>    8.1650    1.0000 </r>
       <r>    9.0592    1.0000 </r>
       <r>    9.1664    1.0000 </r>
       <r>    9.2461    1.0000 </r>
       <r>   10.9912    0.0000 </r>
       <r>   12.9553    0.0000 </r>
       <r>   18.7754    0.0000 </r>
       <r>   19.1182    0.0000 </r>
       <r>   23.5438    0.0000 </r>
       <r>   24.4231    0.0000 </r>
       <r>   24.6536    0.0000 </r>
       <r>   31.4640    0.0000 </r>
       <r>   31.9030    0.0000 </r>
       <r>   33.1546    0.0000 </r>
       <r>   38.3429    0.0000 </r>
       <r>   40.2211    0.0000 </r>
       <r>   41.7058    0.0000 </r>
       <r>   44.8643    0.0000 </r>
       <r>   46.7572    0.0000 </r>
       <r>   47.1267    0.0000 </r>
       <r>   49.5902    0.0000 </r>
       <r>   52.2958    0.0000 </r>
      </set>
      <set comment="kpoint 27">
       <r>    1.9788    1.0000 </r>
       <r>    5.2466    1.0000 </r>
       <r>    6.8918    1.0000 </r>
       <r>    7.1517    1.0000 </r>
       <r>    7.4169    1.0000 </r>
       <r>    7.5138    1.0000 </r>
       <r>    7.6438    1.0000 </r>
       <r>    7.7938    1.0000 </r>
       <r>    7.9813    1.0000 </r>
       <r>    8.0763    1.0000 </r>
       <r>    9.0415    1.0000 </r>
       <r>   11.2694    0.0000 </r>
       <r>   17.2598    0.0000 </r>
       <r>   27.6891    0.0000 </r>
       <r>   28.3641    0.0000 </r>
       <r>   33.0139    0.0000 </r>
       <r>   33.1528    0.0000 </r>
       <r>   34.2027    0.0000 </r>
       <r>   35.7170    0.0000 </r>
       <r>   36.1363    0.0000 </r>
       <r>   39.0994    0.0000 </r>
       <r>   39.5169    0.0000 </r>
       <r>   41.0621    0.0000 </r>
       <r>   41.2648    0.0000 </r>
       <r>   41.9720    0.0000 </r>
       <r>   43.8088    0.0000 </r>
       <r>   44.1425    0.0000 </r>
       <r>   46.3423    0.0000 </r>
      </set>
      <set comment="kpoint 28">
       <r>    2.8385    1.0000 </r>
       <r>    5.6314    1.0000 </r>
       <r>    6.5714    1.0000 </r>
       <r>    6.6533    1.0000 </r>
       <r>    7.2886    1.0000 </r>
       <r>    7.4784    1.0000 </r>
       <r>    7.7365    1.0000 </r>
       <r>    7.9530    1.0000 </r>
       <r>    8.1682    1.0000 </r>
       <r>    8.2919    1.0000 </r>
       <r>    9.0824    1.0000 </r>
       <r>   12.5342    0.0000 </r>
       <r>   17.7327    0.0000 </r>
       <r>   24.1710    0.0000 </r>
       <r>   26.3618    0.0000 </r>
       <r>   30.1534    0.0000 </r>
       <r>   32.2745    0.0000 </r>
       <r>   33.1555    0.0000 </r>
       <r>   35.3839    0.0000 </r>
       <r>   36.0756    0.0000 </r>
       <r>   37.0329    0.0000 </r>
       <r>   38.9868    0.0000 </r>
       <r>   41.6292    0.0000 </r>
       <r>   42.7147    0.0000 </r>
       <r>   44.5464    0.0000 </r>
       <r>   45.0389    0.0000 </r>
       <r>   46.2698    0.0000 </r>
       <r>   46.4118    0.0000 </r>
      </set>
      <set comment="kpoint 29">
       <r>    3.9283    1.0000 </r>
       <r>    5.7623    1.0000 </r>
       <r>    6.0895    1.0000 </r>
       <r>    6.5858    1.0000 </r>
       <r>    7.1988    1.0000 </r>
       <r>    7.4575    1.0000 </r>
       <r>    7.6789    1.0000 </r>
       <r>    8.2653    1.0000 </r>
       <r>    8.5647    1.0000 </r>
       <r>    8.7713    1.0000 </r>
       <r>    9.1452    1.0000 </r>
       <r>   13.8922    0.0000 </r>
       <r>   18.4592    0.0000 </r>
       <r>   20.7776    0.0000 </r>
       <r>   24.8624    0.0000 </r>
       <r>   26.9920    0.0000 </r>
       <r>   30.7246    0.0000 </r>
       <r>   31.2152    0.0000 </r>
       <r>   34.2119    0.0000 </r>
       <r>   35.2848    0.0000 </r>
       <r>   37.0786    0.0000 </r>
       <r>   39.7488    0.0000 </r>
       <r>   42.4101    0.0000 </r>
       <r>   43.7238    0.0000 </r>
       <r>   46.0229    0.0000 </r>
       <r>   46.6410    0.0000 </r>
       <r>   47.1167    0.0000 </r>
       <r>   47.6985    0.0000 </r>
      </set>
      <set comment="kpoint 30">
       <r>    4.8208    1.0000 </r>
       <r>    5.5727    1.0000 </r>
       <r>    5.8605    1.0000 </r>
       <r>    6.6195    1.0000 </r>
       <r>    7.2300    1.0000 </r>
       <r>    7.5448    1.0000 </r>
       <r>    7.7287    1.0000 </r>
       <r>    8.7051    1.0000 </r>
       <r>    8.9524    1.0000 </r>
       <r>    9.0592    1.0000 </r>
       <r>    9.6312    1.0000 </r>
       <r>   14.9423    0.0000 </r>
       <r>   17.6481    0.0000 </r>
       <r>   20.0413    0.0000 </r>
       <r>   23.5972    0.0000 </r>
       <r>   24.3437    0.0000 </r>
       <r>   27.9320    0.0000 </r>
       <r>   30.3338    0.0000 </r>
       <r>   33.5113    0.0000 </r>
       <r>   34.1471    0.0000 </r>
       <r>   37.8060    0.0000 </r>
       <r>   40.4237    0.0000 </r>
       <r>   42.8051    0.0000 </r>
       <r>   45.8122    0.0000 </r>
       <r>   46.4738    0.0000 </r>
       <r>   46.9449    0.0000 </r>
       <r>   47.1637    0.0000 </r>
       <r>   49.9676    0.0000 </r>
      </set>
      <set comment="kpoint 31">
       <r>    5.1186    1.0000 </r>
       <r>    5.3974    1.0000 </r>
       <r>    5.8613    1.0000 </r>
       <r>    6.6727    1.0000 </r>
       <r>    7.1567    1.0000 </r>
       <r>    7.7228    1.0000 </r>
       <r>    7.9078    1.0000 </r>
       <r>    9.0183    1.0000 </r>
       <r>    9.1184    1.0000 </r>
       <r>    9.1547    1.0000 </r>
       <r>   10.8772    0.0000 </r>
       <r>   13.6818    0.0000 </r>
       <r>   18.1896    0.0000 </r>
       <r>   19.9830    0.0000 </r>
       <r>   22.8823    0.0000 </r>
       <r>   23.4866    0.0000 </r>
       <r>   25.4285    0.0000 </r>
       <r>   29.8733    0.0000 </r>
       <r>   33.2184    0.0000 </r>
       <r>   33.5215    0.0000 </r>
       <r>   38.0972    0.0000 </r>
       <r>   41.4572    0.0000 </r>
       <r>   42.6316    0.0000 </r>
       <r>   45.2910    0.0000 </r>
       <r>   46.7181    0.0000 </r>
       <r>   47.1425    0.0000 </r>
       <r>   49.0789    0.0000 </r>
       <r>   50.9645    0.0000 </r>
      </set>
      <set comment="kpoint 32">
       <r>    3.7966    1.0000 </r>
       <r>    5.9425    1.0000 </r>
       <r>    6.1793    1.0000 </r>
       <r>    6.3721    1.0000 </r>
       <r>    7.2084    1.0000 </r>
       <r>    7.3706    1.0000 </r>
       <r>    7.6988    1.0000 </r>
       <r>    8.0747    1.0000 </r>
       <r>    8.5736    1.0000 </r>
       <r>    8.7699    1.0000 </r>
       <r>    9.1421    1.0000 </r>
       <r>   13.7344    0.0000 </r>
       <r>   18.4293    0.0000 </r>
       <r>   22.4813    0.0000 </r>
       <r>   22.9078    0.0000 </r>
       <r>   28.6326    0.0000 </r>
       <r>   29.3183    0.0000 </r>
       <r>   32.8052    0.0000 </r>
       <r>   33.3577    0.0000 </r>
       <r>   36.6168    0.0000 </r>
       <r>   37.5459    0.0000 </r>
       <r>   39.3406    0.0000 </r>
       <r>   43.2614    0.0000 </r>
       <r>   43.3491    0.0000 </r>
       <r>   45.3501    0.0000 </r>
       <r>   46.4685    0.0000 </r>
       <r>   46.6541    0.0000 </r>
       <r>   47.0667    0.0000 </r>
      </set>
      <set comment="kpoint 33">
       <r>    4.8136    1.0000 </r>
       <r>    5.8559    1.0000 </r>
       <r>    5.9424    1.0000 </r>
       <r>    6.3662    1.0000 </r>
       <r>    7.1128    1.0000 </r>
       <r>    7.5133    1.0000 </r>
       <r>    7.5426    1.0000 </r>
       <r>    8.3399    1.0000 </r>
       <r>    8.9723    1.0000 </r>
       <r>    8.9748    1.0000 </r>
       <r>    9.7016    1.0000 </r>
       <r>   15.0682    0.0000 </r>
       <r>   18.8984    0.0000 </r>
       <r>   20.0072    0.0000 </r>
       <r>   21.5485    0.0000 </r>
       <r>   25.8665    0.0000 </r>
       <r>   27.9908    0.0000 </r>
       <r>   29.8978    0.0000 </r>
       <r>   32.2283    0.0000 </r>
       <r>   37.0162    0.0000 </r>
       <r>   38.5583    0.0000 </r>
       <r>   41.3842    0.0000 </r>
       <r>   43.1734    0.0000 </r>
       <r>   45.2559    0.0000 </r>
       <r>   46.2938    0.0000 </r>
       <r>   46.6961    0.0000 </r>
       <r>   47.0385    0.0000 </r>
       <r>   47.7842    0.0000 </r>
      </set>
      <set comment="kpoint 34">
       <r>    5.3305    1.0000 </r>
       <r>    5.7226    1.0000 </r>
       <r>    5.8654    1.0000 </r>
       <r>    6.4932    1.0000 </r>
       <r>    7.0859    1.0000 </r>
       <r>    7.4799    1.0000 </r>
       <r>    7.7289    1.0000 </r>
       <r>    8.7039    1.0000 </r>
       <r>    8.9859    1.0000 </r>
       <r>    9.1649    1.0000 </r>
       <r>   10.8606    0.0000 </r>
       <r>   15.1928    0.0000 </r>
       <r>   17.8388    0.0000 </r>
       <r>   20.5441    0.0000 </r>
       <r>   20.9170    0.0000 </r>
       <r>   23.6492    0.0000 </r>
       <r>   26.9810    0.0000 </r>
       <r>   27.4099    0.0000 </r>
       <r>   31.5454    0.0000 </r>
       <r>   36.7355    0.0000 </r>
       <r>   39.6979    0.0000 </r>
       <r>   42.0959    0.0000 </r>
       <r>   45.4878    0.0000 </r>
       <r>   45.8582    0.0000 </r>
       <r>   46.2283    0.0000 </r>
       <r>   46.7068    0.0000 </r>
       <r>   47.0687    0.0000 </r>
       <r>   49.4661    0.0000 </r>
      </set>
      <set comment="kpoint 35">
       <r>    5.3677    1.0000 </r>
       <r>    5.6372    1.0000 </r>
       <r>    5.9551    1.0000 </r>
       <r>    6.5684    1.0000 </r>
       <r>    7.0254    1.0000 </r>
       <r>    7.5480    1.0000 </r>
       <r>    7.8148    1.0000 </r>
       <r>    8.9682    1.0000 </r>
       <r>    8.9705    1.0000 </r>
       <r>    9.1432    1.0000 </r>
       <r>   12.1557    0.0000 </r>
       <r>   13.5769    0.0000 </r>
       <r>   19.3211    0.0000 </r>
       <r>   19.6832    0.0000 </r>
       <r>   20.4734    0.0000 </r>
       <r>   23.9784    0.0000 </r>
       <r>   25.1242    0.0000 </r>
       <r>   27.1409    0.0000 </r>
       <r>   31.3043    0.0000 </r>
       <r>   36.6090    0.0000 </r>
       <r>   40.2470    0.0000 </r>
       <r>   42.1276    0.0000 </r>
       <r>   45.2158    0.0000 </r>
       <r>   45.9492    0.0000 </r>
       <r>   46.6966    0.0000 </r>
       <r>   47.7575    0.0000 </r>
       <r>   47.8531    0.0000 </r>
       <r>   50.6449    0.0000 </r>
      </set>
      <set comment="kpoint 36">
       <r>    5.5745    1.0000 </r>
       <r>    5.7126    1.0000 </r>
       <r>    6.1194    1.0000 </r>
       <r>    6.1708    1.0000 </r>
       <r>    7.0676    1.0000 </r>
       <r>    7.3317    1.0000 </r>
       <r>    7.6956    1.0000 </r>
       <r>    8.5138    1.0000 </r>
       <r>    8.9417    1.0000 </r>
       <r>    9.1724    1.0000 </r>
       <r>   10.8843    0.0000 </r>
       <r>   16.2592    0.0000 </r>
       <r>   18.0949    0.0000 </r>
       <r>   18.7940    0.0000 </r>
       <r>   21.1790    0.0000 </r>
       <r>   25.0309    0.0000 </r>
       <r>   25.1785    0.0000 </r>
       <r>   28.8925    0.0000 </r>
       <r>   29.4535    0.0000 </r>
       <r>   39.4836    0.0000 </r>
       <r>   40.8682    0.0000 </r>
       <r>   41.7644    0.0000 </r>
       <r>   44.5542    0.0000 </r>
       <r>   45.3247    0.0000 </r>
       <r>   46.5250    0.0000 </r>
       <r>   46.6211    0.0000 </r>
       <r>   48.0013    0.0000 </r>
       <r>   49.0810    0.0000 </r>
      </set>
      <set comment="kpoint 37">
       <r>    5.6278    1.0000 </r>
       <r>    5.9237    1.0000 </r>
       <r>    6.0137    1.0000 </r>
       <r>    6.3558    1.0000 </r>
       <r>    7.0202    1.0000 </r>
       <r>    7.2223    1.0000 </r>
       <r>    7.8619    1.0000 </r>
       <r>    8.7677    1.0000 </r>
       <r>    8.9116    1.0000 </r>
       <r>    9.1094    1.0000 </r>
       <r>   12.5728    0.0000 </r>
       <r>   15.0175    0.0000 </r>
       <r>   17.3451    0.0000 </r>
       <r>   19.5558    0.0000 </r>
       <r>   21.3851    0.0000 </r>
       <r>   23.6272    0.0000 </r>
       <r>   25.0273    0.0000 </r>
       <r>   26.5568    0.0000 </r>
       <r>   28.8017    0.0000 </r>
       <r>   40.2885    0.0000 </r>
       <r>   41.9701    0.0000 </r>
       <r>   43.3680    0.0000 </r>
       <r>   44.9433    0.0000 </r>
       <r>   46.1587    0.0000 </r>
       <r>   46.4154    0.0000 </r>
       <r>   46.9175    0.0000 </r>
       <r>   48.4767    0.0000 </r>
       <r>   49.7609    0.0000 </r>
      </set>
      <set comment="kpoint 38">
       <r>    5.7278    1.0000 </r>
       <r>    6.0432    1.0000 </r>
       <r>    6.0432    1.0000 </r>
       <r>    6.3255    1.0000 </r>
       <r>    7.0500    1.0000 </r>
       <r>    7.0500    1.0000 </r>
       <r>    7.9368    1.0000 </r>
       <r>    8.8799    1.0000 </r>
       <r>    8.9160    1.0000 </r>
       <r>    8.9160    1.0000 </r>
       <r>   14.4386    0.0000 </r>
       <r>   15.0239    0.0000 </r>
       <r>   15.0239    0.0000 </r>
       <r>   21.0649    0.0000 </r>
       <r>   21.7796    0.0000 </r>
       <r>   21.7796    0.0000 </r>
       <r>   25.7824    0.0000 </r>
       <r>   26.6440    0.0000 </r>
       <r>   26.6440    0.0000 </r>
       <r>   42.0972    0.0000 </r>
       <r>   43.8975    0.0000 </r>
       <r>   43.8975    0.0000 </r>
       <r>   45.3973    0.0000 </r>
       <r>   45.5164    0.0000 </r>
       <r>   45.5164    0.0000 </r>
       <r>   47.2170    0.0000 </r>
       <r>   47.2170    0.0000 </r>
       <r>   50.3223    0.0000 </r>
      </set>
      <set comment="kpoint 39">
       <r>    1.7392    1.0000 </r>
       <r>    4.6677    1.0000 </r>
       <r>    7.1562    1.0000 </r>
       <r>    7.2043    1.0000 </r>
       <r>    7.2043    1.0000 </r>
       <r>    7.4601    1.0000 </r>
       <r>    7.4601    1.0000 </r>
       <r>    8.0942    1.0000 </r>
       <r>    8.2382    1.0000 </r>
       <r>    8.2382    1.0000 </r>
       <r>    8.9477    1.0000 </r>
       <r>    8.9477    1.0000 </r>
       <r>   19.0873    0.0000 </r>
       <r>   30.6335    0.0000 </r>
       <r>   31.9667    0.0000 </r>
       <r>   33.6362    0.0000 </r>
       <r>   34.4320    0.0000 </r>
       <r>   34.4320    0.0000 </r>
       <r>   35.4584    0.0000 </r>
       <r>   35.4584    0.0000 </r>
       <r>   38.7436    0.0000 </r>
       <r>   38.7436    0.0000 </r>
       <r>   40.1612    0.0000 </r>
       <r>   40.1612    0.0000 </r>
       <r>   41.7167    0.0000 </r>
       <r>   42.2797    0.0000 </r>
       <r>   46.2567    0.0000 </r>
       <r>   46.2855    0.0000 </r>
      </set>
      <set comment="kpoint 40">
       <r>    1.9679    1.0000 </r>
       <r>    4.8375    1.0000 </r>
       <r>    7.0898    1.0000 </r>
       <r>    7.1803    1.0000 </r>
       <r>    7.2257    1.0000 </r>
       <r>    7.2913    1.0000 </r>
       <r>    7.5492    1.0000 </r>
       <r>    7.7992    1.0000 </r>
       <r>    8.2067    1.0000 </r>
       <r>    8.2483    1.0000 </r>
       <r>    8.9620    1.0000 </r>
       <r>    9.5217    1.0000 </r>
       <r>   19.2280    0.0000 </r>
       <r>   29.9582    0.0000 </r>
       <r>   30.9421    0.0000 </r>
       <r>   32.1298    0.0000 </r>
       <r>   32.4162    0.0000 </r>
       <r>   33.8451    0.0000 </r>
       <r>   35.8034    0.0000 </r>
       <r>   36.6784    0.0000 </r>
       <r>   38.3881    0.0000 </r>
       <r>   39.4589    0.0000 </r>
       <r>   39.6822    0.0000 </r>
       <r>   41.7237    0.0000 </r>
       <r>   42.4382    0.0000 </r>
       <r>   44.4439    0.0000 </r>
       <r>   45.2465    0.0000 </r>
       <r>   46.0935    0.0000 </r>
      </set>
      <set comment="kpoint 41">
       <r>    2.6213    1.0000 </r>
       <r>    5.2742    1.0000 </r>
       <r>    6.6662    1.0000 </r>
       <r>    6.8962    1.0000 </r>
       <r>    7.1475    1.0000 </r>
       <r>    7.4905    1.0000 </r>
       <r>    7.6079    1.0000 </r>
       <r>    7.7960    1.0000 </r>
       <r>    8.1818    1.0000 </r>
       <r>    8.3065    1.0000 </r>
       <r>    8.9916    1.0000 </r>
       <r>   10.4582    0.0000 </r>
       <r>   19.6619    0.0000 </r>
       <r>   26.3378    0.0000 </r>
       <r>   29.8287    0.0000 </r>
       <r>   30.1770    0.0000 </r>
       <r>   31.6185    0.0000 </r>
       <r>   32.2169    0.0000 </r>
       <r>   34.9243    0.0000 </r>
       <r>   35.2913    0.0000 </r>
       <r>   39.2114    0.0000 </r>
       <r>   40.5017    0.0000 </r>
       <r>   40.6863    0.0000 </r>
       <r>   42.9807    0.0000 </r>
       <r>   43.9267    0.0000 </r>
       <r>   44.9012    0.0000 </r>
       <r>   45.7912    0.0000 </r>
       <r>   46.2785    0.0000 </r>
      </set>
      <set comment="kpoint 42">
       <r>    3.5684    1.0000 </r>
       <r>    5.6554    1.0000 </r>
       <r>    6.1915    1.0000 </r>
       <r>    6.7645    1.0000 </r>
       <r>    7.0754    1.0000 </r>
       <r>    7.5787    1.0000 </r>
       <r>    7.6702    1.0000 </r>
       <r>    8.1599    1.0000 </r>
       <r>    8.3562    1.0000 </r>
       <r>    8.4489    1.0000 </r>
       <r>    9.0230    1.0000 </r>
       <r>   11.4800    0.0000 </r>
       <r>   20.3607    0.0000 </r>
       <r>   22.7224    0.0000 </r>
       <r>   26.8209    0.0000 </r>
       <r>   28.2365    0.0000 </r>
       <r>   31.1954    0.0000 </r>
       <r>   32.0159    0.0000 </r>
       <r>   33.7490    0.0000 </r>
       <r>   34.0425    0.0000 </r>
       <r>   36.8747    0.0000 </r>
       <r>   41.1872    0.0000 </r>
       <r>   41.6848    0.0000 </r>
       <r>   45.4122    0.0000 </r>
       <r>   45.4915    0.0000 </r>
       <r>   46.4506    0.0000 </r>
       <r>   46.9316    0.0000 </r>
       <r>   46.9512    0.0000 </r>
      </set>
      <set comment="kpoint 43">
       <r>    4.4604    1.0000 </r>
       <r>    5.5715    1.0000 </r>
       <r>    5.9967    1.0000 </r>
       <r>    6.6004    1.0000 </r>
       <r>    7.3699    1.0000 </r>
       <r>    7.5108    1.0000 </r>
       <r>    8.1182    1.0000 </r>
       <r>    8.5485    1.0000 </r>
       <r>    8.7012    1.0000 </r>
       <r>    8.7449    1.0000 </r>
       <r>    9.0712    1.0000 </r>
       <r>   12.5606    0.0000 </r>
       <r>   19.2599    0.0000 </r>
       <r>   21.3393    0.0000 </r>
       <r>   24.0696    0.0000 </r>
       <r>   26.7033    0.0000 </r>
       <r>   30.0939    0.0000 </r>
       <r>   31.9471    0.0000 </r>
       <r>   32.4634    0.0000 </r>
       <r>   32.7872    0.0000 </r>
       <r>   36.1380    0.0000 </r>
       <r>   41.1495    0.0000 </r>
       <r>   41.9171    0.0000 </r>
       <r>   45.0476    0.0000 </r>
       <r>   46.6274    0.0000 </r>
       <r>   46.7201    0.0000 </r>
       <r>   48.2641    0.0000 </r>
       <r>   48.8576    0.0000 </r>
      </set>
      <set comment="kpoint 44">
       <r>    4.8466    1.0000 </r>
       <r>    5.3872    1.0000 </r>
       <r>    6.0596    1.0000 </r>
       <r>    6.3900    1.0000 </r>
       <r>    7.4321    1.0000 </r>
       <r>    7.6926    1.0000 </r>
       <r>    8.7437    1.0000 </r>
       <r>    8.7706    1.0000 </r>
       <r>    9.0232    1.0000 </r>
       <r>    9.1708    1.0000 </r>
       <r>    9.6200    1.0000 </r>
       <r>   13.2563    0.0000 </r>
       <r>   17.1981    0.0000 </r>
       <r>   20.0117    0.0000 </r>
       <r>   24.0812    0.0000 </r>
       <r>   25.7017    0.0000 </r>
       <r>   28.1710    0.0000 </r>
       <r>   31.6007    0.0000 </r>
       <r>   31.6508    0.0000 </r>
       <r>   31.8794    0.0000 </r>
       <r>   37.2266    0.0000 </r>
       <r>   40.6941    0.0000 </r>
       <r>   41.2192    0.0000 </r>
       <r>   43.7259    0.0000 </r>
       <r>   46.7018    0.0000 </r>
       <r>   47.0641    0.0000 </r>
       <r>   50.0060    0.0000 </r>
       <r>   51.4371    0.0000 </r>
      </set>
      <set comment="kpoint 45">
       <r>    4.8983    1.0000 </r>
       <r>    5.3160    1.0000 </r>
       <r>    6.1909    1.0000 </r>
       <r>    6.2376    1.0000 </r>
       <r>    7.4012    1.0000 </r>
       <r>    7.7962    1.0000 </r>
       <r>    8.8205    1.0000 </r>
       <r>    8.9185    1.0000 </r>
       <r>    9.1579    1.0000 </r>
       <r>    9.2340    1.0000 </r>
       <r>   10.7529    0.0000 </r>
       <r>   12.6766    0.0000 </r>
       <r>   17.8042    0.0000 </r>
       <r>   17.9415    0.0000 </r>
       <r>   25.3504    0.0000 </r>
       <r>   25.5918    0.0000 </r>
       <r>   26.2918    0.0000 </r>
       <r>   31.2952    0.0000 </r>
       <r>   31.5388    0.0000 </r>
       <r>   31.6266    0.0000 </r>
       <r>   38.4741    0.0000 </r>
       <r>   39.8390    0.0000 </r>
       <r>   40.5363    0.0000 </r>
       <r>   43.5778    0.0000 </r>
       <r>   46.7223    0.0000 </r>
       <r>   47.1903    0.0000 </r>
       <r>   50.3159    0.0000 </r>
       <r>   53.1039    0.0000 </r>
      </set>
      <set comment="kpoint 46">
       <r>    2.4102    1.0000 </r>
       <r>    5.1474    1.0000 </r>
       <r>    6.8173    1.0000 </r>
[...]
       </set>
       <set comment="band 28">
        <r>  0.0107  0.0063  0.0240  0.0185  0.0155  0.0179  0.0001  0.0262  0.0458 </r>
        <r>  0.0571  0.0334  0.0045  0.0989  0.0828  0.0034  0.0004  0.0049  0.2446 </r>
       </set>
      </set>
      <set comment="kpoint 93">
       <set comment="band 1">
        <r>  0.0031  0.0003  0.0230  0.0018  0.0011  0.0004  0.0014  0.4468  0.0018 </r>
        <r>  0.1105  0.0093  0.0006  0.0627  0.0395  0.0000  0.0488  0.0125  0.0650 </r>
       </set>
       <set comment="band 2">
        <r>  0.1105  0.0093  0.0006  0.0627  0.0395  0.0000  0.0488  0.0125  0.0650 </r>
        <r>  0.0031  0.0003  0.0230  0.0018  0.0011  0.0004  0.0014  0.4468  0.0018 </r>
       </set>
       <set comment="band 3">
        <r>  0.0118  0.0295  0.0154  0.0068  0.3389  0.0337  0.0028  0.0000  0.0209 </r>
        <r>  0.0110  0.0277  0.0164  0.0063  0.3176  0.0359  0.0026  0.0000  0.0196 </r>
       </set>
       <set comment="band 4">
        <r>  0.0110  0.0277  0.0164  0.0063  0.3176  0.0359  0.0026  0.0000  0.0196 </r>
        <r>  0.0118  0.0295  0.0154  0.0068  0.3389  0.0337  0.0028  0.0000  0.0209 </r>
       </set>
       <set comment="band 5">
        <r>  0.0005  0.0000  0.0053  0.0379  0.0005  0.1507  0.1431  0.0165  0.0677 </r>
        <r>  0.0008  0.0000  0.0037  0.0546  0.0007  0.1045  0.2065  0.0115  0.0977 </r>
       </set>
       <set comment="band 6">
        <r>  0.0008  0.0000  0.0037  0.0546  0.0007  0.1045  0.2065  0.0115  0.0977 </r>
        <r>  0.0005  0.0000  0.0053  0.0379  0.0005  0.1507  0.1431  0.0165  0.0677 </r>
       </set>
       <set comment="band 7">
        <r>  0.0028  0.0000  0.0000  0.0004  0.0391  0.3406  0.0128  0.0624  0.0622 </r>
        <r>  0.0062  0.0000  0.0000  0.0008  0.0863  0.1543  0.0283  0.0283  0.1372 </r>
       </set>
       <set comment="band 8">
        <r>  0.0062  0.0000  0.0000  0.0008  0.0863  0.1543  0.0283  0.0283  0.1372 </r>
        <r>  0.0028  0.0000  0.0000  0.0004  0.0391  0.3406  0.0128  0.0624  0.0622 </r>
       </set>
       <set comment="band 9">
        <r>  0.0000  0.0000  0.0029  0.0001  0.0004  0.0866  0.0227  0.2021  0.0074 </r>
        <r>  0.0000  0.0001  0.0001  0.0029  0.0089  0.0041  0.4840  0.0095  0.1567 </r>
       </set>
       <set comment="band 10">
        <r>  0.0000  0.0001  0.0001  0.0029  0.0089  0.0041  0.4840  0.0095  0.1567 </r>
        <r>  0.0000  0.0000  0.0029  0.0001  0.0004  0.0866  0.0227  0.2021  0.0074 </r>
       </set>
       <set comment="band 11">
        <r>  0.0326  0.0014  0.0419  0.0730  0.0082  0.0040  0.0005  0.0868  0.1555 </r>
        <r>  0.0461  0.0019  0.0297  0.1032  0.0116  0.0028  0.0007  0.0614  0.2197 </r>
       </set>
       <set comment="band 12">
        <r>  0.0461  0.0019  0.0297  0.1032  0.0116  0.0028  0.0007  0.0614  0.2197 </r>
        <r>  0.0326  0.0014  0.0419  0.0730  0.0082  0.0040  0.0005  0.0868  0.1555 </r>
       </set>
       <set comment="band 13">
        <r>  0.0007  0.2831  0.0047  0.0064  0.2892  0.0028  0.0017  0.0049  0.0012 </r>
        <r>  0.0001  0.0221  0.0602  0.0005  0.0225  0.0360  0.0001  0.0627  0.0001 </r>
       </set>
       <set comment="band 14">
        <r>  0.0001  0.0221  0.0602  0.0005  0.0225  0.0360  0.0001  0.0627  0.0001 </r>
        <r>  0.0007  0.2831  0.0047  0.0064  0.2892  0.0028  0.0017  0.0049  0.0012 </r>
       </set>
       <set comment="band 15">
        <r>  0.1718  0.0004  0.0024  0.0765  0.0003  0.0647  0.0275  0.0441  0.0000 </r>
        <r>  0.1997  0.0004  0.0020  0.0889  0.0003  0.0557  0.0320  0.0379  0.0000 </r>
       </set>
       <set comment="band 16">
        <r>  0.1997  0.0004  0.0020  0.0889  0.0003  0.0557  0.0320  0.0379  0.0000 </r>
        <r>  0.1718  0.0004  0.0024  0.0765  0.0003  0.0647  0.0275  0.0441  0.0000 </r>
       </set>
       <set comment="band 17">
        <r>  0.0011  0.0000  0.2561  0.0018  0.0001  0.0259  0.0023  0.0895  0.0006 </r>
        <r>  0.0436  0.0001  0.0066  0.0693  0.0026  0.0007  0.0872  0.0023  0.0233 </r>
       </set>
       <set comment="band 18">
        <r>  0.0436  0.0001  0.0066  0.0693  0.0026  0.0007  0.0872  0.0023  0.0233 </r>
        <r>  0.0011  0.0000  0.2561  0.0018  0.0001  0.0259  0.0023  0.0895  0.0006 </r>
       </set>
       <set comment="band 19">
        <r>  0.0029  0.0253  0.0554  0.0054  0.0417  0.0730  0.0195  0.0623  0.0044 </r>
        <r>  0.0047  0.0403  0.0348  0.0086  0.0665  0.0458  0.0311  0.0391  0.0070 </r>
       </set>
       <set comment="band 20">
        <r>  0.0047  0.0403  0.0348  0.0086  0.0665  0.0458  0.0311  0.0391  0.0070 </r>
        <r>  0.0029  0.0253  0.0554  0.0054  0.0417  0.0730  0.0195  0.0623  0.0044 </r>
       </set>
       <set comment="band 21">
        <r>  0.0011  0.0003  0.0738  0.0018  0.0012  0.0074  0.0090  0.1816  0.0013 </r>
        <r>  0.0316  0.0079  0.0026  0.0501  0.0326  0.0003  0.2511  0.0065  0.0353 </r>
       </set>
       <set comment="band 22">
        <r>  0.0316  0.0079  0.0026  0.0501  0.0326  0.0003  0.2511  0.0065  0.0353 </r>
        <r>  0.0011  0.0003  0.0738  0.0018  0.0012  0.0074  0.0090  0.1816  0.0013 </r>
       </set>
       <set comment="band 23">
        <r>  0.0010  0.2414  0.0051  0.0011  0.1835  0.0026  0.0000  0.0013  0.0000 </r>
        <r>  0.0001  0.0242  0.0507  0.0001  0.0184  0.0255  0.0000  0.0126  0.0000 </r>
       </set>
       <set comment="band 24">
        <r>  0.0001  0.0242  0.0507  0.0001  0.0184  0.0255  0.0000  0.0126  0.0000 </r>
        <r>  0.0010  0.2414  0.0051  0.0011  0.1835  0.0026  0.0000  0.0013  0.0000 </r>
       </set>
       <set comment="band 25">
        <r>  0.8433  0.0001  0.0004  0.0023  0.0018  0.0156  0.0014  0.0030  0.2098 </r>
        <r>  0.0429  0.0000  0.0083  0.0001  0.0001  0.3075  0.0001  0.0596  0.0107 </r>
       </set>
       <set comment="band 26">
        <r>  0.0429  0.0000  0.0083  0.0001  0.0001  0.3075  0.0001  0.0596  0.0107 </r>
        <r>  0.8433  0.0001  0.0004  0.0023  0.0018  0.0156  0.0014  0.0030  0.2098 </r>
       </set>
       <set comment="band 27">
        <r>  5.1238  0.0000  0.0003  0.0011  0.0002  0.0033  0.0008  0.0004  0.0324 </r>
        <r>  0.3009  0.0000  0.0045  0.0001  0.0000  0.0565  0.0000  0.0062  0.0019 </r>
       </set>
       <set comment="band 28">
        <r>  0.3009  0.0000  0.0045  0.0001  0.0000  0.0565  0.0000  0.0062  0.0019 </r>
        <r>  5.1238  0.0000  0.0003  0.0011  0.0002  0.0033  0.0008  0.0004  0.0324 </r>
       </set>
      </set>
      <set comment="kpoint 94">
       <set comment="band 1">
        <r>  0.0534  0.0199  0.0006  0.0300  0.0928  0.0064  0.0616  0.0697  0.0536 </r>
        <r>  0.0100  0.0037  0.0031  0.0056  0.0173  0.0344  0.0115  0.3736  0.0100 </r>
       </set>
       <set comment="band 2">
        <r>  0.0100  0.0037  0.0031  0.0056  0.0173  0.0344  0.0115  0.3736  0.0100 </r>
        <r>  0.0534  0.0199  0.0006  0.0300  0.0928  0.0064  0.0616  0.0697  0.0536 </r>
       </set>
       <set comment="band 3">
        <r>  0.0097  0.0298  0.0028  0.0012  0.2047  0.0914  0.1069  0.0275  0.0107 </r>
        <r>  0.0058  0.0179  0.0047  0.0007  0.1230  0.1522  0.0642  0.0457  0.0064 </r>
       </set>
       <set comment="band 4">
        <r>  0.0058  0.0179  0.0047  0.0007  0.1230  0.1522  0.0642  0.0457  0.0064 </r>
        <r>  0.0097  0.0298  0.0028  0.0012  0.2047  0.0914  0.1069  0.0275  0.0107 </r>
       </set>
       <set comment="band 5">
        <r>  0.0021  0.0065  0.0271  0.0332  0.0547  0.1220  0.0176  0.0038  0.0831 </r>
        <r>  0.0049  0.0153  0.0115  0.0779  0.1285  0.0519  0.0414  0.0016  0.1951 </r>
       </set>
       <set comment="band 6">
        <r>  0.0049  0.0153  0.0115  0.0779  0.1285  0.0519  0.0414  0.0016  0.1951 </r>
        <r>  0.0021  0.0065  0.0271  0.0332  0.0547  0.1220  0.0176  0.0038  0.0831 </r>
       </set>
       <set comment="band 7">
        <r>  0.0023  0.0018  0.0003  0.0077  0.1213  0.0869  0.0159  0.0354  0.2203 </r>
        <r>  0.0008  0.0006  0.0009  0.0028  0.0446  0.2363  0.0058  0.0963  0.0810 </r>
       </set>
       <set comment="band 8">
        <r>  0.0008  0.0006  0.0009  0.0028  0.0446  0.2363  0.0058  0.0963  0.0810 </r>
        <r>  0.0023  0.0018  0.0003  0.0077  0.1213  0.0869  0.0159  0.0354  0.2203 </r>
       </set>
       <set comment="band 9">
        <r>  0.0001  0.0000  0.0010  0.0001  0.0004  0.1010  0.0268  0.1755  0.0021 </r>
        <r>  0.0012  0.0001  0.0000  0.0015  0.0098  0.0044  0.6070  0.0077  0.0476 </r>
       </set>
       <set comment="band 10">
        <r>  0.0012  0.0001  0.0000  0.0015  0.0098  0.0044  0.6070  0.0077  0.0476 </r>
        <r>  0.0001  0.0000  0.0010  0.0001  0.0004  0.1010  0.0268  0.1755  0.0021 </r>
       </set>
       <set comment="band 11">
        <r>  0.0253  0.0195  0.0290  0.1815  0.0293  0.0028  0.0012  0.0184  0.2227 </r>
        <r>  0.0099  0.0076  0.0744  0.0708  0.0114  0.0071  0.0005  0.0472  0.0869 </r>
       </set>
       <set comment="band 12">
        <r>  0.0099  0.0076  0.0744  0.0708  0.0114  0.0071  0.0005  0.0472  0.0869 </r>
        <r>  0.0253  0.0195  0.0290  0.1815  0.0293  0.0028  0.0012  0.0184  0.2227 </r>
       </set>
       <set comment="band 13">
        <r>  0.1301  0.1978  0.0025  0.0154  0.2208  0.0036  0.0071  0.0070  0.0140 </r>
        <r>  0.0091  0.0138  0.0358  0.0011  0.0154  0.0514  0.0005  0.1012  0.0010 </r>
       </set>
       <set comment="band 14">
        <r>  0.0091  0.0138  0.0358  0.0011  0.0154  0.0514  0.0005  0.1012  0.0010 </r>
        <r>  0.1301  0.1978  0.0025  0.0154  0.2208  0.0036  0.0071  0.0070  0.0140 </r>
       </set>
       <set comment="band 15">
        <r>  0.0604  0.0158  0.0111  0.0122  0.0078  0.1051  0.0072  0.0576  0.0011 </r>
        <r>  0.2826  0.0739  0.0024  0.0572  0.0366  0.0225  0.0337  0.0123  0.0053 </r>
       </set>
       <set comment="band 16">
        <r>  0.2826  0.0739  0.0024  0.0572  0.0366  0.0225  0.0337  0.0123  0.0053 </r>
        <r>  0.0604  0.0158  0.0111  0.0122  0.0078  0.1051  0.0072  0.0576  0.0011 </r>
       </set>
       <set comment="band 17">
        <r>  0.0011  0.0007  0.2411  0.0090  0.0004  0.0365  0.0023  0.0804  0.0031 </r>
        <r>  0.0105  0.0072  0.0244  0.0891  0.0039  0.0037  0.0230  0.0081  0.0307 </r>
       </set>
       <set comment="band 18">
        <r>  0.0105  0.0072  0.0244  0.0891  0.0039  0.0037  0.0230  0.0081  0.0307 </r>
        <r>  0.0011  0.0007  0.2411  0.0090  0.0004  0.0365  0.0023  0.0804  0.0031 </r>
       </set>
       <set comment="band 19">
        <r>  0.0002  0.0006  0.1367  0.0000  0.0008  0.1050  0.0005  0.1610  0.0001 </r>
        <r>  0.0201  0.0696  0.0012  0.0018  0.0909  0.0009  0.0611  0.0014  0.0083 </r>
       </set>
       <set comment="band 20">
        <r>  0.0201  0.0696  0.0012  0.0018  0.0909  0.0009  0.0611  0.0014  0.0083 </r>
        <r>  0.0002  0.0006  0.1367  0.0000  0.0008  0.1050  0.0005  0.1610  0.0001 </r>
       </set>
       <set comment="band 21">
        <r>  0.0003  0.0002  0.0438  0.0002  0.0000  0.0638  0.0019  0.0848  0.0000 </r>
        <r>  0.0525  0.0357  0.0003  0.0293  0.0020  0.0004  0.3150  0.0005  0.0064 </r>
       </set>
       <set comment="band 22">
        <r>  0.0525  0.0357  0.0003  0.0293  0.0020  0.0004  0.3150  0.0005  0.0064 </r>
        <r>  0.0003  0.0002  0.0438  0.0002  0.0000  0.0638  0.0019  0.0848  0.0000 </r>
       </set>
       <set comment="band 23">
        <r>  0.1165  0.1474  0.0001  0.0089  0.2385  0.0002  0.0038  0.0001  0.0389 </r>
        <r>  0.0002  0.0003  0.0323  0.0000  0.0005  0.1138  0.0000  0.0477  0.0001 </r>
       </set>
       <set comment="band 24">
        <r>  0.0002  0.0003  0.0323  0.0000  0.0005  0.1138  0.0000  0.0477  0.0001 </r>
        <r>  0.1165  0.1474  0.0001  0.0089  0.2385  0.0002  0.0038  0.0001  0.0389 </r>
       </set>
       <set comment="band 25">
        <r>  1.1641  0.0510  0.0001  0.0293  0.0483  0.0014  0.0065  0.0002  0.1723 </r>
        <r>  0.0106  0.0005  0.0161  0.0003  0.0004  0.1562  0.0001  0.0263  0.0016 </r>
       </set>
       <set comment="band 26">
        <r>  0.0106  0.0005  0.0161  0.0003  0.0004  0.1562  0.0001  0.0263  0.0016 </r>
        <r>  1.1641  0.0510  0.0001  0.0293  0.0483  0.0014  0.0065  0.0002  0.1723 </r>
       </set>
       <set comment="band 27">
        <r>  3.7419  0.0034  0.0010  0.0448  0.0071  0.0017  0.0037  0.0003  0.1068 </r>
        <r>  0.3150  0.0003  0.0114  0.0038  0.0006  0.0205  0.0003  0.0038  0.0090 </r>
       </set>
       <set comment="band 28">
        <r>  0.3150  0.0003  0.0114  0.0038  0.0006  0.0205  0.0003  0.0038  0.0090 </r>
        <r>  3.7419  0.0034  0.0010  0.0448  0.0071  0.0017  0.0037  0.0003  0.1068 </r>
       </set>
      </set>
      <set comment="kpoint 95">
       <set comment="band 1">
        <r>  0.0000  0.0493  0.0000  0.0493  0.1198  0.0402  0.0000  0.0402  0.1198 </r>
        <r>  0.0000  0.0118  0.0000  0.0118  0.0286  0.1687  0.0000  0.1687  0.0286 </r>
       </set>
       <set comment="band 2">
        <r>  0.0000  0.0118  0.0000  0.0118  0.0286  0.1687  0.0000  0.1687  0.0286 </r>
        <r>  0.0000  0.0493  0.0000  0.0493  0.1198  0.0402  0.0000  0.0402  0.1198 </r>
       </set>
       <set comment="band 3">
        <r>  0.0609  0.0000  0.0000  0.0000  0.0000  0.0287  0.2386  0.0287  0.0000 </r>
        <r>  0.0066  0.0000  0.0000  0.0000  0.0000  0.2636  0.0260  0.2635  0.0000 </r>
       </set>
       <set comment="band 4">
        <r>  0.0066  0.0000  0.0000  0.0000  0.0000  0.2636  0.0260  0.2635  0.0000 </r>
        <r>  0.0609  0.0000  0.0000  0.0000  0.0000  0.0287  0.2386  0.0287  0.0000 </r>
       </set>
       <set comment="band 5">
        <r>  0.0000  0.0265  0.0274  0.0265  0.1426  0.0000  0.0000  0.0000  0.1426 </r>
        <r>  0.0000  0.0396  0.0183  0.0396  0.2129  0.0000  0.0000  0.0000  0.2129 </r>
       </set>
       <set comment="band 6">
        <r>  0.0000  0.0396  0.0183  0.0396  0.2129  0.0000  0.0000  0.0000  0.2129 </r>
        <r>  0.0000  0.0265  0.0274  0.0265  0.1426  0.0000  0.0000  0.0000  0.1426 </r>
       </set>
       <set comment="band 7">
        <r>  0.0000  0.0025  0.0000  0.0025  0.1791  0.0674  0.0000  0.0674  0.1791 </r>
        <r>  0.0000  0.0011  0.0000  0.0011  0.0792  0.1524  0.0000  0.1524  0.0792 </r>
       </set>
       <set comment="band 8">
        <r>  0.0000  0.0011  0.0000  0.0011  0.0792  0.1524  0.0000  0.1524  0.0792 </r>
        <r>  0.0000  0.0025  0.0000  0.0025  0.1791  0.0674  0.0000  0.0674  0.1791 </r>
       </set>
       <set comment="band 9">
        <r>  0.0001  0.0000  0.0000  0.0000  0.0000  0.1372  0.0259  0.1372  0.0000 </r>
        <r>  0.0035  0.0000  0.0000  0.0000  0.0000  0.0053  0.6707  0.0053  0.0000 </r>
       </set>
       <set comment="band 10">
        <r>  0.0035  0.0000  0.0000  0.0000  0.0000  0.0053  0.6707  0.0053  0.0000 </r>
        <r>  0.0001  0.0000  0.0000  0.0000  0.0000  0.1372  0.0259  0.1372  0.0000 </r>
       </set>
       <set comment="band 11">
        <r>  0.0000  0.1552  0.0041  0.1552  0.1752  0.0000  0.0000  0.0000  0.1752 </r>
        <r>  0.0000  0.0040  0.1586  0.0040  0.0046  0.0000  0.0000  0.0000  0.0046 </r>
       </set>
       <set comment="band 12">
        <r>  0.0000  0.0040  0.1586  0.0040  0.0046  0.0000  0.0000  0.0000  0.0046 </r>
        <r>  0.0000  0.1552  0.0041  0.1552  0.1752  0.0000  0.0000  0.0000  0.1752 </r>
       </set>
       <set comment="band 13">
        <r>  0.0000  0.1293  0.0000  0.1293  0.0996  0.0233  0.0000  0.0233  0.0996 </r>
        <r>  0.0000  0.0454  0.0000  0.0454  0.0350  0.0662  0.0000  0.0662  0.0350 </r>
       </set>
       <set comment="band 14">
        <r>  0.0000  0.0454  0.0000  0.0454  0.0350  0.0662  0.0000  0.0662  0.0350 </r>
        <r>  0.0000  0.1293  0.0000  0.1293  0.0996  0.0233  0.0000  0.0233  0.0996 </r>
       </set>
       <set comment="band 15">
        <r>  0.1916  0.0000  0.0000  0.0000  0.0000  0.0814  0.0158  0.0814  0.0000 </r>
        <r>  0.3509  0.0000  0.0000  0.0000  0.0000  0.0444  0.0290  0.0444  0.0000 </r>
       </set>
       <set comment="band 16">
        <r>  0.3509  0.0000  0.0000  0.0000  0.0000  0.0444  0.0290  0.0444  0.0000 </r>
        <r>  0.1916  0.0000  0.0000  0.0000  0.0000  0.0814  0.0158  0.0814  0.0000 </r>
       </set>
       <set comment="band 17">
        <r>  0.0000  0.0499  0.0461  0.0499  0.0355  0.0000  0.0000  0.0000  0.0355 </r>
        <r>  0.0000  0.0058  0.3987  0.0058  0.0041  0.0000  0.0000  0.0000  0.0041 </r>
       </set>
       <set comment="band 18">
        <r>  0.0000  0.0058  0.3987  0.0058  0.0041  0.0000  0.0000  0.0000  0.0041 </r>
        <r>  0.0000  0.0499  0.0461  0.0499  0.0355  0.0000  0.0000  0.0000  0.0355 </r>
       </set>
       <set comment="band 19">
        <r>  0.0000  0.0018  0.0000  0.0018  0.0007  0.1844  0.0000  0.1844  0.0007 </r>
        <r>  0.0000  0.0546  0.0000  0.0546  0.0218  0.0060  0.0000  0.0060  0.0218 </r>
       </set>
       <set comment="band 20">
        <r>  0.0000  0.0546  0.0000  0.0546  0.0218  0.0060  0.0000  0.0060  0.0218 </r>
        <r>  0.0000  0.0018  0.0000  0.0018  0.0007  0.1844  0.0000  0.1844  0.0007 </r>
       </set>
       <set comment="band 21">
        <r>  0.0029  0.0000  0.0000  0.0000  0.0000  0.0986  0.0116  0.0986  0.0000 </r>
        <r>  0.1009  0.0000  0.0000  0.0000  0.0000  0.0028  0.4052  0.0028  0.0000 </r>
       </set>
       <set comment="band 22">
        <r>  0.1009  0.0000  0.0000  0.0000  0.0000  0.0028  0.4052  0.0028  0.0000 </r>
        <r>  0.0029  0.0000  0.0000  0.0000  0.0000  0.0986  0.0116  0.0986  0.0000 </r>
       </set>
       <set comment="band 23">
        <r>  0.0000  0.0798  0.0000  0.0798  0.1942  0.0009  0.0000  0.0009  0.1941 </r>
        <r>  0.0000  0.0011  0.0000  0.0011  0.0027  0.0669  0.0000  0.0669  0.0027 </r>
       </set>
       <set comment="band 24">
        <r>  0.0000  0.0011  0.0000  0.0011  0.0027  0.0669  0.0000  0.0669  0.0027 </r>
        <r>  0.0000  0.0798  0.0000  0.0798  0.1942  0.0009  0.0000  0.0009  0.1941 </r>
       </set>
       <set comment="band 25">
        <r>  0.0000  0.0974  0.0078  0.0974  0.1460  0.0000  0.0000  0.0000  0.1460 </r>
        <r>  0.0000  0.0123  0.0616  0.0123  0.0184  0.0000  0.0000  0.0000  0.0184 </r>
       </set>
       <set comment="band 26">
        <r>  0.0000  0.0123  0.0616  0.0123  0.0184  0.0000  0.0000  0.0000  0.0184 </r>
        <r>  0.0000  0.0974  0.0078  0.0974  0.1460  0.0000  0.0000  0.0000  0.1460 </r>
       </set>
       <set comment="band 27">
        <r>  1.7926  0.0000  0.0000  0.0000  0.0000  0.0443  0.0090  0.0443  0.0000 </r>
        <r>  1.5541  0.0000  0.0000  0.0000  0.0000  0.0511  0.0078  0.0511  0.0000 </r>
       </set>
       <set comment="band 28">
        <r>  1.5541  0.0000  0.0000  0.0000  0.0000  0.0511  0.0078  0.0511  0.0000 </r>
        <r>  1.7926  0.0000  0.0000  0.0000  0.0000  0.0443  0.0090  0.0443  0.0000 </r>
       </set>
      </set>
     </set>
    </set>
   </array>
  </projected>
 </calculation>
 <structure name="finalpos" >
  <crystal>
   <varray name="basis" >
    <v>       1.25859918      -2.17995773       0.00000000 </v>
    <v>       1.25859918       2.17995773       0.00000000 </v>
    <v>       0.00000000       0.00000000       4.06036001 </v>
   </varray>
   <i name="volume">     22.28076284 </i>
   <varray name="rec_basis" >
    <v>       0.39726706      -0.22936225       0.00000000 </v>
    <v>       0.39726706       0.22936225       0.00000000 </v>
    <v>       0.00000000       0.00000000       0.24628358 </v>
   </varray>
  </crystal>
  <varray name="positions" >
   <v>       0.33333333       0.66666667       0.25000000 </v>
   <v>       0.66666667       0.33333333       0.75000000 </v>
  </varray>
 </structure>
</modeling>
