Co-hcc                                  
           1
     2.506236    0.000000    0.000000
    -1.253118    2.170464    0.000000
     0.000000    0.000000    4.054987
   Co
     2
Direct configuration=     1
   0.00000000  0.00000000  0.00000000
   0.33333333  0.66666667  0.50000000
