Co-hcc                                  
           1
     1.253023   -2.170299    0.000000
     1.253023    2.170299    0.000000
     0.000000    0.000000    4.042370
   Co
     2
Direct configuration=     1
   0.33333333  0.66666667  0.25000000
   0.66666667  0.33333333  0.75000000
