Co-fcc                                  
   1.00000000000000     
     0.000000    1.753245    1.753245
     1.753245    0.000000    1.753245
     1.753245    1.753245    0.000000
   Co
     1
Direct
  0.000000  0.000000  0.000000
 
   32   32   32
  102.49      100.22      93.717      83.844      71.781      58.786      45.990      34.287      24.307      16.420    
  10.742      7.1216      5.1653      4.2970      3.8889      3.6475      3.5673      3.6475      3.8889      4.2970    
  5.1653      7.1216      10.742      16.420      24.307      34.287      45.990      58.786      71.781      83.844    
  93.717      100.22      100.22      95.832      87.657      76.719      64.246      51.432      39.284      28.555    
  19.741      13.083      8.5623      5.9012      4.6048      4.0513      3.7337      3.5748      3.5748      3.7337    
  4.0513      4.6048      5.9012      8.5623      13.083      19.741      28.555      39.284      51.432      64.246    
  76.719      87.657      95.832      100.22      93.717      87.657      78.440      67.160      54.989      42.990    
  32.015      22.672      15.320      10.065      6.7525      4.9904      4.2137      3.8268      3.5961      3.5197    
  3.5961      3.8268      4.2137      4.9904      6.7524      10.065      15.320      22.672      32.015      42.990    
  54.989      67.160      78.440      87.657      93.717      95.832      83.844      76.719      67.160      56.227    
  44.965      34.279      24.860      17.172      11.433      7.6113      5.4237      4.3881      3.9186      3.6270    
  3.4826      3.4826      3.6270      3.9186      4.3881      5.4237      7.6113      11.433      17.172      24.860    
  34.279      44.965      56.227      67.160      76.719      83.844      87.657      87.657      71.781      64.246    
  54.989      44.965      35.066      26.030      18.395      12.476      8.3495      5.8432      4.5698      4.0008    
  3.6620      3.4613      3.3955      3.4613      3.6620      4.0008      4.5698      5.8432      8.3495      12.476    
  18.395      26.030      35.066      44.965      54.989      64.246      71.781      76.719      78.440      76.719    
  58.786      51.432      42.990      34.279      26.030      18.822      13.040      8.8484      6.1765      4.7342    
  4.0685      3.6955      3.4519      3.3333      3.3333      3.4519      3.6955      4.0685      4.7342      6.1765    
  8.8484      13.040      18.822      26.030      34.279      42.990      51.432      58.786      64.246      67.160    
  67.160      64.246      45.990      39.284      32.015      24.860      18.395      13.040      9.0247      6.3610    
  4.8497      4.1194      3.7225      3.4497      3.2923      3.2413      3.2923      3.4497      3.7225      4.1194    
  4.8497      6.3610      9.0247      13.040      18.395      24.860      32.015      39.284      45.990      51.432    
  54.989      56.227      54.989      51.432      34.287      28.555      22.672      17.172      12.476      8.8484    
  6.3610      4.8914      4.1474      3.7399      3.4506      3.2676      3.1803      3.1803      3.2676      3.4506    
  3.7399      4.1474      4.8914      6.3610      8.8484      12.476      17.172      22.672      28.555      34.287    
  39.284      42.990      44.965      44.965      42.990      39.284      24.307      19.741      15.320      11.433    
  8.3495      6.1765      4.8497      4.1474      3.7459      3.4519      3.2548      3.1441      3.1087      3.1441    
  3.2548      3.4519      3.7459      4.1474      4.8497      6.1765      8.3495      11.433      15.320      19.741    
  24.307      28.555      32.015      34.279      35.066      34.279      32.015      28.555      16.420      13.083    
  10.065      7.6113      5.8432      4.7342      4.1194      3.7399      3.4519      3.2508      3.1275      3.0698    
  3.0698      3.1275      3.2508      3.4519      3.7399      4.1194      4.7342      5.8432      7.6113      10.065    
  13.083      16.420      19.741      22.672      24.860      26.030      26.030      24.860      22.672      19.741    
  10.742      8.5623      6.7525      5.4237      4.5698      4.0685      3.7225      3.4506      3.2548      3.1275    
  3.0575      3.0354      3.0575      3.1275      3.2548      3.4506      3.7225      4.0685      4.5698      5.4237    
  6.7524      8.5623      10.742      13.083      15.320      17.172      18.395      18.822      18.395      17.172    
  15.320      13.083      7.1216      5.9012      4.9904      4.3881      4.0008      3.6955      3.4497      3.2676    
  3.1441      3.0698      3.0354      3.0354      3.0698      3.1441      3.2676      3.4497      3.6955      4.0008    
  4.3881      4.9904      5.9012      7.1216      8.5623      10.065      11.433      12.476      13.040      13.040    
  12.476      11.433      10.065      8.5623      5.1653      4.6048      4.2137      3.9186      3.6620      3.4519    
  3.2923      3.1803      3.1087      3.0698      3.0575      3.0698      3.1087      3.1803      3.2923      3.4519    
  3.6620      3.9186      4.2137      4.6048      5.1653      5.9012      6.7524      7.6113      8.3495      8.8484    
  9.0247      8.8484      8.3495      7.6113      6.7524      5.9012      4.2970      4.0513      3.8268      3.6270    
  3.4613      3.3333      3.2413      3.1803      3.1441      3.1275      3.1275      3.1441      3.1803      3.2413    
  3.3333      3.4613      3.6270      3.8268      4.0513      4.2970      4.6048      4.9904      5.4237      5.8432    
  6.1765      6.3610      6.3610      6.1765      5.8432      5.4237      4.9904      4.6048      3.8889      3.7337    
  3.5961      3.4826      3.3955      3.3333      3.2923      3.2676      3.2548      3.2508      3.2548      3.2676    
  3.2923      3.3333      3.3955      3.4826      3.5961      3.7337      3.8889      4.0513      4.2137      4.3881    
  4.5698      4.7342      4.8497      4.8914      4.8497      4.7342      4.5698      4.3881      4.2137      4.0513    
  3.6475      3.5748      3.5197      3.4826      3.4613      3.4519      3.4497      3.4506      3.4519      3.4519    
  3.4506      3.4497      3.4519      3.4613      3.4826      3.5197      3.5748      3.6475      3.7337      3.8268    
  3.9186      4.0008      4.0685      4.1194      4.1474      4.1474      4.1194      4.0685      4.0008      3.9186    
  3.8268      3.7337      3.5673      3.5748      3.5961      3.6270      3.6620      3.6955      3.7225      3.7399    
  3.7459      3.7399      3.7225      3.6955      3.6620      3.6270      3.5961      3.5748      3.5673      3.5748    
  3.5961      3.6270      3.6620      3.6955      3.7225      3.7399      3.7459      3.7399      3.7225      3.6955    
  3.6620      3.6270      3.5961      3.5748      3.6475      3.7337      3.8268      3.9186      4.0008      4.0685    
  4.1194      4.1474      4.1474      4.1194      4.0685      4.0008      3.9186      3.8268      3.7337      3.6475    
  3.5748      3.5197      3.4826      3.4613      3.4519      3.4497      3.4506      3.4519      3.4519      3.4506    
  3.4497      3.4519      3.4613      3.4826      3.5197      3.5748      3.8889      4.0513      4.2137      4.3881    
  4.5698      4.7342      4.8497      4.8914      4.8497      4.7342      4.5698      4.3881      4.2137      4.0513    
  3.8889      3.7337      3.5961      3.4826      3.3955      3.3333      3.2923      3.2676      3.2548      3.2508    
  3.2548      3.2676      3.2923      3.3333      3.3955      3.4826      3.5961      3.7337      4.2970      4.6048    
  4.9904      5.4237      5.8432      6.1765      6.3610      6.3610      6.1765      5.8432      5.4237      4.9904    
  4.6048      4.2970      4.0513      3.8268      3.6270      3.4613      3.3333      3.2413      3.1803      3.1441    
  3.1275      3.1275      3.1441      3.1803      3.2413      3.3333      3.4613      3.6270      3.8268      4.0513    
  5.1653      5.9012      6.7524      7.6113      8.3495      8.8484      9.0247      8.8484      8.3495      7.6113    
  6.7524      5.9012      5.1653      4.6048      4.2137      3.9186      3.6620      3.4519      3.2923      3.1803    
  3.1087      3.0698      3.0575      3.0698      3.1087      3.1803      3.2923      3.4519      3.6620      3.9186    
  4.2137      4.6048      7.1216      8.5623      10.065      11.433      12.476      13.040      13.040      12.476    
  11.433      10.065      8.5623      7.1216      5.9012      4.9904      4.3881      4.0008      3.6955      3.4497    
  3.2676      3.1441      3.0698      3.0354      3.0354      3.0698      3.1441      3.2676      3.4497      3.6955    
  4.0008      4.3881      4.9904      5.9012      10.742      13.083      15.320      17.172      18.395      18.822    
  18.395      17.172      15.320      13.083      10.742      8.5623      6.7524      5.4237      4.5698      4.0685    
  3.7225      3.4506      3.2548      3.1275      3.0575      3.0354      3.0575      3.1275      3.2548      3.4506    
  3.7225      4.0685      4.5698      5.4237      6.7525      8.5623      16.420      19.741      22.672      24.860    
  26.030      26.030      24.860      22.672      19.741      16.420      13.083      10.065      7.6113      5.8432    
  4.7342      4.1194      3.7399      3.4519      3.2508      3.1275      3.0698      3.0698      3.1275      3.2508    
  3.4519      3.7399      4.1194      4.7342      5.8432      7.6113      10.065      13.083      24.307      28.555    
  32.015      34.279      35.066      34.279      32.015      28.555      24.307      19.741      15.320      11.433    
  8.3495      6.1765      4.8497      4.1474      3.7459      3.4519      3.2548      3.1441      3.1087      3.1441    
  3.2548      3.4519      3.7459      4.1474      4.8497      6.1765      8.3495      11.433      15.320      19.741    
  34.287      39.284      42.990      44.965      44.965      42.990      39.284      34.287      28.555      22.672    
  17.172      12.476      8.8484      6.3610      4.8914      4.1474      3.7399      3.4506      3.2676      3.1803    
  3.1803      3.2676      3.4506      3.7399      4.1474      4.8914      6.3610      8.8484      12.476      17.172    
  22.672      28.555      45.990      51.432      54.989      56.227      54.989      51.432      45.990      39.284    
  32.015      24.860      18.395      13.040      9.0247      6.3610      4.8497      4.1194      3.7225      3.4497    
  3.2923      3.2413      3.2923      3.4497      3.7225      4.1194      4.8497      6.3610      9.0247      13.040    
  18.395      24.860      32.015      39.284      58.786      64.246      67.160      67.160      64.246      58.786    
  51.432      42.990      34.279      26.030      18.822      13.040      8.8484      6.1765      4.7342      4.0685    
  3.6955      3.4519      3.3333      3.3333      3.4519      3.6955      4.0685      4.7342      6.1765      8.8484    
  13.040      18.822      26.030      34.279      42.990      51.432      71.781      76.719      78.440      76.719    
  71.781      64.246      54.989      44.965      35.066      26.030      18.395      12.476      8.3495      5.8432    
  4.5698      4.0008      3.6620      3.4613      3.3955      3.4613      3.6620      4.0008      4.5698      5.8432    
  8.3495      12.476      18.395      26.030      35.066      44.965      54.989      64.246      83.844      87.657    
  87.657      83.844      76.719      67.160      56.227      44.965      34.279      24.860      17.172      11.433    
  7.6113      5.4237      4.3881      3.9186      3.6270      3.4826      3.4826      3.6270      3.9186      4.3881    
  5.4237      7.6113      11.433      17.172      24.860      34.279      44.965      56.227      67.160      76.719    
  93.717      95.832      93.717      87.657      78.440      67.160      54.989      42.990      32.015      22.672    
  15.320      10.065      6.7524      4.9904      4.2137      3.8268      3.5961      3.5197      3.5961      3.8268    
  4.2137      4.9904      6.7525      10.065      15.320      22.672      32.015      42.990      54.989      67.160    
  78.440      87.657      100.22      100.22      95.832      87.657      76.719      64.246      51.432      39.284    
  28.555      19.741      13.083      8.5623      5.9012      4.6048      4.0513      3.7337      3.5748      3.5748    
  3.7337      4.0513      4.6048      5.9012      8.5623      13.083      19.741      28.555      39.284      51.432    
  64.246      76.719      87.657      95.832      100.22      95.832      87.657      76.719      64.246      51.432    
  39.284      28.555      19.741      13.083      8.5623      5.9012      4.6048      4.0513      3.7337      3.5748    
  3.5748      3.7337      4.0513      4.6048      5.9012      8.5623      13.083      19.741      28.555      39.284    
  51.432      64.246      76.719      87.657      95.832      100.22      95.832      89.638      80.219      68.695    
  56.262      44.004      32.788      23.231      15.697      10.298      6.8811      5.0539      4.2470      3.8529    
  3.6184      3.5406      3.6184      3.8529      4.2470      5.0539      6.8811      10.298      15.697      23.231    
  32.788      44.004      56.262      68.695      80.219      89.638      95.832      97.995      87.657      80.219    
  70.245      58.839      47.092      35.937      26.090      18.029      11.984      7.9299      5.5871      4.4680    
  3.9728      3.6719      3.5224      3.5224      3.6719      3.9728      4.4680      5.5871      7.9299      11.984    
  18.029      26.090      35.937      47.092      58.839      70.245      80.219      87.657      91.639      91.639    
  76.719      68.695      58.839      48.167      37.618      27.968      19.782      13.397      8.9041      6.1394    
  4.7135      4.0838      3.7294      3.5184      3.4489      3.5184      3.7294      4.0838      4.7135      6.1394    
  8.9041      13.397      19.782      27.968      37.618      48.167      58.839      68.695      76.719      81.980    
  83.814      81.980      64.246      56.262      47.092      37.618      28.622      20.723      14.338      9.6560    
  6.6240      4.9548      4.1836      3.7842      3.5243      3.3971      3.3971      3.5243      3.7842      4.1836    
  4.9548      6.6240      9.6560      14.338      20.723      28.622      37.618      47.092      56.262      64.246    
  70.176      73.341      73.341      70.176      51.432      44.004      35.937      27.968      20.723      14.667    
  10.065      6.9559      5.1498      4.2688      3.8302      3.5353      3.3638      3.3080      3.3638      3.5353    
  3.8302      4.2688      5.1498      6.9559      10.065      14.667      20.723      27.968      35.937      44.004    
  51.432      57.456      61.391      62.760      61.391      57.456      39.284      32.788      26.090      19.782    
  14.338      10.065      7.0739      5.2590      4.3279      3.8630      3.5467      3.3444      3.2474      3.2474    
  3.3444      3.5467      3.8630      4.3279      5.2590      7.0739      10.065      14.338      19.782      26.090    
  32.788      39.284      44.930      49.112      51.339      51.339      49.112      44.930      28.555      23.231    
  18.029      13.397      9.6560      6.9559      5.2590      4.3491      3.8800      3.5550      3.3345      3.2097    
  3.1697      3.2097      3.3345      3.5550      3.8800      4.3491      5.2590      6.9559      9.6560      13.397    
  18.029      23.231      28.555      33.478      37.474      40.082      40.989      40.082      37.474      33.478    
  19.741      15.697      11.984      8.9041      6.6240      5.1498      4.3279      3.8800      3.5580      3.3304    
  3.1897      3.1235      3.1235      3.1897      3.3304      3.5580      3.8800      4.3279      5.1498      6.6240    
  8.9041      11.984      15.697      19.741      23.721      27.209      29.800      31.182      31.182      29.800    
  27.209      23.721      13.083      10.298      7.9299      6.1394      4.9548      4.2688      3.8630      3.5550    
  3.3304      3.1834      3.1022      3.0765      3.1022      3.1834      3.3304      3.5550      3.8630      4.2688    
  4.9548      6.1394      7.9299      10.298      13.083      16.024      18.798      21.075      22.571      23.092    
  22.571      21.075      18.798      16.024      8.5623      6.8811      5.5871      4.7135      4.1836      3.8302    
  3.5467      3.3345      3.1897      3.1022      3.0617      3.0617      3.1022      3.1897      3.3345      3.5467    
  3.8302      4.1836      4.7135      5.5871      6.8811      8.5623      10.495      12.471      14.246      15.585    
  16.305      16.305      15.585      14.246      12.471      10.495      5.9012      5.0539      4.4680      4.0838    
  3.7842      3.5353      3.3444      3.2097      3.1235      3.0765      3.0617      3.0765      3.1235      3.2097    
  3.3444      3.5353      3.7842      4.0838      4.4680      5.0539      5.9012      6.9845      8.2029      9.4050    
  10.422      11.102      11.341      11.102      10.422      9.4050      8.2029      6.9845      4.6048      4.2470    
  3.9728      3.7294      3.5243      3.3638      3.2474      3.1697      3.1235      3.1022      3.1022      3.1235    
  3.1697      3.2474      3.3638      3.5243      3.7294      3.9728      4.2470      4.6048      5.0972      5.7139    
  6.3910      7.0319      7.5326      7.8071      7.8071      7.5326      7.0319      6.3910      5.7139      5.0972    
  4.0513      3.8529      3.6719      3.5184      3.3971      3.3080      3.2474      3.2097      3.1897      3.1834    
  3.1897      3.2097      3.2474      3.3080      3.3971      3.5184      3.6719      3.8529      4.0513      4.2618    
  4.5135      4.8126      5.1294      5.4130      5.6100      5.6806      5.6100      5.4130      5.1294      4.8126    
  4.5135      4.2618      3.7337      3.6184      3.5224      3.4489      3.3971      3.3638      3.3444      3.3345    
  3.3304      3.3304      3.3345      3.3444      3.3638      3.3971      3.4489      3.5224      3.6184      3.7337    
  3.8618      3.9930      4.1185      4.2422      4.3606      4.4567      4.5110      4.5110      4.4567      4.3606    
  4.2422      4.1185      3.9930      3.8618      3.5748      3.5406      3.5224      3.5184      3.5243      3.5353    
  3.5467      3.5550      3.5580      3.5550      3.5467      3.5353      3.5243      3.5184      3.5224      3.5406    
  3.5748      3.6243      3.6850      3.7510      3.8150      3.8707      3.9131      3.9396      3.9487      3.9396    
  3.9131      3.8707      3.8150      3.7510      3.6850      3.6243      3.5748      3.6184      3.6719      3.7294    
  3.7842      3.8302      3.8630      3.8800      3.8800      3.8630      3.8302      3.7842      3.7294      3.6719    
  3.6184      3.5748      3.5454      3.5315      3.5313      3.5413      3.5564      3.5719      3.5842      3.5909    
  3.5909      3.5842      3.5719      3.5564      3.5413      3.5313      3.5315      3.5454      3.7337      3.8529    
  3.9728      4.0838      4.1836      4.2688      4.3279      4.3491      4.3279      4.2688      4.1836      4.0838    
  3.9728      3.8529      3.7337      3.6243      3.5315      3.4588      3.4065      3.3719      3.3511      3.3399    
  3.3346      3.3331      3.3346      3.3399      3.3511      3.3719      3.4065      3.4588      3.5315      3.6243    
  4.0513      4.2470      4.4680      4.7135      4.9548      5.1498      5.2590      5.2590      5.1498      4.9548    
  4.7135      4.4680      4.2470      4.0513      3.8618      3.6850      3.5313      3.4065      3.3117      3.2445    
  3.2004      3.1744      3.1625      3.1625      3.1744      3.2004      3.2445      3.3117      3.4065      3.5313    
  3.6850      3.8618      4.6048      5.0539      5.5871      6.1394      6.6240      6.9559      7.0739      6.9559    
  6.6240      6.1394      5.5871      5.0539      4.6048      4.2618      3.9930      3.7510      3.5413      3.3719    
  3.2445      3.1554      3.0985      3.0675      3.0578      3.0675      3.0985      3.1554      3.2445      3.3719    
  3.5413      3.7510      3.9930      4.2618      5.9012      6.8811      7.9299      8.9041      9.6560      10.065    
  10.065      9.6560      8.9041      7.9299      6.8811      5.9012      5.0972      4.5135      4.1185      3.8150    
  3.5564      3.3511      3.2004      3.0985      3.0373      3.0089      3.0089      3.0373      3.0985      3.2004    
  3.3511      3.5564      3.8150      4.1185      4.5135      5.0972      8.5623      10.298      11.984      13.397    
  14.338      14.667      14.338      13.397      11.984      10.298      8.5623      6.9845      5.7139      4.8126    
  4.2422      3.8707      3.5719      3.3399      3.1744      3.0675      3.0089      2.9904      3.0089      3.0675    
  3.1744      3.3399      3.5719      3.8707      4.2422      4.8126      5.7139      6.9845      13.083      15.697    
  18.029      19.782      20.723      20.723      19.782      18.029      15.697      13.083      10.495      8.2029    
  6.3910      5.1294      4.3606      3.9131      3.5842      3.3346      3.1625      3.0578      3.0089      3.0089    
  3.0578      3.1625      3.3346      3.5842      3.9131      4.3606      5.1294      6.3910      8.2029      10.495    
  19.741      23.231      26.090      27.968      28.622      27.968      26.090      23.231      19.741      16.024    
  12.471      9.4050      7.0319      5.4130      4.4567      3.9396      3.5909      3.3331      3.1625      3.0675    
  3.0373      3.0675      3.1625      3.3331      3.5909      3.9396      4.4567      5.4130      7.0319      9.4050    
  12.471      16.024      28.555      32.788      35.937      37.618      37.618      35.937      32.788      28.555    
  23.721      18.798      14.246      10.422      7.5326      5.6100      4.5110      3.9487      3.5909      3.3346    
  3.1744      3.0985      3.0985      3.1744      3.3346      3.5909      3.9487      4.5110      5.6100      7.5326    
  10.422      14.246      18.798      23.721      39.284      44.004      47.092      48.167      47.092      44.004    
  39.284      33.478      27.209      21.075      15.585      11.102      7.8071      5.6806      4.5110      3.9396    
  3.5842      3.3399      3.2004      3.1554      3.2004      3.3399      3.5842      3.9396      4.5110      5.6806    
  7.8071      11.102      15.585      21.075      27.209      33.478      51.432      56.262      58.839      58.839    
  56.262      51.432      44.930      37.474      29.800      22.571      16.305      11.341      7.8071      5.6100    
  4.4567      3.9131      3.5719      3.3511      3.2445      3.2445      3.3511      3.5719      3.9131      4.4567    
  5.6100      7.8071      11.341      16.305      22.571      29.800      37.474      44.930      64.246      68.695    
  70.245      68.695      64.246      57.456      49.112      40.082      31.182      23.092      16.305      11.102    
  7.5326      5.4130      4.3606      3.8707      3.5564      3.3719      3.3117      3.3719      3.5564      3.8707    
  4.3606      5.4130      7.5326      11.102      16.305      23.092      31.182      40.082      49.112      57.456    
  76.719      80.219      80.219      76.719      70.176      61.391      51.339      40.989      31.182      22.571    
  15.585      10.422      7.0319      5.1294      4.2422      3.8150      3.5413      3.4065      3.4065      3.5413    
  3.8150      4.2422      5.1294      7.0319      10.422      15.585      22.571      31.182      40.989      51.339    
  61.391      70.176      87.657      89.638      87.657      81.980      73.341      62.760      51.339      40.082    
  29.800      21.075      14.246      9.4050      6.3910      4.8126      4.1185      3.7510      3.5313      3.4588    
  3.5313      3.7510      4.1185      4.8126      6.3910      9.4050      14.246      21.075      29.800      40.082    
  51.339      62.760      73.341      81.980      95.832      95.832      91.639      83.814      73.341      61.391    
  49.112      37.474      27.209      18.798      12.471      8.2029      5.7139      4.5135      3.9930      3.6850    
  3.5315      3.5315      3.6850      3.9930      4.5135      5.7139      8.2029      12.471      18.798      27.209    
  37.474      49.112      61.391      73.341      83.814      91.639      100.22      97.995      91.639      81.980    
  70.176      57.456      44.930      33.478      23.721      16.024      10.495      6.9845      5.0972      4.2618    
  3.8618      3.6243      3.5454      3.6243      3.8618      4.2618      5.0972      6.9845      10.495      16.024    
  23.721      33.478      44.930      57.456      70.176      81.980      91.639      97.995      93.717      87.657    
  78.440      67.160      54.989      42.990      32.015      22.672      15.320      10.065      6.7525      4.9904    
  4.2137      3.8268      3.5961      3.5197      3.5961      3.8268      4.2137      4.9904      6.7524      10.065    
  15.320      22.672      32.015      42.990      54.989      67.160      78.440      87.657      93.717      95.832    
  87.657      80.219      70.245      58.839      47.092      35.937      26.090      18.029      11.984      7.9299    
  5.5871      4.4680      3.9728      3.6719      3.5224      3.5224      3.6719      3.9728      4.4680      5.5871    
  7.9299      11.984      18.029      26.090      35.937      47.092      58.839      70.245      80.219      87.657    
  91.639      91.639      78.440      70.245      60.181      49.282      38.508      28.645      20.268      13.722    
  9.1006      6.2452      4.7648      4.1125      3.7526      3.5380      3.4673      3.5380      3.7526      4.1125    
  4.7648      6.2452      9.1006      13.722      20.268      28.645      38.508      49.282      60.181      70.245    
  78.440      83.814      85.688      83.814      67.160      58.839      49.282      39.403      30.011      21.746    
  15.040      10.097      6.8713      5.0776      4.2456      3.8306      3.5622      3.4305      3.4305      3.5622    
  3.8306      4.2456      5.0776      6.8713      10.097      15.040      21.746      30.011      39.403      49.282    
  58.839      67.160      73.341      76.640      76.640      73.341      54.989      47.092      38.508      30.011    
  22.262      15.752      10.767      7.3628      5.3576      4.3696      3.8986      3.5897      3.4092      3.3504    
  3.4092      3.5897      3.8986      4.3696      5.3576      7.3628      10.767      15.752      22.262      30.011    
  38.508      47.092      54.989      61.391      65.574      67.029      65.574      61.391      42.990      35.937    
  28.645      21.746      15.752      11.003      7.6331      5.5524      4.4689      3.9509      3.6154      3.3992    
  3.2951      3.2951      3.3992      3.6154      3.9509      4.4689      5.5524      7.6331      11.003      15.752    
  21.746      28.645      35.937      42.990      49.112      53.642      56.054      56.054      53.642      49.112    
  32.015      26.090      20.268      15.040      10.767      7.6331      5.6222      4.5247      3.9835      3.6349    
  3.3960      3.2600      3.2163      3.2600      3.3960      3.6349      3.9835      4.5247      5.6222      7.6331    
  10.767      15.040      20.268      26.090      32.015      37.474      41.893      44.775      45.776      44.775    
  41.893      37.474      22.672      18.029      13.722      10.097      7.3628      5.5524      4.5247      3.9947    
  3.6453      3.3957      3.2402      3.1667      3.1667      3.2402      3.3957      3.6453      3.9947      4.5247    
  5.5524      7.3628      10.097      13.722      18.029      22.672      27.209      31.164      34.095      35.655    
  35.655      34.095      31.164      27.209      15.320      11.984      9.1006      6.8713      5.3576      4.4689    
  3.9835      3.6453      3.3959      3.2314      3.1401      3.1111      3.1401      3.2314      3.3959      3.6453    
  3.9835      4.4689      5.3576      6.8713      9.1006      11.984      15.320      18.798      22.049      24.703    
  26.439      27.043      26.439      24.703      22.049      18.798      10.065      7.9299      6.2452      5.0776    
  4.3696      3.9509      3.6349      3.3957      3.2314      3.1318      3.0855      3.0855      3.1318      3.2314    
  3.3957      3.6349      3.9509      4.3696      5.0776      6.2452      7.9299      10.065      12.471      14.895    
  17.050      18.664      19.529      19.529      18.664      17.050      14.895      12.471      6.7525      5.5871    
  4.7648      4.2456      3.8986      3.6154      3.3960      3.2402      3.1401      3.0855      3.0683      3.0855    
  3.1401      3.2402      3.3960      3.6154      3.8986      4.2456      4.7648      5.5871      6.7524      8.2029    
  9.7979      11.345      12.638      13.497      13.797      13.497      12.638      11.345      9.7979      8.2029    
  4.9904      4.4680      4.1125      3.8306      3.5897      3.3992      3.2600      3.1667      3.1111      3.0855    
  3.0855      3.1111      3.1667      3.2600      3.3992      3.5897      3.8306      4.1125      4.4680      4.9904    
  5.7139      6.5992      7.5482      8.4295      9.1089      9.4786      9.4786      9.1089      8.4295      7.5482    
  6.5992      5.7139      4.2137      3.9728      3.7526      3.5622      3.4092      3.2951      3.2163      3.1667    
  3.1401      3.1318      3.1401      3.1667      3.2163      3.2951      3.4092      3.5622      3.7526      3.9728    