Co-fcc                                  
   1.00000000000000     
     0.000000    1.754268    1.754268
     1.754268    0.000000    1.754268
     1.754268    1.754268    0.000000
   Co
     1
Direct
  0.000000  0.000000  0.000000
 
   32   32   32
 0.10235567738E+03 0.10008980526E+03 0.93604096896E+02 0.83750971472E+02 0.71710662322E+02
 0.58738576712E+02 0.45962841184E+02 0.34276134690E+02 0.24307515564E+02 0.16427698971E+02
 0.10750567060E+02 0.71286833853E+01 0.51694025350E+01 0.42989186758E+01 0.38907290569E+01
 0.36494172573E+01 0.35692089891E+01 0.36494172573E+01 0.38907290569E+01 0.42989186758E+01
 0.51694025350E+01 0.71286833853E+01 0.10750567060E+02 0.16427698971E+02 0.24307515564E+02
 0.34276134690E+02 0.45962841184E+02 0.58738576712E+02 0.71710662322E+02 0.83750971472E+02
 0.93604096896E+02 0.10008980526E+03 0.10008980526E+03 0.95715474781E+02 0.87556581426E+02
 0.76639771873E+02 0.64189534340E+02 0.51397115680E+02 0.39266557593E+02 0.28551143732E+02
 0.19745980106E+02 0.13091812424E+02 0.85704365555E+01 0.59067356029E+01 0.46074861894E+01
 0.40530403709E+01 0.37356279760E+01 0.35767775364E+01 0.35767776047E+01 0.37356281271E+01
 0.40530404705E+01 0.46074860900E+01 0.59067352188E+01 0.85704359062E+01 0.13091811628E+02
 0.19745979330E+02 0.28551143123E+02 0.39266557227E+02 0.51397115547E+02 0.64189534370E+02
 0.76639771975E+02 0.87556581530E+02 0.95715474850E+02 0.10008980528E+03 0.93604096896E+02
 0.87556581426E+02 0.78357729332E+02 0.67098678497E+02 0.54948228489E+02 0.42967571510E+02
 0.32007352432E+02 0.22674357479E+02 0.15327606511E+02 0.10073256158E+02 0.67591404764E+01
 0.49941011526E+01 0.42155658523E+01 0.38287090615E+01 0.35980135936E+01 0.35215928192E+01
 0.35980137629E+01 0.38287092593E+01 0.42155658690E+01 0.49941008177E+01 0.67591397458E+01
 0.10073255139E+02 0.15327605415E+02 0.22674356529E+02 0.32007351775E+02 0.42967571175E+02
 0.54948228400E+02 0.67098678536E+02 0.78357729397E+02 0.87556581469E+02 0.93604096912E+02
 0.95715474850E+02 0.83750971472E+02 0.76639771873E+02 0.67098678497E+02 0.56183746476E+02
 0.44939965806E+02 0.34268175975E+02 0.24860538853E+02 0.17178635756E+02 0.11442298039E+02
 0.76187983059E+01 0.54283713423E+01 0.43903182484E+01 0.39203975060E+01 0.36289004325E+01
 0.34844839130E+01 0.34844840147E+01 0.36289006643E+01 0.39203976881E+01 0.43903181909E+01
 0.54283709467E+01 0.76187976179E+01 0.11442297225E+02 0.17178635017E+02 0.24860538334E+02
 0.34268175702E+02 0.44939965700E+02 0.56183746414E+02 0.67098678391E+02 0.76639771714E+02
 0.83750971323E+02 0.87556581469E+02 0.87556581530E+02 0.71710662322E+02 0.64189534340E+02
 0.54948228489E+02 0.44939965806E+02 0.35054844576E+02 0.26029215528E+02 0.18400831570E+02
 0.12485148872E+02 0.83575813760E+01 0.58486714138E+01 0.45725999022E+01 0.40025432173E+01
 0.36639140408E+01 0.34632266978E+01 0.33973585597E+01 0.34632269639E+01 0.36639144266E+01
 0.40025435122E+01 0.45725999497E+01 0.58486711962E+01 0.83575810188E+01 0.12485148567E+02
 0.18400831460E+02 0.26029215627E+02 0.35054844765E+02 0.44939965907E+02 0.54948228377E+02
 0.64189534022E+02 0.71710661936E+02 0.76639771714E+02 0.78357729397E+02 0.76639771975E+02
 0.58738576712E+02 0.51397115680E+02 0.42967571510E+02 0.34268175975E+02 0.26029215528E+02
 0.18827889849E+02 0.13048821438E+02 0.88567374517E+01 0.61824999622E+01 0.47374562340E+01
 0.40702724399E+01 0.36973398726E+01 0.34537909916E+01 0.33352171811E+01 0.33352173875E+01
 0.34537915150E+01 0.36973404786E+01 0.40702728848E+01 0.47374563963E+01 0.61824999001E+01
 0.88567373561E+01 0.13048821509E+02 0.18827890173E+02 0.26029216021E+02 0.34268176431E+02
 0.42967571725E+02 0.51397115573E+02 0.58738576377E+02 0.64189534022E+02 0.67098678391E+02
 0.67098678536E+02 0.64189534370E+02 0.45962841184E+02 0.39266557593E+02 0.32007352432E+02
 0.24860538853E+02 0.18400831570E+02 0.13048821438E+02 0.90330672227E+01 0.63673395151E+01
 0.48533256425E+01 0.41212946690E+01 0.37243939341E+01 0.34515924890E+01 0.32941866401E+01
 0.32431838719E+01 0.32941870065E+01 0.34515930692E+01 0.37243945013E+01 0.41212950366E+01
 0.48533257524E+01 0.63673394548E+01 0.90330671645E+01 0.13048821538E+02 0.18400831885E+02
 0.24860539318E+02 0.32007352905E+02 0.39266557940E+02 0.45962841351E+02 0.51397115573E+02
 0.54948228377E+02 0.56183746414E+02 0.54948228400E+02 0.51397115547E+02 0.34276134690E+02
 0.28551143732E+02 0.22674357479E+02 0.17178635756E+02 0.12485148872E+02 0.88567374517E+01
 0.63673395151E+01 0.48951032025E+01 0.41493680756E+01 0.37417978563E+01 0.34525580277E+01
 0.32694602338E+01 0.31821283458E+01 0.31821283802E+01 0.32694603342E+01 0.34525581811E+01
 0.37417980297E+01 0.41493682138E+01 0.48951032447E+01 0.63673394263E+01 0.88567372544E+01
 0.12485148657E+02 0.17178635657E+02 0.22674357621E+02 0.28551144164E+02 0.34276135347E+02
 0.39266557940E+02 0.42967571725E+02 0.44939965907E+02 0.44939965700E+02 0.42967571175E+02
 0.39266557227E+02 0.24307515564E+02 0.19745980106E+02 0.15327606511E+02 0.11442298039E+02
 0.83575813760E+01 0.61824999622E+01 0.48533256425E+01 0.41493680756E+01 0.37477792695E+01
 0.34537802377E+01 0.32566434458E+01 0.31459407113E+01 0.31105503942E+01 0.31459403445E+01
 0.32566429087E+01 0.34537798007E+01 0.37477791085E+01 0.41493681618E+01 0.48533257629E+01
 0.61824998618E+01 0.83575809363E+01 0.11442297383E+02 0.15327605963E+02 0.19745980018E+02
 0.24307516108E+02 0.28551144164E+02 0.32007352905E+02 0.34268176431E+02 0.35054844765E+02
 0.34268175702E+02 0.32007351775E+02 0.28551143123E+02 0.16427698971E+02 0.13091812424E+02
 0.10073256158E+02 0.76187983059E+01 0.58486714138E+01 0.47374562340E+01 0.41212946690E+01
 0.37417978563E+01 0.34537802377E+01 0.32527258441E+01 0.31293510724E+01 0.30715880227E+01
 0.30715877089E+01 0.31293502897E+01 0.32527249756E+01 0.34537796674E+01 0.37417977490E+01
 0.41212948836E+01 0.47374564243E+01 0.58486712557E+01 0.76187977141E+01 0.10073255361E+02
 0.13091811845E+02 0.16427698982E+02 0.19745980018E+02 0.22674357621E+02 0.24860539318E+02
 0.26029216021E+02 0.26029215627E+02 0.24860538334E+02 0.22674356529E+02 0.19745979330E+02
 0.10750567060E+02 0.85704365555E+01 0.67591404764E+01 0.54283713423E+01 0.45725999022E+01
 0.40702724399E+01 0.37243939341E+01 0.34525580277E+01 0.32566434458E+01 0.31293510724E+01
 0.30593264473E+01 0.30371740631E+01 0.30593260851E+01 0.31293505298E+01 0.32566429814E+01
 0.34525578297E+01 0.37243940165E+01 0.40702726445E+01 0.45726000034E+01 0.54283711932E+01
 0.67591401069E+01 0.85704361632E+01 0.10750566896E+02 0.13091811845E+02 0.15327605963E+02
 0.17178635657E+02 0.18400831885E+02 0.18827890173E+02 0.18400831460E+02 0.17178635017E+02
 0.15327605415E+02 0.13091811628E+02 0.71286833853E+01 0.59067356029E+01 0.49941011526E+01
 0.43903182484E+01 0.40025432173E+01 0.36973398726E+01 0.34515924890E+01 0.32694602338E+01
 0.31459407113E+01 0.30715880227E+01 0.30371740631E+01 0.30371741408E+01 0.30715882261E+01
 0.31459409657E+01 0.32694604554E+01 0.34515926237E+01 0.36973399179E+01 0.40025432185E+01
 0.43903182712E+01 0.49941012488E+01 0.59067357864E+01 0.71286836302E+01 0.85704361632E+01
 0.10073255361E+02 0.11442297383E+02 0.12485148657E+02 0.13048821538E+02 0.13048821509E+02
 0.12485148567E+02 0.11442297225E+02 0.10073255139E+02 0.85704359062E+01 0.51694025350E+01
 0.46074861894E+01 0.42155658523E+01 0.39203975060E+01 0.36639140408E+01 0.34537909916E+01
 0.32941866401E+01 0.31821283458E+01 0.31105503942E+01 0.30715877089E+01 0.30593260851E+01
 0.30715882261E+01 0.31105512098E+01 0.31821291356E+01 0.32941871389E+01 0.34537911203E+01
 0.36639139279E+01 0.39203973975E+01 0.42155659657E+01 0.46074865943E+01 0.51694031253E+01
 0.59067357864E+01 0.67591401069E+01 0.76187977141E+01 0.83575809363E+01 0.88567372544E+01
 0.90330671645E+01 0.88567373561E+01 0.83575810188E+01 0.76187976179E+01 0.67591397458E+01
 0.59067352188E+01 0.42989186758E+01 0.40530403709E+01 0.38287090615E+01 0.36289004325E+01
 0.34632266978E+01 0.33352171811E+01 0.32431838719E+01 0.31821283802E+01 0.31459403445E+01
 0.31293502897E+01 0.31293505298E+01 0.31459409657E+01 0.31821291356E+01 0.32431844903E+01
 0.33352174983E+01 0.34632267251E+01 0.36289003305E+01 0.38287090385E+01 0.40530405651E+01
 0.42989190870E+01 0.46074865943E+01 0.49941012488E+01 0.54283711932E+01 0.58486712557E+01
 0.61824998618E+01 0.63673394263E+01 0.63673394548E+01 0.61824999001E+01 0.58486711962E+01
 0.54283709467E+01 0.49941008177E+01 0.46074860900E+01 0.38907290569E+01 0.37356279760E+01
 0.35980135936E+01 0.34844839130E+01 0.33973585597E+01 0.33352173875E+01 0.32941870065E+01
 0.32694603342E+01 0.32566429087E+01 0.32527249756E+01 0.32566429814E+01 0.32694604554E+01
 0.32941871389E+01 0.33352174983E+01 0.33973586339E+01 0.34844839576E+01 0.35980136300E+01
 0.37356280265E+01 0.38907291322E+01 0.40530405651E+01 0.42155659657E+01 0.43903182712E+01
 0.45726000034E+01 0.47374564243E+01 0.48533257629E+01 0.48951032447E+01 0.48533257524E+01
 0.47374563963E+01 0.45725999497E+01 0.43903181909E+01 0.42155658690E+01 0.40530404705E+01
 0.36494172573E+01 0.35767775364E+01 0.35215928192E+01 0.34844840147E+01 0.34632269639E+01
 0.34537915150E+01 0.34515930692E+01 0.34525581811E+01 0.34537798007E+01 0.34537796674E+01
 0.34525578297E+01 0.34515926237E+01 0.34537911203E+01 0.34632267251E+01 0.34844839576E+01
 0.35215928891E+01 0.35767776324E+01 0.36494172818E+01 0.37356280265E+01 0.38287090385E+01
 0.39203973975E+01 0.40025432185E+01 0.40702726445E+01 0.41212948836E+01 0.41493681618E+01
 0.41493682138E+01 0.41212950366E+01 0.40702728848E+01 0.40025435122E+01 0.39203976881E+01
 0.38287092593E+01 0.37356281271E+01 0.35692089891E+01 0.35767776047E+01 0.35980137629E+01
 0.36289006643E+01 0.36639144266E+01 0.36973404786E+01 0.37243945013E+01 0.37417980297E+01
 0.37477791085E+01 0.37417977490E+01 0.37243940165E+01 0.36973399179E+01 0.36639139279E+01
 0.36289003305E+01 0.35980136300E+01 0.35767776324E+01 0.35692090778E+01 0.35767776324E+01
 0.35980136300E+01 0.36289003305E+01 0.36639139279E+01 0.36973399179E+01 0.37243940165E+01
 0.37417977490E+01 0.37477791085E+01 0.37417980297E+01 0.37243945013E+01 0.36973404786E+01
 0.36639144266E+01 0.36289006643E+01 0.35980137629E+01 0.35767776047E+01 0.36494172573E+01
 0.37356281271E+01 0.38287092593E+01 0.39203976881E+01 0.40025435122E+01 0.40702728848E+01
 0.41212950366E+01 0.41493682138E+01 0.41493681618E+01 0.41212948836E+01 0.40702726445E+01
 0.40025432185E+01 0.39203973975E+01 0.38287090385E+01 0.37356280265E+01 0.36494172818E+01
 0.35767776324E+01 0.35215928891E+01 0.34844839576E+01 0.34632267251E+01 0.34537911203E+01
 0.34515926237E+01 0.34525578297E+01 0.34537796674E+01 0.34537798007E+01 0.34525581811E+01
 0.34515930692E+01 0.34537915150E+01 0.34632269639E+01 0.34844840147E+01 0.35215928192E+01
 0.35767775364E+01 0.38907290569E+01 0.40530404705E+01 0.42155658690E+01 0.43903181909E+01
 0.45725999497E+01 0.47374563963E+01 0.48533257524E+01 0.48951032447E+01 0.48533257629E+01
 0.47374564243E+01 0.45726000034E+01 0.43903182712E+01 0.42155659657E+01 0.40530405651E+01
 0.38907291322E+01 0.37356280265E+01 0.35980136300E+01 0.34844839576E+01 0.33973586339E+01
 0.33352174983E+01 0.32941871389E+01 0.32694604554E+01 0.32566429814E+01 0.32527249756E+01
 0.32566429087E+01 0.32694603342E+01 0.32941870065E+01 0.33352173875E+01 0.33973585597E+01
 0.34844839130E+01 0.35980135936E+01 0.37356279760E+01 0.42989186758E+01 0.46074860900E+01
 0.49941008177E+01 0.54283709467E+01 0.58486711962E+01 0.61824999001E+01 0.63673394548E+01
 0.63673394263E+01 0.61824998618E+01 0.58486712557E+01 0.54283711932E+01 0.49941012488E+01
 0.46074865943E+01 0.42989190870E+01 0.40530405651E+01 0.38287090385E+01 0.36289003305E+01
 0.34632267251E+01 0.33352174983E+01 0.32431844903E+01 0.31821291356E+01 0.31459409657E+01
 0.31293505298E+01 0.31293502897E+01 0.31459403445E+01 0.31821283802E+01 0.32431838719E+01
 0.33352171811E+01 0.34632266978E+01 0.36289004325E+01 0.38287090615E+01 0.40530403709E+01
 0.51694025350E+01 0.59067352188E+01 0.67591397458E+01 0.76187976179E+01 0.83575810188E+01
 0.88567373561E+01 0.90330671645E+01 0.88567372544E+01 0.83575809363E+01 0.76187977141E+01
 0.67591401069E+01 0.59067357864E+01 0.51694031253E+01 0.46074865943E+01 0.42155659657E+01
 0.39203973975E+01 0.36639139279E+01 0.34537911203E+01 0.32941871389E+01 0.31821291356E+01
 0.31105512098E+01 0.30715882261E+01 0.30593260851E+01 0.30715877089E+01 0.31105503942E+01
 0.31821283458E+01 0.32941866401E+01 0.34537909916E+01 0.36639140408E+01 0.39203975060E+01
 0.42155658523E+01 0.46074861894E+01 0.71286833853E+01 0.85704359062E+01 0.10073255139E+02
 0.11442297225E+02 0.12485148567E+02 0.13048821509E+02 0.13048821538E+02 0.12485148657E+02
 0.11442297383E+02 0.10073255361E+02 0.85704361632E+01 0.71286836302E+01 0.59067357864E+01
 0.49941012488E+01 0.43903182712E+01 0.40025432185E+01 0.36973399179E+01 0.34515926237E+01
 0.32694604554E+01 0.31459409657E+01 0.30715882261E+01 0.30371741408E+01 0.30371740631E+01
 0.30715880227E+01 0.31459407113E+01 0.32694602338E+01 0.34515924890E+01 0.36973398726E+01
 0.40025432173E+01 0.43903182484E+01 0.49941011526E+01 0.59067356029E+01 0.10750567060E+02
 0.13091811628E+02 0.15327605415E+02 0.17178635017E+02 0.18400831460E+02 0.18827890173E+02
 0.18400831885E+02 0.17178635657E+02 0.15327605963E+02 0.13091811845E+02 0.10750566896E+02
 0.85704361632E+01 0.67591401069E+01 0.54283711932E+01 0.45726000034E+01 0.40702726445E+01
 0.37243940165E+01 0.34525578297E+01 0.32566429814E+01 0.31293505298E+01 0.30593260851E+01
 0.30371740631E+01 0.30593264473E+01 0.31293510724E+01 0.32566434458E+01 0.34525580277E+01
 0.37243939341E+01 0.40702724399E+01 0.45725999022E+01 0.54283713423E+01 0.67591404763E+01
 0.85704365555E+01 0.16427698971E+02 0.19745979330E+02 0.22674356529E+02 0.24860538334E+02
 0.26029215627E+02 0.26029216021E+02 0.24860539318E+02 0.22674357621E+02 0.19745980018E+02
 0.16427698982E+02 0.13091811845E+02 0.10073255361E+02 0.76187977141E+01 0.58486712557E+01
 0.47374564243E+01 0.41212948836E+01 0.37417977490E+01 0.34537796674E+01 0.32527249756E+01
 0.31293502897E+01 0.30715877089E+01 0.30715880227E+01 0.31293510724E+01 0.32527258441E+01
 0.34537802377E+01 0.37417978563E+01 0.41212946690E+01 0.47374562340E+01 0.58486714138E+01
 0.76187983059E+01 0.10073256158E+02 0.13091812424E+02 0.24307515564E+02 0.28551143123E+02
 0.32007351775E+02 0.34268175702E+02 0.35054844765E+02 0.34268176431E+02 0.32007352905E+02
 0.28551144164E+02 0.24307516108E+02 0.19745980018E+02 0.15327605963E+02 0.11442297383E+02
 0.83575809363E+01 0.61824998618E+01 0.48533257629E+01 0.41493681618E+01 0.37477791085E+01
 0.34537798007E+01 0.32566429087E+01 0.31459403445E+01 0.31105503942E+01 0.31459407113E+01
 0.32566434458E+01 0.34537802377E+01 0.37477792695E+01 0.41493680756E+01 0.48533256425E+01
 0.61824999622E+01 0.83575813760E+01 0.11442298039E+02 0.15327606511E+02 0.19745980106E+02
 0.34276134690E+02 0.39266557227E+02 0.42967571175E+02 0.44939965700E+02 0.44939965907E+02
 0.42967571725E+02 0.39266557940E+02 0.34276135347E+02 0.28551144164E+02 0.22674357621E+02
 0.17178635657E+02 0.12485148657E+02 0.88567372544E+01 0.63673394263E+01 0.48951032447E+01
 0.41493682138E+01 0.37417980297E+01 0.34525581811E+01 0.32694603342E+01 0.31821283802E+01
 0.31821283458E+01 0.32694602338E+01 0.34525580277E+01 0.37417978563E+01 0.41493680756E+01
 0.48951032025E+01 0.63673395151E+01 0.88567374517E+01 0.12485148872E+02 0.17178635756E+02
 0.22674357479E+02 0.28551143732E+02 0.45962841184E+02 0.51397115547E+02 0.54948228400E+02
 0.56183746414E+02 0.54948228377E+02 0.51397115573E+02 0.45962841351E+02 0.39266557940E+02
 0.32007352905E+02 0.24860539318E+02 0.18400831885E+02 0.13048821538E+02 0.90330671645E+01
 0.63673394548E+01 0.48533257524E+01 0.41212950366E+01 0.37243945013E+01 0.34515930692E+01
 0.32941870065E+01 0.32431838719E+01 0.32941866401E+01 0.34515924890E+01 0.37243939341E+01
 0.41212946690E+01 0.48533256425E+01 0.63673395151E+01 0.90330672227E+01 0.13048821438E+02
 0.18400831570E+02 0.24860538853E+02 0.32007352432E+02 0.39266557593E+02 0.58738576712E+02
 0.64189534370E+02 0.67098678536E+02 0.67098678391E+02 0.64189534022E+02 0.58738576377E+02
 0.51397115573E+02 0.42967571725E+02 0.34268176431E+02 0.26029216021E+02 0.18827890173E+02
 0.13048821509E+02 0.88567373561E+01 0.61824999001E+01 0.47374563963E+01 0.40702728848E+01
 0.36973404786E+01 0.34537915150E+01 0.33352173875E+01 0.33352171811E+01 0.34537909916E+01
 0.36973398726E+01 0.40702724399E+01 0.47374562340E+01 0.61824999622E+01 0.88567374517E+01
 0.13048821438E+02 0.18827889849E+02 0.26029215528E+02 0.34268175975E+02 0.42967571510E+02
 0.51397115680E+02 0.71710662322E+02 0.76639771975E+02 0.78357729397E+02 0.76639771714E+02
 0.71710661936E+02 0.64189534022E+02 0.54948228377E+02 0.44939965907E+02 0.35054844765E+02
 0.26029215627E+02 0.18400831460E+02 0.12485148567E+02 0.83575810188E+01 0.58486711962E+01
 0.45725999497E+01 0.40025435122E+01 0.36639144266E+01 0.34632269639E+01 0.33973585597E+01
 0.34632266978E+01 0.36639140408E+01 0.40025432173E+01 0.45725999022E+01 0.58486714138E+01
 0.83575813760E+01 0.12485148872E+02 0.18400831570E+02 0.26029215528E+02 0.35054844576E+02
 0.44939965806E+02 0.54948228489E+02 0.64189534340E+02 0.83750971472E+02 0.87556581530E+02
 0.87556581469E+02 0.83750971323E+02 0.76639771714E+02 0.67098678391E+02 0.56183746414E+02
 0.44939965700E+02 0.34268175702E+02 0.24860538334E+02 0.17178635017E+02 0.11442297225E+02
 0.76187976179E+01 0.54283709467E+01 0.43903181909E+01 0.39203976881E+01 0.36289006643E+01
 0.34844840147E+01 0.34844839130E+01 0.36289004325E+01 0.39203975060E+01 0.43903182484E+01
 0.54283713423E+01 0.76187983059E+01 0.11442298039E+02 0.17178635756E+02 0.24860538853E+02
 0.34268175975E+02 0.44939965806E+02 0.56183746476E+02 0.67098678497E+02 0.76639771873E+02
 0.93604096896E+02 0.95715474850E+02 0.93604096912E+02 0.87556581469E+02 0.78357729397E+02
 0.67098678536E+02 0.54948228400E+02 0.42967571175E+02 0.32007351775E+02 0.22674356529E+02
 0.15327605415E+02 0.10073255139E+02 0.67591397458E+01 0.49941008177E+01 0.42155658690E+01
 0.38287092593E+01 0.35980137629E+01 0.35215928192E+01 0.35980135936E+01 0.38287090615E+01
 0.42155658523E+01 0.49941011526E+01 0.67591404763E+01 0.10073256158E+02 0.15327606511E+02
 0.22674357479E+02 0.32007352432E+02 0.42967571510E+02 0.54948228489E+02 0.67098678497E+02
 0.78357729332E+02 0.87556581426E+02 0.10008980526E+03 0.10008980528E+03 0.95715474850E+02
 0.87556581530E+02 0.76639771975E+02 0.64189534370E+02 0.51397115547E+02 0.39266557227E+02
 0.28551143123E+02 0.19745979330E+02 0.13091811628E+02 0.85704359062E+01 0.59067352188E+01
 0.46074860900E+01 0.40530404705E+01 0.37356281271E+01 0.35767776047E+01 0.35767775364E+01
 0.37356279760E+01 0.40530403709E+01 0.46074861894E+01 0.59067356029E+01 0.85704365555E+01
 0.13091812424E+02 0.19745980106E+02 0.28551143732E+02 0.39266557593E+02 0.51397115680E+02
 0.64189534340E+02 0.76639771873E+02 0.87556581426E+02 0.95715474781E+02 0.10008980526E+03
 0.95715474781E+02 0.87556581426E+02 0.76639771873E+02 0.64189534340E+02 0.51397115680E+02
 0.39266557593E+02 0.28551143732E+02 0.19745980106E+02 0.13091812424E+02 0.85704365555E+01
 0.59067356029E+01 0.46074861894E+01 0.40530403709E+01 0.37356279760E+01 0.35767775364E+01
 0.35767776047E+01 0.37356281271E+01 0.40530404705E+01 0.46074860900E+01 0.59067352188E+01
 0.85704359062E+01 0.13091811628E+02 0.19745979330E+02 0.28551143123E+02 0.39266557227E+02
 0.51397115547E+02 0.64189534370E+02 0.76639771975E+02 0.87556581530E+02 0.95715474850E+02
 0.10008980528E+03 0.95715474781E+02 0.89533932334E+02 0.80133299581E+02 0.68630217666E+02
 0.56218725791E+02 0.43980358257E+02 0.32779817907E+02 0.23232945490E+02 0.15704937181E+02
 0.10306472349E+02 0.68879651335E+01 0.50577511688E+01 0.42488658526E+01 0.38547961382E+01
 0.36202996522E+01 0.35425359060E+01 0.36202998608E+01 0.38547963867E+01 0.42488658890E+01
 0.50577507853E+01 0.68879642720E+01 0.10306471133E+02 0.15704935862E+02 0.23232944342E+02
 0.32779817118E+02 0.43980357874E+02 0.56218725734E+02 0.68630217790E+02 0.80133299750E+02
 0.89533932467E+02 0.95715474848E+02 0.97873916608E+02 0.87556581426E+02 0.80133299581E+02
 0.70177494541E+02 0.58791885818E+02 0.47063345063E+02 0.35924535652E+02 0.26089574474E+02
 0.18035322662E+02 0.11993002915E+02 0.79377030709E+01 0.55920603215E+01 0.44703649461E+01
 0.39745712253E+01 0.36738370797E+01 0.35243705939E+01 0.35243707076E+01 0.36738373315E+01
 0.39745713942E+01 0.44703647949E+01 0.55920597209E+01 0.79377020681E+01 0.11993001715E+02
 0.18035321534E+02 0.26089573634E+02 0.35924535186E+02 0.47063344917E+02 0.58791885854E+02
 0.70177494622E+02 0.80133299629E+02 0.87556581436E+02 0.91530417688E+02 0.91530417690E+02
 0.76639771873E+02 0.68630217666E+02 0.58791885818E+02 0.48136326972E+02 0.37602796640E+02
 0.27964686659E+02 0.19786968101E+02 0.13405919552E+02 0.89124656273E+01 0.61453496868E+01
 0.47165864382E+01 0.40855389010E+01 0.37313264708E+01 0.35202846913E+01 0.34508180846E+01
 0.35202848835E+01 0.37313267146E+01 0.40855389952E+01 0.47165862348E+01 0.61453491766E+01
 0.89124649476E+01 0.13405918915E+02 0.19786967685E+02 0.27964686520E+02 0.37602796698E+02
 0.48136327069E+02 0.58791885817E+02 0.68630217527E+02 0.76639771665E+02 0.81890988336E+02
 0.83721652686E+02 0.81890988487E+02 0.64189534340E+02 0.56218725791E+02 0.47063345063E+02
 0.37602796640E+02 0.28618190182E+02 0.20726930517E+02 0.14345762485E+02 0.96646155910E+01
 0.66306066437E+01 0.49585664776E+01 0.41854402289E+01 0.37860676230E+01 0.35262096451E+01
 0.33990155761E+01 0.33990157191E+01 0.35262099916E+01 0.37860679748E+01 0.41854403905E+01
 0.49585663749E+01 0.66306063693E+01 0.96646153509E+01 0.14345762476E+02 0.20726930807E+02
 0.28618190666E+02 0.37602797092E+02 0.47063345268E+02 0.56218725666E+02 0.64189533983E+02
 0.70108376987E+02 0.73267867726E+02 0.73267867878E+02 0.70108377352E+02 0.51397115680E+02
 0.43980358257E+02 0.35924535652E+02 0.27964686659E+02 0.20726930517E+02 0.14675327470E+02
 0.10074183056E+02 0.69628583806E+01 0.51540383868E+01 0.42709219899E+01 0.38320594610E+01
 0.35372064146E+01 0.33656990919E+01 0.33099098147E+01 0.33656994427E+01 0.35372069374E+01
 0.38320599019E+01 0.42709221674E+01 0.51540382958E+01 0.69628581924E+01 0.10074183014E+02
 0.14675327744E+02 0.20726931095E+02 0.27964687353E+02 0.35924536200E+02 0.43980358470E+02
 0.51397115547E+02 0.57410908086E+02 0.61339611190E+02 0.62706431643E+02 0.61339611432E+02
 0.57410908396E+02 0.39266557593E+02 0.32779817907E+02 0.26089574474E+02 0.19786968101E+02
 0.14345762485E+02 0.10074183056E+02 0.70809956909E+01 0.52635041280E+01 0.43301577092E+01
 0.38648751766E+01 0.35486281675E+01 0.33463229052E+01 0.32492418359E+01 0.32492419724E+01
 0.33463232466E+01 0.35486285459E+01 0.38648754136E+01 0.43301577092E+01 0.52635039259E+01
 0.70809954295E+01 0.10074182907E+02 0.14345762563E+02 0.19786968409E+02 0.26089574910E+02
 0.32779818332E+02 0.39266557900E+02 0.44905106928E+02 0.49080427408E+02 0.51304016230E+02
 0.51304016222E+02 0.49080427355E+02 0.44905106768E+02 0.28551143732E+02 0.23232945490E+02
 0.18035322662E+02 0.13405919552E+02 0.96646155910E+01 0.69628583806E+01 0.52635041280E+01
 0.43514741657E+01 0.38818638834E+01 0.35569118752E+01 0.33363682942E+01 0.32115631983E+01
 0.31715115541E+01 0.32115631056E+01 0.33363681505E+01 0.35569117318E+01 0.38818637585E+01
 0.43514740245E+01 0.52635039020E+01 0.69628580200E+01 0.96646151175E+01 0.13405919078E+02
 0.18035322353E+02 0.23232945489E+02 0.28551144076E+02 0.33469064598E+02 0.37459273747E+02
 0.40063733221E+02 0.40969087350E+02 0.40063732841E+02 0.37459273145E+02 0.33469064015E+02
 0.19745980106E+02 0.15704937181E+02 0.11993002915E+02 0.89124656273E+01 0.66306066437E+01
 0.51540383868E+01 0.43301577092E+01 0.38818638834E+01 0.35599086619E+01 0.33323332685E+01
 0.31915219947E+01 0.31252735319E+01 0.31252732783E+01 0.31915213553E+01 0.33323325350E+01
 0.35599081216E+01 0.38818636491E+01 0.43301576577E+01 0.51540382445E+01 0.66306061708E+01
 0.89124647884E+01 0.11993001932E+02 0.15704936425E+02 0.19745979897E+02 0.23722840325E+02
 0.27206718576E+02 0.29795407252E+02 0.31175667116E+02 0.31175666809E+02 0.29795406497E+02
 0.27206717778E+02 0.23722839913E+02 0.13091812424E+02 0.10306472349E+02 0.79377030709E+01
 0.61453496868E+01 0.49585664776E+01 0.42709219899E+01 0.38648751766E+01 0.35569118752E+01
 0.33323332685E+01 0.31853002898E+01 0.31040388492E+01 0.30782735582E+01 0.31040383005E+01
 0.31852994492E+01 0.33323325011E+01 0.35569114461E+01 0.38648751042E+01 0.42709220476E+01
 0.49585663431E+01 0.61453491494E+01 0.79377021736E+01 0.10306471379E+02 0.13091811757E+02
 0.16031303840E+02 0.18803396184E+02 0.21078808813E+02 0.22573233761E+02 0.23094087666E+02
 0.22573233310E+02 0.21078808188E+02 0.18803395784E+02 0.16031303960E+02 0.85704365555E+01
 0.68879651335E+01 0.55920603215E+01 0.47165864382E+01 0.41854402289E+01 0.38320594610E+01
 0.35486281675E+01 0.33363682942E+01 0.31915219947E+01 0.31040388492E+01 0.30634835217E+01
 0.30634834168E+01 0.31040385840E+01 0.31915216888E+01 0.33363680675E+01 0.35486280707E+01
 0.38320594481E+01 0.41854401882E+01 0.47165862635E+01 0.55920599811E+01 0.68879646968E+01
 0.85704361592E+01 0.10504132297E+02 0.12479864808E+02 0.14254074378E+02 0.15592666617E+02
 0.16312237461E+02 0.16312237382E+02 0.15592666436E+02 0.14254074225E+02 0.12479864816E+02
 0.10504132524E+02 0.59067356029E+01 0.50577511688E+01 0.44703649461E+01 0.40855389010E+01
 0.37860676230E+01 0.35372064146E+01 0.33463229052E+01 0.32115631983E+01 0.31252735319E+01
 0.30782735582E+01 0.30634834168E+01 0.30782738631E+01 0.31252740078E+01 0.32115636460E+01
 0.33463231601E+01 0.35372064248E+01 0.37860674641E+01 0.40855387237E+01 0.44703648883E+01
 0.50577512834E+01 0.59067358381E+01 0.69914636182E+01 0.82108854249E+01 0.94135282174E+01
 0.10430667814E+02 0.11110925074E+02 0.11350044935E+02 0.11110925147E+02 0.10430667892E+02
 0.94135282096E+01 0.82108852832E+01 0.69914633773E+01 0.46074861894E+01 0.42488658526E+01
 0.39745712253E+01 0.37313264708E+01 0.35262096451E+01 0.33656990919E+01 0.32492418359E+01
 0.31715115541E+01 0.31252732783E+01 0.31040383005E+01 0.31040385840E+01 0.31252740078E+01
 0.31715124289E+01 0.32492425266E+01 0.33656994002E+01 0.35262095888E+01 0.37313262516E+01
 0.39745711050E+01 0.42488660082E+01 0.46074866281E+01 0.51011567441E+01 0.57190873255E+01
 0.63973065841E+01 0.70389845030E+01 0.75401601857E+01 0.78148969238E+01 0.78148969539E+01
 0.75401602212E+01 0.70389844199E+01 0.63973062828E+01 0.57190868171E+01 0.51011561691E+01
 0.40530403709E+01 0.38547961382E+01 0.36738370797E+01 0.35202846913E+01 0.33990155761E+01
 0.33099098147E+01 0.32492419724E+01 0.32115631056E+01 0.31915213553E+01 0.31852994492E+01
 0.31915216888E+01 0.32115636460E+01 0.32492425266E+01 0.33099102126E+01 0.33990157444E+01
 0.35202846762E+01 0.36738370102E+01 0.38547961545E+01 0.40530405555E+01 0.42637490064E+01
 0.45160523119E+01 0.48159877053E+01 0.51335665644E+01 0.54178765225E+01 0.56152702585E+01
 0.56859379046E+01 0.56152701674E+01 0.54178763225E+01 0.51335662445E+01 0.48159872922E+01
 0.45160518812E+01 0.42637486597E+01 0.37356279760E+01 0.36202996522E+01 0.35243705939E+01
 0.34508180846E+01 0.33990157191E+01 0.33656994427E+01 0.33463232466E+01 0.33363681505E+01
 0.33323325350E+01 0.33323325011E+01 0.33363680675E+01 0.33463231601E+01 0.33656994002E+01
 0.33990157444E+01 0.34508181664E+01 0.35243706945E+01 0.36202997312E+01 0.37356280141E+01
 0.38636405797E+01 0.39948088196E+01 0.41202928488E+01 0.42442021332E+01 0.43629786937E+01
 0.44594123459E+01 0.45138744997E+01 0.45138744575E+01 0.44594122376E+01 0.43629785640E+01
 0.42442020287E+01 0.41202927934E+01 0.39948088040E+01 0.38636405701E+01 0.35767775364E+01
 0.35425359060E+01 0.35243707076E+01 0.35202848835E+01 0.35262099916E+01 0.35372069374E+01
 0.35486285459E+01 0.35569117318E+01 0.35599081216E+01 0.35569114461E+01 0.35486280707E+01
 0.35372064248E+01 0.35262095888E+01 0.35202846762E+01 0.35243706945E+01 0.35425360104E+01
 0.35767776468E+01 0.36262058655E+01 0.36869452335E+01 0.37528531896E+01 0.38168594562E+01
 0.38724620408E+01 0.39148211555E+01 0.39413509871E+01 0.39505063206E+01 0.39413511277E+01
 0.39148214128E+01 0.38724623663E+01 0.38168597814E+01 0.37528534405E+01 0.36869453547E+01
 0.36262058466E+01 0.35767776047E+01 0.36202998608E+01 0.36738373315E+01 0.37313267146E+01
 0.37860679748E+01 0.38320599019E+01 0.38648754136E+01 0.38818637585E+01 0.38818636491E+01
 0.38648751042E+01 0.38320594481E+01 0.37860674641E+01 0.37313262516E+01 0.36738370102E+01
 0.36202997312E+01 0.35767776468E+01 0.35473740427E+01 0.35333936261E+01 0.35332585410E+01
 0.35431717806E+01 0.35582660515E+01 0.35738178275E+01 0.35861195206E+01 0.35928149143E+01
 0.35928150860E+01 0.35861199768E+01 0.35738184159E+01 0.35582665899E+01 0.35431721294E+01
 0.35332586544E+01 0.35333935599E+01 0.35473739211E+01 0.37356281271E+01 0.38547963867E+01
 0.39745713942E+01 0.40855389952E+01 0.41854403905E+01 0.42709221674E+01 0.43301577092E+01
 0.43514740245E+01 0.43301576577E+01 0.42709220476E+01 0.41854401882E+01 0.40855387237E+01
 0.39745711050E+01 0.38547961545E+01 0.37356280141E+01 0.36262058655E+01 0.35333936261E+01
 0.34607437474E+01 0.34083999125E+01 0.33738310593E+01 0.33530342346E+01 0.33417728083E+01
 0.33365253728E+01 0.33350330663E+01 0.33365255718E+01 0.33417731228E+01 0.33530345390E+01
 0.33738312469E+01 0.34083999446E+01 0.34607436662E+01 0.35333935273E+01 0.36262058466E+01
 0.40530404705E+01 0.42488658890E+01 0.44703647949E+01 0.47165862348E+01 0.49585663749E+01
 0.51540382958E+01 0.52635039259E+01 0.52635039020E+01 0.51540382445E+01 0.49585663431E+01
 0.47165862635E+01 0.44703648883E+01 0.42488660082E+01 0.40530405555E+01 0.38636405797E+01
 0.36869452335E+01 0.35332585410E+01 0.34083999125E+01 0.33135714243E+01 0.32463412073E+01
 0.32022120130E+01 0.31762430496E+01 0.31643842726E+01 0.31643841550E+01 0.31762427429E+01
 0.32022116330E+01 0.32463408841E+01 0.33135712432E+01 0.34083998811E+01 0.35332585974E+01