<?xml version="1.0" encoding="ISO-8859-1"?>
<modeling>
 <generator>
  <i name="program" type="string">vasp </i>
  <i name="version" type="string">6.3.2  </i>
  <i name="subversion" type="string">27Jun22 (build Aug 12 2022 00:53:59) complex                          parallel </i>
  <i name="platform" type="string">tv2STD </i>
  <i name="date" type="string">2024 11 30 </i>
  <i name="time" type="string">15:33:58 </i>
 </generator>
 <incar>
  <i type="string" name="SYSTEM">Co-fcc</i>
  <i type="int" name="ISTART">     0</i>
  <i type="string" name="PREC">Accurate      normal | accurate</i>
  <i type="string" name="ALGO">Normal     Normal, Fast, Very_Fast</i>
  <i type="logical" name="ADDGRID"> F  </i>
  <i type="int" name="ISPIN">     2</i>
  <i type="int" name="ICHARG">     2</i>
  <i type="int" name="INIWAV">     1</i>
  <i type="int" name="NELM">   100</i>
  <i type="int" name="IBRION">     2</i>
  <i name="EDIFF">      0.00000100</i>
  <i name="EDIFFG">     -0.02000000</i>
  <i type="int" name="NSW">   100</i>
  <i type="int" name="ISIF">     3</i>
  <i type="int" name="ISYM">     1</i>
  <i name="ENCUT">    400.00000000</i>
  <v name="MAGMOM">      3.00000000</v>
  <i type="logical" name="LREAL"> F  </i>
  <i type="int" name="ISMEAR">     0</i>
  <i name="SIGMA">      0.05000000</i>
  <i type="int" name="NWRITE">     2</i>
  <i type="logical" name="LWAVE"> T  </i>
  <i type="logical" name="LCHARG"> T  </i>
  <i type="int" name="LORBIT">    11</i>
 </incar>
 <primitive_cell>
  <structure name="primitive_cell" >
   <crystal>
    <varray name="basis" >
     <v>       0.00000000       1.75500000       1.75500000 </v>
     <v>       1.75500000       0.00000000       1.75500000 </v>
     <v>       1.75500000       1.75500000       0.00000000 </v>
    </varray>
    <i name="volume">     10.81088775 </i>
    <varray name="rec_basis" >
     <v>      -0.28490028       0.28490028       0.28490028 </v>
     <v>       0.28490028      -0.28490028       0.28490028 </v>
     <v>       0.28490028       0.28490028      -0.28490028 </v>
    </varray>
   </crystal>
   <varray name="positions" >
    <v>       0.00000000       0.00000000       0.00000000 </v>
   </varray>
  </structure>
  <varray name="primitive_index" >
   <v type="int" >        1 </v>
  </varray>
 </primitive_cell>
 <kpoints>
  <generation param="Monkhorst-Pack">
   <v type="int" name="divisions">       8        8        8 </v>
   <v name="usershift">      0.00000000       0.00000000       0.00000000 </v>
   <v name="genvec1">      0.12500000       0.00000000       0.00000000 </v>
   <v name="genvec2">      0.00000000       0.12500000       0.00000000 </v>
   <v name="genvec3">      0.00000000       0.00000000       0.12500000 </v>
   <v name="shift">      0.50000000       0.50000000       0.50000000 </v>
  </generation>
  <varray name="kpointlist" >
   <v>       0.06250000       0.06250000       0.06250000 </v>
   <v>       0.18750000       0.06250000       0.06250000 </v>
   <v>       0.31250000       0.06250000       0.06250000 </v>
   <v>       0.43750000       0.06250000       0.06250000 </v>
   <v>      -0.43750000       0.06250000       0.06250000 </v>
   <v>      -0.31250000       0.06250000       0.06250000 </v>
   <v>      -0.18750000       0.06250000       0.06250000 </v>
   <v>      -0.06250000       0.06250000       0.06250000 </v>
   <v>       0.18750000       0.18750000       0.06250000 </v>
   <v>       0.31250000       0.18750000       0.06250000 </v>
   <v>       0.43750000       0.18750000       0.06250000 </v>
   <v>      -0.43750000       0.18750000       0.06250000 </v>
   <v>      -0.31250000       0.18750000       0.06250000 </v>
   <v>      -0.18750000       0.18750000       0.06250000 </v>
   <v>      -0.06250000       0.18750000       0.06250000 </v>
   <v>       0.31250000       0.31250000       0.06250000 </v>
   <v>       0.43750000       0.31250000       0.06250000 </v>
   <v>      -0.43750000       0.31250000       0.06250000 </v>
   <v>      -0.31250000       0.31250000       0.06250000 </v>
   <v>      -0.18750000       0.31250000       0.06250000 </v>
   <v>      -0.06250000       0.31250000       0.06250000 </v>
   <v>       0.43750000       0.43750000       0.06250000 </v>
   <v>      -0.43750000       0.43750000       0.06250000 </v>
   <v>      -0.31250000       0.43750000       0.06250000 </v>
   <v>      -0.18750000       0.43750000       0.06250000 </v>
   <v>      -0.06250000       0.43750000       0.06250000 </v>
   <v>      -0.43750000      -0.43750000       0.06250000 </v>
   <v>      -0.31250000      -0.43750000       0.06250000 </v>
   <v>      -0.18750000      -0.43750000       0.06250000 </v>
   <v>      -0.31250000      -0.31250000       0.06250000 </v>
   <v>      -0.18750000      -0.31250000       0.06250000 </v>
   <v>      -0.18750000      -0.18750000       0.06250000 </v>
   <v>       0.18750000       0.18750000       0.18750000 </v>
   <v>       0.31250000       0.18750000       0.18750000 </v>
   <v>       0.43750000       0.18750000       0.18750000 </v>
   <v>      -0.43750000       0.18750000       0.18750000 </v>
   <v>      -0.31250000       0.18750000       0.18750000 </v>
   <v>      -0.18750000       0.18750000       0.18750000 </v>
   <v>       0.31250000       0.31250000       0.18750000 </v>
   <v>       0.43750000       0.31250000       0.18750000 </v>
   <v>      -0.43750000       0.31250000       0.18750000 </v>
   <v>      -0.31250000       0.31250000       0.18750000 </v>
   <v>      -0.18750000       0.31250000       0.18750000 </v>
   <v>       0.43750000       0.43750000       0.18750000 </v>
   <v>      -0.43750000       0.43750000       0.18750000 </v>
   <v>      -0.31250000       0.43750000       0.18750000 </v>
   <v>      -0.18750000       0.43750000       0.18750000 </v>
   <v>      -0.43750000      -0.43750000       0.18750000 </v>
   <v>      -0.31250000      -0.43750000       0.18750000 </v>
   <v>      -0.31250000      -0.31250000       0.18750000 </v>
   <v>       0.31250000       0.31250000       0.31250000 </v>
   <v>       0.43750000       0.31250000       0.31250000 </v>
   <v>      -0.43750000       0.31250000       0.31250000 </v>
   <v>      -0.31250000       0.31250000       0.31250000 </v>
   <v>       0.43750000       0.43750000       0.31250000 </v>
   <v>      -0.43750000       0.43750000       0.31250000 </v>
   <v>      -0.31250000       0.43750000       0.31250000 </v>
   <v>      -0.43750000      -0.43750000       0.31250000 </v>
   <v>       0.43750000       0.43750000       0.43750000 </v>
   <v>      -0.43750000       0.43750000       0.43750000 </v>
  </varray>
  <varray name="weights" >
   <v>       0.00390625 </v>
   <v>       0.01171875 </v>
   <v>       0.01171875 </v>
   <v>       0.01171875 </v>
   <v>       0.01171875 </v>
   <v>       0.01171875 </v>
   <v>       0.01171875 </v>
   <v>       0.01171875 </v>
   <v>       0.01171875 </v>
   <v>       0.02343750 </v>
   <v>       0.02343750 </v>
   <v>       0.02343750 </v>
   <v>       0.02343750 </v>
   <v>       0.02343750 </v>
   <v>       0.02343750 </v>
   <v>       0.01171875 </v>
   <v>       0.02343750 </v>
   <v>       0.02343750 </v>
   <v>       0.02343750 </v>
   <v>       0.02343750 </v>
   <v>       0.02343750 </v>
   <v>       0.01171875 </v>
   <v>       0.02343750 </v>
   <v>       0.02343750 </v>
   <v>       0.02343750 </v>
   <v>       0.02343750 </v>
   <v>       0.01171875 </v>
   <v>       0.02343750 </v>
   <v>       0.02343750 </v>
   <v>       0.01171875 </v>
   <v>       0.02343750 </v>
   <v>       0.01171875 </v>
   <v>       0.00390625 </v>
   <v>       0.01171875 </v>
   <v>       0.01171875 </v>
   <v>       0.01171875 </v>
   <v>       0.01171875 </v>
   <v>       0.01171875 </v>
   <v>       0.01171875 </v>
   <v>       0.02343750 </v>
   <v>       0.02343750 </v>
   <v>       0.02343750 </v>
   <v>       0.02343750 </v>
   <v>       0.01171875 </v>
   <v>       0.02343750 </v>
   <v>       0.02343750 </v>
   <v>       0.02343750 </v>
   <v>       0.01171875 </v>
   <v>       0.02343750 </v>
   <v>       0.01171875 </v>
   <v>       0.00390625 </v>
   <v>       0.01171875 </v>
   <v>       0.01171875 </v>
   <v>       0.01171875 </v>
   <v>       0.01171875 </v>
   <v>       0.02343750 </v>
   <v>       0.02343750 </v>
   <v>       0.01171875 </v>
   <v>       0.00390625 </v>
   <v>       0.01171875 </v>
  </varray>
 </kpoints>
 <parameters>
  <separator name="general" >
   <i type="string" name="SYSTEM">Co-fcc</i>
   <i type="logical" name="LCOMPAT"> F  </i>
  </separator>
  <separator name="electronic" >
   <i type="string" name="PREC">accura</i>
   <i name="ENMAX">    400.00000000</i>
   <i name="ENAUG">    477.81800000</i>
   <i name="EDIFF">      0.00000100</i>
   <i type="int" name="IALGO">    38</i>
   <i type="int" name="IWAVPR">    11</i>
   <i type="int" name="NBANDS">    12</i>
   <i type="int" name="NBANDSLOW">    -1</i>
   <i type="int" name="NBANDSHIGH">    -1</i>
   <i name="NELECT">      9.00000000</i>
   <i type="int" name="TURBO">     0</i>
   <i type="int" name="IRESTART">     0</i>
   <i type="int" name="NREBOOT">     0</i>
   <i type="int" name="NMIN">     0</i>
   <i name="EREF">      0.00000000</i>
   <separator name="electronic smearing" >
    <i type="int" name="ISMEAR">     0</i>
    <i name="SIGMA">      0.05000000</i>
    <i name="KSPACING">      0.50000000</i>
    <i type="logical" name="KGAMMA"> T  </i>
    <i type="logical" name="KBLOWUP"> T  </i>
   </separator>
   <separator name="electronic projectors" >
    <i type="logical" name="LREAL"> F  </i>
    <v name="ROPT">      0.00000000</v>
    <i type="int" name="LMAXPAW">  -100</i>
    <i type="int" name="LMAXMIX">     2</i>
    <i type="logical" name="NLSPLINE"> F  </i>
   </separator>
   <separator name="electronic startup" >
    <i type="int" name="ISTART">     0</i>
    <i type="int" name="ICHARG">     2</i>
    <i type="int" name="INIWAV">     1</i>
   </separator>
   <separator name="electronic spin" >
    <i type="int" name="ISPIN">     2</i>
    <i type="logical" name="LNONCOLLINEAR"> F  </i>
    <v name="MAGMOM">      3.00000000</v>
    <i name="NUPDOWN">     -1.00000000</i>
    <i type="logical" name="LSORBIT"> F  </i>
    <v name="SAXIS">      0.00000000      0.00000000      1.00000000</v>
    <i type="logical" name="LSPIRAL"> F  </i>
    <v name="QSPIRAL">      0.00000000      0.00000000      0.00000000</v>
    <i type="logical" name="LZEROZ"> F  </i>
   </separator>
   <separator name="electronic exchange-correlation" >
    <i type="logical" name="LASPH"> F  </i>
    <i type="logical" name="LMETAGGA"> F  </i>
   </separator>
   <separator name="electronic convergence" >
    <i type="int" name="NELM">   100</i>
    <i type="int" name="NELMDL">    -5</i>
    <i type="int" name="NELMIN">     2</i>
    <i name="ENINI">    400.00000000</i>
    <separator name="electronic convergence detail" >
     <i type="logical" name="LDIAG"> T  </i>
     <i type="logical" name="LSUBROT"> F  </i>
     <i name="WEIMIN">      0.00100000</i>
     <i name="EBREAK">      0.00000002</i>
     <i name="DEPER">      0.30000000</i>
     <i type="int" name="NRMM">     4</i>
     <i name="TIME">      0.40000000</i>
    </separator>
   </separator>
   <separator name="electronic mixer" >
    <i name="AMIX">      0.40000000</i>
    <i name="BMIX">      1.00000000</i>
    <i name="AMIN">      0.10000000</i>
    <i name="AMIX_MAG">      1.60000000</i>
    <i name="BMIX_MAG">      1.00000000</i>
    <separator name="electronic mixer details" >
     <i type="int" name="IMIX">     4</i>
     <i type="logical" name="MIXFIRST"> F  </i>
     <i type="int" name="MAXMIX">   -45</i>
     <i name="WC">    100.00000000</i>
     <i type="int" name="INIMIX">     1</i>
     <i type="int" name="MIXPRE">     1</i>
     <i type="int" name="MREMOVE">     5</i>
    </separator>
   </separator>
   <separator name="electronic dipolcorrection" >
    <i type="logical" name="LDIPOL"> F  </i>
    <i type="logical" name="LMONO"> F  </i>
    <i type="int" name="IDIPOL">     0</i>
    <i name="EPSILON">      1.00000000</i>
    <v name="DIPOL">   -100.00000000   -100.00000000   -100.00000000</v>
    <i name="EFIELD">      0.00000000</i>
   </separator>
  </separator>
  <separator name="grids" >
   <i type="int" name="NGX">    16</i>
   <i type="int" name="NGY">    16</i>
   <i type="int" name="NGZ">    16</i>
   <i type="int" name="NGXF">    32</i>
   <i type="int" name="NGYF">    32</i>
   <i type="int" name="NGZF">    32</i>
   <i type="logical" name="ADDGRID"> F  </i>
  </separator>
  <separator name="ionic" >
   <i type="int" name="NSW">   100</i>
   <i type="int" name="IBRION">     2</i>
   <i type="int" name="MDALGO">     0</i>
   <i type="int" name="ISIF">     3</i>
   <i name="PSTRESS">      0.00000000</i>
   <i name="EDIFFG">     -0.02000000</i>
   <i type="int" name="NFREE">     1</i>
   <i name="POTIM">      0.50000000</i>
   <i name="SMASS">     -3.00000000</i>
   <i name="SCALEE">      1.00000000</i>
  </separator>
  <separator name="ionic md" >
   <i name="TEBEG">      0.00010000</i>
   <i name="TEEND">      0.00010000</i>
   <i type="int" name="NBLOCK">     1</i>
   <i type="int" name="KBLOCK">   100</i>
   <i type="int" name="NPACO">   256</i>
   <i name="APACO">     10.00000000</i>
  </separator>
  <separator name="symmetry" >
   <i type="int" name="ISYM">     1</i>
   <i name="SYMPREC">      0.00001000</i>
  </separator>
  <separator name="dos" >
   <i type="int" name="LORBIT">    11</i>
   <v name="RWIGS">     -1.00000000</v>
   <i type="int" name="NEDOS">   301</i>
   <i name="EMIN">     10.00000000</i>
   <i name="EMAX">    -10.00000000</i>
   <i name="EFERMI">      0.00000000</i>
  </separator>
  <separator name="writing" >
   <i type="int" name="NWRITE">     2</i>
   <i type="logical" name="LWAVE"> T  </i>
   <i type="logical" name="LDOWNSAMPLE"> F  </i>
   <i type="logical" name="LCHARG"> T  </i>
   <i type="logical" name="LPARD"> F  </i>
   <i type="logical" name="LVTOT"> F  </i>
   <i type="logical" name="LVHAR"> F  </i>
   <i type="logical" name="LELF"> F  </i>
   <i type="logical" name="LOPTICS"> F  </i>
   <v name="STM">      0.00000000      0.00000000      0.00000000      0.00000000      0.00000000      0.00000000      0.00000000</v>
  </separator>
  <separator name="performance" >
   <i type="int" name="NPAR">     4</i>
   <i type="int" name="NSIM">     4</i>
   <i type="int" name="NBLK">    -1</i>
   <i type="logical" name="LPLANE"> T  </i>
   <i type="logical" name="LSCALAPACK"> T  </i>
   <i type="logical" name="LSCAAWARE"> T  </i>
   <i type="logical" name="LSCALU"> F  </i>
   <i type="logical" name="LASYNC"> F  </i>
   <i type="logical" name="LORBITALREAL"> F  </i>
  </separator>
  <separator name="miscellaneous" >
   <i type="int" name="IDIOT">     3</i>
   <i type="int" name="PHON_NSTRUCT">    -1</i>
   <i type="logical" name="LMUSIC"> F  </i>
   <v name="POMASS">     58.93300000</v>
   <v name="DARWINR">      0.00000000</v>
   <v name="DARWINV">      1.00000000</v>
   <i type="logical" name="LCORR"> T  </i>
  </separator>
  <i type="logical" name="GGA_COMPAT"> T  </i>
  <i type="logical" name="LBERRY"> F  </i>
  <i type="int" name="ICORELEVEL">     0</i>
  <i type="logical" name="LDAU"> F  </i>
  <i type="int" name="I_CONSTRAINED_M">     0</i>
  <separator name="electronic exchange-correlation" >
   <i type="string" name="GGA">--</i>
   <i type="int" name="VOSKOWN">     0</i>
   <i type="logical" name="LHFCALC"> F  </i>
   <i type="string" name="PRECFOCK"></i>
   <i type="logical" name="LSYMGRAD"> F  </i>
   <i type="logical" name="LHFONE"> F  </i>
   <i type="logical" name="LRHFCALC"> F  </i>
   <i type="logical" name="LTHOMAS"> F  </i>
   <i type="logical" name="LMODELHF"> F  </i>
   <i type="logical" name="LFOCKACE"> F  </i>
   <i name="ENCUT4O">     -1.00000000</i>
   <i type="int" name="EXXOEP">     0</i>
   <i type="int" name="FOURORBIT">     0</i>
   <i name="AEXX">      0.00000000</i>
   <i name="HFALPHA">      0.00000000</i>
   <i name="MCALPHA">      0.00000000</i>
   <i name="ALDAX">      1.00000000</i>
   <i name="AGGAX">      1.00000000</i>
   <i name="ALDAC">      1.00000000</i>
   <i name="AGGAC">      1.00000000</i>
   <i type="int" name="NKREDX">     1</i>
   <i type="int" name="NKREDY">     1</i>
   <i type="int" name="NKREDZ">     1</i>
   <i type="logical" name="SHIFTRED"> F  </i>
   <i type="logical" name="ODDONLY"> F  </i>
   <i type="logical" name="EVENONLY"> F  </i>
   <i type="int" name="LMAXFOCK">     0</i>
   <i type="int" name="NMAXFOCKAE">     0</i>
   <i type="logical" name="LFOCKAEDFT"> F  </i>
   <i name="HFSCREEN">      0.00000000</i>
   <i name="HFSCREENC">      0.00000000</i>
   <i type="int" name="NBANDSGWLOW">     0</i>
  </separator>
  <separator name="vdW DFT" >
   <i type="logical" name="LUSE_VDW"> F  </i>
   <i name="Zab_VDW">     -0.84910000</i>
   <i name="PARAM1">      0.12340000</i>
   <i name="PARAM2">      1.00000000</i>
   <i name="PARAM3">      0.00000000</i>
  </separator>
  <separator name="model GW" >
   <i type="int" name="MODEL_GW">     0</i>
   <i name="MODEL_EPS0">      6.48653265</i>
   <i name="MODEL_ALPHA">      1.00000000</i>
  </separator>
  <separator name="linear response parameters" >
   <i type="logical" name="LEPSILON"> F  </i>
   <i type="logical" name="LRPA"> F  </i>
   <i type="logical" name="LNABLA"> F  </i>
   <i type="logical" name="LVEL"> F  </i>
   <i name="CSHIFT">      0.10000000</i>
   <i name="OMEGAMAX">     -1.00000000</i>
   <i name="DEG_THRESHOLD">      0.00200000</i>
   <i name="RTIME">     -0.10000000</i>
   <i name="WPLASMAI">      0.00000000</i>
   <v name="DFIELD">      0.00000000      0.00000000      0.00000000</v>
   <v name="WPLASMA">      0.00000000      0.00000000      0.00000000      0.00000000      0.00000000      0.00000000      0.00000000      0.00000000      0.00000000</v>
  </separator>
  <separator name="orbital magnetization" >
   <i type="logical" name="NUCIND"> F  </i>
   <v name="MAGPOS">      0.00000000      0.00000000      0.00000000</v>
   <i type="logical" name="LNICSALL"> T  </i>
   <i type="logical" name="ORBITALMAG"> F  </i>
   <i type="logical" name="LMAGBLOCH"> F  </i>
   <i type="logical" name="LCHIMAG"> F  </i>
   <i type="logical" name="LGAUGE"> T  </i>
   <i type="int" name="MAGATOM">     0</i>
   <v name="MAGDIPOL">      0.00000000      0.00000000      0.00000000</v>
   <v name="AVECCONST">      0.00000000      0.00000000      0.00000000</v>
  </separator>
  <separator name="response functions" >
   <i type="logical" name="LFINITE_TEMPERATURE"> F  </i>
   <i type="logical" name="LADDER"> F  </i>
   <i type="logical" name="LRPAFORCE"> F  </i>
   <i type="logical" name="LFXC"> F  </i>
   <i type="logical" name="LHARTREE"> T  </i>
   <i type="int" name="IBSE">     0</i>
   <v type="int" name="KPOINT">    -1     0     0     0</v>
   <i type="logical" name="LTCTC"> F  </i>
   <i type="logical" name="LTCTE"> F  </i>
   <i type="logical" name="LTETE"> F  </i>
   <i type="logical" name="LTRIPLET"> F  </i>
   <i type="logical" name="LFXCEPS"> F  </i>
   <i type="logical" name="LFXHEG"> F  </i>
   <i type="int" name="NATURALO">     2</i>
   <i type="logical" name="LHOLEGF"> F  </i>
   <i type="logical" name="L2ORDER"> F  </i>
   <i type="logical" name="LDMP1"> F  </i>
   <i type="logical" name="LMP2LT"> F  </i>
   <i type="logical" name="LSMP2LT"> F  </i>
   <i type="logical" name="LGWLF"> F  </i>
   <i name="ENCUTGW">     -2.00000000</i>
   <i name="ENCUTGWSOFT">     -2.00000000</i>
   <i name="ENCUTLF">     -1.00000000</i>
   <i type="logical" name="LESF_SPLINES"> F  </i>
   <i type="int" name="LMAXMP2">    -1</i>
   <i name="SCISSOR">      0.00000000</i>
   <i type="int" name="NOMEGA">     0</i>
   <i type="int" name="NOMEGAR">     0</i>
   <i type="int" name="NBANDSGW">    -1</i>
   <i type="int" name="NBANDSO">    -1</i>
   <i type="int" name="NBANDSV">    -1</i>
   <i type="int" name="NELMGW">     1</i>
   <i type="int" name="NELMHF">     1</i>
   <i type="int" name="DIM">     3</i>
   <i type="int" name="IESPILON">     4</i>
   <i type="int" name="ANTIRES">     0</i>
   <i name="OMEGAMAX">    -30.00000000</i>
   <i name="OMEGAMIN">    -30.00000000</i>
   <i name="OMEGATL">   -200.00000000</i>
   <i type="int" name="OMEGAGRID">     0</i>
   <i name="CSHIFT">     -0.10000000</i>
   <i type="logical" name="LSELFENERGY"> F  </i>
   <i type="logical" name="LSPECTRAL"> F  </i>
   <i type="logical" name="LSPECTRALGW"> F  </i>
   <i type="logical" name="LSINGLES"> F  </i>
   <i type="logical" name="LFERMIGW"> F  </i>
   <i type="logical" name="ODDONLYGW"> F  </i>
   <i type="logical" name="EVENONLYGW"> F  </i>
   <i type="int" name="NKREDLFX">     1</i>
   <i type="int" name="NKREDLFY">     1</i>
   <i type="int" name="NKREDLFZ">     1</i>
   <i type="int" name="MAXMEM">  2800</i>
   <i type="int" name="TELESCOPE">     0</i>
   <i type="int" name="NTAUPAR">    -1</i>
   <i type="int" name="NOMEGAPAR">    -1</i>
   <i name="DAMP_NEWTON">      0.80000001</i>
   <i name="LAMBDA">      1.00000000</i>
  </separator>
  <separator name="External order field" >
   <i name="OFIELD_KAPPA">      0.00000000</i>
   <v name="OFIELD_K">      0.00000000      0.00000000      0.00000000</v>
   <i name="OFIELD_Q6_NEAR">      0.00000000</i>
   <i name="OFIELD_Q6_FAR">      0.00000000</i>
   <i name="OFIELD_A">      0.00000000</i>
  </separator>
  <separator name="optional k-points parameters" >
   <i type="int" name="KPOINTS_OPT_MODE">     1</i>
   <i type="logical" name="LKPOINTS_OPT"> F  </i>
  </separator>
 </parameters>
 <atominfo>
  <atoms>       1 </atoms>
  <types>       1 </types>
  <array name="atoms" >
   <dimension dim="1">ion</dimension>
   <field type="string">element</field>
   <field type="int">atomtype</field>
   <set>
    <rc><c>Co</c><c>   1</c></rc>
   </set>
  </array>
  <array name="atomtypes" >
   <dimension dim="1">type</dimension>
   <field type="int">atomspertype</field>
   <field type="string">element</field>
   <field>mass</field>
   <field>valence</field>
   <field type="string">pseudopotential</field>
   <set>
    <rc><c>   1</c><c>Co</c><c>     58.93300000</c><c>      9.00000000</c><c>  PAW_PBE Co 02Aug2007                  </c></rc>
   </set>
  </array>
 </atominfo>
 <structure name="initialpos" >
  <crystal>
   <varray name="basis" >
    <v>       0.00000000       1.75500000       1.75500000 </v>
    <v>       1.75500000       0.00000000       1.75500000 </v>
    <v>       1.75500000       1.75500000       0.00000000 </v>
   </varray>
   <i name="volume">     10.81088775 </i>
   <varray name="rec_basis" >
    <v>      -0.28490028       0.28490028       0.28490028 </v>
    <v>       0.28490028      -0.28490028       0.28490028 </v>
    <v>       0.28490028       0.28490028      -0.28490028 </v>
   </varray>
  </crystal>
  <varray name="positions" >
   <v>       0.00000000       0.00000000       0.00000000 </v>
  </varray>
 </structure>
 <calculation>
  <scstep>
   <time name="dav">    0.26    0.27</time>
   <time name="total">    0.28    0.28</time>
   <energy>
    <i name="alphaZ">     39.18058524 </i>
    <i name="ewald">   -761.78120824 </i>
    <i name="hartreedc">   -149.59159932 </i>
    <i name="XCdc">     17.82600435 </i>
    <i name="pawpsdc">    719.99081943 </i>
    <i name="pawaedc">   -772.94345096 </i>
    <i name="eentropy">     -0.00068515 </i>
    <i name="bandstr">    117.44107321 </i>
    <i name="atom">    813.35773410 </i>
    <i name="e_fr_energy">     23.47927267 </i>
    <i name="e_wo_entrp">     23.47995782 </i>
    <i name="e_0_energy">     23.47961524 </i>
   </energy>
  </scstep>
  <scstep>
   <time name="dav">    0.26    0.26</time>
   <time name="total">    0.26    0.26</time>
   <energy>
    <i name="e_fr_energy">     -7.05456733 </i>
    <i name="e_wo_entrp">     -7.05324004 </i>
    <i name="e_0_energy">     -7.05390369 </i>
   </energy>
  </scstep>
  <scstep>
   <time name="dav">    0.28    0.28</time>
   <time name="total">    0.28    0.28</time>
   <energy>
    <i name="e_fr_energy">     -7.80094982 </i>
    <i name="e_wo_entrp">     -7.79986685 </i>
    <i name="e_0_energy">     -7.80040833 </i>
   </energy>
  </scstep>
  <scstep>
   <time name="dav">    0.27    0.27</time>
   <time name="total">    0.27    0.27</time>
   <energy>
    <i name="e_fr_energy">     -7.80847079 </i>
    <i name="e_wo_entrp">     -7.80738932 </i>
    <i name="e_0_energy">     -7.80793006 </i>
   </energy>
  </scstep>
  <scstep>
   <time name="dav">    0.31    0.31</time>
   <time name="total">    0.32    0.32</time>
   <energy>
    <i name="e_fr_energy">     -7.80865997 </i>
    <i name="e_wo_entrp">     -7.80757846 </i>
    <i name="e_0_energy">     -7.80811921 </i>
   </energy>
  </scstep>
  <scstep>
   <time name="dav">    0.30    0.30</time>
   <time name="total">    0.32    0.32</time>
   <energy>
    <i name="e_fr_energy">     -7.20327077 </i>
    <i name="e_wo_entrp">     -7.20155464 </i>
    <i name="e_0_energy">     -7.20241271 </i>
   </energy>
  </scstep>
  <scstep>
   <time name="dav">    0.29    0.29</time>
   <time name="total">    0.30    0.31</time>
   <energy>
    <i name="e_fr_energy">     -7.03675852 </i>
    <i name="e_wo_entrp">     -7.03533153 </i>
    <i name="e_0_energy">     -7.03604502 </i>
   </energy>
  </scstep>
  <scstep>
   <time name="dav">    0.30    0.30</time>
   <time name="total">    0.32    0.32</time>
   <energy>
    <i name="e_fr_energy">     -7.02560991 </i>
    <i name="e_wo_entrp">     -7.02417780 </i>
    <i name="e_0_energy">     -7.02489386 </i>
   </energy>
  </scstep>
  <scstep>
   <time name="dav">    0.35    0.35</time>
   <time name="total">    0.37    0.37</time>
   <energy>
    <i name="e_fr_energy">     -7.01970359 </i>
    <i name="e_wo_entrp">     -7.01823314 </i>
    <i name="e_0_energy">     -7.01896836 </i>
   </energy>
  </scstep>
  <scstep>
   <time name="dav">    0.33    0.33</time>
   <time name="total">    0.35    0.35</time>
   <energy>
    <i name="e_fr_energy">     -7.01913350 </i>
    <i name="e_wo_entrp">     -7.01764713 </i>
    <i name="e_0_energy">     -7.01839032 </i>
   </energy>
  </scstep>
  <scstep>
   <time name="dav">    0.29    0.29</time>
   <time name="total">    0.31    0.31</time>
   <energy>
    <i name="e_fr_energy">     -7.01913403 </i>
    <i name="e_wo_entrp">     -7.01764813 </i>
    <i name="e_0_energy">     -7.01839108 </i>
   </energy>
  </scstep>
  <scstep>
   <time name="dav">    0.27    0.27</time>
   <time name="total">    0.28    0.28</time>
   <energy>
    <i name="alphaZ">     39.18058524 </i>
    <i name="ewald">   -761.78120824 </i>
    <i name="hartreedc">   -131.96148679 </i>
    <i name="XCdc">     16.41073682 </i>
    <i name="pawpsdc">    904.64254639 </i>
    <i name="pawaedc">   -957.66386511 </i>
    <i name="eentropy">     -0.00148737 </i>
    <i name="bandstr">     70.79731053 </i>
    <i name="atom">    813.35773410 </i>
    <i name="e_fr_energy">     -7.01913443 </i>
    <i name="e_wo_entrp">     -7.01764706 </i>
    <i name="e_0_energy">     -7.01839074 </i>
   </energy>
  </scstep>
  <structure>
   <crystal>
    <varray name="basis" >
     <v>       0.00000000       1.75500000       1.75500000 </v>
     <v>       1.75500000       0.00000000       1.75500000 </v>
     <v>       1.75500000       1.75500000       0.00000000 </v>
    </varray>
    <i name="volume">     10.81088775 </i>
    <varray name="rec_basis" >
     <v>      -0.28490028       0.28490028       0.28490028 </v>
     <v>       0.28490028      -0.28490028       0.28490028 </v>
     <v>       0.28490028       0.28490028      -0.28490028 </v>
    </varray>
   </crystal>
   <varray name="positions" >
    <v>       0.00000000       0.00000000       0.00000000 </v>
   </varray>
  </structure>
  <varray name="forces" >
   <v>       0.00000000       0.00000000       0.00000000 </v>
  </varray>
  <varray name="stress" >
   <v>      -3.07277968      -0.00000000       0.00000000 </v>
   <v>       0.00000000      -3.07277968       0.00000000 </v>
   <v>       0.00000000       0.00000000      -3.07277968 </v>
  </varray>
  <energy>
   <i name="e_fr_energy">     -7.01913443 </i>
   <i name="e_wo_entrp">     -7.01764706 </i>
   <i name="e_0_energy">     -7.01839074 </i>
  </energy>
  <time name="totalsc">    3.78    3.82</time>
 </calculation>
 <calculation>
  <scstep>
   <time name="dav">    0.29    0.29</time>
   <time name="total">    0.31    0.31</time>
   <energy>
    <i name="alphaZ">     39.29839329 </i>
    <i name="ewald">   -762.54395131 </i>
    <i name="hartreedc">   -132.09688646 </i>
    <i name="XCdc">     16.44628926 </i>
    <i name="pawpsdc">    904.59650192 </i>
    <i name="pawaedc">   -957.61454443 </i>
    <i name="eentropy">     -0.00147043 </i>
    <i name="bandstr">     71.53783942 </i>
    <i name="atom">    813.35773410 </i>
    <i name="e_fr_energy">     -7.02009465 </i>
    <i name="e_wo_entrp">     -7.01862422 </i>
    <i name="e_0_energy">     -7.01935943 </i>
   </energy>
  </scstep>
  <scstep>
   <time name="dav">    0.29    0.29</time>
   <time name="total">    0.31    0.31</time>
   <energy>
    <i name="e_fr_energy">     -7.01931046 </i>
    <i name="e_wo_entrp">     -7.01782309 </i>
    <i name="e_0_energy">     -7.01856678 </i>
   </energy>
  </scstep>
  <scstep>
   <time name="dav">    0.28    0.28</time>
   <time name="total">    0.29    0.30</time>
   <energy>
    <i name="e_fr_energy">     -7.01914479 </i>
    <i name="e_wo_entrp">     -7.01766261 </i>
    <i name="e_0_energy">     -7.01840370 </i>
   </energy>
  </scstep>
  <scstep>
   <time name="dav">    0.27    0.27</time>
   <time name="total">    0.28    0.29</time>
   <energy>
    <i name="e_fr_energy">     -7.01913068 </i>
    <i name="e_wo_entrp">     -7.01764857 </i>
    <i name="e_0_energy">     -7.01838963 </i>
   </energy>
  </scstep>
  <scstep>
   <time name="dav">    0.32    0.32</time>
   <time name="total">    0.34    0.34</time>
   <energy>
    <i name="e_fr_energy">     -7.01911969 </i>
    <i name="e_wo_entrp">     -7.01763760 </i>
    <i name="e_0_energy">     -7.01837864 </i>
   </energy>
  </scstep>
  <scstep>
   <time name="dav">    0.20    0.20</time>
   <time name="total">    0.21    0.21</time>
   <energy>
    <i name="alphaZ">     39.29839329 </i>
    <i name="ewald">   -762.54395131 </i>
    <i name="hartreedc">   -131.64602218 </i>
    <i name="XCdc">     16.41867870 </i>
    <i name="pawpsdc">    906.23367239 </i>
    <i name="pawaedc">   -959.26512200 </i>
    <i name="eentropy">     -0.00148205 </i>
    <i name="bandstr">     71.12897959 </i>
    <i name="atom">    813.35773410 </i>
    <i name="e_fr_energy">     -7.01911947 </i>
    <i name="e_wo_entrp">     -7.01763742 </i>
    <i name="e_0_energy">     -7.01837845 </i>
   </energy>
  </scstep>
  <structure>
   <crystal>
    <varray name="basis" >
     <v>       0.00000000       1.75324454       1.75324454 </v>
     <v>       1.75324454       0.00000000       1.75324454 </v>
     <v>       1.75324454       1.75324454       0.00000000 </v>
    </varray>
    <i name="volume">     10.77847906 </i>
    <varray name="rec_basis" >
     <v>      -0.28518554       0.28518554       0.28518554 </v>
     <v>       0.28518554      -0.28518554       0.28518554 </v>
     <v>       0.28518554       0.28518554      -0.28518554 </v>
    </varray>
   </crystal>
   <varray name="positions" >
    <v>       0.00000000       0.00000000       0.00000000 </v>
   </varray>
  </structure>
  <varray name="forces" >
   <v>       0.00000000       0.00000000       0.00000000 </v>
  </varray>
  <varray name="stress" >
   <v>       4.30470392       0.00000000       0.00000000 </v>
   <v>       0.00000000       4.30470392      -0.00000000 </v>
   <v>      -0.00000000      -0.00000000       4.30470392 </v>
  </varray>
  <energy>
   <i name="e_fr_energy">     -7.01911947 </i>
   <i name="e_wo_entrp">     -7.01763742 </i>
   <i name="e_0_energy">     -7.01837845 </i>
  </energy>
  <time name="totalsc">    1.82    1.84</time>
 </calculation>
 <calculation>
  <scstep>
   <time name="dav">    0.29    0.29</time>
   <time name="total">    0.31    0.31</time>
   <energy>
    <i name="alphaZ">     39.22968187 </i>
    <i name="ewald">   -762.09926778 </i>
    <i name="hartreedc">   -131.57093691 </i>
    <i name="XCdc">     16.39816366 </i>
    <i name="pawpsdc">    906.25736042 </i>
    <i name="pawaedc">   -959.28783162 </i>
    <i name="eentropy">     -0.00149407 </i>
    <i name="bandstr">     70.69710979 </i>
    <i name="atom">    813.35773410 </i>
    <i name="e_fr_energy">     -7.01948054 </i>
    <i name="e_wo_entrp">     -7.01798646 </i>
    <i name="e_0_energy">     -7.01873350 </i>
   </energy>
  </scstep>
  <scstep>
   <time name="dav">    0.29    0.29</time>
   <time name="total">    0.31    0.31</time>
   <energy>
    <i name="e_fr_energy">     -7.01921006 </i>
    <i name="e_wo_entrp">     -7.01772673 </i>
    <i name="e_0_energy">     -7.01846839 </i>
   </energy>
  </scstep>
  <scstep>
   <time name="dav">    0.28    0.28</time>
   <time name="total">    0.29    0.30</time>
   <energy>
    <i name="e_fr_energy">     -7.01915304 </i>
    <i name="e_wo_entrp">     -7.01766667 </i>
    <i name="e_0_energy">     -7.01840985 </i>
   </energy>
  </scstep>
  <scstep>
   <time name="dav">    0.26    0.26</time>
   <time name="total">    0.28    0.28</time>
   <energy>
    <i name="e_fr_energy">     -7.01914782 </i>
    <i name="e_wo_entrp">     -7.01766149 </i>
    <i name="e_0_energy">     -7.01840465 </i>
   </energy>
  </scstep>
  <scstep>
   <time name="dav">    0.24    0.24</time>
   <time name="total">    0.26    0.26</time>
   <energy>
    <i name="e_fr_energy">     -7.01914352 </i>
    <i name="e_wo_entrp">     -7.01765740 </i>
    <i name="e_0_energy">     -7.01840046 </i>
   </energy>
  </scstep>
  <scstep>
   <time name="dav">    0.18    0.18</time>
   <time name="total">    0.19    0.19</time>
   <energy>
    <i name="alphaZ">     39.22968187 </i>
    <i name="ewald">   -762.09926778 </i>
    <i name="hartreedc">   -131.83465881 </i>
    <i name="XCdc">     16.41429247 </i>
    <i name="pawpsdc">    905.31378079 </i>
    <i name="pawaedc">   -958.33563312 </i>
    <i name="eentropy">     -0.00148613 </i>
    <i name="bandstr">     70.93641288 </i>
    <i name="atom">    813.35773410 </i>
    <i name="e_fr_energy">     -7.01914373 </i>
    <i name="e_wo_entrp">     -7.01765761 </i>
    <i name="e_0_energy">     -7.01840067 </i>
   </energy>
  </scstep>
  <structure>
   <crystal>
    <varray name="basis" >
     <v>       0.00000000       1.75426756       1.75426756 </v>
     <v>       1.75426756       0.00000000       1.75426756 </v>
     <v>       1.75426756       1.75426756       0.00000000 </v>
    </varray>
    <i name="volume">     10.79735774 </i>
    <varray name="rec_basis" >
     <v>      -0.28501924       0.28501924       0.28501924 </v>
     <v>       0.28501924      -0.28501924       0.28501924 </v>
     <v>       0.28501924       0.28501924      -0.28501924 </v>
    </varray>
   </crystal>
   <varray name="positions" >
    <v>       0.00000000       0.00000000       0.00000000 </v>
   </varray>
  </structure>
  <varray name="forces" >
   <v>       0.00000000       0.00000000       0.00000000 </v>
  </varray>
  <varray name="stress" >
   <v>       0.31201458      -0.00000000       0.00000000 </v>
   <v>       0.00000000       0.31201458       0.00000000 </v>
   <v>      -0.00000000       0.00000000       0.31201458 </v>
  </varray>
  <energy>
   <i name="e_fr_energy">     -7.01914373 </i>
   <i name="e_wo_entrp">     -7.01765761 </i>
   <i name="e_0_energy">     -7.01840067 </i>
  </energy>
  <time name="totalsc">    1.71    1.76</time>
  <eigenvalues>
   <array>
    <dimension dim="1">band</dimension>
    <dimension dim="2">kpoint</dimension>
    <dimension dim="3">spin</dimension>
    <field>eigene</field>
    <field>occ</field>
    <set>
     <set comment="spin 1">
      <set comment="kpoint 1">
       <r>    1.5419    1.0000 </r>
       <r>    7.6635    1.0000 </r>
       <r>    7.7452    1.0000 </r>
       <r>    7.7452    1.0000 </r>
       <r>    8.7792    1.0000 </r>
       <r>    8.7792    1.0000 </r>
       <r>   33.1609    0.0000 </r>
       <r>   36.1332    0.0000 </r>
       <r>   37.6258    0.0000 </r>
       <r>   37.6258    0.0000 </r>
       <r>   41.5428    0.0000 </r>
       <r>   41.5428    0.0000 </r>
      </set>
      <set comment="kpoint 2">
       <r>    2.3449    1.0000 </r>
       <r>    7.4490    1.0000 </r>
       <r>    7.9045    1.0000 </r>
       <r>    7.9097    1.0000 </r>
       <r>    8.6229    1.0000 </r>
       <r>    8.8695    1.0000 </r>
       <r>   30.3556    0.0000 </r>
       <r>   32.9969    0.0000 </r>
       <r>   36.5190    0.0000 </r>
       <r>   38.6472    0.0000 </r>
       <r>   40.4116    0.0000 </r>
       <r>   41.6669    0.0000 </r>
      </set>
      <set comment="kpoint 3">
       <r>    4.0283    1.0000 </r>
       <r>    7.3369    1.0000 </r>
       <r>    7.8492    1.0000 </r>
       <r>    7.9240    1.0000 </r>
       <r>    8.8375    1.0000 </r>
       <r>    9.2750    1.0000 </r>
       <r>   24.2601    0.0000 </r>
       <r>   31.8982    0.0000 </r>
       <r>   35.4668    0.0000 </r>
       <r>   38.2183    0.0000 </r>
       <r>   39.3992    0.0000 </r>
       <r>   40.3951    0.0000 </r>
      </set>
      <set comment="kpoint 4">
       <r>    5.1610    1.0000 </r>
       <r>    7.6172    1.0000 </r>
       <r>    7.7166    1.0000 </r>
       <r>    8.4081    1.0000 </r>
       <r>    9.3962    1.0000 </r>
       <r>   10.0702    1.0000 </r>
       <r>   18.8970    0.0000 </r>
       <r>   31.3975    0.0000 </r>
       <r>   34.2291    0.0000 </r>
       <r>   36.0631    0.0000 </r>
       <r>   38.5466    0.0000 </r>
       <r>   40.1236    0.0000 </r>
      </set>
      <set comment="kpoint 5">
       <r>    5.2843    1.0000 </r>
       <r>    7.5207    1.0000 </r>
       <r>    7.6630    1.0000 </r>
       <r>    8.9850    1.0000 </r>
       <r>    9.6804    1.0000 </r>
       <r>   10.8640    0.0000 </r>
       <r>   16.7363    0.0000 </r>
       <r>   31.4987    0.0000 </r>
       <r>   34.1995    0.0000 </r>
       <r>   34.3718    0.0000 </r>
       <r>   39.3735    0.0000 </r>
       <r>   39.4042    0.0000 </r>
      </set>
      <set comment="kpoint 6">
       <r>    4.9470    1.0000 </r>
       <r>    7.6548    1.0000 </r>
       <r>    7.8065    1.0000 </r>
       <r>    7.8770    1.0000 </r>
       <r>    9.4725    1.0000 </r>
       <r>    9.5326    1.0000 </r>
       <r>   20.5217    0.0000 </r>
       <r>   32.2238    0.0000 </r>
       <r>   33.6624    0.0000 </r>
       <r>   36.0900    0.0000 </r>
       <r>   39.2217    0.0000 </r>
       <r>   41.0935    0.0000 </r>
      </set>
      <set comment="kpoint 7">
       <r>    3.4244    1.0000 </r>
       <r>    7.2888    1.0000 </r>
       <r>    7.9136    1.0000 </r>
       <r>    7.9727    1.0000 </r>
       <r>    8.7665    1.0000 </r>
       <r>    9.0290    1.0000 </r>
       <r>   26.2722    0.0000 </r>
       <r>   33.3036    0.0000 </r>
       <r>   34.2134    0.0000 </r>
       <r>   38.7384    0.0000 </r>
       <r>   39.0311    0.0000 </r>
       <r>   43.3465    0.0000 </r>
      </set>
      <set comment="kpoint 8">
       <r>    1.9502    1.0000 </r>
       <r>    7.5192    1.0000 </r>
       <r>    7.8558    1.0000 </r>
       <r>    7.8602    1.0000 </r>
       <r>    8.6428    1.0000 </r>
       <r>    8.8464    1.0000 </r>
       <r>   32.1397    0.0000 </r>
       <r>   34.5721    0.0000 </r>
       <r>   35.6070    0.0000 </r>
       <r>   37.4707    0.0000 </r>
       <r>   41.4793    0.0000 </r>
       <r>   43.3104    0.0000 </r>
      </set>
      <set comment="kpoint 9">
       <r>    2.7283    1.0000 </r>
       <r>    7.2406    1.0000 </r>
       <r>    8.0528    1.0000 </r>
       <r>    8.0835    1.0000 </r>
       <r>    8.4571    1.0000 </r>
       <r>    8.9712    1.0000 </r>
       <r>   30.6635    0.0000 </r>
       <r>   33.1460    0.0000 </r>
       <r>   33.3080    0.0000 </r>
       <r>   35.5331    0.0000 </r>
       <r>   41.1585    0.0000 </r>
       <r>   43.8210    0.0000 </r>
      </set>
      <set comment="kpoint 10">
       <r>    4.0869    1.0000 </r>
       <r>    6.9367    1.0000 </r>
       <r>    7.8350    1.0000 </r>
       <r>    8.3442    1.0000 </r>
       <r>    8.7284    1.0000 </r>
       <r>    9.3545    1.0000 </r>
       <r>   26.8224    0.0000 </r>
       <r>   29.4315    0.0000 </r>
       <r>   33.2089    0.0000 </r>
       <r>   35.2127    0.0000 </r>
       <r>   40.0272    0.0000 </r>
       <r>   43.5912    0.0000 </r>
      </set>
      <set comment="kpoint 11">
       <r>    5.4589    1.0000 </r>
       <r>    7.0590    1.0000 </r>
       <r>    7.5259    1.0000 </r>
       <r>    8.1858    1.0000 </r>
       <r>    9.4400    1.0000 </r>
       <r>   10.5589    0.0000 </r>
       <r>   21.0296    0.0000 </r>
       <r>   28.8181    0.0000 </r>
       <r>   30.8161    0.0000 </r>
       <r>   34.8591    0.0000 </r>
       <r>   41.5689    0.0000 </r>
       <r>   44.0502    0.0000 </r>
      </set>
      <set comment="kpoint 12">
       <r>    5.7607    1.0000 </r>
       <r>    7.0937    1.0000 </r>
       <r>    7.9690    1.0000 </r>
       <r>    8.0351    1.0000 </r>
       <r>    9.6432    1.0000 </r>
       <r>   12.7273    0.0000 </r>
       <r>   16.9262    0.0000 </r>
       <r>   28.2246    0.0000 </r>
       <r>   30.1013    0.0000 </r>
       <r>   34.6491    0.0000 </r>
       <r>   40.7076    0.0000 </r>
       <r>   44.3690    0.0000 </r>
      </set>
      <set comment="kpoint 13">
       <r>    5.6943    1.0000 </r>
       <r>    7.2430    1.0000 </r>
       <r>    7.5969    1.0000 </r>
       <r>    8.0734    1.0000 </r>
       <r>    9.3205    1.0000 </r>
       <r>   11.4117    0.0000 </r>
       <r>   19.3649    0.0000 </r>
       <r>   27.4132    0.0000 </r>
       <r>   31.6640    0.0000 </r>
       <r>   35.7536    0.0000 </r>
       <r>   40.0743    0.0000 </r>
       <r>   43.7564    0.0000 </r>
      </set>
      <set comment="kpoint 14">
       <r>    4.6697    1.0000 </r>
       <r>    7.0119    1.0000 </r>
       <r>    7.6593    1.0000 </r>
       <r>    8.2768    1.0000 </r>
       <r>    8.6599    1.0000 </r>
       <r>    9.8584    1.0000 </r>
       <r>   24.8245    0.0000 </r>
       <r>   27.5641    0.0000 </r>
       <r>   34.1958    0.0000 </r>
       <r>   37.7050    0.0000 </r>
       <r>   39.5399    0.0000 </r>
       <r>   42.5804    0.0000 </r>
      </set>
      <set comment="kpoint 15">
       <r>    3.0944    1.0000 </r>
       <r>    7.2385    1.0000 </r>
       <r>    7.9496    1.0000 </r>
       <r>    8.0864    1.0000 </r>
       <r>    8.5357    1.0000 </r>
       <r>    9.0604    1.0000 </r>
       <r>   28.5208    0.0000 </r>
       <r>   31.1642    0.0000 </r>
       <r>   35.5932    0.0000 </r>
       <r>   37.3888    0.0000 </r>
       <r>   40.9296    0.0000 </r>
       <r>   42.3443    0.0000 </r>
      </set>
      <set comment="kpoint 16">
       <r>    4.7583    1.0000 </r>
       <r>    6.5159    1.0000 </r>
       <r>    8.1599    1.0000 </r>
       <r>    8.7740    1.0000 </r>
       <r>    9.1117    1.0000 </r>
       <r>    9.3265    1.0000 </r>
       <r>   27.4094    0.0000 </r>
       <r>   29.1008    0.0000 </r>
       <r>   29.1673    0.0000 </r>
       <r>   31.9943    0.0000 </r>
       <r>   36.5967    0.0000 </r>
       <r>   47.3090    0.0000 </r>
      </set>
      <set comment="kpoint 17">
       <r>    5.4910    1.0000 </r>
       <r>    6.3081    1.0000 </r>
       <r>    8.1014    1.0000 </r>
       <r>    9.0199    1.0000 </r>
       <r>    9.4882    1.0000 </r>
       <r>   10.8189    0.0000 </r>
       <r>   23.9961    0.0000 </r>
       <r>   25.9477    0.0000 </r>
       <r>   26.9345    0.0000 </r>
       <r>   33.2392    0.0000 </r>
       <r>   37.7382    0.0000 </r>
       <r>   46.9024    0.0000 </r>
      </set>
      <set comment="kpoint 18">
       <r>    5.9785    1.0000 </r>
       <r>    6.4435    1.0000 </r>
       <r>    7.7981    1.0000 </r>
       <r>    8.7368    1.0000 </r>
       <r>    9.7078    1.0000 </r>
       <r>   13.9932    0.0000 </r>
       <r>   18.8933    0.0000 </r>
       <r>   23.7661    0.0000 </r>
       <r>   27.1200    0.0000 </r>
       <r>   33.6822    0.0000 </r>
       <r>   42.6367    0.0000 </r>
       <r>   45.4459    0.0000 </r>
      </set>
      <set comment="kpoint 19">
       <r>    6.4601    1.0000 </r>
       <r>    6.6153    1.0000 </r>
       <r>    7.3412    1.0000 </r>
       <r>    8.5366    1.0000 </r>
       <r>    9.3899    1.0000 </r>
       <r>   14.3086    0.0000 </r>
       <r>   18.7356    0.0000 </r>
       <r>   22.4506    0.0000 </r>
       <r>   28.8479    0.0000 </r>
       <r>   34.5543    0.0000 </r>
       <r>   43.3028    0.0000 </r>
       <r>   46.8599    0.0000 </r>
      </set>
      <set comment="kpoint 20">
       <r>    5.9884    1.0000 </r>
       <r>    7.0283    1.0000 </r>
       <r>    7.1835    1.0000 </r>
       <r>    8.3584    1.0000 </r>
       <r>    9.0123    1.0000 </r>
       <r>   11.5084    0.0000 </r>
       <r>   21.5625    0.0000 </r>
       <r>   24.5717    0.0000 </r>
       <r>   31.4239    0.0000 </r>
       <r>   36.3104    0.0000 </r>
       <r>   40.5470    0.0000 </r>
       <r>   45.2027    0.0000 </r>
      </set>
      <set comment="kpoint 21">
       <r>    4.7760    1.0000 </r>
       <r>    7.2933    1.0000 </r>
       <r>    7.6749    1.0000 </r>
       <r>    7.9903    1.0000 </r>
       <r>    9.0710    1.0000 </r>
       <r>    9.7259    1.0000 </r>
       <r>   22.5143    0.0000 </r>
       <r>   30.3108    0.0000 </r>
       <r>   33.8580    0.0000 </r>
       <r>   36.4991    0.0000 </r>
       <r>   40.1719    0.0000 </r>
       <r>   41.7165    0.0000 </r>
      </set>
      <set comment="kpoint 22">
       <r>    5.2683    1.0000 </r>
       <r>    5.9392    1.0000 </r>
       <r>    9.3647    1.0000 </r>
       <r>    9.4079    1.0000 </r>
       <r>    9.7313    1.0000 </r>
       <r>   11.4765    0.0000 </r>
       <r>   22.6839    0.0000 </r>
       <r>   25.0737    0.0000 </r>
       <r>   26.2505    0.0000 </r>
       <r>   31.1290    0.0000 </r>
       <r>   35.1634    0.0000 </r>
       <r>   47.4018    0.0000 </r>
      </set>
      <set comment="kpoint 23">
       <r>    5.4158    1.0000 </r>
       <r>    5.9641    1.0000 </r>
       <r>    8.9449    1.0000 </r>
       <r>    9.3555    1.0000 </r>
       <r>    9.8720    1.0000 </r>
       <r>   14.0226    0.0000 </r>
       <r>   20.5385    0.0000 </r>
       <r>   22.6458    0.0000 </r>
       <r>   25.1054    0.0000 </r>
       <r>   32.6011    0.0000 </r>
       <r>   37.0670    0.0000 </r>
       <r>   47.3937    0.0000 </r>
      </set>
      <set comment="kpoint 24">
       <r>    5.9282    1.0000 </r>
       <r>    6.3490    1.0000 </r>
       <r>    7.9728    1.0000 </r>
       <r>    8.9164    1.0000 </r>
       <r>    9.6965    1.0000 </r>
       <r>   16.0337    0.0000 </r>
       <r>   18.2373    0.0000 </r>
       <r>   21.2834    0.0000 </r>
       <r>   26.6439    0.0000 </r>
       <r>   33.5186    0.0000 </r>
       <r>   42.6118    0.0000 </r>
       <r>   46.5860    0.0000 </r>
      </set>
      <set comment="kpoint 25">
       <r>    6.1351    1.0000 </r>
       <r>    6.7898    1.0000 </r>
       <r>    7.6439    1.0000 </r>
       <r>    8.2929    1.0000 </r>
       <r>    9.5435    1.0000 </r>
       <r>   13.9739    0.0000 </r>
       <r>   17.1762    0.0000 </r>
       <r>   25.2062    0.0000 </r>
       <r>   29.2172    0.0000 </r>
       <r>   34.5662    0.0000 </r>
       <r>   42.0447    0.0000 </r>
       <r>   46.4760    0.0000 </r>
      </set>
      <set comment="kpoint 26">
       <r>    5.4293    1.0000 </r>
       <r>    7.4073    1.0000 </r>
       <r>    7.8040    1.0000 </r>
       <r>    8.3151    1.0000 </r>
       <r>    9.5864    1.0000 </r>
       <r>   11.1799    0.0000 </r>
       <r>   17.6635    0.0000 </r>
       <r>   30.1889    0.0000 </r>
       <r>   32.3514    0.0000 </r>
       <r>   34.9437    0.0000 </r>
       <r>   39.6358    0.0000 </r>
       <r>   41.7981    0.0000 </r>
      </set>
      <set comment="kpoint 27">
       <r>    5.2040    1.0000 </r>
       <r>    5.8088    1.0000 </r>
       <r>    9.5266    1.0000 </r>
       <r>    9.6537    1.0000 </r>
       <r>    9.8845    1.0000 </r>
       <r>   13.0146    0.0000 </r>
       <r>   20.4517    0.0000 </r>
       <r>   24.4787    0.0000 </r>
       <r>   25.6150    0.0000 </r>
       <r>   30.9911    0.0000 </r>
       <r>   34.9847    0.0000 </r>
       <r>   47.4900    0.0000 </r>
      </set>
      <set comment="kpoint 28">
       <r>    5.4939    1.0000 </r>
       <r>    6.0830    1.0000 </r>
       <r>    8.6051    1.0000 </r>
       <r>    9.2783    1.0000 </r>
       <r>    9.7210    1.0000 </r>
       <r>   12.4116    0.0000 </r>
       <r>   22.6694    0.0000 </r>
       <r>   23.3737    0.0000 </r>
       <r>   25.6730    0.0000 </r>
       <r>   32.8028    0.0000 </r>
       <r>   37.2641    0.0000 </r>
       <r>   47.2798    0.0000 </r>
      </set>
      <set comment="kpoint 29">
       <r>    5.8749    1.0000 </r>
       <r>    6.7031    1.0000 </r>
       <r>    7.5923    1.0000 </r>
       <r>    8.4603    1.0000 </r>
       <r>    9.6477    1.0000 </r>
       <r>   12.0294    0.0000 </r>
       <r>   19.8132    0.0000 </r>
       <r>   26.8100    0.0000 </r>
       <r>   28.1809    0.0000 </r>
       <r>   34.0742    0.0000 </r>
       <r>   42.4311    0.0000 </r>
       <r>   44.5389    0.0000 </r>
      </set>
      <set comment="kpoint 30">
       <r>    5.2403    1.0000 </r>
       <r>    6.1851    1.0000 </r>
       <r>    8.7722    1.0000 </r>
       <r>    9.1426    1.0000 </r>
       <r>    9.5250    1.0000 </r>
       <r>    9.9651    1.0000 </r>
       <r>   25.5897    0.0000 </r>
       <r>   26.3262    0.0000 </r>
       <r>   27.4489    0.0000 </r>
       <r>   31.4327    0.0000 </r>
       <r>   35.6281    0.0000 </r>
       <r>   47.3356    0.0000 </r>
      </set>
      <set comment="kpoint 31">
       <r>    5.0370    1.0000 </r>
       <r>    6.6085    1.0000 </r>
       <r>    7.7717    1.0000 </r>
       <r>    8.6695    1.0000 </r>
       <r>    9.1438    1.0000 </r>
       <r>    9.8302    1.0000 </r>
       <r>   25.3011    0.0000 </r>
       <r>   27.8059    0.0000 </r>
       <r>   29.8860    0.0000 </r>
       <r>   33.9849    0.0000 </r>
       <r>   38.6183    0.0000 </r>
       <r>   45.5428    0.0000 </r>
      </set>
      <set comment="kpoint 32">
       <r>    3.7644    1.0000 </r>
       <r>    6.8863    1.0000 </r>
       <r>    8.0586    1.0000 </r>
       <r>    8.3997    1.0000 </r>
       <r>    8.6108    1.0000 </r>
       <r>    9.1377    1.0000 </r>
       <r>   29.0319    0.0000 </r>
       <r>   31.0920    0.0000 </r>
       <r>   31.7296    0.0000 </r>
       <r>   33.2791    0.0000 </r>
       <r>   38.3997    0.0000 </r>
       <r>   46.3085    0.0000 </r>
      </set>
      <set comment="kpoint 33">
       <r>    2.7194    1.0000 </r>
       <r>    7.4208    1.0000 </r>
       <r>    7.9123    1.0000 </r>
       <r>    7.9123    1.0000 </r>
       <r>    8.7819    1.0000 </r>
       <r>    8.7819    1.0000 </r>
       <r>   28.2355    0.0000 </r>
       <r>   34.2756    0.0000 </r>
       <r>   36.5538    0.0000 </r>
       <r>   36.5538    0.0000 </r>
       <r>   41.9756    0.0000 </r>
       <r>   42.4383    0.0000 </r>
      </set>
      <set comment="kpoint 34">
       <r>    3.7808    1.0000 </r>
       <r>    7.1731    1.0000 </r>
       <r>    7.8581    1.0000 </r>
       <r>    8.1474    1.0000 </r>
       <r>    8.4925    1.0000 </r>
       <r>    9.3789    1.0000 </r>
       <r>   26.5595    0.0000 </r>
       <r>   29.2542    0.0000 </r>
       <r>   36.8615    0.0000 </r>
       <r>   38.8185    0.0000 </r>
       <r>   38.9776    0.0000 </r>
       <r>   40.9692    0.0000 </r>
      </set>
      <set comment="kpoint 35">
       <r>    5.3705    1.0000 </r>
       <r>    7.0617    1.0000 </r>
       <r>    7.4849    1.0000 </r>
       <r>    8.2065    1.0000 </r>
       <r>    8.7421    1.0000 </r>
       <r>   10.5367    0.0001 </r>
       <r>   23.0714    0.0000 </r>
       <r>   25.9244    0.0000 </r>
       <r>   34.9041    0.0000 </r>
       <r>   35.4950    0.0000 </r>
       <r>   40.7739    0.0000 </r>
       <r>   42.5664    0.0000 </r>
      </set>
      <set comment="kpoint 36">
       <r>    5.9090    1.0000 </r>
       <r>    7.0864    1.0000 </r>
       <r>    7.7411    1.0000 </r>
       <r>    8.0897    1.0000 </r>
       <r>    9.3832    1.0000 </r>
       <r>   12.5536    0.0000 </r>
       <r>   18.0425    0.0000 </r>
       <r>   26.1660    0.0000 </r>
       <r>   32.3978    0.0000 </r>
       <r>   33.2739    0.0000 </r>
       <r>   42.8006    0.0000 </r>
       <r>   42.8959    0.0000 </r>
      </set>
      <set comment="kpoint 37">
       <r>    5.8079    1.0000 </r>
       <r>    6.9430    1.0000 </r>
       <r>    7.7801    1.0000 </r>
       <r>    8.1667    1.0000 </r>
       <r>    9.7141    1.0000 </r>
       <r>   12.3901    0.0000 </r>
       <r>   18.0026    0.0000 </r>
       <r>   27.5031    0.0000 </r>
       <r>   30.4929    0.0000 </r>
       <r>   32.8197    0.0000 </r>
       <r>   43.8371    0.0000 </r>
       <r>   43.9704    0.0000 </r>
      </set>
      <set comment="kpoint 38">
       <r>    5.2088    1.0000 </r>
       <r>    6.7583    1.0000 </r>
       <r>    7.6641    1.0000 </r>
       <r>    8.3571    1.0000 </r>
       <r>    9.5361    1.0000 </r>
       <r>    9.9343    1.0000 </r>
       <r>   23.0229    0.0000 </r>
       <r>   29.6248    0.0000 </r>
       <r>   30.0809    0.0000 </r>
       <r>   33.2391    0.0000 </r>
       <r>   41.0100    0.0000 </r>
       <r>   45.0756    0.0000 </r>
      </set>
      <set comment="kpoint 39">
       <r>    4.3423    1.0000 </r>
       <r>    7.0548    1.0000 </r>
       <r>    7.7678    1.0000 </r>
       <r>    8.1212    1.0000 </r>
       <r>    9.1221    1.0000 </r>
       <r>    9.2975    1.0000 </r>
       <r>   24.5327    0.0000 </r>
       <r>   31.9415    0.0000 </r>
       <r>   32.0102    0.0000 </r>
       <r>   35.3689    0.0000 </r>
       <r>   41.5591    0.0000 </r>
       <r>   42.8450    0.0000 </r>
      </set>
      <set comment="kpoint 40">
       <r>    5.5096    1.0000 </r>
       <r>    6.7891    1.0000 </r>
       <r>    7.4198    1.0000 </r>
       <r>    8.5391    1.0000 </r>
       <r>    9.0255    1.0000 </r>
       <r>   10.5923    0.0000 </r>
       <r>   23.3221    0.0000 </r>
       <r>   26.1083    0.0000 </r>
       <r>   30.5289    0.0000 </r>
       <r>   36.7652    0.0000 </r>
       <r>   39.9416    0.0000 </r>
       <r>   43.3583    0.0000 </r>
      </set>
      <set comment="kpoint 41">
       <r>    6.3458    1.0000 </r>
       <r>    6.7817    1.0000 </r>
       <r>    7.0897    1.0000 </r>
       <r>    8.6044    1.0000 </r>
       <r>    9.3543    1.0000 </r>
       <r>   12.9667    0.0000 </r>
       <r>   20.3115    0.0000 </r>
       <r>   23.5247    0.0000 </r>
       <r>   27.7897    0.0000 </r>
       <r>   37.6448    0.0000 </r>
       <r>   39.9429    0.0000 </r>
       <r>   45.3280    0.0000 </r>
      </set>
      <set comment="kpoint 42">
       <r>    6.3230    1.0000 </r>
       <r>    6.5647    1.0000 </r>
       <r>    7.4379    1.0000 </r>
       <r>    8.5536    1.0000 </r>
       <r>    9.6423    1.0000 </r>
       <r>   14.9268    0.0000 </r>
       <r>   17.5067    0.0000 </r>
       <r>   24.4768    0.0000 </r>
       <r>   25.9971    0.0000 </r>
       <r>   36.4704    0.0000 </r>
       <r>   41.3163    0.0000 </r>
       <r>   46.2716    0.0000 </r>
      </set>
      <set comment="kpoint 43">
       <r>    5.9155    1.0000 </r>
       <r>    6.5485    1.0000 </r>
       <r>    7.4773    1.0000 </r>
       <r>    8.8403    1.0000 </r>
       <r>    9.3912    1.0000 </r>
       <r>   11.8303    0.0000 </r>
       <r>   22.0742    0.0000 </r>
       <r>   24.8834    0.0000 </r>
       <r>   26.9945    0.0000 </r>
       <r>   36.0306    0.0000 </r>
       <r>   40.0669    0.0000 </r>
       <r>   44.0623    0.0000 </r>
      </set>
      <set comment="kpoint 44">
       <r>    5.6485    1.0000 </r>
       <r>    6.4482    1.0000 </r>
       <r>    7.8934    1.0000 </r>
       <r>    8.6526    1.0000 </r>
       <r>    9.7032    1.0000 </r>
       <r>   11.2552    0.0000 </r>
       <r>   21.7631    0.0000 </r>
       <r>   26.4171    0.0000 </r>
       <r>   28.5213    0.0000 </r>
       <r>   32.4241    0.0000 </r>
       <r>   40.2056    0.0000 </r>
       <r>   46.9437    0.0000 </r>
      </set>
      <set comment="kpoint 45">
       <r>    5.8741    1.0000 </r>
       <r>    6.3653    1.0000 </r>
       <r>    7.8217    1.0000 </r>
       <r>    9.0200    1.0000 </r>
       <r>    9.6844    1.0000 </r>
       <r>   13.6095    0.0000 </r>
       <r>   21.1275    0.0000 </r>
       <r>   23.3029    0.0000 </r>
       <r>   24.4705    0.0000 </r>
       <r>   35.5486    0.0000 </r>
       <r>   40.0696    0.0000 </r>
       <r>   45.1734    0.0000 </r>
      </set>
      <set comment="kpoint 46">
       <r>    6.0774    1.0000 </r>
       <r>    6.7278    1.0000 </r>
       <r>    7.3512    1.0000 </r>
       <r>    8.7698    1.0000 </r>
       <r>    9.8666    1.0000 </r>
       <r>   17.0328    0.0000 </r>
       <r>   18.8048    0.0000 </r>
       <r>   21.3421    0.0000 </r>
       <r>   22.8155    0.0000 </r>
       <r>   38.5290    0.0000 </r>
       <r>   41.9646    0.0000 </r>
       <r>   43.7253    0.0000 </r>
      </set>
      <set comment="kpoint 47">
       <r>    6.2399    1.0000 </r>
       <r>    6.7320    1.0000 </r>
       <r>    7.1991    1.0000 </r>
       <r>    8.7453    1.0000 </r>
       <r>    9.6676    1.0000 </r>
       <r>   14.9205    0.0000 </r>
       <r>   19.3728    0.0000 </r>
       <r>   22.7320    0.0000 </r>
       <r>   24.5185    0.0000 </r>
       <r>   38.5210    0.0000 </r>
       <r>   40.3203    0.0000 </r>
       <r>   44.7215    0.0000 </r>
      </set>
      <set comment="kpoint 48">
       <r>    5.6048    1.0000 </r>
       <r>    6.0996    1.0000 </r>
       <r>    8.5850    1.0000 </r>
       <r>    9.1703    1.0000 </r>
       <r>    9.7663    1.0000 </r>
       <r>   14.8167    0.0000 </r>
       <r>   19.9825    0.0000 </r>
       <r>   21.1318    0.0000 </r>
       <r>   26.8439    0.0000 </r>
       <r>   31.9516    0.0000 </r>
       <r>   39.5003    0.0000 </r>
       <r>   47.3827    0.0000 </r>
      </set>
      <set comment="kpoint 49">
       <r>    5.7667    1.0000 </r>
       <r>    6.2732    1.0000 </r>
       <r>    8.1050    1.0000 </r>
       <r>    9.0472    1.0000 </r>
       <r>    9.8679    1.0000 </r>
       <r>   15.4475    0.0000 </r>
       <r>   20.3594    0.0000 </r>
       <r>   21.1872    0.0000 </r>
       <r>   23.8540    0.0000 </r>
       <r>   35.3122    0.0000 </r>
       <r>   40.0622    0.0000 </r>
       <r>   46.3117    0.0000 </r>
      </set>
      <set comment="kpoint 50">
       <r>    5.6756    1.0000 </r>
       <r>    6.2139    1.0000 </r>
       <r>    8.3088    1.0000 </r>
       <r>    8.9538    1.0000 </r>
       <r>    9.7740    1.0000 </r>
       <r>   13.0442    0.0000 </r>
       <r>   20.7900    0.0000 </r>
       <r>   23.2887    0.0000 </r>
       <r>   27.4177    0.0000 </r>
       <r>   32.0849    0.0000 </r>
       <r>   39.7183    0.0000 </r>
       <r>   47.2597    0.0000 </r>
      </set>
      <set comment="kpoint 51">
       <r>    4.4546    1.0000 </r>
       <r>    7.6499    1.0000 </r>
       <r>    7.8030    1.0000 </r>
       <r>    7.8030    1.0000 </r>
       <r>    9.1832    1.0000 </r>
       <r>    9.1832    1.0000 </r>
       <r>   22.2378    0.0000 </r>
       <r>   33.1268    0.0000 </r>
       <r>   35.8007    0.0000 </r>
       <r>   35.8007    0.0000 </r>
       <r>   40.0708    0.0000 </r>
       <r>   40.0708    0.0000 </r>
      </set>
      <set comment="kpoint 52">
       <r>    5.2584    1.0000 </r>
       <r>    7.5390    1.0000 </r>
       <r>    7.5548    1.0000 </r>
       <r>    7.9299    1.0000 </r>
       <r>    9.0791    1.0000 </r>
       <r>   10.3856    0.6535 </r>
       <r>   20.7933    0.0000 </r>
       <r>   28.7476    0.0000 </r>
       <r>   34.4734    0.0000 </r>
       <r>   35.7535    0.0000 </r>
       <r>   40.3602    0.0000 </r>
       <r>   40.7771    0.0000 </r>
      </set>
      <set comment="kpoint 53">
       <r>    6.2967    1.0000 </r>
       <r>    6.9334    1.0000 </r>
       <r>    7.2458    1.0000 </r>
       <r>    8.3501    1.0000 </r>
       <r>    9.1437    1.0000 </r>
       <r>   12.7027    0.0000 </r>
       <r>   20.0268    0.0000 </r>
       <r>   23.3429    0.0000 </r>
       <r>   32.0306    0.0000 </r>
       <r>   33.3252    0.0000 </r>
       <r>   43.8341    0.0000 </r>
       <r>   44.5313    0.0000 </r>
      </set>
      <set comment="kpoint 54">
       <r>    6.1851    1.0000 </r>
       <r>    6.5014    1.0000 </r>
       <r>    7.6946    1.0000 </r>
       <r>    8.7052    1.0000 </r>
       <r>    9.5077    1.0000 </r>
       <r>   15.8761    0.0000 </r>
       <r>   17.4565    0.0000 </r>
       <r>   21.7164    0.0000 </r>
       <r>   29.0725    0.0000 </r>
       <r>   32.4513    0.0000 </r>
       <r>   45.6290    0.0000 </r>
       <r>   47.0074    0.0000 </r>
      </set>
      <set comment="kpoint 55">
       <r>    5.4131    1.0000 </r>
       <r>    7.3379    1.0000 </r>
       <r>    7.8546    1.0000 </r>
       <r>    7.9344    1.0000 </r>
       <r>    9.6592    1.0000 </r>
       <r>   10.6768    0.0000 </r>
       <r>   19.1066    0.0000 </r>
       <r>   30.4639    0.0000 </r>
       <r>   31.8765    0.0000 </r>
       <r>   33.7514    0.0000 </r>
       <r>   41.7301    0.0000 </r>
       <r>   42.4127    0.0000 </r>
      </set>
      <set comment="kpoint 56">
       <r>    6.0648    1.0000 </r>
       <r>    6.8510    1.0000 </r>
       <r>    7.5304    1.0000 </r>
       <r>    8.3165    1.0000 </r>
       <r>    9.5433    1.0000 </r>
       <r>   12.9785    0.0000 </r>
       <r>   18.2381    0.0000 </r>
       <r>   26.3007    0.0000 </r>
       <r>   28.2064    0.0000 </r>
       <r>   36.2446    0.0000 </r>
       <r>   40.3020    0.0000 </r>
       <r>   46.5913    0.0000 </r>
      </set>
      <set comment="kpoint 57">
       <r>    6.2618    1.0000 </r>
       <r>    6.6341    1.0000 </r>
       <r>    7.3631    1.0000 </r>
       <r>    8.6995    1.0000 </r>
       <r>    9.6693    1.0000 </r>
       <r>   16.2901    0.0000 </r>
       <r>   17.8145    0.0000 </r>
       <r>   21.8589    0.0000 </r>
       <r>   25.5121    0.0000 </r>
       <r>   36.5216    0.0000 </r>
       <r>   42.6423    0.0000 </r>
       <r>   45.8642    0.0000 </r>
      </set>
      <set comment="kpoint 58">
       <r>    6.0875    1.0000 </r>
       <r>    6.6249    1.0000 </r>
       <r>    7.7221    1.0000 </r>
       <r>    8.4573    1.0000 </r>
       <r>    9.6399    1.0000 </r>
       <r>   14.3977    0.0000 </r>
       <r>   17.2945    0.0000 </r>
       <r>   24.3403    0.0000 </r>
       <r>   29.5498    0.0000 </r>
       <r>   32.5341    0.0000 </r>
       <r>   45.3104    0.0000 </r>
       <r>   45.6402    0.0000 </r>
      </set>
      <set comment="kpoint 59">
       <r>    5.1587    1.0000 </r>
       <r>    7.6228    1.0000 </r>
       <r>    7.6228    1.0000 </r>
       <r>    9.5392    1.0000 </r>
       <r>    9.6107    1.0000 </r>
       <r>    9.6107    1.0000 </r>
       <r>   17.5069    0.0000 </r>
       <r>   32.2025    0.0000 </r>
       <r>   35.4582    0.0000 </r>
       <r>   35.4582    0.0000 </r>
       <r>   38.2904    0.0000 </r>
       <r>   38.2904    0.0000 </r>
      </set>
      <set comment="kpoint 60">
       <r>    5.5420    1.0000 </r>
       <r>    7.3180    1.0000 </r>
       <r>    7.8299    1.0000 </r>
       <r>    8.3462    1.0000 </r>
       <r>    9.5948    1.0000 </r>
       <r>   11.9853    0.0000 </r>
       <r>   16.8283    0.0000 </r>
       <r>   29.2024    0.0000 </r>
       <r>   33.1290    0.0000 </r>
       <r>   33.3734    0.0000 </r>
       <r>   40.9521    0.0000 </r>
       <r>   41.4505    0.0000 </r>
      </set>
     </set>
     <set comment="spin 2">
      <set comment="kpoint 1">
       <r>    1.5421    1.0000 </r>
       <r>    9.2109    1.0000 </r>
       <r>    9.3090    1.0000 </r>
       <r>    9.3090    1.0000 </r>
       <r>   10.6627    0.0000 </r>
       <r>   10.6627    0.0000 </r>
       <r>   32.9233    0.0000 </r>
       <r>   36.2286    0.0000 </r>
       <r>   37.7979    0.0000 </r>
       <r>   37.7979    0.0000 </r>
       <r>   41.7850    0.0000 </r>
       <r>   41.7850    0.0000 </r>
      </set>
      <set comment="kpoint 2">
       <r>    2.3523    1.0000 </r>
       <r>    8.9353    1.0000 </r>
       <r>    9.4864    1.0000 </r>
       <r>    9.4947    1.0000 </r>
       <r>   10.4735    0.0183 </r>
       <r>   10.7409    0.0000 </r>
       <r>   30.5410    0.0000 </r>
       <r>   33.0660    0.0000 </r>
       <r>   36.5582    0.0000 </r>
       <r>   38.8211    0.0000 </r>
       <r>   40.3836    0.0000 </r>
       <r>   41.8757    0.0000 </r>
      </set>
      <set comment="kpoint 3">
       <r>    4.1372    1.0000 </r>
       <r>    8.6112    1.0000 </r>
       <r>    9.4705    1.0000 </r>
       <r>    9.5737    1.0000 </r>
       <r>   10.6318    0.0000 </r>
       <r>   11.0953    0.0000 </r>
       <r>   24.6981    0.0000 </r>
       <r>   31.9547    0.0000 </r>
       <r>   35.5210    0.0000 </r>
       <r>   38.5320    0.0000 </r>
       <r>   39.6397    0.0000 </r>
       <r>   40.4489    0.0000 </r>
      </set>
      <set comment="kpoint 4">
       <r>    5.8249    1.0000 </r>
       <r>    9.0514    1.0000 </r>
       <r>    9.2710    1.0000 </r>
       <r>    9.3681    1.0000 </r>
       <r>   11.2220    0.0000 </r>
       <r>   11.6990    0.0000 </r>
       <r>   19.6139    0.0000 </r>
       <r>   31.3339    0.0000 </r>
       <r>   34.3716    0.0000 </r>
       <r>   36.3784    0.0000 </r>
       <r>   38.8118    0.0000 </r>
       <r>   40.3122    0.0000 </r>
      </set>
      <set comment="kpoint 5">
       <r>    6.1802    1.0000 </r>
       <r>    9.1079    1.0000 </r>
       <r>    9.3067    1.0000 </r>
       <r>    9.7357    1.0000 </r>
       <r>   11.5423    0.0000 </r>
       <r>   11.9750    0.0000 </r>
       <r>   17.6963    0.0000 </r>
       <r>   31.3116    0.0000 </r>
       <r>   34.5038    0.0000 </r>
       <r>   34.6359    0.0000 </r>
       <r>   39.6114    0.0000 </r>
       <r>   39.6258    0.0000 </r>
      </set>
      <set comment="kpoint 6">
       <r>    5.3917    1.0000 </r>
       <r>    8.7471    1.0000 </r>
       <r>    9.3084    1.0000 </r>
       <r>    9.4525    1.0000 </r>
       <r>   11.2192    0.0000 </r>
       <r>   11.3268    0.0000 </r>
       <r>   21.1274    0.0000 </r>
       <r>   32.0300    0.0000 </r>
       <r>   33.9903    0.0000 </r>
       <r>   36.4208    0.0000 </r>
       <r>   39.3932    0.0000 </r>
       <r>   41.2901    0.0000 </r>
      </set>
      <set comment="kpoint 7">
       <r>    3.4716    1.0000 </r>
       <r>    8.6667    1.0000 </r>
       <r>    9.5408    1.0000 </r>
       <r>    9.5936    1.0000 </r>
       <r>   10.5473    0.0000 </r>
       <r>   10.8866    0.0000 </r>
       <r>   26.6369    0.0000 </r>
       <r>   33.1591    0.0000 </r>
       <r>   34.5423    0.0000 </r>
       <r>   38.8721    0.0000 </r>
       <r>   39.2446    0.0000 </r>
       <r>   43.4337    0.0000 </r>
      </set>
      <set comment="kpoint 8">
       <r>    1.9529    1.0000 </r>
       <r>    9.0372    1.0000 </r>
       <r>    9.4280    1.0000 </r>
       <r>    9.4333    1.0000 </r>
       <r>   10.4988    0.0025 </r>
       <r>   10.7353    0.0000 </r>
       <r>   32.1322    0.0000 </r>
       <r>   34.5711    0.0000 </r>
       <r>   35.8810    0.0000 </r>
       <r>   37.5442    0.0000 </r>
       <r>   41.6555    0.0000 </r>
       <r>   43.3989    0.0000 </r>
      </set>
      <set comment="kpoint 9">
       <r>    2.7427    1.0000 </r>
       <r>    8.7081    1.0000 </r>
       <r>    9.6539    1.0000 </r>
       <r>    9.6765    1.0000 </r>
       <r>   10.2394    1.0000 </r>
       <r>   10.8695    0.0000 </r>
       <r>   30.8563    0.0000 </r>
       <r>   33.1227    0.0000 </r>
       <r>   33.6224    0.0000 </r>
       <r>   35.5892    0.0000 </r>
       <r>   41.8050    0.0000 </r>
       <r>   43.9194    0.0000 </r>
      </set>
      <set comment="kpoint 10">
       <r>    4.1716    1.0000 </r>
       <r>    8.3208    1.0000 </r>
       <r>    9.4630    1.0000 </r>
       <r>    9.9898    1.0000 </r>
       <r>   10.4221    0.2621 </r>
       <r>   11.1936    0.0000 </r>
       <r>   27.1709    0.0000 </r>
       <r>   29.6760    0.0000 </r>
       <r>   33.3334    0.0000 </r>
       <r>   35.3552    0.0000 </r>
       <r>   40.5521    0.0000 </r>
       <r>   43.6330    0.0000 </r>
      </set>
      <set comment="kpoint 11">
       <r>    5.9692    1.0000 </r>
       <r>    8.2258    1.0000 </r>
       <r>    9.0334    1.0000 </r>
       <r>    9.8629    1.0000 </r>
       <r>   11.2285    0.0000 </r>
       <r>   12.0533    0.0000 </r>
       <r>   21.5773    0.0000 </r>
       <r>   29.0340    0.0000 </r>
       <r>   31.0780    0.0000 </r>
       <r>   35.0514    0.0000 </r>
       <r>   41.6880    0.0000 </r>
       <r>   44.3166    0.0000 </r>
      </set>
      <set comment="kpoint 12">
       <r>    6.7270    1.0000 </r>
       <r>    8.4151    1.0000 </r>
       <r>    9.1393    1.0000 </r>
       <r>    9.7017    1.0000 </r>
       <r>   11.4872    0.0000 </r>
       <r>   13.6155    0.0000 </r>
       <r>   17.7986    0.0000 </r>
       <r>   28.4292    0.0000 </r>
       <r>   30.4252    0.0000 </r>
       <r>   34.7528    0.0000 </r>
       <r>   40.9093    0.0000 </r>
       <r>   44.4643    0.0000 </r>
      </set>
      <set comment="kpoint 13">
       <r>    6.4094    1.0000 </r>
       <r>    8.4640    1.0000 </r>
       <r>    8.9199    1.0000 </r>
       <r>    9.7545    1.0000 </r>
       <r>   11.1062    0.0000 </r>
       <r>   12.7472    0.0000 </r>
       <r>   20.0140    0.0000 </r>
       <r>   27.6904    0.0000 </r>
       <r>   31.8865    0.0000 </r>
       <r>   35.8678    0.0000 </r>
       <r>   40.2646    0.0000 </r>
       <r>   43.8658    0.0000 </r>
      </set>
      <set comment="kpoint 14">
       <r>    4.8110    1.0000 </r>
       <r>    8.3501    1.0000 </r>
       <r>    9.2526    1.0000 </r>
       <r>    9.9694    1.0000 </r>
       <r>   10.3791    0.7191 </r>
       <r>   11.6083    0.0000 </r>
       <r>   25.2423    0.0000 </r>
       <r>   27.8584    0.0000 </r>
       <r>   34.3164    0.0000 </r>
       <r>   37.7984    0.0000 </r>
       <r>   39.6566    0.0000 </r>
       <r>   42.8852    0.0000 </r>
      </set>
      <set comment="kpoint 15">
       <r>    3.1191    1.0000 </r>
       <r>    8.6774    1.0000 </r>
       <r>    9.5582    1.0000 </r>
       <r>    9.6943    1.0000 </r>
       <r>   10.3268    0.9802 </r>
       <r>   10.9226    0.0000 </r>
       <r>   28.8087    0.0000 </r>
       <r>   31.3332    0.0000 </r>
       <r>   35.6494    0.0000 </r>
       <r>   37.4214    0.0000 </r>
       <r>   41.1934    0.0000 </r>
       <r>   42.5770    0.0000 </r>
      </set>
      <set comment="kpoint 16">
       <r>    5.0203    1.0000 </r>
       <r>    7.8641    1.0000 </r>
       <r>    9.6011    1.0000 </r>
       <r>   10.4527    0.0663 </r>
       <r>   10.7070    0.0000 </r>
       <r>   11.2413    0.0000 </r>
       <r>   27.7096    0.0000 </r>
       <r>   29.3885    0.0000 </r>
       <r>   29.3968    0.0000 </r>
       <r>   32.2215    0.0000 </r>
       <r>   37.1040    0.0000 </r>
       <r>   48.9923    0.0000 </r>
      </set>
      <set comment="kpoint 17">
       <r>    6.2001    1.0000 </r>
       <r>    7.5951    1.0000 </r>
       <r>    9.3849    1.0000 </r>
       <r>   10.7681    0.0000 </r>
       <r>   11.2879    0.0000 </r>
       <r>   12.1593    0.0000 </r>
       <r>   24.3689    0.0000 </r>
       <r>   26.3017    0.0000 </r>
       <r>   27.2680    0.0000 </r>
       <r>   33.4616    0.0000 </r>
       <r>   38.1263    0.0000 </r>
       <r>   47.5520    0.0000 </r>
      </set>
      <set comment="kpoint 18">
       <r>    7.1044    1.0000 </r>
       <r>    7.6247    1.0000 </r>
       <r>    9.0435    1.0000 </r>
       <r>   10.5124    0.0007 </r>
       <r>   11.5354    0.0000 </r>
       <r>   14.8366    0.0000 </r>
       <r>   19.4497    0.0000 </r>
       <r>   24.2369    0.0000 </r>
       <r>   27.4254    0.0000 </r>
       <r>   33.8784    0.0000 </r>
       <r>   42.9143    0.0000 </r>
       <r>   45.7781    0.0000 </r>
      </set>
      <set comment="kpoint 19">
       <r>    7.4667    1.0000 </r>
       <r>    7.8928    1.0000 </r>
       <r>    8.5837    1.0000 </r>
       <r>   10.3219    0.9860 </r>
       <r>   11.1460    0.0000 </r>
       <r>   15.1919    0.0000 </r>
       <r>   19.3366    0.0000 </r>
       <r>   22.9468    0.0000 </r>
       <r>   29.1594    0.0000 </r>
       <r>   34.6963    0.0000 </r>
       <r>   43.3595    0.0000 </r>
       <r>   48.1554    0.0000 </r>
      </set>
      <set comment="kpoint 20">
       <r>    6.5069    1.0000 </r>
       <r>    8.2595    1.0000 </r>
       <r>    8.6796    1.0000 </r>
       <r>   10.1013    1.0000 </r>
       <r>   10.7314    0.0000 </r>
       <r>   12.9109    0.0000 </r>
       <r>   22.0887    0.0000 </r>
       <r>   24.9569    0.0000 </r>
       <r>   31.6658    0.0000 </r>
       <r>   36.4388    0.0000 </r>
       <r>   40.6026    0.0000 </r>
       <r>   45.3427    0.0000 </r>
      </set>
      <set comment="kpoint 21">
       <r>    5.0249    1.0000 </r>
       <r>    8.4707    1.0000 </r>
       <r>    9.2919    1.0000 </r>
       <r>    9.6502    1.0000 </r>
       <r>   10.8237    0.0000 </r>
       <r>   11.4802    0.0000 </r>
       <r>   23.0168    0.0000 </r>
       <r>   30.4705    0.0000 </r>
       <r>   33.9457    0.0000 </r>
       <r>   36.7720    0.0000 </r>
       <r>   40.3259    0.0000 </r>
       <r>   41.8616    0.0000 </r>
      </set>
      <set comment="kpoint 22">
       <r>    6.2681    1.0000 </r>
       <r>    7.2030    1.0000 </r>
       <r>   10.7215    0.0000 </r>
       <r>   11.2787    0.0000 </r>
       <r>   11.5841    0.0000 </r>
       <r>   12.2481    0.0000 </r>
       <r>   23.2706    0.0000 </r>
       <r>   25.3256    0.0000 </r>
       <r>   26.4447    0.0000 </r>
       <r>   31.4703    0.0000 </r>
       <r>   35.5838    0.0000 </r>
       <r>   50.9673    0.0000 </r>
      </set>
      <set comment="kpoint 23">
       <r>    6.5555    1.0000 </r>
       <r>    7.2036    1.0000 </r>
       <r>   10.2910    0.9989 </r>
       <r>   11.2673    0.0000 </r>
       <r>   11.6778    0.0000 </r>
       <r>   14.5333    0.0000 </r>
       <r>   21.2914    0.0000 </r>
       <r>   22.9688    0.0000 </r>
       <r>   25.3431    0.0000 </r>
       <r>   32.8773    0.0000 </r>
       <r>   37.4475    0.0000 </r>
       <r>   50.4303    0.0000 </r>
      </set>
      <set comment="kpoint 24">
       <r>    7.1548    1.0000 </r>
       <r>    7.5188    1.0000 </r>
       <r>    9.2181    1.0000 </r>
       <r>   10.7565    0.0000 </r>
       <r>   11.4860    0.0000 </r>
       <r>   16.6423    0.0000 </r>
       <r>   18.7837    0.0000 </r>
       <r>   21.9081    0.0000 </r>
       <r>   26.9415    0.0000 </r>
       <r>   33.7313    0.0000 </r>
       <r>   42.9578    0.0000 </r>
       <r>   46.7377    0.0000 </r>
      </set>
      <set comment="kpoint 25">
       <r>    7.1686    1.0000 </r>
       <r>    8.0365    1.0000 </r>
       <r>    8.8705    1.0000 </r>
       <r>   10.0214    1.0000 </r>
       <r>   11.3543    0.0000 </r>
       <r>   14.7908    0.0000 </r>
       <r>   17.9684    0.0000 </r>
       <r>   25.5784    0.0000 </r>
       <r>   29.5215    0.0000 </r>
       <r>   34.6853    0.0000 </r>
       <r>   42.1855    0.0000 </r>
       <r>   46.6021    0.0000 </r>
      </set>
      <set comment="kpoint 26">
       <r>    6.2726    1.0000 </r>
       <r>    8.8506    1.0000 </r>
       <r>    9.2794    1.0000 </r>
       <r>    9.4686    1.0000 </r>
       <r>   11.4230    0.0000 </r>
       <r>   12.3848    0.0000 </r>
       <r>   18.4803    0.0000 </r>
       <r>   30.2385    0.0000 </r>
       <r>   32.6178    0.0000 </r>
       <r>   35.1127    0.0000 </r>
       <r>   39.8748    0.0000 </r>
       <r>   41.9479    0.0000 </r>
      </set>
      <set comment="kpoint 27">
       <r>    6.3180    1.0000 </r>
       <r>    7.0547    1.0000 </r>
       <r>   11.2074    0.0000 </r>
       <r>   11.4794    0.0000 </r>
       <r>   11.6960    0.0000 </r>
       <r>   13.3149    0.0000 </r>
       <r>   21.2478    0.0000 </r>
       <r>   24.6936    0.0000 </r>
       <r>   25.7759    0.0000 </r>
       <r>   31.3584    0.0000 </r>
       <r>   35.4032    0.0000 </r>
       <r>   51.0737    0.0000 </r>
      </set>
      <set comment="kpoint 28">
       <r>    6.5236    1.0000 </r>
       <r>    7.3388    1.0000 </r>
       <r>    9.8767    1.0000 </r>
       <r>   11.1147    0.0000 </r>
       <r>   11.5385    0.0000 </r>
       <r>   13.2935    0.0000 </r>
       <r>   23.1434    0.0000 </r>
       <r>   23.8018    0.0000 </r>
       <r>   25.9372    0.0000 </r>
       <r>   33.0594    0.0000 </r>
       <r>   37.6427    0.0000 </r>
       <r>   49.2206    0.0000 </r>
      </set>
      <set comment="kpoint 29">
       <r>    6.7296    1.0000 </r>
       <r>    7.9015    1.0000 </r>
       <r>    8.9221    1.0000 </r>
       <r>   10.1754    1.0000 </r>
       <r>   11.4869    0.0000 </r>
       <r>   13.1694    0.0000 </r>
       <r>   20.3783    0.0000 </r>
       <r>   27.1151    0.0000 </r>
       <r>   28.5174    0.0000 </r>
       <r>   34.2519    0.0000 </r>
       <r>   42.5842    0.0000 </r>
       <r>   44.9859    0.0000 </r>
      </set>
      <set comment="kpoint 30">
       <r>    5.9221    1.0000 </r>
       <r>    7.4839    1.0000 </r>
       <r>    9.9469    1.0000 </r>
       <r>   10.9006    0.0000 </r>
       <r>   11.3402    0.0000 </r>
       <r>   11.4271    0.0000 </r>
       <r>   25.9478    0.0000 </r>
       <r>   26.6640    0.0000 </r>
       <r>   27.6920    0.0000 </r>
       <r>   31.7241    0.0000 </r>
       <r>   36.0687    0.0000 </r>
       <r>   50.8147    0.0000 </r>
      </set>
      <set comment="kpoint 31">
       <r>    5.3238    1.0000 </r>
       <r>    7.9392    1.0000 </r>
       <r>    9.2736    1.0000 </r>
       <r>   10.3578    0.8813 </r>
       <r>   10.8452    0.0000 </r>
       <r>   11.5410    0.0000 </r>
       <r>   25.6765    0.0000 </r>
       <r>   28.0846    0.0000 </r>
       <r>   30.1586    0.0000 </r>
       <r>   34.1684    0.0000 </r>
       <r>   39.0495    0.0000 </r>
       <r>   45.6880    0.0000 </r>
      </set>
      <set comment="kpoint 32">
       <r>    3.8297    1.0000 </r>
       <r>    8.2935    1.0000 </r>
       <r>    9.7071    1.0000 </r>
       <r>   10.0264    1.0000 </r>
       <r>   10.2495    1.0000 </r>
       <r>   11.0467    0.0000 </r>
       <r>   29.3148    0.0000 </r>
       <r>   31.4067    0.0000 </r>
       <r>   31.7679    0.0000 </r>
       <r>   33.4315    0.0000 </r>
       <r>   39.0167    0.0000 </r>
       <r>   46.2876    0.0000 </r>
      </set>
      <set comment="kpoint 33">
[...]
       </set>
       <set comment="band 5">
        <r>  0.0001  0.0000  0.0004  0.0007  0.0025  0.0310  0.0001  0.9518  0.0064 </r>
       </set>
       <set comment="band 6">
        <r>  0.0258  0.0067  0.4681  0.0010  0.0002  0.2979  0.0313  0.0148  0.0019 </r>
       </set>
       <set comment="band 7">
        <r>  0.0016  0.1343  0.0113  0.2740  0.1487  0.0079  0.1944  0.0046  0.0178 </r>
       </set>
       <set comment="band 8">
        <r>  0.3142  0.0124  0.0353  0.0972  0.0767  0.0048  0.2774  0.0004  0.0000 </r>
       </set>
       <set comment="band 9">
        <r>  0.2384  0.1808  0.0032  0.1547  0.0534  0.0013  0.0091  0.0013  0.0882 </r>
       </set>
       <set comment="band 10">
        <r>  0.0241  0.0305  0.0005  0.0689  0.6087  0.0000  0.0162  0.0010  0.0044 </r>
       </set>
       <set comment="band 11">
        <r>  0.1967  0.2514  0.0046  0.0155  0.0721  0.0000  0.1623  0.0002  0.0082 </r>
       </set>
       <set comment="band 12">
        <r>  0.0369  0.0021  0.0300  0.0002  0.0001  0.3653  0.0178  0.0021  0.0286 </r>
       </set>
      </set>
      <set comment="kpoint 50">
       <set comment="band 1">
        <r>  0.0846  0.0092  0.0487  0.0092  0.0550  0.0087  0.6180  0.0087  0.0000 </r>
       </set>
       <set comment="band 2">
        <r>  0.0005  0.0241  0.0002  0.0241  0.8047  0.0079  0.0506  0.0079  0.0000 </r>
       </set>
       <set comment="band 3">
        <r>  0.0353  0.0000  0.1667  0.0000  0.0332  0.2900  0.0908  0.2900  0.0000 </r>
       </set>
       <set comment="band 4">
        <r>  0.0000  0.0049  0.0000  0.0049  0.0000  0.1675  0.0000  0.1675  0.6302 </r>
       </set>
       <set comment="band 5">
        <r>  0.0000  0.0000  0.0000  0.0000  0.0000  0.3243  0.0000  0.3243  0.3447 </r>
       </set>
       <set comment="band 6">
        <r>  0.0743  0.0145  0.2737  0.0145  0.0045  0.1871  0.1288  0.1871  0.0000 </r>
       </set>
       <set comment="band 7">
        <r>  0.1095  0.1918  0.0010  0.1918  0.1645  0.0306  0.0616  0.0306  0.0000 </r>
       </set>
       <set comment="band 8">
        <r>  0.2243  0.0003  0.1710  0.0003  0.0164  0.0052  0.3731  0.0052  0.0000 </r>
       </set>
       <set comment="band 9">
        <r>  0.0000  0.2877  0.0000  0.2877  0.0000  0.0200  0.0000  0.0200  0.0788 </r>
       </set>
       <set comment="band 10">
        <r>  0.1377  0.0014  0.0195  0.0014  0.5851  0.0001  0.0396  0.0001  0.0000 </r>
       </set>
       <set comment="band 11">
        <r>  0.1916  0.0992  0.0290  0.0992  0.1897  0.0051  0.1109  0.0051  0.0000 </r>
       </set>
       <set comment="band 12">
        <r>  0.0000  0.0201  0.0000  0.0201  0.0000  0.1103  0.0000  0.1103  0.2107 </r>
       </set>
      </set>
      <set comment="kpoint 51">
       <set comment="band 1">
        <r>  0.4598  0.0498  0.0498  0.0498  0.0514  0.0514  0.0000  0.0514  0.0000 </r>
       </set>
       <set comment="band 2">
        <r>  0.0187  0.0510  0.0510  0.0510  0.2386  0.2386  0.0000  0.2386  0.0000 </r>
       </set>
       <set comment="band 3">
        <r>  0.0000  0.0001  0.0002  0.0007  0.1190  0.3599  0.1378  0.0669  0.2836 </r>
       </set>
       <set comment="band 4">
        <r>  0.0000  0.0005  0.0004  0.0000  0.2448  0.0040  0.2836  0.2969  0.1378 </r>
       </set>
       <set comment="band 5">
        <r>  0.0000  0.0010  0.0000  0.0007  0.0058  0.1768  0.0112  0.2463  0.5411 </r>
       </set>
       <set comment="band 6">
        <r>  0.0000  0.0002  0.0012  0.0005  0.2801  0.1092  0.5411  0.0396  0.0112 </r>
       </set>
       <set comment="band 7">
        <r>  0.1739  0.0835  0.0835  0.0835  0.1318  0.1318  0.0000  0.1318  0.0000 </r>
       </set>
       <set comment="band 8">
        <r>  0.0101  0.0030  0.0030  0.0030  0.0202  0.0202  0.0000  0.0202  0.0000 </r>
       </set>
       <set comment="band 9">
        <r>  0.0000  0.2308  0.1061  0.0509  0.0977  0.0469  0.0342  0.2125  0.0492 </r>
       </set>
       <set comment="band 10">
        <r>  0.0000  0.0277  0.1524  0.2076  0.1403  0.1912  0.0492  0.0255  0.0342 </r>
       </set>
       <set comment="band 11">
        <r>  0.0000  0.0785  0.0038  0.0498  0.0007  0.0096  0.0270  0.0151  0.5959 </r>
       </set>
       <set comment="band 12">
        <r>  0.0000  0.0096  0.0843  0.0383  0.0162  0.0074  0.5959  0.0018  0.0270 </r>
       </set>
      </set>
      <set comment="kpoint 52">
       <set comment="band 1">
        <r>  0.3407  0.0792  0.0792  0.0040  0.0650  0.1469  0.0032  0.0650  0.0096 </r>
       </set>
       <set comment="band 2">
        <r>  0.0155  0.0531  0.0531  0.0764  0.2982  0.0165  0.0158  0.2982  0.0473 </r>
       </set>
       <set comment="band 3">
        <r>  0.0010  0.0023  0.0023  0.0023  0.0605  0.3433  0.1202  0.0605  0.3606 </r>
       </set>
       <set comment="band 4">
        <r>  0.0000  0.0005  0.0005  0.0000  0.1916  0.0000  0.4361  0.1916  0.1454 </r>
       </set>
       <set comment="band 5">
        <r>  0.0000  0.0010  0.0010  0.0000  0.2974  0.0000  0.2871  0.2974  0.0957 </r>
       </set>
       <set comment="band 6">
        <r>  0.0344  0.0240  0.0240  0.0062  0.0069  0.4526  0.1031  0.0069  0.3092 </r>
       </set>
       <set comment="band 7">
        <r>  0.2009  0.0457  0.0457  0.1546  0.1435  0.0891  0.0039  0.1435  0.0117 </r>
       </set>
       <set comment="band 8">
        <r>  0.0484  0.0302  0.0302  0.1779  0.0854  0.0646  0.0307  0.0854  0.0922 </r>
       </set>
       <set comment="band 9">
        <r>  0.0345  0.0961  0.0961  0.0697  0.0017  0.0001  0.0043  0.0017  0.0129 </r>
       </set>
       <set comment="band 10">
        <r>  0.0000  0.1820  0.1820  0.0000  0.0008  0.0000  0.3377  0.0008  0.1126 </r>
       </set>
       <set comment="band 11">
        <r>  0.0000  0.0752  0.0752  0.0000  0.2558  0.0000  0.1879  0.2558  0.0626 </r>
       </set>
       <set comment="band 12">
        <r>  0.0611  0.0087  0.0087  0.0259  0.0160  0.1397  0.0601  0.0160  0.1802 </r>
       </set>
      </set>
      <set comment="kpoint 53">
       <set comment="band 1">
        <r>  0.1627  0.0965  0.0965  0.0013  0.0259  0.3878  0.0093  0.0259  0.0279 </r>
       </set>
       <set comment="band 2">
        <r>  0.0004  0.0291  0.0291  0.0280  0.0760  0.0993  0.1373  0.0760  0.4120 </r>
       </set>
       <set comment="band 3">
        <r>  0.0033  0.0005  0.0005  0.0726  0.3067  0.1213  0.0290  0.3067  0.0869 </r>
       </set>
       <set comment="band 4">
        <r>  0.0000  0.0039  0.0039  0.0000  0.0460  0.0000  0.6484  0.0460  0.2161 </r>
       </set>
       <set comment="band 5">
        <r>  0.0000  0.0003  0.0003  0.0000  0.4444  0.0000  0.0686  0.4444  0.0229 </r>
       </set>
       <set comment="band 6">
        <r>  0.1178  0.0787  0.0787  0.0049  0.0002  0.3906  0.0596  0.0002  0.1787 </r>
       </set>
       <set comment="band 7">
        <r>  0.1060  0.0105  0.0105  0.3398  0.1685  0.0247  0.0071  0.1685  0.0214 </r>
       </set>
       <set comment="band 8">
        <r>  0.2217  0.0468  0.0468  0.1130  0.0361  0.0588  0.0483  0.0361  0.1448 </r>
       </set>
       <set comment="band 9">
        <r>  0.0000  0.2235  0.2235  0.0000  0.0008  0.0000  0.2677  0.0008  0.0892 </r>
       </set>
       <set comment="band 10">
        <r>  0.1027  0.0625  0.0625  0.0046  0.0000  0.1445  0.0226  0.0000  0.0678 </r>
       </set>
       <set comment="band 11">
        <r>  0.0126  0.0002  0.0002  0.0806  0.0491  0.0316  0.0067  0.0491  0.0202 </r>
       </set>
       <set comment="band 12">
        <r>  0.0000  0.0134  0.0134  0.0000  0.3380  0.0000  0.0445  0.3380  0.0148 </r>
       </set>
      </set>
      <set comment="kpoint 54">
       <set comment="band 1">
        <r>  0.0496  0.0025  0.0025  0.0060  0.0113  0.5560  0.0681  0.0113  0.2044 </r>
       </set>
       <set comment="band 2">
        <r>  0.0032  0.0773  0.0773  0.0004  0.0022  0.2000  0.1227  0.0022  0.3681 </r>
       </set>
       <set comment="band 3">
        <r>  0.0013  0.0011  0.0011  0.1465  0.3634  0.0309  0.0015  0.3634  0.0045 </r>
       </set>
       <set comment="band 4">
        <r>  0.0000  0.0054  0.0054  0.0000  0.0370  0.0000  0.6626  0.0370  0.2209 </r>
       </set>
       <set comment="band 5">
        <r>  0.0000  0.0001  0.0001  0.0000  0.4560  0.0000  0.0559  0.4560  0.0186 </r>
       </set>
       <set comment="band 6">
        <r>  0.0744  0.1483  0.1483  0.0671  0.0141  0.2062  0.0393  0.0141  0.1179 </r>
       </set>
       <set comment="band 7">
        <r>  0.1205  0.0075  0.0075  0.3601  0.1596  0.0466  0.0003  0.1596  0.0009 </r>
       </set>
       <set comment="band 8">
        <r>  0.3265  0.0196  0.0196  0.0654  0.0105  0.0313  0.0768  0.0105  0.2304 </r>
       </set>
       <set comment="band 9">
        <r>  0.0000  0.2653  0.2653  0.0000  0.0016  0.0000  0.1554  0.0016  0.0518 </r>
       </set>
       <set comment="band 10">
        <r>  0.1407  0.0257  0.0257  0.0031  0.0000  0.3636  0.0205  0.0000  0.0616 </r>
       </set>
       <set comment="band 11">
        <r>  0.1736  0.1003  0.1003  0.0097  0.0010  0.3256  0.0188  0.0010  0.0565 </r>
       </set>
       <set comment="band 12">
        <r>  0.0000  0.0062  0.0062  0.0000  0.2517  0.0000  0.0331  0.2517  0.0110 </r>
       </set>
      </set>
      <set comment="kpoint 55">
       <set comment="band 1">
        <r>  0.2598  0.0089  0.0860  0.0089  0.1594  0.1405  0.0294  0.1405  0.0000 </r>
       </set>
       <set comment="band 2">
        <r>  0.0118  0.0810  0.0579  0.0810  0.2130  0.0465  0.3096  0.0465  0.0000 </r>
       </set>
       <set comment="band 3">
        <r>  0.0121  0.0080  0.0256  0.0080  0.4276  0.0759  0.3134  0.0759  0.0000 </r>
       </set>
       <set comment="band 4">
        <r>  0.0000  0.0026  0.0000  0.0026  0.0000  0.2241  0.0000  0.2241  0.5124 </r>
       </set>
       <set comment="band 5">
        <r>  0.0000  0.0002  0.0000  0.0002  0.0000  0.2651  0.0000  0.2651  0.4613 </r>
       </set>
       <set comment="band 6">
        <r>  0.0344  0.0296  0.0708  0.0296  0.0939  0.1841  0.3069  0.1841  0.0000 </r>
       </set>
       <set comment="band 7">
        <r>  0.2658  0.0890  0.0138  0.0890  0.1725  0.1094  0.0085  0.1094  0.0000 </r>
       </set>
       <set comment="band 8">
        <r>  0.0036  0.0000  0.0877  0.0000  0.0767  0.0076  0.2637  0.0076  0.0000 </r>
       </set>
       <set comment="band 9">
        <r>  0.0000  0.2411  0.0000  0.2411  0.0000  0.0751  0.0000  0.0751  0.1302 </r>
       </set>
       <set comment="band 10">
        <r>  0.1075  0.0406  0.2473  0.0406  0.1444  0.0056  0.0413  0.0056  0.0000 </r>
       </set>
       <set comment="band 11">
        <r>  0.0183  0.0003  0.0136  0.0003  0.2716  0.0204  0.4031  0.0204  0.0000 </r>
       </set>
       <set comment="band 12">
        <r>  0.0000  0.0546  0.0000  0.0546  0.0000  0.0759  0.0000  0.0759  0.5049 </r>
       </set>
      </set>
      <set comment="kpoint 56">
       <set comment="band 1">
        <r>  0.1375  0.0175  0.0787  0.0056  0.2266  0.2445  0.0626  0.0940  0.0019 </r>
       </set>
       <set comment="band 2">
        <r>  0.0001  0.0714  0.0242  0.0513  0.1075  0.0263  0.4438  0.0263  0.1089 </r>
       </set>
       <set comment="band 3">
        <r>  0.0099  0.0061  0.0412  0.0366  0.3929  0.3257  0.0722  0.0041  0.0408 </r>
       </set>
       <set comment="band 4">
        <r>  0.0000  0.0014  0.0111  0.0022  0.0325  0.0107  0.1475  0.2437  0.5146 </r>
       </set>
       <set comment="band 5">
        <r>  0.0006  0.0003  0.0023  0.0016  0.0865  0.0627  0.0644  0.5457  0.2221 </r>
       </set>
       <set comment="band 6">
        <r>  0.0661  0.0650  0.1486  0.0430  0.0210  0.2996  0.1612  0.0118  0.0705 </r>
       </set>
       <set comment="band 7">
        <r>  0.2652  0.0369  0.0001  0.1710  0.1923  0.0700  0.0121  0.1022  0.0117 </r>
       </set>
       <set comment="band 8">
        <r>  0.0389  0.0960  0.0026  0.1776  0.0859  0.0504  0.1329  0.0183  0.1082 </r>
       </set>
       <set comment="band 9">
        <r>  0.1557  0.0022  0.2666  0.0625  0.0005  0.0207  0.1835  0.0243  0.0248 </r>
       </set>
       <set comment="band 10">
        <r>  0.0043  0.2500  0.0386  0.0325  0.0974  0.0052  0.0004  0.0028  0.0003 </r>
       </set>
       <set comment="band 11">
        <r>  0.0540  0.0201  0.0006  0.0052  0.2517  0.1505  0.0698  0.0349  0.2210 </r>
       </set>
       <set comment="band 12">
        <r>  0.0063  0.0428  0.0217  0.0016  0.0616  0.0605  0.2487  0.0232  0.0304 </r>
       </set>
      </set>
      <set comment="kpoint 57">
       <set comment="band 1">
        <r>  0.0005  0.0697  0.0208  0.0029  0.0003  0.0007  0.4435  0.0000  0.3159 </r>
       </set>
       <set comment="band 2">
        <r>  0.0370  0.0062  0.0709  0.0063  0.0371  0.7275  0.0006  0.0127  0.0141 </r>
       </set>
       <set comment="band 3">
        <r>  0.0007  0.0009  0.0048  0.1195  0.6711  0.0520  0.0051  0.0618  0.0013 </r>
       </set>
       <set comment="band 4">
        <r>  0.0075  0.0010  0.0069  0.0014  0.0004  0.0035  0.3877  0.0279  0.5288 </r>
       </set>
       <set comment="band 5">
        <r>  0.0007  0.0000  0.0000  0.0025  0.1101  0.0060  0.0113  0.8433  0.0148 </r>
       </set>
       <set comment="band 6">
        <r>  0.0661  0.0963  0.2293  0.0544  0.0222  0.2130  0.1004  0.0005  0.0523 </r>
       </set>
       <set comment="band 7">
        <r>  0.1139  0.0000  0.0192  0.3737  0.2347  0.0408  0.0004  0.0679  0.0050 </r>
       </set>
       <set comment="band 8">
        <r>  0.2658  0.0798  0.0000  0.0740  0.0230  0.0293  0.1043  0.0038  0.2025 </r>
       </set>
       <set comment="band 9">
        <r>  0.1743  0.0772  0.2467  0.0029  0.0004  0.0642  0.1828  0.0018  0.0049 </r>
       </set>
       <set comment="band 10">
        <r>  0.0341  0.1558  0.0346  0.0021  0.0003  0.2997  0.0021  0.0004  0.0710 </r>
       </set>
       <set comment="band 11">
        <r>  0.0048  0.0199  0.0004  0.0468  0.4083  0.0342  0.0129  0.0137  0.0162 </r>
       </set>
       <set comment="band 12">
        <r>  0.0796  0.2546  0.0251  0.0006  0.0431  0.2567  0.0339  0.0001  0.0514 </r>
       </set>
      </set>
      <set comment="kpoint 58">
       <set comment="band 1">
        <r>  0.0872  0.0025  0.0380  0.0025  0.4737  0.0838  0.1275  0.0838  0.0000 </r>
       </set>
       <set comment="band 2">
        <r>  0.0000  0.0707  0.0094  0.0707  0.1113  0.0076  0.5749  0.0076  0.0000 </r>
       </set>
       <set comment="band 3">
        <r>  0.0086  0.0079  0.1110  0.0079  0.2173  0.2587  0.0493  0.2587  0.0000 </r>
       </set>
       <set comment="band 4">
        <r>  0.0000  0.0047  0.0000  0.0047  0.0000  0.1392  0.0000  0.1392  0.6792 </r>
       </set>
       <set comment="band 5">
        <r>  0.0000  0.0002  0.0000  0.0002  0.0000  0.3531  0.0000  0.3531  0.2834 </r>
       </set>
       <set comment="band 6">
        <r>  0.0086  0.0885  0.2160  0.0885  0.0654  0.0925  0.1987  0.0925  0.0000 </r>
       </set>
       <set comment="band 7">
        <r>  0.3149  0.0640  0.0377  0.0640  0.1871  0.0952  0.0069  0.0952  0.0000 </r>
       </set>
       <set comment="band 8">
        <r>  0.1579  0.0151  0.1962  0.0151  0.0215  0.0258  0.3004  0.0258  0.0000 </r>
       </set>
       <set comment="band 9">
        <r>  0.0000  0.2617  0.0000  0.2617  0.0000  0.0141  0.0000  0.0141  0.1904 </r>
       </set>
       <set comment="band 10">
        <r>  0.1355  0.0288  0.0296  0.0288  0.3276  0.0001  0.0508  0.0001  0.0000 </r>
       </set>
       <set comment="band 11">
        <r>  0.0008  0.0588  0.0322  0.0588  0.3536  0.0043  0.0152  0.0043  0.0000 </r>
       </set>
       <set comment="band 12">
        <r>  0.0000  0.0306  0.0000  0.0306  0.0000  0.1832  0.0000  0.1832  0.2380 </r>
       </set>
      </set>
      <set comment="kpoint 59">
       <set comment="band 1">
        <r>  0.2395  0.0093  0.0093  0.0093  0.1995  0.1995  0.0000  0.1995  0.0000 </r>
       </set>
       <set comment="band 2">
        <r>  0.0000  0.0000  0.0000  0.0001  0.1764  0.1814  0.3498  0.0575  0.1993 </r>
       </set>
       <set comment="band 3">
        <r>  0.0000  0.0001  0.0000  0.0000  0.1005  0.0954  0.1993  0.2194  0.3498 </r>
       </set>
       <set comment="band 4">
        <r>  0.0273  0.1879  0.1879  0.1879  0.0443  0.0443  0.0000  0.0443  0.0000 </r>
       </set>
       <set comment="band 5">
        <r>  0.0000  0.0002  0.0002  0.0000  0.3083  0.0300  0.3442  0.2292  0.0782 </r>
       </set>
       <set comment="band 6">
        <r>  0.0000  0.0001  0.0001  0.0002  0.0700  0.3484  0.0782  0.1491  0.3442 </r>
       </set>
       <set comment="band 7">
        <r>  0.3573  0.0250  0.0250  0.0250  0.1559  0.1559  0.0000  0.1559  0.0000 </r>
       </set>
       <set comment="band 8">
        <r>  0.0010  0.0093  0.0093  0.0093  0.0026  0.0026  0.0000  0.0026  0.0000 </r>
       </set>
       <set comment="band 9">
        <r>  0.0000  0.3501  0.0307  0.1748  0.0039  0.0223  0.0014  0.0446  0.0157 </r>
       </set>
       <set comment="band 10">
        <r>  0.0000  0.0203  0.3397  0.1956  0.0433  0.0249  0.0157  0.0026  0.0014 </r>
       </set>
       <set comment="band 11">
        <r>  0.0000  0.0104  0.0012  0.0173  0.0116  0.1726  0.0434  0.1034  0.6750 </r>
       </set>
       <set comment="band 12">
        <r>  0.0000  0.0089  0.0181  0.0019  0.1801  0.0191  0.6750  0.0883  0.0434 </r>
       </set>
      </set>
      <set comment="kpoint 60">
       <set comment="band 1">
        <r>  0.1755  0.0102  0.0102  0.0096  0.2015  0.2772  0.0000  0.2015  0.0000 </r>
       </set>
       <set comment="band 2">
        <r>  0.0002  0.0563  0.0563  0.0277  0.0064  0.0521  0.1671  0.0064  0.5014 </r>
       </set>
       <set comment="band 3">
        <r>  0.0009  0.0728  0.0728  0.1016  0.1493  0.3216  0.0018  0.1493  0.0055 </r>
       </set>
       <set comment="band 4">
        <r>  0.0000  0.0015  0.0015  0.0000  0.1827  0.0000  0.4466  0.1827  0.1489 </r>
       </set>
       <set comment="band 5">
        <r>  0.0000  0.0002  0.0002  0.0000  0.3091  0.0000  0.2781  0.3091  0.0927 </r>
       </set>
       <set comment="band 6">
        <r>  0.0075  0.0891  0.0891  0.0867  0.0326  0.2533  0.0738  0.0326  0.2215 </r>
       </set>
       <set comment="band 7">
        <r>  0.3896  0.0000  0.0000  0.0426  0.1647  0.1465  0.0005  0.1647  0.0016 </r>
       </set>
       <set comment="band 8">
        <r>  0.0289  0.0090  0.0090  0.1721  0.0410  0.0457  0.0532  0.0410  0.1597 </r>
       </set>
       <set comment="band 9">
        <r>  0.0000  0.2334  0.2334  0.0000  0.0197  0.0000  0.1896  0.0197  0.0632 </r>
       </set>
       <set comment="band 10">
        <r>  0.0702  0.0819  0.0819  0.1352  0.0058  0.0440  0.0000  0.0058  0.0001 </r>
       </set>
       <set comment="band 11">
        <r>  0.0000  0.0584  0.0584  0.0000  0.1762  0.0000  0.3125  0.1762  0.1042 </r>
       </set>
       <set comment="band 12">
        <r>  0.0541  0.0002  0.0002  0.0008  0.0000  0.2940  0.1013  0.0000  0.3040 </r>
       </set>
      </set>
     </set>
    </set>
   </array>
  </projected>
 </calculation>
 <structure name="finalpos" >
  <crystal>
   <varray name="basis" >
    <v>       0.00000000       1.75426756       1.75426756 </v>
    <v>       1.75426756       0.00000000       1.75426756 </v>
    <v>       1.75426756       1.75426756       0.00000000 </v>
   </varray>
   <i name="volume">     10.79735774 </i>
   <varray name="rec_basis" >
    <v>      -0.28501924       0.28501924       0.28501924 </v>
    <v>       0.28501924      -0.28501924       0.28501924 </v>
    <v>       0.28501924       0.28501924      -0.28501924 </v>
   </varray>
  </crystal>
  <varray name="positions" >
   <v>       0.00000000       0.00000000       0.00000000 </v>
  </varray>
 </structure>
</modeling>
