Co-fcc                                  
           1
     0.000000    1.755000    1.755000
     1.755000    0.000000    1.755000
     1.755000    1.755000    0.000000
   Co
     1
Direct configuration=     1
   0.00000000  0.00000000  0.00000000
Co-fcc                                  
           1
     0.000000    1.753245    1.753245
     1.753245    0.000000    1.753245
     1.753245    1.753245    0.000000
   Co
     1
Direct configuration=     2
   0.00000000  0.00000000  0.00000000
Co-fcc                                  
           1
     0.000000    1.754268    1.754268
     1.754268    0.000000    1.754268
     1.754268    1.754268    0.000000
   Co
     1
Direct configuration=     3
   0.00000000  0.00000000  0.00000000
