   1   1   0   0
  0.1529075E+02  0.2786001E-09  0.2786001E-09  0.2786001E-09  0.5000000E-15
  1.000000000000000E-004
  CAR 
 Pt-fcc                                  
     66.96172356    -46.32277996  301     11.78114220      1.00000000
    -46.323  0.0000E+00  0.0000E+00
    -45.945  0.0000E+00  0.0000E+00
    -45.568  0.0000E+00  0.0000E+00
    -45.190  0.0000E+00  0.0000E+00
    -44.812  0.0000E+00  0.0000E+00
    -44.435  0.0000E+00  0.0000E+00
    -44.057  0.0000E+00  0.0000E+00
    -43.679  0.0000E+00  0.0000E+00
    -43.302  0.0000E+00  0.0000E+00
    -42.924  0.0000E+00  0.0000E+00
    -42.547  0.0000E+00  0.0000E+00
    -42.169  0.0000E+00  0.0000E+00
    -41.791  0.0000E+00  0.0000E+00
    -41.414  0.2670E-11  0.1008E-11
    -41.036  0.4414E+01  0.1667E+01
    -40.659  0.1132E+02  0.6000E+01
    -40.281  0.0000E+00  0.6000E+01
    -39.903  0.0000E+00  0.6000E+01
    -39.526  0.0000E+00  0.6000E+01
    -39.148  0.0000E+00  0.6000E+01
    -38.770  0.0000E+00  0.6000E+01
    -38.393  0.0000E+00  0.6000E+01
    -38.015  0.0000E+00  0.6000E+01
    -37.638  0.0000E+00  0.6000E+01
    -37.260  0.0000E+00  0.6000E+01
    -36.882  0.0000E+00  0.6000E+01
    -36.505  0.0000E+00  0.6000E+01
    -36.127  0.0000E+00  0.6000E+01
    -35.750  0.0000E+00  0.6000E+01
    -35.372  0.0000E+00  0.6000E+01
    -34.994  0.0000E+00  0.6000E+01
    -34.617  0.0000E+00  0.6000E+01
    -34.239  0.0000E+00  0.6000E+01
    -33.861  0.0000E+00  0.6000E+01
    -33.484  0.0000E+00  0.6000E+01
    -33.106  0.0000E+00  0.6000E+01
    -32.729  0.0000E+00  0.6000E+01
    -32.351  0.0000E+00  0.6000E+01
    -31.973  0.0000E+00  0.6000E+01
    -31.596  0.0000E+00  0.6000E+01
    -31.218  0.0000E+00  0.6000E+01
    -30.841  0.0000E+00  0.6000E+01
    -30.463  0.0000E+00  0.6000E+01
    -30.085  0.0000E+00  0.6000E+01
    -29.708  0.0000E+00  0.6000E+01
    -29.330  0.0000E+00  0.6000E+01
    -28.952  0.0000E+00  0.6000E+01
    -28.575  0.0000E+00  0.6000E+01
    -28.197  0.0000E+00  0.6000E+01
    -27.820  0.0000E+00  0.6000E+01
    -27.442  0.0000E+00  0.6000E+01
    -27.064  0.0000E+00  0.6000E+01
    -26.687  0.0000E+00  0.6000E+01
    -26.309  0.0000E+00  0.6000E+01
    -25.932  0.0000E+00  0.6000E+01
    -25.554  0.0000E+00  0.6000E+01
    -25.176  0.0000E+00  0.6000E+01
    -24.799  0.0000E+00  0.6000E+01
    -24.421  0.0000E+00  0.6000E+01
    -24.043  0.0000E+00  0.6000E+01
    -23.666  0.0000E+00  0.6000E+01
    -23.288  0.0000E+00  0.6000E+01
    -22.911  0.0000E+00  0.6000E+01
    -22.533  0.0000E+00  0.6000E+01
    -22.155  0.0000E+00  0.6000E+01
    -21.778  0.0000E+00  0.6000E+01
    -21.400  0.0000E+00  0.6000E+01
    -21.023  0.0000E+00  0.6000E+01
    -20.645  0.0000E+00  0.6000E+01
    -20.267  0.0000E+00  0.6000E+01
    -19.890  0.0000E+00  0.6000E+01
    -19.512  0.0000E+00  0.6000E+01
    -19.134  0.0000E+00  0.6000E+01
    -18.757  0.0000E+00  0.6000E+01
    -18.379  0.0000E+00  0.6000E+01
    -18.002  0.0000E+00  0.6000E+01
    -17.624  0.0000E+00  0.6000E+01
    -17.246  0.0000E+00  0.6000E+01
    -16.869  0.0000E+00  0.6000E+01
    -16.491  0.0000E+00  0.6000E+01
    -16.114  0.0000E+00  0.6000E+01
    -15.736  0.0000E+00  0.6000E+01
    -15.358  0.0000E+00  0.6000E+01
    -14.981  0.0000E+00  0.6000E+01
    -14.603  0.0000E+00  0.6000E+01
    -14.226  0.0000E+00  0.6000E+01
    -13.848  0.0000E+00  0.6000E+01
    -13.470  0.0000E+00  0.6000E+01
    -13.093  0.0000E+00  0.6000E+01
    -12.715  0.0000E+00  0.6000E+01
    -12.337  0.0000E+00  0.6000E+01
    -11.960  0.0000E+00  0.6000E+01
    -11.582  0.0000E+00  0.6000E+01
    -11.205  0.0000E+00  0.6000E+01
    -10.827  0.0000E+00  0.6000E+01
    -10.449  0.0000E+00  0.6000E+01
    -10.072  0.0000E+00  0.6000E+01
     -9.694  0.0000E+00  0.6000E+01
     -9.317  0.0000E+00  0.6000E+01
     -8.939  0.0000E+00  0.6000E+01
     -8.561  0.0000E+00  0.6000E+01
     -8.184  0.0000E+00  0.6000E+01
     -7.806  0.0000E+00  0.6000E+01
     -7.428  0.0000E+00  0.6000E+01
     -7.051  0.0000E+00  0.6000E+01
     -6.673  0.0000E+00  0.6000E+01
     -6.296  0.0000E+00  0.6000E+01
     -5.918  0.0000E+00  0.6000E+01
     -5.540  0.0000E+00  0.6000E+01
     -5.163  0.0000E+00  0.6000E+01
     -4.785  0.0000E+00  0.6000E+01
     -4.408  0.0000E+00  0.6000E+01
     -4.030  0.0000E+00  0.6000E+01
     -3.652  0.0000E+00  0.6000E+01
     -3.275  0.0000E+00  0.6000E+01
     -2.897  0.0000E+00  0.6000E+01
     -2.519  0.0000E+00  0.6000E+01
     -2.142  0.0000E+00  0.6000E+01
     -1.764  0.0000E+00  0.6000E+01
     -1.387  0.0000E+00  0.6000E+01
     -1.009  0.0000E+00  0.6000E+01
     -0.631  0.0000E+00  0.6000E+01
     -0.254  0.0000E+00  0.6000E+01
      0.124  0.0000E+00  0.6000E+01
      0.501  0.0000E+00  0.6000E+01
      0.879  0.0000E+00  0.6000E+01
      1.257  0.0000E+00  0.6000E+01
      1.634  0.0000E+00  0.6000E+01
      2.012  0.1838E-16  0.6000E+01
      2.390  0.1645E+00  0.6062E+01
      2.767  0.0000E+00  0.6062E+01
      3.145  0.0000E+00  0.6062E+01
      3.522  0.2325E-08  0.6063E+01
      3.900  0.4965E+00  0.6250E+01
      4.278  0.4143E-12  0.6250E+01
      4.655  0.3783E+00  0.6393E+01
      5.033  0.5193E+00  0.6589E+01
      5.410  0.1254E+01  0.7062E+01
      5.788  0.7516E+00  0.7346E+01
      6.166  0.2234E+01  0.8190E+01
      6.543  0.5645E+00  0.8403E+01
      6.921  0.9183E+00  0.8750E+01
      7.299  0.1862E+01  0.9453E+01
      7.676  0.1921E+01  0.1023E+02
      8.054  0.1853E+00  0.1032E+02
      8.431  0.2937E+01  0.1143E+02
      8.809  0.1846E+01  0.1213E+02
      9.187  0.3307E+00  0.1225E+02
      9.564  0.2149E+01  0.1306E+02
      9.942  0.1192E+01  0.1351E+02
     10.319  0.2000E+01  0.1431E+02
     10.697  0.2500E+00  0.1441E+02
     11.075  0.1203E+01  0.1486E+02
     11.452  0.1280E+01  0.1540E+02
     11.830  0.2332E+01  0.1628E+02
     12.208  0.1088E+01  0.1669E+02
     12.585  0.0000E+00  0.1669E+02
     12.963  0.0000E+00  0.1669E+02
     13.340  0.0000E+00  0.1669E+02
     13.718  0.1201E+01  0.1714E+02
     14.096  0.2347E+00  0.1725E+02
     14.473  0.1678E-03  0.1725E+02
     14.851  0.4964E+00  0.1744E+02
     15.228  0.0000E+00  0.1744E+02
     15.606  0.3644E+00  0.1758E+02
     15.984  0.1321E+00  0.1762E+02
     16.361  0.0000E+00  0.1762E+02
     16.739  0.0000E+00  0.1762E+02
     17.117  0.9755E+00  0.1799E+02
     17.494  0.0000E+00  0.1800E+02
     17.872  0.4537E+00  0.1817E+02
     18.249  0.0000E+00  0.1819E+02
     18.627  0.4572E-04  0.1819E+02
     19.005  0.1489E+01  0.1875E+02
     19.382  0.0000E+00  0.1875E+02
     19.760  0.0000E+00  0.1875E+02
     20.137  0.0000E+00  0.1875E+02
     20.515  0.3660E+00  0.1889E+02
     20.893  0.3342E+00  0.1902E+02
     21.270  0.9500E+00  0.1938E+02
     21.648  0.0000E+00  0.1938E+02
     22.026  0.0000E+00  0.1938E+02
     22.403  0.0000E+00  0.1938E+02
     22.781  0.3619E-03  0.1938E+02
     23.158  0.9927E+00  0.1975E+02
     23.536  0.4957E+00  0.1994E+02
     23.914  0.4966E+00  0.2013E+02
     24.291  0.9930E+00  0.2050E+02
     24.669  0.4965E+00  0.2069E+02
     25.046  0.3544E-01  0.2070E+02
     25.424  0.9576E+00  0.2106E+02
     25.802  0.1020E-11  0.2106E+02
     26.179  0.9929E+00  0.2144E+02
     26.557  0.1936E-04  0.2144E+02
     26.935  0.1158E+01  0.2187E+02
     27.312  0.4857E+00  0.2206E+02
     27.690  0.6187E-01  0.2213E+02
     28.067  0.1986E+01  0.2287E+02
     28.445  0.0000E+00  0.2288E+02
     28.823  0.1706E-01  0.2288E+02
     29.200  0.6450E+00  0.2313E+02
     29.578  0.5317E+00  0.2333E+02
     29.955  0.1454E+01  0.2387E+02
     30.333  0.4951E+00  0.2406E+02
     30.711  0.0000E+00  0.2406E+02
     31.088  0.1086E+00  0.2410E+02
     31.466  0.8844E+00  0.2444E+02
     31.844  0.1174E-07  0.2444E+02
     32.221  0.1625E+01  0.2505E+02
     32.599  0.1021E+01  0.2544E+02
     32.976  0.1796E-06  0.2544E+02
     33.354  0.1019E+01  0.2582E+02
     33.732  0.4705E+00  0.2600E+02
     34.109  0.4959E+00  0.2619E+02
     34.487  0.0000E+00  0.2619E+02
     34.864  0.1135E-02  0.2619E+02
     35.242  0.4954E+00  0.2638E+02
     35.620  0.4964E+00  0.2656E+02
     35.997  0.1474E+01  0.2712E+02
     36.375  0.0000E+00  0.2712E+02
     36.753  0.1808E-10  0.2713E+02
     37.130  0.9931E+00  0.2750E+02
     37.508  0.2952E+00  0.2761E+02
     37.885  0.8588E+00  0.2794E+02
     38.263  0.9872E+00  0.2831E+02
     38.641  0.0000E+00  0.2831E+02
     39.018  0.5686E+00  0.2853E+02
     39.396  0.1733E+01  0.2918E+02
     39.773  0.6773E+00  0.2944E+02
     40.151  0.1422E+01  0.2997E+02
     40.529  0.1220E+01  0.3046E+02
     40.906  0.7658E+00  0.3075E+02
     41.284  0.9920E+00  0.3112E+02
     41.662  0.0000E+00  0.3112E+02
     42.039  0.5090E+00  0.3132E+02
     42.417  0.5162E+00  0.3151E+02
     42.794  0.1462E+01  0.3206E+02
     43.172  0.4917E+00  0.3225E+02
     43.550  0.9818E+00  0.3262E+02
     43.927  0.9870E+00  0.3300E+02
     44.305  0.0000E+00  0.3300E+02
     44.682  0.2310E+00  0.3309E+02
     45.060  0.1755E+01  0.3375E+02
     45.438  0.0000E+00  0.3375E+02
     45.815  0.4907E+00  0.3394E+02
     46.193  0.2390E-10  0.3394E+02
     46.571  0.1815E+01  0.3462E+02
     46.948  0.2410E+00  0.3472E+02
     47.326  0.5966E+00  0.3494E+02
     47.703  0.1480E+01  0.3550E+02
     48.081  0.2147E+01  0.3631E+02
     48.459  0.3018E+00  0.3645E+02
     48.836  0.1121E+01  0.3688E+02
     49.214  0.6614E+00  0.3712E+02
     49.591  0.1488E+01  0.3769E+02
     49.969  0.0000E+00  0.3769E+02
     50.347  0.8062E-02  0.3769E+02
     50.724  0.1959E+01  0.3843E+02
     51.102  0.4959E+00  0.3862E+02
     51.480  0.9413E+00  0.3898E+02
     51.857  0.1848E+01  0.3972E+02
     52.235  0.5877E+00  0.3994E+02
     52.612  0.5296E+01  0.4194E+02
     52.990  0.3299E+00  0.4206E+02
     53.368  0.6985E-01  0.4209E+02
     53.745  0.1420E+01  0.4262E+02
     54.123  0.6550E+00  0.4287E+02
     54.500  0.1324E+01  0.4338E+02
     54.878  0.4920E+00  0.4357E+02
     55.256  0.1483E+01  0.4413E+02
     55.633  0.4929E+00  0.4431E+02
     56.011  0.1477E+01  0.4487E+02
     56.389  0.4936E+00  0.4506E+02
     56.766  0.1983E+01  0.4581E+02
     57.144  0.0000E+00  0.4581E+02
     57.521  0.0000E+00  0.4581E+02
     57.899  0.6848E+00  0.4607E+02
     58.277  0.3083E+00  0.4619E+02
     58.654  0.5747E+00  0.4640E+02
     59.032  0.1837E+01  0.4710E+02
     59.409  0.1155E+01  0.4756E+02
     59.787  0.0000E+00  0.4756E+02
     60.165  0.1066E-14  0.4756E+02
     60.542  0.3331E+00  0.4769E+02
     60.920  0.3287E+00  0.4781E+02
     61.297  0.0000E+00  0.4781E+02
     61.675  0.2553E-04  0.4781E+02
     62.053  0.4965E+00  0.4800E+02
     62.430  0.0000E+00  0.4800E+02
     62.808  0.0000E+00  0.4800E+02
     63.186  0.0000E+00  0.4800E+02
     63.563  0.0000E+00  0.4800E+02
     63.941  0.0000E+00  0.4800E+02
     64.318  0.0000E+00  0.4800E+02
     64.696  0.0000E+00  0.4800E+02
     65.074  0.0000E+00  0.4800E+02
     65.451  0.0000E+00  0.4800E+02
     65.829  0.0000E+00  0.4800E+02
     66.206  0.0000E+00  0.4800E+02
     66.584  0.0000E+00  0.4800E+02
     66.962  0.0000E+00  0.4800E+02
