    1    1    1    1
  0.1529075E+02  0.2786001E-09  0.2786001E-09  0.2786001E-09  0.5000000E-15
  1.000000000000000E-004
  CAR 
 Pt-fcc                                  
     16     10     24
 
  0.1250000E+00  0.1250000E+00  0.1250000E+00  0.3125000E-01
      1        -40.821571   1.000000
      2        -40.764637   1.000000
      3        -40.764637   1.000000
      4          2.301388   1.000000
      5          7.809514   1.000000
      6          8.260467   1.000000
      7          8.260467   1.000000
      8         10.067664   1.000000
      9         10.067664   1.000000
     10         27.300752   0.000000
     11         28.879982   0.000000
     12         32.242621   0.000000
     13         32.242621   0.000000
     14         37.814234   0.000000
     15         40.582797   0.000000
     16         40.582797   0.000000
     17         40.727341   0.000000
     18         46.455570   0.000000
     19         46.455570   0.000000
     20         48.929763   0.000000
     21         52.406703   0.000000
     22         52.894662   0.000000
     23         52.894662   0.000000
     24         60.437150   0.000000
 
  0.3750000E+00  0.1250000E+00  0.1250000E+00  0.9375000E-01
      1        -41.037165   1.000000
      2        -40.849364   1.000000
      3        -40.792619   1.000000
      4          4.661604   1.000000
      5          7.468654   1.000000
      6          8.219260   1.000000
      7          8.707105   1.000000
      8          9.930824   1.000000
      9         11.729522   0.927861
     10         23.788629   0.000000
     11         27.918373   0.000000
     12         30.235491   0.000000
     13         33.411342   0.000000
     14         35.498502   0.000000
     15         38.169858   0.000000
     16         40.112272   0.000000
     17         42.470483   0.000000
     18         46.976678   0.000000
     19         47.863836   0.000000
     20         51.422445   0.000000
     21         52.412491   0.000000
     22         55.130553   0.000000
     23         56.299533   0.000000
     24         59.253907   0.000000
 
 -0.3750000E+00  0.1250000E+00  0.1250000E+00  0.9375000E-01
      1        -41.173484   1.000000
      2        -40.859524   1.000000
      3        -40.835360   1.000000
      4          5.035124   1.000000
      5          7.636424   1.000000
      6          8.424288   1.000000
      7          9.274973   1.000000
      8         11.828738   0.089116
      9         13.715579   0.000000
     10         17.823533   0.000000
     11         26.777510   0.000000
     12         29.716623   0.000000
     13         29.778723   0.000000
     14         39.019091   0.000000
     15         39.939894   0.000000
     16         42.054963   0.000000
     17         43.660107   0.000000
     18         48.083772   0.000000
     19         49.073650   0.000000
     20         51.442177   0.000000
     21         52.415851   0.000000
     22         54.193404   0.000000
     23         56.675245   0.000000
     24         58.993945   0.000000
 
 -0.1250000E+00  0.1250000E+00  0.1250000E+00  0.9375000E-01
      1        -40.937137   1.000000
      2        -40.806811   1.000000
      3        -40.799885   1.000000
      4          3.725406   1.000000
      5          7.145143   1.000000
      6          8.542498   1.000000
      7          8.823574   1.000000
      8          9.733501   1.000000
      9         10.696773   1.000000
     10         26.822034   0.000000
     11         28.897627   0.000000
     12         31.115748   0.000000
     13         32.237222   0.000000
     14         35.917992   0.000000
     15         37.499295   0.000000
     16         39.043876   0.000000
     17         42.877068   0.000000
     18         45.735232   0.000000
     19         47.948837   0.000000
     20         50.831281   0.000000
     21         51.711011   0.000000
     22         52.409682   0.000000
     23         56.618202   0.000000
     24         61.812428   0.000000
 
  0.3750000E+00  0.3750000E+00  0.1250000E+00  0.9375000E-01
      1        -41.067354   1.000000
      2        -40.878836   1.000000
      3        -40.866714   1.000000
      4          5.299682   1.000000
      5          6.243699   1.000000
      6          8.493139   1.000000
      7          9.914817   1.000000
      8         11.496187   1.000000
      9         11.557766   1.000000
     10         24.118220   0.000000
     11         27.286087   0.000000
     12         27.825986   0.000000
     13         31.331943   0.000000
     14         34.002314   0.000000
     15         39.276927   0.000000
     16         40.536184   0.000000
     17         44.685524   0.000000
     18         44.825317   0.000000
     19         49.497627   0.000000
     20         52.410051   0.000000
     21         54.059805   0.000000
     22         54.517698   0.000000
     23         55.167685   0.000000
     24         60.557049   0.000000
 
 -0.3750000E+00  0.3750000E+00  0.1250000E+00  0.1875000E+00
      1        -41.101488   1.000000
      2        -40.999631   1.000000
      3        -40.899180   1.000000
      4          6.025450   1.000000
      5          6.594150   1.000000
      6          8.127913   1.000000
      7         10.144998   1.000000
      8         11.816567   0.158178
      9         17.042181   0.000000
     10         18.765262   0.000000
     11         22.900215   0.000000
     12         25.110207   0.000000
     13         33.156263   0.000000
     14         36.986503   0.000000
     15         39.412556   0.000000
     16         42.540839   0.000000
     17         44.897644   0.000000
     18         46.425421   0.000000
     19         50.651547   0.000000
     20         51.841058   0.000000
     21         52.422337   0.000000
     22         53.618737   0.000000
     23         57.881478   0.000000
     24         58.647174   0.000000
 
 -0.1250000E+00  0.3750000E+00  0.1250000E+00  0.1875000E+00
      1        -41.104853   1.000000
      2        -40.921024   1.000000
      3        -40.843148   1.000000
      4          5.811184   1.000000
      5          7.257854   1.000000
      6          7.529406   1.000000
      7          9.393776   1.000000
      8         11.035720   1.000000
      9         13.661175   0.000000
     10         20.953260   0.000000
     11         26.050260   0.000000
     12         27.912564   0.000000
     13         32.122397   0.000000
     14         35.913685   0.000000
     15         40.401394   0.000000
     16         41.175658   0.000000
     17         43.474973   0.000000
     18         47.505645   0.000000
     19         49.451765   0.000000
     20         50.431642   0.000000
     21         52.414620   0.000000
     22         55.931576   0.000000
     23         56.648188   0.000000
     24         58.876889   0.000000
 
 -0.3750000E+00 -0.3750000E+00  0.1250000E+00  0.9375000E-01
      1        -41.147489   1.000000
      2        -40.942959   1.000000
      3        -40.908746   1.000000
      4          5.180402   1.000000
      5          5.637991   1.000000
      6         10.243495   1.000000
      7         11.104973   1.000000
      8         12.043067   0.000000
      9         14.593416   0.000000
     10         20.522787   0.000000
     11         23.431822   0.000000
     12         24.452728   0.000000
     13         32.265556   0.000000
     14         34.964711   0.000000
     15         39.910469   0.000000
     16         43.630203   0.000000
     17         46.489363   0.000000
     18         47.398184   0.000000
     19         48.723849   0.000000
     20         52.412094   0.000000
     21         53.405672   0.000000
     22         54.243259   0.000000
     23         54.954877   0.000000
     24         55.341905   0.000000
 
  0.3750000E+00  0.3750000E+00  0.3750000E+00  0.3125000E-01
      1        -41.136340   1.000000
      2        -40.810259   1.000000
      3        -40.810259   1.000000
      4          4.521775   1.000000
      5          8.144760   1.000000
      6          8.144760   1.000000
      7          9.351157   1.000000
      8         11.273633   1.000000
      9         11.273633   1.000000
     10         20.448565   0.000000
     11         26.686997   0.000000
     12         32.034048   0.000000
     13         32.034048   0.000000
     14         38.014731   0.000000
     15         38.182597   0.000000
     16         38.182597   0.000000
     17         46.955860   0.000000
     18         46.955860   0.000000
     19         48.679381   0.000000
     20         52.418419   0.000000
     21         53.988923   0.000000
     22         54.494448   0.000000
     23         54.494448   0.000000
     24         59.338540   0.000000
 
 -0.3750000E+00  0.3750000E+00  0.3750000E+00  0.9375000E-01
      1        -41.113823   1.000000
      2        -40.980036   1.000000
      3        -40.852252   1.000000
      4          5.989710   1.000000
      5          7.127043   1.000000
      6          8.171029   1.000000
      7          9.366610   1.000000
      8         11.179362   1.000000
      9         15.583992   0.000000
     10         18.890862   0.000000
     11         24.037053   0.000000
     12         29.423696   0.000000
     13         29.629811   0.000000
     14         37.782629   0.000000
     15         39.025249   0.000000
     16         42.020806   0.000000
     17         47.890993   0.000000
     18         48.043538   0.000000
     19         48.509150   0.000000
     20         51.525956   0.000000
     21         51.860151   0.000000
     22         52.421300   0.000000
     23         55.784358   0.000000
     24         59.165771   0.000000
