<?xml version="1.0" encoding="ISO-8859-1"?>
<modeling>
 <generator>
  <i name="program" type="string">vasp </i>
  <i name="version" type="string">6.3.2  </i>
  <i name="subversion" type="string">27Jun22 (build Aug 12 2022 00:53:59) complex                          parallel </i>
  <i name="platform" type="string">tv2STD </i>
  <i name="date" type="string">2024 11 30 </i>
  <i name="time" type="string">15:55:50 </i>
 </generator>
 <incar>
  <i type="string" name="SYSTEM">Pt-fcc</i>
  <i type="int" name="ISTART">     0</i>
  <i type="string" name="PREC">accurate      normal | accurate</i>
  <i type="string" name="ALGO">Normal     Normal, Fast, Very_Fast</i>
  <i type="logical" name="ADDGRID"> F  </i>
  <i type="int" name="ICHARG">     2</i>
  <i type="int" name="INIWAV">     1</i>
  <i type="int" name="NELM">   100</i>
  <i type="int" name="IBRION">    -1</i>
  <i name="EDIFF">      0.00000100</i>
  <i name="EDIFFG">     -0.02000000</i>
  <i type="int" name="NSW">     0</i>
  <i type="int" name="ISIF">     2</i>
  <i type="int" name="ISYM">     1</i>
  <i name="ENCUT">    425.00000000</i>
  <i type="logical" name="LREAL"> F  </i>
  <i type="int" name="ISMEAR">     0</i>
  <i name="SIGMA">      0.05000000</i>
  <i type="int" name="NWRITE">     2</i>
  <i type="logical" name="LWAVE"> F  </i>
  <i type="logical" name="LCHARG"> F  </i>
 </incar>
 <primitive_cell>
  <structure name="primitive_cell" >
   <crystal>
    <varray name="basis" >
     <v>       0.00000000       1.97000000       1.97000000 </v>
     <v>       1.97000000       0.00000000       1.97000000 </v>
     <v>       1.97000000       1.97000000       0.00000000 </v>
    </varray>
    <i name="volume">     15.29074600 </i>
    <varray name="rec_basis" >
     <v>      -0.25380711       0.25380711       0.25380711 </v>
     <v>       0.25380711      -0.25380711       0.25380711 </v>
     <v>       0.25380711       0.25380711      -0.25380711 </v>
    </varray>
   </crystal>
   <varray name="positions" >
    <v>       0.00000000       0.00000000       0.00000000 </v>
   </varray>
  </structure>
  <varray name="primitive_index" >
   <v type="int" >        1 </v>
  </varray>
 </primitive_cell>
 <kpoints>
  <generation param="Monkhorst-Pack">
   <v type="int" name="divisions">       4        4        4 </v>
   <v name="usershift">      0.00000000       0.00000000       0.00000000 </v>
   <v name="genvec1">      0.25000000       0.00000000       0.00000000 </v>
   <v name="genvec2">      0.00000000       0.25000000       0.00000000 </v>
   <v name="genvec3">      0.00000000       0.00000000       0.25000000 </v>
   <v name="shift">      0.50000000       0.50000000       0.50000000 </v>
  </generation>
  <varray name="kpointlist" >
   <v>       0.12500000       0.12500000       0.12500000 </v>
   <v>       0.37500000       0.12500000       0.12500000 </v>
   <v>      -0.37500000       0.12500000       0.12500000 </v>
   <v>      -0.12500000       0.12500000       0.12500000 </v>
   <v>       0.37500000       0.37500000       0.12500000 </v>
   <v>      -0.37500000       0.37500000       0.12500000 </v>
   <v>      -0.12500000       0.37500000       0.12500000 </v>
   <v>      -0.37500000      -0.37500000       0.12500000 </v>
   <v>       0.37500000       0.37500000       0.37500000 </v>
   <v>      -0.37500000       0.37500000       0.37500000 </v>
  </varray>
  <varray name="weights" >
   <v>       0.03125000 </v>
   <v>       0.09375000 </v>
   <v>       0.09375000 </v>
   <v>       0.09375000 </v>
   <v>       0.09375000 </v>
   <v>       0.18750000 </v>
   <v>       0.18750000 </v>
   <v>       0.09375000 </v>
   <v>       0.03125000 </v>
   <v>       0.09375000 </v>
  </varray>
 </kpoints>
 <parameters>
  <separator name="general" >
   <i type="string" name="SYSTEM">Pt-fcc</i>
   <i type="logical" name="LCOMPAT"> F  </i>
  </separator>
  <separator name="electronic" >
   <i type="string" name="PREC">accura</i>
   <i name="ENMAX">    425.00000000</i>
   <i name="ENAUG">    527.01400000</i>
   <i name="EDIFF">      0.00000100</i>
   <i type="int" name="IALGO">    38</i>
   <i type="int" name="IWAVPR">    10</i>
   <i type="int" name="NBANDS">    24</i>
   <i type="int" name="NBANDSLOW">    -1</i>
   <i type="int" name="NBANDSHIGH">    -1</i>
   <i name="NELECT">     16.00000000</i>
   <i type="int" name="TURBO">     0</i>
   <i type="int" name="IRESTART">     0</i>
   <i type="int" name="NREBOOT">     0</i>
   <i type="int" name="NMIN">     0</i>
   <i name="EREF">      0.00000000</i>
   <separator name="electronic smearing" >
    <i type="int" name="ISMEAR">     0</i>
    <i name="SIGMA">      0.05000000</i>
    <i name="KSPACING">      0.50000000</i>
    <i type="logical" name="KGAMMA"> T  </i>
    <i type="logical" name="KBLOWUP"> T  </i>
   </separator>
   <separator name="electronic projectors" >
    <i type="logical" name="LREAL"> F  </i>
    <v name="ROPT">      0.00000000</v>
    <i type="int" name="LMAXPAW">  -100</i>
    <i type="int" name="LMAXMIX">     2</i>
    <i type="logical" name="NLSPLINE"> F  </i>
   </separator>
   <separator name="electronic startup" >
    <i type="int" name="ISTART">     0</i>
    <i type="int" name="ICHARG">     2</i>
    <i type="int" name="INIWAV">     1</i>
   </separator>
   <separator name="electronic spin" >
    <i type="int" name="ISPIN">     1</i>
    <i type="logical" name="LNONCOLLINEAR"> F  </i>
    <v name="MAGMOM">      1.00000000</v>
    <i name="NUPDOWN">     -1.00000000</i>
    <i type="logical" name="LSORBIT"> F  </i>
    <v name="SAXIS">      0.00000000      0.00000000      1.00000000</v>
    <i type="logical" name="LSPIRAL"> F  </i>
    <v name="QSPIRAL">      0.00000000      0.00000000      0.00000000</v>
    <i type="logical" name="LZEROZ"> F  </i>
   </separator>
   <separator name="electronic exchange-correlation" >
    <i type="logical" name="LASPH"> F  </i>
    <i type="logical" name="LMETAGGA"> F  </i>
   </separator>
   <separator name="electronic convergence" >
    <i type="int" name="NELM">   100</i>
    <i type="int" name="NELMDL">    -5</i>
    <i type="int" name="NELMIN">     2</i>
    <i name="ENINI">    425.00000000</i>
    <separator name="electronic convergence detail" >
     <i type="logical" name="LDIAG"> T  </i>
     <i type="logical" name="LSUBROT"> F  </i>
     <i name="WEIMIN">      0.00000000</i>
     <i name="EBREAK">      0.00000001</i>
     <i name="DEPER">      0.30000000</i>
     <i type="int" name="NRMM">     4</i>
     <i name="TIME">      0.40000000</i>
    </separator>
   </separator>
   <separator name="electronic mixer" >
    <i name="AMIX">      0.40000000</i>
    <i name="BMIX">      1.00000000</i>
    <i name="AMIN">      0.10000000</i>
    <i name="AMIX_MAG">      1.60000000</i>
    <i name="BMIX_MAG">      1.00000000</i>
    <separator name="electronic mixer details" >
     <i type="int" name="IMIX">     4</i>
     <i type="logical" name="MIXFIRST"> F  </i>
     <i type="int" name="MAXMIX">   -45</i>
     <i name="WC">    100.00000000</i>
     <i type="int" name="INIMIX">     1</i>
     <i type="int" name="MIXPRE">     1</i>
     <i type="int" name="MREMOVE">     5</i>
    </separator>
   </separator>
   <separator name="electronic dipolcorrection" >
    <i type="logical" name="LDIPOL"> F  </i>
    <i type="logical" name="LMONO"> F  </i>
    <i type="int" name="IDIPOL">     0</i>
    <i name="EPSILON">      1.00000000</i>
    <v name="DIPOL">   -100.00000000   -100.00000000   -100.00000000</v>
    <i name="EFIELD">      0.00000000</i>
   </separator>
  </separator>
  <separator name="grids" >
   <i type="int" name="NGX">    20</i>
   <i type="int" name="NGY">    20</i>
   <i type="int" name="NGZ">    20</i>
   <i type="int" name="NGXF">    40</i>
   <i type="int" name="NGYF">    40</i>
   <i type="int" name="NGZF">    40</i>
   <i type="logical" name="ADDGRID"> F  </i>
  </separator>
  <separator name="ionic" >
   <i type="int" name="NSW">     0</i>
   <i type="int" name="IBRION">    -1</i>
   <i type="int" name="MDALGO">     0</i>
   <i type="int" name="ISIF">     2</i>
   <i name="PSTRESS">      0.00000000</i>
   <i name="EDIFFG">     -0.02000000</i>
   <i type="int" name="NFREE">     0</i>
   <i name="POTIM">      0.50000000</i>
   <i name="SMASS">     -3.00000000</i>
   <i name="SCALEE">      1.00000000</i>
  </separator>
  <separator name="ionic md" >
   <i name="TEBEG">      0.00010000</i>
   <i name="TEEND">      0.00010000</i>
   <i type="int" name="NBLOCK">     1</i>
   <i type="int" name="KBLOCK">     1</i>
   <i type="int" name="NPACO">   256</i>
   <i name="APACO">     10.00000000</i>
  </separator>
  <separator name="symmetry" >
   <i type="int" name="ISYM">     1</i>
   <i name="SYMPREC">      0.00001000</i>
  </separator>
  <separator name="dos" >
   <i type="int" name="LORBIT">     0</i>
   <v name="RWIGS">     -1.00000000</v>
   <i type="int" name="NEDOS">   301</i>
   <i name="EMIN">     10.00000000</i>
   <i name="EMAX">    -10.00000000</i>
   <i name="EFERMI">      0.00000000</i>
  </separator>
  <separator name="writing" >
   <i type="int" name="NWRITE">     2</i>
   <i type="logical" name="LWAVE"> F  </i>
   <i type="logical" name="LDOWNSAMPLE"> F  </i>
   <i type="logical" name="LCHARG"> F  </i>
   <i type="logical" name="LPARD"> F  </i>
   <i type="logical" name="LVTOT"> F  </i>
   <i type="logical" name="LVHAR"> F  </i>
   <i type="logical" name="LELF"> F  </i>
   <i type="logical" name="LOPTICS"> F  </i>
   <v name="STM">      0.00000000      0.00000000      0.00000000      0.00000000      0.00000000      0.00000000      0.00000000</v>
  </separator>
  <separator name="performance" >
   <i type="int" name="NPAR">    24</i>
   <i type="int" name="NSIM">     4</i>
   <i type="int" name="NBLK">    -1</i>
   <i type="logical" name="LPLANE"> T  </i>
   <i type="logical" name="LSCALAPACK"> T  </i>
   <i type="logical" name="LSCAAWARE"> T  </i>
   <i type="logical" name="LSCALU"> F  </i>
   <i type="logical" name="LASYNC"> F  </i>
   <i type="logical" name="LORBITALREAL"> F  </i>
  </separator>
  <separator name="miscellaneous" >
   <i type="int" name="IDIOT">     3</i>
   <i type="int" name="PHON_NSTRUCT">    -1</i>
   <i type="logical" name="LMUSIC"> F  </i>
   <v name="POMASS">    195.08000000</v>
   <v name="DARWINR">      0.00000000</v>
   <v name="DARWINV">      1.00000000</v>
   <i type="logical" name="LCORR"> T  </i>
  </separator>
  <i type="logical" name="GGA_COMPAT"> T  </i>
  <i type="logical" name="LBERRY"> F  </i>
  <i type="int" name="ICORELEVEL">     0</i>
  <i type="logical" name="LDAU"> F  </i>
  <i type="int" name="I_CONSTRAINED_M">     0</i>
  <separator name="electronic exchange-correlation" >
   <i type="string" name="GGA">--</i>
   <i type="int" name="VOSKOWN">     0</i>
   <i type="logical" name="LHFCALC"> F  </i>
   <i type="string" name="PRECFOCK"></i>
   <i type="logical" name="LSYMGRAD"> F  </i>
   <i type="logical" name="LHFONE"> F  </i>
   <i type="logical" name="LRHFCALC"> F  </i>
   <i type="logical" name="LTHOMAS"> F  </i>
   <i type="logical" name="LMODELHF"> F  </i>
   <i type="logical" name="LFOCKACE"> F  </i>
   <i name="ENCUT4O">     -1.00000000</i>
   <i type="int" name="EXXOEP">     0</i>
   <i type="int" name="FOURORBIT">     0</i>
   <i name="AEXX">      0.00000000</i>
   <i name="HFALPHA">      0.00000000</i>
   <i name="MCALPHA">      0.00000000</i>
   <i name="ALDAX">      1.00000000</i>
   <i name="AGGAX">      1.00000000</i>
   <i name="ALDAC">      1.00000000</i>
   <i name="AGGAC">      1.00000000</i>
   <i type="int" name="NKREDX">     1</i>
   <i type="int" name="NKREDY">     1</i>
   <i type="int" name="NKREDZ">     1</i>
   <i type="logical" name="SHIFTRED"> F  </i>
   <i type="logical" name="ODDONLY"> F  </i>
   <i type="logical" name="EVENONLY"> F  </i>
   <i type="int" name="LMAXFOCK">     0</i>
   <i type="int" name="NMAXFOCKAE">     0</i>
   <i type="logical" name="LFOCKAEDFT"> F  </i>
   <i name="HFSCREEN">      0.00000000</i>
   <i name="HFSCREENC">      0.00000000</i>
   <i type="int" name="NBANDSGWLOW">     0</i>
  </separator>
  <separator name="vdW DFT" >
   <i type="logical" name="LUSE_VDW"> F  </i>
   <i name="Zab_VDW">     -0.84910000</i>
   <i name="PARAM1">      0.12340000</i>
   <i name="PARAM2">      1.00000000</i>
   <i name="PARAM3">      0.00000000</i>
  </separator>
  <separator name="model GW" >
   <i type="int" name="MODEL_GW">     0</i>
   <i name="MODEL_EPS0">      9.17444760</i>
   <i name="MODEL_ALPHA">      1.00000000</i>
  </separator>
  <separator name="linear response parameters" >
   <i type="logical" name="LEPSILON"> F  </i>
   <i type="logical" name="LRPA"> F  </i>
   <i type="logical" name="LNABLA"> F  </i>
   <i type="logical" name="LVEL"> F  </i>
   <i name="CSHIFT">      0.10000000</i>
   <i name="OMEGAMAX">     -1.00000000</i>
   <i name="DEG_THRESHOLD">      0.00200000</i>
   <i name="RTIME">     -0.10000000</i>
   <i name="WPLASMAI">      0.00000000</i>
   <v name="DFIELD">      0.00000000      0.00000000      0.00000000</v>
   <v name="WPLASMA">      0.00000000      0.00000000      0.00000000      0.00000000      0.00000000      0.00000000      0.00000000      0.00000000      0.00000000</v>
  </separator>
  <separator name="orbital magnetization" >
   <i type="logical" name="NUCIND"> F  </i>
   <v name="MAGPOS">      0.00000000      0.00000000      0.00000000</v>
   <i type="logical" name="LNICSALL"> T  </i>
   <i type="logical" name="ORBITALMAG"> F  </i>
   <i type="logical" name="LMAGBLOCH"> F  </i>
   <i type="logical" name="LCHIMAG"> F  </i>
   <i type="logical" name="LGAUGE"> T  </i>
   <i type="int" name="MAGATOM">     0</i>
   <v name="MAGDIPOL">      0.00000000      0.00000000      0.00000000</v>
   <v name="AVECCONST">      0.00000000      0.00000000      0.00000000</v>
  </separator>
  <separator name="response functions" >
   <i type="logical" name="LFINITE_TEMPERATURE"> F  </i>
   <i type="logical" name="LADDER"> F  </i>
   <i type="logical" name="LRPAFORCE"> F  </i>
   <i type="logical" name="LFXC"> F  </i>
   <i type="logical" name="LHARTREE"> T  </i>
   <i type="int" name="IBSE">     0</i>
   <v type="int" name="KPOINT">    -1     0     0     0</v>
   <i type="logical" name="LTCTC"> F  </i>
   <i type="logical" name="LTCTE"> F  </i>
   <i type="logical" name="LTETE"> F  </i>
   <i type="logical" name="LTRIPLET"> F  </i>
   <i type="logical" name="LFXCEPS"> F  </i>
   <i type="logical" name="LFXHEG"> F  </i>
   <i type="int" name="NATURALO">     2</i>
   <i type="logical" name="LHOLEGF"> F  </i>
   <i type="logical" name="L2ORDER"> F  </i>
   <i type="logical" name="LDMP1"> F  </i>
   <i type="logical" name="LMP2LT"> F  </i>
   <i type="logical" name="LSMP2LT"> F  </i>
   <i type="logical" name="LGWLF"> F  </i>
   <i name="ENCUTGW">     -2.00000000</i>
   <i name="ENCUTGWSOFT">     -2.00000000</i>
   <i name="ENCUTLF">     -1.00000000</i>
   <i type="logical" name="LESF_SPLINES"> F  </i>
   <i type="int" name="LMAXMP2">    -1</i>
   <i name="SCISSOR">      0.00000000</i>
   <i type="int" name="NOMEGA">     0</i>
   <i type="int" name="NOMEGAR">     0</i>
   <i type="int" name="NBANDSGW">    -1</i>
   <i type="int" name="NBANDSO">    -1</i>
   <i type="int" name="NBANDSV">    -1</i>
   <i type="int" name="NELMGW">     1</i>
   <i type="int" name="NELMHF">     1</i>
   <i type="int" name="DIM">     3</i>
   <i type="int" name="IESPILON">     4</i>
   <i type="int" name="ANTIRES">     0</i>
   <i name="OMEGAMAX">    -30.00000000</i>
   <i name="OMEGAMIN">    -30.00000000</i>
   <i name="OMEGATL">   -200.00000000</i>
   <i type="int" name="OMEGAGRID">     0</i>
   <i name="CSHIFT">     -0.10000000</i>
   <i type="logical" name="LSELFENERGY"> F  </i>
   <i type="logical" name="LSPECTRAL"> F  </i>
   <i type="logical" name="LSPECTRALGW"> F  </i>
   <i type="logical" name="LSINGLES"> F  </i>
   <i type="logical" name="LFERMIGW"> F  </i>
   <i type="logical" name="ODDONLYGW"> F  </i>
   <i type="logical" name="EVENONLYGW"> F  </i>
   <i type="int" name="NKREDLFX">     1</i>
   <i type="int" name="NKREDLFY">     1</i>
   <i type="int" name="NKREDLFZ">     1</i>
   <i type="int" name="MAXMEM">  2800</i>
   <i type="int" name="TELESCOPE">     0</i>
   <i type="int" name="NTAUPAR">    -1</i>
   <i type="int" name="NOMEGAPAR">    -1</i>
   <i name="DAMP_NEWTON">      0.80000001</i>
   <i name="LAMBDA">      1.00000000</i>
  </separator>
  <separator name="External order field" >
   <i name="OFIELD_KAPPA">      0.00000000</i>
   <v name="OFIELD_K">      0.00000000      0.00000000      0.00000000</v>
   <i name="OFIELD_Q6_NEAR">      0.00000000</i>
   <i name="OFIELD_Q6_FAR">      0.00000000</i>
   <i name="OFIELD_A">      0.00000000</i>
  </separator>
  <separator name="optional k-points parameters" >
   <i type="int" name="KPOINTS_OPT_MODE">     1</i>
   <i type="logical" name="LKPOINTS_OPT"> F  </i>
  </separator>
 </parameters>
 <atominfo>
  <atoms>       1 </atoms>
  <types>       1 </types>
  <array name="atoms" >
   <dimension dim="1">ion</dimension>
   <field type="string">element</field>
   <field type="int">atomtype</field>
   <set>
    <rc><c>Pt</c><c>   1</c></rc>
   </set>
  </array>
  <array name="atomtypes" >
   <dimension dim="1">type</dimension>
   <field type="int">atomspertype</field>
   <field type="string">element</field>
   <field>mass</field>
   <field>valence</field>
   <field type="string">pseudopotential</field>
   <set>
    <rc><c>   1</c><c>Pt</c><c>    195.08000000</c><c>     16.00000000</c><c>  PAW_PBE Pt_pv 12Dec2005               </c></rc>
   </set>
  </array>
 </atominfo>
 <structure name="initialpos" >
  <crystal>
   <varray name="basis" >
    <v>       0.00000000       1.97000000       1.97000000 </v>
    <v>       1.97000000       0.00000000       1.97000000 </v>
    <v>       1.97000000       1.97000000       0.00000000 </v>
   </varray>
   <i name="volume">     15.29074600 </i>
   <varray name="rec_basis" >
    <v>      -0.25380711       0.25380711       0.25380711 </v>
    <v>       0.25380711      -0.25380711       0.25380711 </v>
    <v>       0.25380711       0.25380711      -0.25380711 </v>
   </varray>
  </crystal>
  <varray name="positions" >
   <v>       0.00000000       0.00000000       0.00000000 </v>
  </varray>
 </structure>
 <calculation>
  <scstep>
   <time name="dav">    0.05    0.05</time>
   <time name="total">    0.05    0.05</time>
   <energy>
    <i name="alphaZ">    156.91311333 </i>
    <i name="ewald">  -2144.84590610 </i>
    <i name="hartreedc">   -397.82488157 </i>
    <i name="XCdc">     63.81680431 </i>
    <i name="pawpsdc">   2065.75261637 </i>
    <i name="pawaedc">  -2030.83594803 </i>
    <i name="eentropy">     -0.00241035 </i>
    <i name="bandstr">   -122.99461861 </i>
    <i name="atom">   2428.19501064 </i>
    <i name="e_fr_energy">     18.17378000 </i>
    <i name="e_wo_entrp">     18.17619035 </i>
    <i name="e_0_energy">     18.17498518 </i>
   </energy>
  </scstep>
  <scstep>
   <time name="dav">    0.05    0.05</time>
   <time name="total">    0.05    0.06</time>
   <energy>
    <i name="e_fr_energy">     -6.38539509 </i>
    <i name="e_wo_entrp">     -6.38169083 </i>
    <i name="e_0_energy">     -6.38354296 </i>
   </energy>
  </scstep>
  <scstep>
   <time name="dav">    0.07    0.07</time>
   <time name="total">    0.07    0.07</time>
   <energy>
    <i name="e_fr_energy">     -6.43147756 </i>
    <i name="e_wo_entrp">     -6.42773993 </i>
    <i name="e_0_energy">     -6.42960874 </i>
   </energy>
  </scstep>
  <scstep>
   <time name="dav">    0.07    0.07</time>
   <time name="total">    0.07    0.07</time>
   <energy>
    <i name="e_fr_energy">     -6.43150829 </i>
    <i name="e_wo_entrp">     -6.42777062 </i>
    <i name="e_0_energy">     -6.42963946 </i>
   </energy>
  </scstep>
  <scstep>
   <time name="dav">    0.07    0.07</time>
   <time name="total">    0.08    0.08</time>
   <energy>
    <i name="e_fr_energy">     -6.43150829 </i>
    <i name="e_wo_entrp">     -6.42777062 </i>
    <i name="e_0_energy">     -6.42963946 </i>
   </energy>
  </scstep>
  <scstep>
   <time name="dav">    0.04    0.04</time>
   <time name="total">    0.05    0.05</time>
   <energy>
    <i name="e_fr_energy">     -6.07989965 </i>
    <i name="e_wo_entrp">     -6.07566492 </i>
    <i name="e_0_energy">     -6.07778228 </i>
   </energy>
  </scstep>
  <scstep>
   <time name="dav">    0.06    0.06</time>
   <time name="total">    0.07    0.07</time>
   <energy>
    <i name="e_fr_energy">     -6.05763117 </i>
    <i name="e_wo_entrp">     -6.05256148 </i>
    <i name="e_0_energy">     -6.05509632 </i>
   </energy>
  </scstep>
  <scstep>
   <time name="dav">    0.05    0.05</time>
   <time name="total">    0.06    0.06</time>
   <energy>
    <i name="e_fr_energy">     -6.05579065 </i>
    <i name="e_wo_entrp">     -6.05057622 </i>
    <i name="e_0_energy">     -6.05318343 </i>
   </energy>
  </scstep>
  <scstep>
   <time name="dav">    0.06    0.06</time>
   <time name="total">    0.07    0.07</time>
   <energy>
    <i name="e_fr_energy">     -6.05573082 </i>
    <i name="e_wo_entrp">     -6.05054315 </i>
    <i name="e_0_energy">     -6.05313698 </i>
   </energy>
  </scstep>
  <scstep>
   <time name="dav">    0.07    0.07</time>
   <time name="total">    0.08    0.08</time>
   <energy>
    <i name="e_fr_energy">     -6.05573898 </i>
    <i name="e_wo_entrp">     -6.05055764 </i>
    <i name="e_0_energy">     -6.05314831 </i>
   </energy>
  </scstep>
  <scstep>
   <time name="dav">    0.02    0.02</time>
   <time name="total">    0.03    0.03</time>
   <energy>
    <i name="alphaZ">    156.91311333 </i>
    <i name="ewald">  -2144.84590610 </i>
    <i name="hartreedc">   -377.70338581 </i>
    <i name="XCdc">     62.92802007 </i>
    <i name="pawpsdc">   2342.89527527 </i>
    <i name="pawaedc">  -2310.82316383 </i>
    <i name="eentropy">     -0.00518131 </i>
    <i name="bandstr">   -163.60952103 </i>
    <i name="atom">   2428.19501064 </i>
    <i name="e_fr_energy">     -6.05573876 </i>
    <i name="e_wo_entrp">     -6.05055746 </i>
    <i name="e_0_energy">     -6.05314811 </i>
   </energy>
  </scstep>
  <structure>
   <crystal>
    <varray name="basis" >
     <v>       0.00000000       1.97000000       1.97000000 </v>
     <v>       1.97000000       0.00000000       1.97000000 </v>
     <v>       1.97000000       1.97000000       0.00000000 </v>
    </varray>
    <i name="volume">     15.29074600 </i>
    <varray name="rec_basis" >
     <v>      -0.25380711       0.25380711       0.25380711 </v>
     <v>       0.25380711      -0.25380711       0.25380711 </v>
     <v>       0.25380711       0.25380711      -0.25380711 </v>
    </varray>
   </crystal>
   <varray name="positions" >
    <v>       0.00000000       0.00000000       0.00000000 </v>
   </varray>
  </structure>
  <varray name="forces" >
   <v>       0.00000000       0.00000000       0.00000000 </v>
  </varray>
  <varray name="stress" >
   <v>      33.44080199       0.00000000      -0.00000000 </v>
   <v>      -0.00000000      33.44080199      -0.00000000 </v>
   <v>       0.00000000       0.00000000      33.44080199 </v>
  </varray>
  <energy>
   <i name="e_fr_energy">     -6.05573876 </i>
   <i name="e_wo_entrp">     -6.05055746 </i>
   <i name="e_0_energy">     -6.05314811 </i>
  </energy>
  <time name="totalsc">    0.71    0.72</time>
  <eigenvalues>
   <array>
    <dimension dim="1">band</dimension>
    <dimension dim="2">kpoint</dimension>
    <dimension dim="3">spin</dimension>
    <field>eigene</field>
    <field>occ</field>
    <set>
     <set comment="spin 1">
      <set comment="kpoint 1">
       <r>  -40.8216    1.0000 </r>
       <r>  -40.7646    1.0000 </r>
       <r>  -40.7646    1.0000 </r>
       <r>    2.3014    1.0000 </r>
       <r>    7.8095    1.0000 </r>
       <r>    8.2605    1.0000 </r>
       <r>    8.2605    1.0000 </r>
       <r>   10.0677    1.0000 </r>
       <r>   10.0677    1.0000 </r>
       <r>   27.3008    0.0000 </r>
       <r>   28.8800    0.0000 </r>
       <r>   32.2426    0.0000 </r>
       <r>   32.2426    0.0000 </r>
       <r>   37.8142    0.0000 </r>
       <r>   40.5828    0.0000 </r>
       <r>   40.5828    0.0000 </r>
       <r>   40.7273    0.0000 </r>
       <r>   46.4556    0.0000 </r>
       <r>   46.4556    0.0000 </r>
       <r>   48.9298    0.0000 </r>
       <r>   52.4067    0.0000 </r>
       <r>   52.8947    0.0000 </r>
       <r>   52.8947    0.0000 </r>
       <r>   60.4371    0.0000 </r>
      </set>
      <set comment="kpoint 2">
       <r>  -41.0372    1.0000 </r>
       <r>  -40.8494    1.0000 </r>
       <r>  -40.7926    1.0000 </r>
       <r>    4.6616    1.0000 </r>
       <r>    7.4687    1.0000 </r>
       <r>    8.2193    1.0000 </r>
       <r>    8.7071    1.0000 </r>
       <r>    9.9308    1.0000 </r>
       <r>   11.7295    0.9279 </r>
       <r>   23.7886    0.0000 </r>
       <r>   27.9184    0.0000 </r>
       <r>   30.2355    0.0000 </r>
       <r>   33.4113    0.0000 </r>
       <r>   35.4985    0.0000 </r>
       <r>   38.1699    0.0000 </r>
       <r>   40.1123    0.0000 </r>
       <r>   42.4705    0.0000 </r>
       <r>   46.9767    0.0000 </r>
       <r>   47.8638    0.0000 </r>
       <r>   51.4224    0.0000 </r>
       <r>   52.4125    0.0000 </r>
       <r>   55.1306    0.0000 </r>
       <r>   56.2995    0.0000 </r>
       <r>   59.2539    0.0000 </r>
      </set>
      <set comment="kpoint 3">
       <r>  -41.1735    1.0000 </r>
       <r>  -40.8595    1.0000 </r>
       <r>  -40.8354    1.0000 </r>
       <r>    5.0351    1.0000 </r>
       <r>    7.6364    1.0000 </r>
       <r>    8.4243    1.0000 </r>
       <r>    9.2750    1.0000 </r>
       <r>   11.8287    0.0891 </r>
       <r>   13.7156    0.0000 </r>
       <r>   17.8235    0.0000 </r>
       <r>   26.7775    0.0000 </r>
       <r>   29.7166    0.0000 </r>
       <r>   29.7787    0.0000 </r>
       <r>   39.0191    0.0000 </r>
       <r>   39.9399    0.0000 </r>
       <r>   42.0550    0.0000 </r>
       <r>   43.6601    0.0000 </r>
       <r>   48.0838    0.0000 </r>
       <r>   49.0736    0.0000 </r>
       <r>   51.4422    0.0000 </r>
       <r>   52.4159    0.0000 </r>
       <r>   54.1934    0.0000 </r>
       <r>   56.6752    0.0000 </r>
       <r>   58.9939    0.0000 </r>
      </set>
      <set comment="kpoint 4">
       <r>  -40.9371    1.0000 </r>
       <r>  -40.8068    1.0000 </r>
       <r>  -40.7999    1.0000 </r>
       <r>    3.7254    1.0000 </r>
       <r>    7.1451    1.0000 </r>
       <r>    8.5425    1.0000 </r>
       <r>    8.8236    1.0000 </r>
       <r>    9.7335    1.0000 </r>
       <r>   10.6968    1.0000 </r>
       <r>   26.8220    0.0000 </r>
       <r>   28.8976    0.0000 </r>
       <r>   31.1157    0.0000 </r>
       <r>   32.2372    0.0000 </r>
       <r>   35.9180    0.0000 </r>
       <r>   37.4993    0.0000 </r>
       <r>   39.0439    0.0000 </r>
       <r>   42.8771    0.0000 </r>
       <r>   45.7352    0.0000 </r>
       <r>   47.9488    0.0000 </r>
       <r>   50.8313    0.0000 </r>
       <r>   51.7110    0.0000 </r>
       <r>   52.4097    0.0000 </r>
       <r>   56.6182    0.0000 </r>
       <r>   61.8124    0.0000 </r>
      </set>
      <set comment="kpoint 5">
       <r>  -41.0674    1.0000 </r>
       <r>  -40.8788    1.0000 </r>
       <r>  -40.8667    1.0000 </r>
       <r>    5.2997    1.0000 </r>
       <r>    6.2437    1.0000 </r>
       <r>    8.4931    1.0000 </r>
       <r>    9.9148    1.0000 </r>
       <r>   11.4962    1.0000 </r>
       <r>   11.5578    1.0000 </r>
       <r>   24.1182    0.0000 </r>
       <r>   27.2861    0.0000 </r>
       <r>   27.8260    0.0000 </r>
       <r>   31.3319    0.0000 </r>
       <r>   34.0023    0.0000 </r>
       <r>   39.2769    0.0000 </r>
       <r>   40.5362    0.0000 </r>
       <r>   44.6855    0.0000 </r>
       <r>   44.8253    0.0000 </r>
       <r>   49.4976    0.0000 </r>
       <r>   52.4101    0.0000 </r>
       <r>   54.0598    0.0000 </r>
       <r>   54.5177    0.0000 </r>
       <r>   55.1677    0.0000 </r>
       <r>   60.5570    0.0000 </r>
      </set>
      <set comment="kpoint 6">
       <r>  -41.1015    1.0000 </r>
       <r>  -40.9996    1.0000 </r>
       <r>  -40.8992    1.0000 </r>
       <r>    6.0255    1.0000 </r>
       <r>    6.5941    1.0000 </r>
       <r>    8.1279    1.0000 </r>
       <r>   10.1450    1.0000 </r>
       <r>   11.8166    0.1582 </r>
       <r>   17.0422    0.0000 </r>
       <r>   18.7653    0.0000 </r>
       <r>   22.9002    0.0000 </r>
       <r>   25.1102    0.0000 </r>
       <r>   33.1563    0.0000 </r>
       <r>   36.9865    0.0000 </r>
       <r>   39.4126    0.0000 </r>
       <r>   42.5408    0.0000 </r>
       <r>   44.8976    0.0000 </r>
       <r>   46.4254    0.0000 </r>
       <r>   50.6515    0.0000 </r>
       <r>   51.8411    0.0000 </r>
       <r>   52.4223    0.0000 </r>
       <r>   53.6187    0.0000 </r>
       <r>   57.8815    0.0000 </r>
       <r>   58.6472    0.0000 </r>
      </set>
      <set comment="kpoint 7">
       <r>  -41.1049    1.0000 </r>
       <r>  -40.9210    1.0000 </r>
       <r>  -40.8431    1.0000 </r>
       <r>    5.8112    1.0000 </r>
       <r>    7.2579    1.0000 </r>
       <r>    7.5294    1.0000 </r>
       <r>    9.3938    1.0000 </r>
       <r>   11.0357    1.0000 </r>
       <r>   13.6612    0.0000 </r>
       <r>   20.9533    0.0000 </r>
       <r>   26.0503    0.0000 </r>
       <r>   27.9126    0.0000 </r>
       <r>   32.1224    0.0000 </r>
       <r>   35.9137    0.0000 </r>
       <r>   40.4014    0.0000 </r>
       <r>   41.1757    0.0000 </r>
       <r>   43.4750    0.0000 </r>
       <r>   47.5056    0.0000 </r>
       <r>   49.4518    0.0000 </r>
       <r>   50.4316    0.0000 </r>
       <r>   52.4146    0.0000 </r>
       <r>   55.9316    0.0000 </r>
       <r>   56.6482    0.0000 </r>
       <r>   58.8769    0.0000 </r>
      </set>
      <set comment="kpoint 8">
       <r>  -41.1475    1.0000 </r>
       <r>  -40.9430    1.0000 </r>
       <r>  -40.9087    1.0000 </r>
       <r>    5.1804    1.0000 </r>
       <r>    5.6380    1.0000 </r>
       <r>   10.2435    1.0000 </r>
       <r>   11.1050    1.0000 </r>
       <r>   12.0431    0.0000 </r>
       <r>   14.5934    0.0000 </r>
       <r>   20.5228    0.0000 </r>
       <r>   23.4318    0.0000 </r>
       <r>   24.4527    0.0000 </r>
       <r>   32.2656    0.0000 </r>
       <r>   34.9647    0.0000 </r>
       <r>   39.9105    0.0000 </r>
       <r>   43.6302    0.0000 </r>
       <r>   46.4894    0.0000 </r>
       <r>   47.3982    0.0000 </r>
       <r>   48.7238    0.0000 </r>
       <r>   52.4121    0.0000 </r>
       <r>   53.4057    0.0000 </r>
       <r>   54.2433    0.0000 </r>
       <r>   54.9549    0.0000 </r>
       <r>   55.3419    0.0000 </r>
      </set>
      <set comment="kpoint 9">
       <r>  -41.1363    1.0000 </r>
       <r>  -40.8103    1.0000 </r>
       <r>  -40.8103    1.0000 </r>
       <r>    4.5218    1.0000 </r>
       <r>    8.1448    1.0000 </r>
       <r>    8.1448    1.0000 </r>
       <r>    9.3512    1.0000 </r>
       <r>   11.2736    1.0000 </r>
       <r>   11.2736    1.0000 </r>
       <r>   20.4486    0.0000 </r>
       <r>   26.6870    0.0000 </r>
       <r>   32.0340    0.0000 </r>
       <r>   32.0340    0.0000 </r>
       <r>   38.0147    0.0000 </r>
       <r>   38.1826    0.0000 </r>
       <r>   38.1826    0.0000 </r>
       <r>   46.9559    0.0000 </r>
       <r>   46.9559    0.0000 </r>
       <r>   48.6794    0.0000 </r>
       <r>   52.4184    0.0000 </r>
       <r>   53.9889    0.0000 </r>
       <r>   54.4944    0.0000 </r>
       <r>   54.4944    0.0000 </r>
       <r>   59.3385    0.0000 </r>
      </set>
      <set comment="kpoint 10">
       <r>  -41.1138    1.0000 </r>
       <r>  -40.9800    1.0000 </r>
       <r>  -40.8523    1.0000 </r>
       <r>    5.9897    1.0000 </r>
       <r>    7.1270    1.0000 </r>
       <r>    8.1710    1.0000 </r>
       <r>    9.3666    1.0000 </r>
       <r>   11.1794    1.0000 </r>
       <r>   15.5840    0.0000 </r>
       <r>   18.8909    0.0000 </r>
       <r>   24.0371    0.0000 </r>
       <r>   29.4237    0.0000 </r>
       <r>   29.6298    0.0000 </r>
       <r>   37.7826    0.0000 </r>
       <r>   39.0252    0.0000 </r>
       <r>   42.0208    0.0000 </r>
       <r>   47.8910    0.0000 </r>
       <r>   48.0435    0.0000 </r>
       <r>   48.5091    0.0000 </r>
       <r>   51.5260    0.0000 </r>
       <r>   51.8602    0.0000 </r>
       <r>   52.4213    0.0000 </r>
       <r>   55.7844    0.0000 </r>
       <r>   59.1658    0.0000 </r>
      </set>
     </set>
    </set>
   </array>
  </eigenvalues>
  <separator name="orbital magnetization" >
   <v name="MAGDIPOLOUT">      0.00000000      0.00000000      0.00000000</v>
  </separator>
  <dos>
   <i name="efermi">     11.78114220 </i>
   <total>
    <array>
     <dimension dim="1">gridpoints</dimension>
     <dimension dim="2">spin</dimension>
     <field>energy</field>
     <field>total</field>
     <field>integrated</field>
     <set>
      <set comment="spin 1">
       <r>   -46.3228     0.0000     0.0000 </r>
       <r>   -45.9452     0.0000     0.0000 </r>
       <r>   -45.5675     0.0000     0.0000 </r>
       <r>   -45.1899     0.0000     0.0000 </r>
       <r>   -44.8123     0.0000     0.0000 </r>
       <r>   -44.4347     0.0000     0.0000 </r>
       <r>   -44.0571     0.0000     0.0000 </r>
       <r>   -43.6795     0.0000     0.0000 </r>
       <r>   -43.3019     0.0000     0.0000 </r>
       <r>   -42.9242     0.0000     0.0000 </r>
       <r>   -42.5466     0.0000     0.0000 </r>
       <r>   -42.1690     0.0000     0.0000 </r>
       <r>   -41.7914     0.0000     0.0000 </r>
       <r>   -41.4138     0.0000     0.0000 </r>
       <r>   -41.0362     4.4137     1.6667 </r>
       <r>   -40.6586    11.3154     5.9998 </r>
       <r>   -40.2809     0.0000     6.0000 </r>
       <r>   -39.9033     0.0000     6.0000 </r>
       <r>   -39.5257     0.0000     6.0000 </r>
       <r>   -39.1481     0.0000     6.0000 </r>
       <r>   -38.7705     0.0000     6.0000 </r>
       <r>   -38.3929     0.0000     6.0000 </r>
       <r>   -38.0152     0.0000     6.0000 </r>
       <r>   -37.6376     0.0000     6.0000 </r>
       <r>   -37.2600     0.0000     6.0000 </r>
       <r>   -36.8824     0.0000     6.0000 </r>
       <r>   -36.5048     0.0000     6.0000 </r>
       <r>   -36.1272     0.0000     6.0000 </r>
       <r>   -35.7496     0.0000     6.0000 </r>
       <r>   -35.3719     0.0000     6.0000 </r>
       <r>   -34.9943     0.0000     6.0000 </r>
       <r>   -34.6167     0.0000     6.0000 </r>
       <r>   -34.2391     0.0000     6.0000 </r>
       <r>   -33.8615     0.0000     6.0000 </r>
       <r>   -33.4839     0.0000     6.0000 </r>
       <r>   -33.1063     0.0000     6.0000 </r>
       <r>   -32.7286     0.0000     6.0000 </r>
       <r>   -32.3510     0.0000     6.0000 </r>
       <r>   -31.9734     0.0000     6.0000 </r>
       <r>   -31.5958     0.0000     6.0000 </r>
       <r>   -31.2182     0.0000     6.0000 </r>
       <r>   -30.8406     0.0000     6.0000 </r>
       <r>   -30.4629     0.0000     6.0000 </r>
       <r>   -30.0853     0.0000     6.0000 </r>
       <r>   -29.7077     0.0000     6.0000 </r>
       <r>   -29.3301     0.0000     6.0000 </r>
       <r>   -28.9525     0.0000     6.0000 </r>
       <r>   -28.5749     0.0000     6.0000 </r>
       <r>   -28.1973     0.0000     6.0000 </r>
       <r>   -27.8196     0.0000     6.0000 </r>
       <r>   -27.4420     0.0000     6.0000 </r>
       <r>   -27.0644     0.0000     6.0000 </r>
       <r>   -26.6868     0.0000     6.0000 </r>
       <r>   -26.3092     0.0000     6.0000 </r>
       <r>   -25.9316     0.0000     6.0000 </r>
       <r>   -25.5540     0.0000     6.0000 </r>
       <r>   -25.1763     0.0000     6.0000 </r>
       <r>   -24.7987     0.0000     6.0000 </r>
       <r>   -24.4211     0.0000     6.0000 </r>
       <r>   -24.0435     0.0000     6.0000 </r>
       <r>   -23.6659     0.0000     6.0000 </r>
       <r>   -23.2883     0.0000     6.0000 </r>
       <r>   -22.9106     0.0000     6.0000 </r>
       <r>   -22.5330     0.0000     6.0000 </r>
       <r>   -22.1554     0.0000     6.0000 </r>
       <r>   -21.7778     0.0000     6.0000 </r>
       <r>   -21.4002     0.0000     6.0000 </r>
       <r>   -21.0226     0.0000     6.0000 </r>
       <r>   -20.6450     0.0000     6.0000 </r>
       <r>   -20.2673     0.0000     6.0000 </r>
       <r>   -19.8897     0.0000     6.0000 </r>
       <r>   -19.5121     0.0000     6.0000 </r>
       <r>   -19.1345     0.0000     6.0000 </r>
       <r>   -18.7569     0.0000     6.0000 </r>
       <r>   -18.3793     0.0000     6.0000 </r>
       <r>   -18.0017     0.0000     6.0000 </r>
       <r>   -17.6240     0.0000     6.0000 </r>
       <r>   -17.2464     0.0000     6.0000 </r>
       <r>   -16.8688     0.0000     6.0000 </r>
       <r>   -16.4912     0.0000     6.0000 </r>
       <r>   -16.1136     0.0000     6.0000 </r>
       <r>   -15.7360     0.0000     6.0000 </r>
       <r>   -15.3583     0.0000     6.0000 </r>
       <r>   -14.9807     0.0000     6.0000 </r>
       <r>   -14.6031     0.0000     6.0000 </r>
       <r>   -14.2255     0.0000     6.0000 </r>
       <r>   -13.8479     0.0000     6.0000 </r>
       <r>   -13.4703     0.0000     6.0000 </r>
       <r>   -13.0927     0.0000     6.0000 </r>
       <r>   -12.7150     0.0000     6.0000 </r>
       <r>   -12.3374     0.0000     6.0000 </r>
       <r>   -11.9598     0.0000     6.0000 </r>
       <r>   -11.5822     0.0000     6.0000 </r>
       <r>   -11.2046     0.0000     6.0000 </r>
       <r>   -10.8270     0.0000     6.0000 </r>
       <r>   -10.4494     0.0000     6.0000 </r>
       <r>   -10.0717     0.0000     6.0000 </r>
       <r>    -9.6941     0.0000     6.0000 </r>
       <r>    -9.3165     0.0000     6.0000 </r>
       <r>    -8.9389     0.0000     6.0000 </r>
       <r>    -8.5613     0.0000     6.0000 </r>
       <r>    -8.1837     0.0000     6.0000 </r>
       <r>    -7.8060     0.0000     6.0000 </r>
       <r>    -7.4284     0.0000     6.0000 </r>
       <r>    -7.0508     0.0000     6.0000 </r>
       <r>    -6.6732     0.0000     6.0000 </r>
       <r>    -6.2956     0.0000     6.0000 </r>
       <r>    -5.9180     0.0000     6.0000 </r>
       <r>    -5.5404     0.0000     6.0000 </r>
       <r>    -5.1627     0.0000     6.0000 </r>
       <r>    -4.7851     0.0000     6.0000 </r>
       <r>    -4.4075     0.0000     6.0000 </r>
       <r>    -4.0299     0.0000     6.0000 </r>
       <r>    -3.6523     0.0000     6.0000 </r>
       <r>    -3.2747     0.0000     6.0000 </r>
       <r>    -2.8971     0.0000     6.0000 </r>
       <r>    -2.5194     0.0000     6.0000 </r>
       <r>    -2.1418     0.0000     6.0000 </r>
       <r>    -1.7642     0.0000     6.0000 </r>
       <r>    -1.3866     0.0000     6.0000 </r>
       <r>    -1.0090     0.0000     6.0000 </r>
       <r>    -0.6314     0.0000     6.0000 </r>
       <r>    -0.2537     0.0000     6.0000 </r>
       <r>     0.1239     0.0000     6.0000 </r>
       <r>     0.5015     0.0000     6.0000 </r>
       <r>     0.8791     0.0000     6.0000 </r>
       <r>     1.2567     0.0000     6.0000 </r>
       <r>     1.6343     0.0000     6.0000 </r>
       <r>     2.0119     0.0000     6.0000 </r>
       <r>     2.3896     0.1645     6.0621 </r>
       <r>     2.7672     0.0000     6.0625 </r>
       <r>     3.1448     0.0000     6.0625 </r>
       <r>     3.5224     0.0000     6.0625 </r>
       <r>     3.9000     0.4965     6.2500 </r>
       <r>     4.2776     0.0000     6.2500 </r>
       <r>     4.6552     0.3783     6.3929 </r>
       <r>     5.0329     0.5193     6.5890 </r>
       <r>     5.4105     1.2536     7.0623 </r>
       <r>     5.7881     0.7516     7.3463 </r>
       <r>     6.1657     2.2344     8.1901 </r>
       <r>     6.5433     0.5645     8.4032 </r>
       <r>     6.9209     0.9183     8.7500 </r>
       <r>     7.2986     1.8622     9.4532 </r>
       <r>     7.6762     1.9214    10.2255 </r>
       <r>     8.0538     0.1853    10.3200 </r>
       <r>     8.4314     2.9367    11.4289 </r>
       <r>     8.8090     1.8458    12.1259 </r>
       <r>     9.1866     0.3307    12.2512 </r>
       <r>     9.5642     2.1486    13.0625 </r>
       <r>     9.9419     1.1919    13.5126 </r>
       <r>    10.3195     2.0002    14.3095 </r>
       <r>    10.6971     0.2500    14.4069 </r>
       <r>    11.0747     1.2035    14.8614 </r>
       <r>    11.4523     1.2800    15.3954 </r>
       <r>    11.8299     2.3322    16.2761 </r>
       <r>    12.2075     1.0884    16.6875 </r>
       <r>    12.5852     0.0000    16.6875 </r>
       <r>    12.9628     0.0000    16.6875 </r>
       <r>    13.3404     0.0000    16.6875 </r>
       <r>    13.7180     1.2013    17.1411 </r>
       <r>    14.0956     0.2347    17.2500 </r>
       <r>    14.4732     0.0002    17.2501 </r>
       <r>    14.8509     0.4964    17.4375 </r>
       <r>    15.2285     0.0000    17.4375 </r>
       <r>    15.6061     0.3644    17.5751 </r>
       <r>    15.9837     0.1321    17.6250 </r>
       <r>    16.3613     0.0000    17.6250 </r>
       <r>    16.7389     0.0000    17.6250 </r>
       <r>    17.1165     0.9755    17.9934 </r>
       <r>    17.4942     0.0000    18.0000 </r>
       <r>    17.8718     0.4537    18.1713 </r>
       <r>    18.2494     0.0000    18.1875 </r>
       <r>    18.6270     0.0000    18.1875 </r>
       <r>    19.0046     1.4892    18.7499 </r>
       <r>    19.3822     0.0000    18.7500 </r>
       <r>    19.7598     0.0000    18.7500 </r>
       <r>    20.1375     0.0000    18.7500 </r>
       <r>    20.5151     0.3660    18.8882 </r>
       <r>    20.8927     0.3342    19.0163 </r>
       <r>    21.2703     0.9500    19.3750 </r>
       <r>    21.6479     0.0000    19.3750 </r>
       <r>    22.0255     0.0000    19.3750 </r>
       <r>    22.4032     0.0000    19.3750 </r>
       <r>    22.7808     0.0004    19.3751 </r>
       <r>    23.1584     0.9927    19.7500 </r>
       <r>    23.5360     0.4957    19.9372 </r>
       <r>    23.9136     0.4966    20.1250 </r>
       <r>    24.2912     0.9930    20.5000 </r>
       <r>    24.6688     0.4965    20.6875 </r>
       <r>    25.0465     0.0354    20.7009 </r>
       <r>    25.4241     0.9576    21.0625 </r>
       <r>    25.8017     0.0000    21.0625 </r>
       <r>    26.1793     0.9929    21.4375 </r>
       <r>    26.5569     0.0000    21.4375 </r>
       <r>    26.9345     1.1582    21.8749 </r>
       <r>    27.3121     0.4857    22.0584 </r>
       <r>    27.6898     0.0619    22.1250 </r>
       <r>    28.0674     1.9861    22.8750 </r>
       <r>    28.4450     0.0000    22.8750 </r>
       <r>    28.8226     0.0171    22.8814 </r>
       <r>    29.2002     0.6450    23.1250 </r>
       <r>    29.5778     0.5317    23.3258 </r>
       <r>    29.9555     1.4544    23.8750 </r>
       <r>    30.3331     0.4951    24.0620 </r>
       <r>    30.7107     0.0000    24.0625 </r>
       <r>    31.0883     0.1086    24.1035 </r>
       <r>    31.4659     0.8844    24.4375 </r>
       <r>    31.8435     0.0000    24.4375 </r>
       <r>    32.2211     1.6246    25.0510 </r>
       <r>    32.5988     1.0211    25.4375 </r>
       <r>    32.9764     0.0000    25.4375 </r>
       <r>    33.3540     1.0191    25.8223 </r>
       <r>    33.7316     0.4705    26.0000 </r>
       <r>    34.1092     0.4959    26.1873 </r>
       <r>    34.4868     0.0000    26.1875 </r>
       <r>    34.8644     0.0011    26.1879 </r>
       <r>    35.2421     0.4954    26.3750 </r>
       <r>    35.6197     0.4964    26.5624 </r>
       <r>    35.9973     1.4745    27.1193 </r>
       <r>    36.3749     0.0000    27.1250 </r>
       <r>    36.7525     0.0000    27.1250 </r>
       <r>    37.1301     0.9931    27.5000 </r>
       <r>    37.5078     0.2952    27.6115 </r>
       <r>    37.8854     0.8588    27.9358 </r>
       <r>    38.2630     0.9872    28.3103 </r>
       <r>    38.6406     0.0000    28.3125 </r>
       <r>    39.0182     0.5686    28.5272 </r>
       <r>    39.3958     1.7332    29.1817 </r>
       <r>    39.7734     0.6773    29.4375 </r>
       <r>    40.1511     1.4219    29.9744 </r>
       <r>    40.5287     1.2202    30.4608 </r>
       <r>    40.9063     0.7658    30.7500 </r>
       <r>    41.2839     0.9920    31.1246 </r>
       <r>    41.6615     0.0000    31.1250 </r>
       <r>    42.0391     0.5090    31.3172 </r>
       <r>    42.4167     0.5162    31.5121 </r>
       <r>    42.7944     1.4623    32.0643 </r>
       <r>    43.1720     0.4917    32.2500 </r>
       <r>    43.5496     0.9818    32.6208 </r>
       <r>    43.9272     0.9870    33.0000 </r>
       <r>    44.3048     0.0000    33.0000 </r>
       <r>    44.6824     0.2310    33.0872 </r>
       <r>    45.0601     1.7551    33.7500 </r>
       <r>    45.4377     0.0000    33.7500 </r>
       <r>    45.8153     0.4907    33.9353 </r>
       <r>    46.1929     0.0000    33.9375 </r>
       <r>    46.5705     1.8150    34.6229 </r>
       <r>    46.9481     0.2410    34.7160 </r>
       <r>    47.3257     0.5966    34.9413 </r>
       <r>    47.7034     1.4796    35.5000 </r>
       <r>    48.0810     2.1468    36.3107 </r>
       <r>    48.4586     0.3018    36.4518 </r>
       <r>    48.8362     1.1210    36.8751 </r>
       <r>    49.2138     0.6614    37.1250 </r>
       <r>    49.5914     1.4876    37.6867 </r>
       <r>    49.9690     0.0000    37.6875 </r>
       <r>    50.3467     0.0081    37.6905 </r>
       <r>    50.7243     1.9590    38.4303 </r>
       <r>    51.1019     0.4959    38.6250 </r>
       <r>    51.4795     0.9413    38.9804 </r>
       <r>    51.8571     1.8480    39.7156 </r>
       <r>    52.2347     0.5877    39.9375 </r>
       <r>    52.6124     5.2964    41.9375 </r>
       <r>    52.9900     0.3299    42.0621 </r>
       <r>    53.3676     0.0698    42.0889 </r>
       <r>    53.7452     1.4196    42.6249 </r>
       <r>    54.1228     0.6550    42.8724 </r>
       <r>    54.5004     1.3245    43.3795 </r>
       <r>    54.8780     0.4920    43.5653 </r>
       <r>    55.2557     1.4826    44.1251 </r>
       <r>    55.6333     0.4929    44.3125 </r>
       <r>    56.0109     1.4773    44.8703 </r>
       <r>    56.3885     0.4936    45.0614 </r>
       <r>    56.7661     1.9832    45.8114 </r>
       <r>    57.1437     0.0000    45.8125 </r>
       <r>    57.5213     0.0000    45.8125 </r>
       <r>    57.8990     0.6848    46.0711 </r>
       <r>    58.2766     0.3083    46.1875 </r>
       <r>    58.6542     0.5747    46.4045 </r>
       <r>    59.0318     1.8375    47.0984 </r>
       <r>    59.4094     1.1548    47.5611 </r>
       <r>    59.7870     0.0000    47.5625 </r>
       <r>    60.1647     0.0000    47.5625 </r>
       <r>    60.5423     0.3331    47.6883 </r>
       <r>    60.9199     0.3287    47.8125 </r>
       <r>    61.2975     0.0000    47.8125 </r>
       <r>    61.6751     0.0000    47.8125 </r>
       <r>    62.0527     0.4965    48.0000 </r>
       <r>    62.4303     0.0000    48.0000 </r>
       <r>    62.8080     0.0000    48.0000 </r>
       <r>    63.1856     0.0000    48.0000 </r>
       <r>    63.5632     0.0000    48.0000 </r>
       <r>    63.9408     0.0000    48.0000 </r>
       <r>    64.3184     0.0000    48.0000 </r>
       <r>    64.6960     0.0000    48.0000 </r>
       <r>    65.0736     0.0000    48.0000 </r>
       <r>    65.4513     0.0000    48.0000 </r>
       <r>    65.8289     0.0000    48.0000 </r>
       <r>    66.2065     0.0000    48.0000 </r>
       <r>    66.5841     0.0000    48.0000 </r>
       <r>    66.9617     0.0000    48.0000 </r>
      </set>
     </set>
    </array>
   </total>
  </dos>
 </calculation>
 <structure name="finalpos" >
  <crystal>
   <varray name="basis" >
    <v>       0.00000000       1.97000000       1.97000000 </v>
    <v>       1.97000000       0.00000000       1.97000000 </v>
    <v>       1.97000000       1.97000000       0.00000000 </v>
   </varray>
   <i name="volume">     15.29074600 </i>
   <varray name="rec_basis" >
    <v>      -0.25380711       0.25380711       0.25380711 </v>
    <v>       0.25380711      -0.25380711       0.25380711 </v>
    <v>       0.25380711       0.25380711      -0.25380711 </v>
   </varray>
  </crystal>
  <varray name="positions" >
   <v>       0.00000000       0.00000000       0.00000000 </v>
  </varray>
 </structure>
</modeling>
