    1    1    1    2
  0.1081089E+02  0.2481945E-09  0.2481945E-09  0.2481945E-09  0.5000000E-15
  1.000000000000000E-004
  CAR 
 Co fcc                                  
      9     28     12
 
  0.8333333E-01  0.8333333E-01  0.8333333E-01  0.9259259E-02
      1          1.643856        1.659173   1.000000   1.000000
      2          7.589515        9.190660   1.000000   1.000000
      3          7.729664        9.361226   1.000000   1.000000
      4          7.729664        9.361226   1.000000   1.000000
      5          8.708593       10.684600   1.000000  -0.032257
      6          8.708593       10.684600   1.000000  -0.032257
      7         32.711604       32.585488   0.000000   0.000000
      8         35.442494       35.480431   0.000000   0.000000
      9         37.404172       37.626674   0.000000   0.000000
     10         37.404172       37.626674   0.000000   0.000000
     11         41.761525       41.927628   0.000000   0.000000
     12         41.761572       41.992936   0.000000   0.000000
 
  0.2500000E+00  0.8333333E-01  0.8333333E-01  0.2777778E-01
      1          3.016670        3.055788   1.000000   1.000000
      2          7.271087        8.765196   1.000000   1.000000
      3          7.881176        9.549834   1.000000   1.000000
      4          7.971882        9.650183   1.000000   1.000001
      5          8.507287       10.421138   1.000000   0.441659
      6          8.984526       10.923549   1.000000  -0.000800
      7         28.021691       28.348421   0.000000   0.000000
      8         31.480416       31.640869   0.000000   0.000000
      9         36.605670       36.602971   0.000000   0.000000
     10         39.039534       39.237381   0.000000   0.000000
     11         39.537821       39.517408   0.000000   0.000000
     12         41.093027       41.384805   0.000000   0.000000
 
  0.4166667E+00  0.8333333E-01  0.8333333E-01  0.2777778E-01
      1          5.051369        5.565397   1.000000   1.000000
      2          7.589898        8.752763   1.000000   1.000000
      3          7.756564        9.285522   1.000000   1.000000
      4          7.823924        9.498198   1.000000   1.000000
      5          9.151636       11.035649   1.000000  -0.000041
      6          9.953134       11.718163   1.003029  -0.000000
      7         20.263090       20.915457   0.000000   0.000000
      8         30.589347       30.695689   0.000000   0.000000
      9         34.381659       34.429247   0.000000   0.000000
     10         36.439462       36.783436   0.000000   0.000000
     11         38.948276       39.240853   0.000000   0.000000
     12         40.456431       40.612150   0.000000   0.000000
 
 -0.4166667E+00  0.8333333E-01  0.8333333E-01  0.2777778E-01
      1          5.318868        6.258249   1.000000   1.000000
      2          7.413844        9.028796   1.000000   1.000000
      3          7.664960        9.393233   1.000000   1.000000
      4          8.678902        9.575754   1.000000   1.000000
      5          9.629821       11.575340   1.000000  -0.000000
      6         11.120062       12.239575  -0.000003  -0.000000
      7         16.799180       17.780013   0.000000   0.000000
      8         30.996949       30.913525   0.000000   0.000000
      9         33.533217       33.866176   0.000000   0.000000
     10         33.921643       34.167746   0.000000   0.000000
     11         40.031323       40.256179   0.000000   0.000000
     12         40.059033       40.295417   0.000000   0.000000
 
 -0.2500000E+00  0.8333333E-01  0.8333333E-01  0.2777778E-01
      1          4.540659        4.778497   1.000000   1.000000
      2          7.316556        8.542608   1.000000   1.000000
      3          7.685853        9.398710   1.000000   1.000000
      4          7.888122        9.610188   1.000000   1.000000
      5          9.197478       10.973929   1.000000  -0.000230
      6          9.287110       11.229910   1.000000  -0.000000
      7         22.669835       23.198073   0.000000   0.000000
      8         32.295676       32.172560   0.000000   0.000000
      9         33.060447       33.419024   0.000000   0.000000
     10         36.322530       36.658634   0.000000   0.000000
     11         40.027620       40.180808   0.000000   0.000000
     12         42.564565       42.735944   0.000000   0.000000
 
 -0.8333333E-01  0.8333333E-01  0.8333333E-01  0.2777778E-01
      1          2.353744        2.376220   1.000000   1.000000
      2          7.350053        8.900178   1.000000   1.000000
      3          7.904713        9.554983   1.000000   1.000000
      4          7.914430        9.564968   1.000000   1.000000
      5          8.504194       10.424488   1.000000   0.427628
      6          8.838783       10.822988   1.000000  -0.006156
      7         30.736702       30.921041   0.000000   0.000000
      8         33.760586       33.701686   0.000000   0.000000
      9         34.502878       34.833392   0.000000   0.000000
     10         37.192988       37.248560   0.000000   0.000000
     11         41.345687       41.604781   0.000000   0.000000
     12         43.668070       44.189465   0.000000   0.000000
 
  0.2500000E+00  0.2500000E+00  0.8333333E-01  0.2777778E-01
      1          3.627176        3.698324   1.000000   1.000000
      2          6.919128        8.390868   1.000000   1.000000
      3          7.963457        9.694782   1.000000   1.000003
      4          8.266386        9.959981   1.000000   1.003460
      5          8.581749       10.314765   1.000000   0.848955
      6          9.066310       11.061890   1.000000  -0.000019
      7         28.503062       28.823219   0.000000   0.000000
      8         31.494351       31.839769   0.000000   0.000000
      9         32.001222       32.027711   0.000000   0.000000
     10         34.126852       34.285135   0.000000   0.000000
     11         39.081338       39.726837   0.000000   0.000000
     12         45.182483       45.193766   0.000000   0.000000
 
  0.4166667E+00  0.2500000E+00  0.8333333E-01  0.5555556E-01
      1          5.351015        5.763075   1.000000   1.000000
      2          6.623321        7.977178   1.000000   1.000000
      3          7.539123        9.100392   1.000000   1.000000
      4          8.549675       10.329234   1.000000   0.804125
      5          9.172055       10.989327   1.000000  -0.000153
      6         10.290700       11.947227   0.912273  -0.000000
      7         23.616280       24.074327   0.000000   0.000000
      8         27.103972       27.425058   0.000000   0.000000
      9         29.576829       29.891792   0.000000   0.000000
     10         34.903232       35.092709   0.000000   0.000000
     11         39.886776       40.243910   0.000000   0.000000
     12         44.144681       44.375408   0.000000   0.000000
 
 -0.4166667E+00  0.2500000E+00  0.8333333E-01  0.5555556E-01
      1          6.034981        7.116294   1.000000   1.000000
      2          6.734316        8.028457   1.000000   1.000000
      3          7.617157        8.917940   1.000000   1.000000
      4          8.256286       10.057900   1.000000   1.016546
      5          9.582854       11.490947   1.000000  -0.000000
      6         13.682275       14.566556  -0.000000  -0.000000
      7         17.238217       18.051399   0.000000   0.000000
      8         26.146968       26.503527   0.000000   0.000000
      9         28.096591       28.458422   0.000000   0.000000
     10         35.021500       35.154182   0.000000   0.000000
     11         41.467426       41.640038   0.000000   0.000000
     12         47.073448       47.183653   0.000000   0.000000
 
 -0.2500000E+00  0.2500000E+00  0.8333333E-01  0.5555556E-01
      1          5.937522        6.533918   1.000000   1.000000
      2          6.960723        8.236157   1.000000   1.000000
      3          7.162631        8.718487   1.000000   1.000000
      4          8.327761       10.140678   1.000000   1.033901
      5          9.060866       10.870016   1.000000  -0.002557
      6         11.486345       12.931953  -0.000000  -0.000000
      7         21.190076       21.758478   0.000000   0.000000
      8         25.009002       25.406110   0.000000   0.000000
      9         30.617705       30.900737   0.000000   0.000000
     10         36.868429       36.995116   0.000000   0.000000
     11         39.908687       40.021663   0.000000   0.000000
     12         45.247215       45.603280   0.000000   0.000000
 
 -0.8333333E-01  0.2500000E+00  0.8333333E-01  0.5555556E-01
      1          4.187045        4.299523   1.000000   1.000000
      2          6.997699        8.417941   1.000000   1.000000
      3          7.723742        9.419442   1.000000   1.000000
      4          8.179347        9.912087   1.000000   1.001287
      5          8.655116       10.463062   1.000000   0.273964
      6          9.442468       11.332201   1.000000  -0.000000
      7         25.624871       26.039869   0.000000   0.000000
      8         29.145978       29.414696   0.000000   0.000000
      9         34.188014       34.301053   0.000000   0.000000
     10         36.574850       36.729507   0.000000   0.000000
     11         40.944885       41.180688   0.000000   0.000000
     12         41.808264       42.103277   0.000000   0.000000
 
  0.4166667E+00  0.4166667E+00  0.8333333E-01  0.2777778E-01
      1          5.293848        6.224481   1.000000   1.000000
      2          6.040483        7.372208   1.000000   1.000000
      3          8.879065       10.149732   1.000000   1.034894
      4          9.164802       11.057744   1.000000  -0.000021
      5          9.609084       11.573659   1.000000  -0.000000
      6         10.836510       11.989307  -0.004850  -0.000000
      7         24.067948       24.555245   0.000000   0.000000
      8         24.980711       25.343085   0.000000   0.000000
      9         26.855659       27.101176   0.000000   0.000000
     10         31.481785       31.812305   0.000000   0.000000
     11         35.801987       36.241946   0.000000   0.000000
     12         47.879451       51.423366   0.000000   0.000000
 
 -0.4166667E+00  0.4166667E+00  0.8333333E-01  0.5555556E-01
      1          5.568043        6.790049   1.000000   1.000000
      2          6.086983        7.372248   1.000000   1.000000
      3          8.425146        9.762967   1.000000   1.000026
      4          9.129158       11.100597   1.000000  -0.000005
      5          9.786586       11.663662   1.000052  -0.000000
      6         14.506586       15.149252  -0.000000  -0.000000
      7         20.680534       21.302131   0.000000   0.000000
      8         21.549914       22.076636   0.000000   0.000000
      9         24.921326       25.231159   0.000000   0.000000
     10         33.618820       33.872730   0.000000   0.000000
     11         38.796751       39.178727   0.000000   0.000000
     12         47.732007       48.317198   0.000000   0.000000
 
 -0.2500000E+00  0.4166667E+00  0.8333333E-01  0.5555556E-01
      1          6.303639        7.607233   1.000000   1.000000
      2          6.515344        7.674558   1.000000   1.000000
      3          7.415108        8.711851   1.000000   1.000000
      4          8.566308       10.449630   1.000000   0.325316
      5          9.500592       11.350100   1.000000  -0.000000
      6         15.420459       16.197019  -0.000000   0.000000
      7         17.705407       18.379851   0.000000   0.000000
      8         22.314112       22.862467   0.000000   0.000000
      9         27.324098       27.680271   0.000000   0.000000
     10         34.933288       35.102165   0.000000   0.000000
     11         43.353696       43.440704   0.000000   0.000000
     12         46.732485       47.388627   0.000000   0.000000
 
 -0.8333333E-01  0.4166667E+00  0.8333333E-01  0.5555556E-01
      1          5.559810        6.397677   1.000000   1.000000
      2          7.222303        8.576953   1.000000   1.000000
      3          7.797152        9.083507   1.000000   1.000000
      4          7.958025        9.675496   1.000000   1.000001
      5          9.467027       11.366747   1.000000  -0.000000
      6         11.363468       12.670321  -0.000000  -0.000000
      7         18.424020       19.183146   0.000000   0.000000
      8         28.826833       29.033974   0.000000   0.000000
      9         31.182038       31.470271   0.000000   0.000000
     10         35.275212       35.417150   0.000000   0.000000
     11         39.988490       40.222252   0.000000   0.000000
     12         43.453829       43.582368   0.000000   0.000000
 
 -0.4166667E+00 -0.4166667E+00  0.8333333E-01  0.2777778E-01
      1          5.214287        6.388501   1.000000   1.000000
      2          5.817361        7.116897   1.000000   1.000000
      3          9.410703       10.936449   1.000000  -0.000589
      4          9.421316       11.439744   1.000000  -0.000000
      5          9.811559       11.706278   1.000105  -0.000000
      6         13.013207       13.478285  -0.000000  -0.000000
      7         20.684444       21.488565   0.000000   0.000000
      8         23.896719       24.170455   0.000000   0.000000
      9         25.759841       25.952686   0.000000   0.000000
     10         31.216239       31.590048   0.000000   0.000000
     11         35.435373       35.869314   0.000000   0.000000
     12         48.120138       51.812650   0.000000   0.000000
 
 -0.2500000E+00 -0.4166667E+00  0.8333333E-01  0.5555556E-01
      1          5.683048        6.669806   1.000000   1.000000
      2          6.277030        7.588073   1.000000   1.000000
      3          7.935659        9.249244   1.000000   1.000000
      4          8.957360       10.823431   1.000000  -0.006109
      5          9.563588       11.452558   1.000000  -0.000000
      6         12.098018       13.230244  -0.000000  -0.000000
      7         22.059703       22.512126   0.000000   0.000000
      8         24.625410       25.085166   0.000000   0.000000
      9         25.924707       26.281667   0.000000   0.000000
     10         34.012062       34.238326   0.000000   0.000000
     11         39.113600       39.479781   0.000000   0.000000
     12         46.202305       46.497955   0.000000   0.000000
 
 -0.2500000E+00 -0.2500000E+00  0.8333333E-01  0.2777778E-01
      1          4.909411        5.263308   1.000000   1.000000
      2          6.439689        7.832027   1.000000   1.000000
      3          8.071028        9.554076   1.000000   1.000000
      4          8.726975       10.497412   1.000000   0.158294
      5          9.316489       10.939362   1.000000  -0.000549
      6          9.339351       11.336844   1.000000  -0.000000
      7         26.408177       26.759087   0.000000   0.000000
      8         28.653394       28.935837   0.000000   0.000000
      9         28.854632       29.163260   0.000000   0.000000
     10         32.156042       32.415891   0.000000   0.000000
     11         36.835788       37.334660   0.000000   0.000000
     12         47.848351       48.792469   0.000000   0.000000
 
  0.2500000E+00  0.2500000E+00  0.2500000E+00  0.9259259E-02
      1          3.587818        3.673465   1.000000   1.000000
      2          7.347780        8.718664   1.000000   1.000000
      3          7.847521        9.549963   1.000000   1.000000
      4          7.847521        9.549963   1.000000   1.000000
      5          8.882594       10.798295   1.000000  -0.009223
      6          8.882594       10.798295   1.000000  -0.009223
      7         25.116776       25.550608   0.000000   0.000000
      8         33.712597       33.465803   0.000000   0.000000
      9         36.075609       36.431312   0.000000   0.000000
     10         36.075609       36.431312   0.000000   0.000000
     11         41.345371       41.525731   0.000000   0.000000
     12         41.345371       41.525731   0.000000   0.000000
 
  0.4166667E+00  0.2500000E+00  0.2500000E+00  0.2777778E-01
      1          5.100883        5.357915   1.000000   1.000000
      2          7.066170        8.394841   1.000000   1.000000
      3          7.520545        9.155870   1.000000   1.000000
      4          8.100868        9.907433   1.000000   1.001161
      5          8.685225       10.484883   1.000000   0.197549
      6         10.220279       11.979515   1.017026  -0.000000
      7         23.181771       23.687666   0.000000   0.000000
      8         26.842383       27.183317   0.000000   0.000000
      9         35.132412       35.123701   0.000000   0.000000
     10         36.085149       36.427617   0.000000   0.000000
     11         40.336110       40.301507   0.000000   0.000000
     12         41.856133       42.134001   0.000000   0.000000
 
 -0.4166667E+00  0.2500000E+00  0.2500000E+00  0.2777778E-01
      1          6.270755        7.186825   1.000000   1.000000
      2          6.809902        8.188100   1.000000   1.000000
      3          7.317952        8.616082   1.000000   1.000000
      4          8.305549       10.157942   1.000000   1.035385
      5          9.191549       11.017378   1.000000  -0.000070
      6         13.124553       14.232789  -0.000000  -0.000000
      7         19.190244       19.841542   0.000000   0.000000
      8         23.369694       23.844177   0.000000   0.000000
      9         31.487464       31.843069   0.000000   0.000000
     10         33.092988       33.195765   0.000000   0.000000
     11         44.246742       44.223548   0.000000   0.000000
     12         44.659016       44.827682   0.000000   0.000000
 
 -0.2500000E+00  0.2500000E+00  0.2500000E+00  0.2777778E-01
      1          5.857152        6.918570   1.000000   1.000000
      2          6.496769        7.741379   1.000000   1.000000
      3          7.767331        9.085808   1.000000   1.000000
      4          8.495003       10.325366   1.000000   0.816583
      5          9.687562       11.629831   1.000002  -0.000000
      6         12.785983       13.818913  -0.000000  -0.000000
      7         19.192089       19.791308   0.000000   0.000000
      8         25.221791       25.653740   0.000000   0.000000
      9         28.789847       29.092763   0.000000   0.000000
     10         32.387002       32.623458   0.000000   0.000000
     11         42.852891       43.175985   0.000000   0.000000
     12         46.434431       46.590063   0.000000   0.000000
 
  0.4166667E+00  0.4166667E+00  0.2500000E+00  0.2777778E-01
      1          5.443252        6.042052   1.000000   1.000000
      2          6.959465        8.186797   1.000000   1.000000
      3          7.563266        9.096302   1.000000   1.000000
      4          8.123218        9.885208   1.000000   1.000697
      5          9.583384       11.542948   1.000000  -0.000000
      6         10.505859       11.952063   0.133926  -0.000000
      7         20.688534       21.278088   0.000000   0.000000
      8         29.484384       29.653306   0.000000   0.000000
      9         30.569393       30.901602   0.000000   0.000000
     10         33.246614       33.510865   0.000000   0.000000
     11         43.328664       43.436411   0.000000   0.000000
     12         44.073225       44.390022   0.000000   0.000000
 
 -0.4166667E+00  0.4166667E+00  0.2500000E+00  0.5555556E-01
      1          6.235829        7.303271   1.000000   1.000000
      2          6.639687        7.939030   1.000000   1.000000
      3          7.184344        8.512628   1.000000   1.000000
      4          8.639907       10.502679   1.000000   0.142896
      5          9.487977       11.333283   1.000000  -0.000000
      6         13.650161       14.646869  -0.000000  -0.000000
      7         19.680973       20.262356   0.000000   0.000000
      8         23.679684       24.117495   0.000000   0.000000
      9         25.938200       26.356610   0.000000   0.000000
     10         37.726250       37.844804   0.000000   0.000000
     11         40.169287       40.299405   0.000000   0.000000
     12         44.813213       45.390612   0.000000   0.000000
 
 -0.2500000E+00  0.4166667E+00  0.2500000E+00  0.5555556E-01
      1          6.031129        7.314972   1.000000   1.000000
      2          6.602244        7.868314   1.000000   1.000000
      3          7.410023        8.697647   1.000000   1.000000
      4          8.735851       10.639837   1.000000  -0.034811
      5          9.777686       11.647130   1.000040  -0.000000
      6         16.451548       17.104299   0.000000   0.000000
      7         18.758870       19.323432   0.000000   0.000000
      8         21.667937       22.270380   0.000000   0.000000
      9         23.328313       23.769427   0.000000   0.000000
     10         37.664043       37.811908   0.000000   0.000000
     11         42.110989       42.257697   0.000000   0.000000
     12         43.925228       44.241965   0.000000   0.000000
 
 -0.4166667E+00 -0.4166667E+00  0.2500000E+00  0.2777778E-01
      1          5.855531        7.143684   1.000000   1.000000
      2          6.282327        7.495192   1.000000   1.000000
      3          8.032639        9.328099   1.000000   1.000000
      4          8.848583       10.775194   1.000000  -0.012963
      5          9.615256       11.491005   1.000000  -0.000000
      6         15.562561       16.248652  -0.000000   0.000000
      7         18.199299       18.778034   0.000000   0.000000
      8         21.511575       22.158745   0.000000   0.000000
      9         27.858723       28.143658   0.000000   0.000000
     10         32.157417       32.422373   0.000000   0.000000
     11         42.527716       42.896608   0.000000   0.000000
     12         47.782192       48.408803   0.000000   0.000000
 
  0.4166667E+00  0.4166667E+00  0.4166667E+00  0.9259259E-02
      1          5.091662        5.871724   1.000000   1.000000
      2          7.593893        9.312442   1.000000   1.000000
      3          7.593893        9.312442   1.000000   1.000000
      4          9.149944        9.462442   1.000000   1.000000
      5          9.507940       11.442525   1.000000  -0.000000
      6          9.507940       11.442525   1.000000  -0.000000
      7         18.071818       18.907701   0.000000   0.000000
      8         32.274116       31.976268   0.000000   0.000000
      9         35.439591       35.777061   0.000000   0.000000
     10         35.439591       35.777061   0.000000   0.000000
     11         38.431096       38.709357   0.000000   0.000000
     12         38.431096       38.709357   0.000000   0.000000
 
 -0.4166667E+00  0.4166667E+00  0.4166667E+00  0.2777778E-01
      1          5.745839        6.744206   1.000000   1.000000
      2          7.079319        8.486155   1.000000   1.000000
      3          7.945095        9.136613   1.000000   1.000000
      4          7.955250        9.716893   1.000000   1.000006
      5          9.486779       11.395085   1.000000  -0.000000
      6         12.674480       13.654298  -0.000000  -0.000000
      7         17.001710       17.906229   0.000000   0.000000
      8         27.304746       27.602190   0.000000   0.000000
      9         32.172270       32.516268   0.000000   0.000000
     10         33.104768       33.181852   0.000000   0.000000
     11         42.278466       42.514354   0.000000   0.000000
     12         42.584626       42.684162   0.000000   0.000000
