Pt-fcc                                  
   1.00000000000000     
     0.000000    2.077791    2.077791
     2.077791    0.000000    2.077791
     2.077791    2.077791    0.000000
   Pt
     1
Direct
  0.000000  0.000000  0.000000
 
   40   40   40
  157.10      156.94      156.01      153.14      146.92      136.33      121.28      102.74      82.587      63.020    
  45.958      32.538      22.945      16.556      12.302      9.3922      7.4766      6.2624      5.5322      5.1449    
  5.0239      5.1449      5.5322      6.2624      7.4766      9.3922      12.302      16.556      22.945      32.538    
  45.958      63.020      82.587      102.74      121.28      136.33      146.92      153.14      156.01      156.94    
  156.94      156.39      154.47      149.85      141.31      128.30      111.27      91.716      71.728      53.405    
  38.276      26.970      19.215      14.107      10.619      8.2743      6.7588      5.8187      5.2785      5.0327    
  5.0327      5.2785      5.8187      6.7588      8.2743      10.619      14.107      19.215      26.970      38.276    
  53.405      71.728      91.716      111.27      128.30      141.31      149.85      154.47      156.39      156.94    
  156.01      154.47      150.75      143.65      132.38      116.99      98.536      78.833      59.966      43.689    
  30.994      21.967      15.950      11.901      9.1255      7.2959      6.1333      5.4318      5.0587      4.9418    
  5.0587      5.4318      6.1333      7.2959      9.1255      11.901      15.950      21.967      30.994      43.689    
  59.966      78.833      98.536      116.99      132.38      143.65      150.74      154.47      156.01      156.39    
  153.14      149.85      143.65      133.71      119.84      102.72      83.826      65.072      48.272      34.651    
  24.606      17.748      13.164      9.9891      7.8531      6.4666      5.6011      5.1006      4.8716      4.8716    
  5.1006      5.6012      6.4666      7.8531      9.9891      13.164      17.748      24.606      34.651      48.272    
  65.072      83.826      102.72      119.84      133.71      143.65      149.85      153.14      154.47      154.47    
  146.92      141.31      132.38      119.84      104.13      86.393      68.304      51.589      37.577      26.886    
  19.376      14.321      10.812      8.4010      6.8037      5.7799      5.1557      4.8206      4.7151      4.8206    
  5.1557      5.7799      6.8037      8.4010      10.812      14.321      19.376      26.886      37.577      51.589    
  68.304      86.393      104.13      119.84      132.38      141.31      146.92      149.85      150.74      149.85    
  136.33      128.30      116.99      102.72      86.393      69.409      53.329      39.466      28.566      20.686    
  15.290      11.536      8.9040      7.1252      5.9584      5.2200      4.7869      4.5867      4.5867      4.7869    
  5.2201      5.9584      7.1252      8.9040      11.536      15.290      20.686      28.566      39.466      53.329    
  69.409      86.393      102.72      116.99      128.30      136.33      141.31      143.65      143.65      141.31    
  121.28      111.27      98.536      83.826      68.304      53.329      40.119      29.457      21.537      15.993    
  12.102      9.3243      7.4085      6.1246      5.2877      4.7679      4.4842      4.3940      4.4842      4.7679    
  5.2877      6.1246      7.4085      9.3243      12.102      15.993      21.537      29.457      40.119      53.329    
  68.304      83.826      98.536      111.27      121.28      128.30      132.38      133.71      132.38      128.30    
  102.74      91.716      78.833      65.072      51.589      39.466      29.457      21.832      16.363      12.463    
  9.6272      7.6311      6.2652      5.3516      4.7599      4.4051      4.2384      4.2384      4.4051      4.7599    
  5.3516      6.2652      7.6311      9.6272      12.463      16.363      21.832      29.457      39.466      51.589    
  65.072      78.833      91.716      102.74      111.27      116.99      119.84      119.84      116.99      111.27    
  82.587      71.728      59.966      48.272      37.577      28.566      21.537      16.363      12.587      9.7858    
  7.7735      6.3674      5.4043      4.7591      4.3471      4.1171      4.0431      4.1171      4.3471      4.7591    
  5.4043      6.3675      7.7735      9.7858      12.587      16.363      21.537      28.566      37.577      48.272    
  59.966      71.728      82.587      91.716      98.536      102.72      104.13      102.72      98.536      91.716    
  63.020      53.405      43.689      34.651      26.886      20.686      15.993      12.463      9.7858      7.8225    
  6.4213      5.4391      4.7614      4.3078      4.0279      3.8938      3.8938      4.0279      4.3078      4.7614    
  5.4391      6.4213      7.8225      9.7858      12.463      15.993      20.686      26.886      34.651      43.689    
  53.405      63.020      71.728      78.833      83.826      86.393      86.393      83.826      78.833      71.728    
  45.958      38.276      30.994      24.606      19.376      15.290      12.102      9.6272      7.7735      6.4213    
  5.4512      4.7635      4.2853      3.9693      3.7883      3.7293      3.7883      3.9693      4.2852      4.7635    
  5.4512      6.4213      7.7735      9.6272      12.102      15.290      19.376      24.606      30.993      38.276    
  45.958      53.405      59.966      65.072      68.304      69.409      68.304      65.072      59.966      53.405    
  32.538      26.970      21.967      17.748      14.321      11.536      9.3243      7.6311      6.3674      5.4391    
  4.7635      4.2779      3.9402      3.7254      3.6205      3.6205      3.7254      3.9402      4.2779      4.7635    
  5.4391      6.3675      7.6311      9.3244      11.536      14.321      17.748      21.967      26.970      32.538    
  38.276      43.689      48.272      51.589      53.329      53.329      51.589      48.272      43.689      38.276    
  22.945      19.215      15.950      13.164      10.812      8.9040      7.4085      6.2652      5.4043      4.7614    
  4.2853      3.9402      3.7044      3.5663      3.5206      3.5663      3.7044      3.9402      4.2852      4.7614    
  5.4043      6.2652      7.4085      8.9040      10.812      13.164      15.950      19.215      22.945      26.970    
  30.993      34.651      37.577      39.466      40.119      39.466      37.577      34.651      30.994      26.970    
  16.556      14.107      11.901      9.9891      8.4010      7.1252      6.1246      5.3516      4.7591      4.3078    
  3.9693      3.7254      3.5663      3.4875      3.4875      3.5663      3.7254      3.9693      4.3078      4.7591    
  5.3516      6.1246      7.1252      8.4010      9.9891      11.901      14.107      16.556      19.215      21.967    
  24.606      26.886      28.566      29.457      29.457      28.566      26.886      24.606      21.967      19.215    
  12.302      10.619      9.1255      7.8531      6.8037      5.9584      5.2877      4.7599      4.3471      4.0279    
  3.7883      3.6205      3.5206      3.4875      3.5206      3.6205      3.7883      4.0279      4.3471      4.7599    
  5.2877      5.9584      6.8037      7.8531      9.1256      10.619      12.302      14.107      15.950      17.748    
  19.376      20.686      21.537      21.832      21.537      20.686      19.376      17.748      15.950      14.107    
  9.3922      8.2743      7.2959      6.4666      5.7799      5.2200      4.7679      4.4051      4.1171      3.8938    
  3.7293      3.6205      3.5663      3.5663      3.6205      3.7293      3.8938      4.1171      4.4051      4.7679    
  5.2201      5.7799      6.4666      7.2959      8.2743      9.3922      10.619      11.901      13.164      14.321    
  15.290      15.993      16.363      16.363      15.993      15.290      14.321      13.164      11.901      10.619    
  7.4766      6.7588      6.1333      5.6011      5.1557      4.7869      4.4842      4.2384      4.0431      3.8938    
  3.7883      3.7254      3.7044      3.7254      3.7883      3.8938      4.0431      4.2384      4.4842      4.7869    
  5.1557      5.6012      6.1333      6.7588      7.4766      8.2743      9.1256      9.9891      10.812      11.536    
  12.102      12.463      12.587      12.463      12.102      11.536      10.812      9.9891      9.1255      8.2743    
  6.2624      5.8187      5.4318      5.1006      4.8206      4.5867      4.3940      4.2384      4.1171      4.0279    
  3.9693      3.9402      3.9402      3.9693      4.0279      4.1171      4.2384      4.3940      4.5867      4.8206    
  5.1006      5.4318      5.8187      6.2624      6.7588      7.2959      7.8531      8.4010      8.9040      9.3244    
  9.6272      9.7858      9.7858      9.6272      9.3243      8.9040      8.4010      7.8531      7.2959      6.7588    
  5.5322      5.2785      5.0587      4.8716      4.7151      4.5867      4.4842      4.4051      4.3471      4.3078    
  4.2852      4.2779      4.2852      4.3078      4.3471      4.4051      4.4842      4.5867      4.7151      4.8716    
  5.0587      5.2785      5.5322      5.8187      6.1333      6.4666      6.8037      7.1252      7.4085      7.6311    
  7.7735      7.8225      7.7735      7.6311      7.4085      7.1252      6.8037      6.4666      6.1333      5.8187    
  5.1449      5.0327      4.9418      4.8716      4.8206      4.7869      4.7679      4.7599      4.7591      4.7614    
  4.7635      4.7635      4.7614      4.7591      4.7599      4.7679      4.7869      4.8206      4.8716      4.9418    
  5.0327      5.1449      5.2785      5.4318      5.6012      5.7799      5.9584      6.1246      6.2652      6.3675    
  6.4213      6.4213      6.3675      6.2652      6.1246      5.9584      5.7799      5.6012      5.4318      5.2785    
  5.0239      5.0327      5.0587      5.1006      5.1557      5.2201      5.2877      5.3516      5.4043      5.4391    
  5.4512      5.4391      5.4043      5.3516      5.2877      5.2201      5.1557      5.1006      5.0587      5.0327    
  5.0239      5.0327      5.0587      5.1006      5.1557      5.2201      5.2877      5.3516      5.4043      5.4391    
  5.4512      5.4391      5.4043      5.3516      5.2877      5.2201      5.1557      5.1006      5.0587      5.0327    
  5.1449      5.2785      5.4318      5.6012      5.7799      5.9584      6.1246      6.2652      6.3675      6.4213    
  6.4213      6.3675      6.2652      6.1246      5.9584      5.7799      5.6012      5.4318      5.2785      5.1449    
  5.0327      4.9418      4.8716      4.8206      4.7869      4.7679      4.7599      4.7591      4.7614      4.7635    
  4.7635      4.7614      4.7591      4.7599      4.7679      4.7869      4.8206      4.8716      4.9418      5.0327    
  5.5322      5.8187      6.1333      6.4666      6.8037      7.1252      7.4085      7.6311      7.7735      7.8225    
  7.7735      7.6311      7.4085      7.1252      6.8037      6.4666      6.1333      5.8187      5.5322      5.2785    
  5.0587      4.8716      4.7151      4.5867      4.4842      4.4051      4.3471      4.3078      4.2852      4.2779    
  4.2852      4.3078      4.3471      4.4051      4.4842      4.5867      4.7151      4.8716      5.0587      5.2785    
  6.2624      6.7588      7.2959      7.8531      8.4010      8.9040      9.3243      9.6272      9.7858      9.7858    
  9.6272      9.3244      8.9040      8.4010      7.8531      7.2959      6.7588      6.2624      5.8187      5.4318    
  5.1006      4.8206      4.5867      4.3940      4.2384      4.1171      4.0279      3.9693      3.9402      3.9402    
  3.9693      4.0279      4.1171      4.2384      4.3940      4.5867      4.8206      5.1006      5.4318      5.8187    
  7.4766      8.2743      9.1255      9.9891      10.812      11.536      12.102      12.463      12.587      12.463    
  12.102      11.536      10.812      9.9891      9.1256      8.2743      7.4766      6.7588      6.1333      5.6012    
  5.1557      4.7869      4.4842      4.2384      4.0431      3.8938      3.7883      3.7254      3.7044      3.7254    
  3.7883      3.8938      4.0431      4.2384      4.4842      4.7869      5.1557      5.6011      6.1333      6.7588    
  9.3922      10.619      11.901      13.164      14.321      15.290      15.993      16.363      16.363      15.993    
  15.290      14.321      13.164      11.901      10.619      9.3922      8.2743      7.2959      6.4666      5.7799    
  5.2201      4.7679      4.4051      4.1171      3.8938      3.7293      3.6205      3.5663      3.5663      3.6205    
  3.7293      3.8938      4.1171      4.4051      4.7679      5.2200      5.7799      6.4666      7.2959      8.2743    
  12.302      14.107      15.950      17.748      19.376      20.686      21.537      21.832      21.537      20.686    
  19.376      17.748      15.950      14.107      12.302      10.619      9.1256      7.8531      6.8037      5.9584    
  5.2877      4.7599      4.3471      4.0279      3.7883      3.6205      3.5206      3.4875      3.5206      3.6205    
  3.7883      4.0279      4.3471      4.7599      5.2877      5.9584      6.8037      7.8531      9.1255      10.619    
  16.556      19.215      21.967      24.606      26.886      28.566      29.457      29.457      28.566      26.886    
  24.606      21.967      19.215      16.556      14.107      11.901      9.9891      8.4010      7.1252      6.1246    
  5.3516      4.7591      4.3078      3.9693      3.7254      3.5663      3.4875      3.4875      3.5663      3.7254    
  3.9693      4.3078      4.7591      5.3516      6.1246      7.1252      8.4010      9.9891      11.901      14.107    
  22.945      26.970      30.994      34.651      37.577      39.466      40.119      39.466      37.577      34.651    
  30.993      26.970      22.945      19.215      15.950      13.164      10.812      8.9040      7.4085      6.2652    
  5.4043      4.7614      4.2852      3.9402      3.7044      3.5663      3.5206      3.5663      3.7044      3.9402    
  4.2853      4.7614      5.4043      6.2652      7.4085      8.9040      10.812      13.164      15.950      19.215    
  32.538      38.276      43.689      48.272      51.589      53.329      53.329      51.589      48.272      43.689    
  38.276      32.538      26.970      21.967      17.748      14.321      11.536      9.3244      7.6311      6.3675    
  5.4391      4.7635      4.2779      3.9402      3.7254      3.6205      3.6205      3.7254      3.9402      4.2779    
  4.7635      5.4391      6.3674      7.6311      9.3243      11.536      14.321      17.748      21.967      26.970    
  45.958      53.405      59.966      65.072      68.304      69.409      68.304      65.072      59.966      53.405    
  45.958      38.276      30.993      24.606      19.376      15.290      12.102      9.6272      7.7735      6.4213    
  5.4512      4.7635      4.2852      3.9693      3.7883      3.7293      3.7883      3.9693      4.2853      4.7635    
  5.4512      6.4213      7.7735      9.6272      12.102      15.290      19.376      24.606      30.994      38.276    
  63.020      71.728      78.833      83.826      86.393      86.393      83.826      78.833      71.728      63.020    
  53.405      43.689      34.651      26.886      20.686      15.993      12.463      9.7858      7.8225      6.4213    
  5.4391      4.7614      4.3078      4.0279      3.8938      3.8938      4.0279      4.3078      4.7614      5.4391    
  6.4213      7.8225      9.7858      12.463      15.993      20.686      26.886      34.651      43.689      53.405    
  82.587      91.716      98.536      102.72      104.13      102.72      98.536      91.716      82.587      71.728    
  59.966      48.272      37.577      28.566      21.537      16.363      12.587      9.7858      7.7735      6.3675    
  5.4043      4.7591      4.3471      4.1171      4.0431      4.1171      4.3471      4.7591      5.4043      6.3674    
  7.7735      9.7858      12.587      16.363      21.537      28.566      37.577      48.272      59.966      71.728    
  102.74      111.27      116.99      119.84      119.84      116.99      111.27      102.74      91.716      78.833    
  65.072      51.589      39.466      29.457      21.832      16.363      12.463      9.6272      7.6311      6.2652    
  5.3516      4.7599      4.4051      4.2384      4.2384      4.4051      4.7599      5.3516      6.2652      7.6311    
  9.6272      12.463      16.363      21.832      29.457      39.466      51.589      65.072      78.833      91.716    
  121.28      128.30      132.38      133.71      132.38      128.30      121.28      111.27      98.536      83.826    
  68.304      53.329      40.119      29.457      21.537      15.993      12.102      9.3243      7.4085      6.1246    
  5.2877      4.7679      4.4842      4.3940      4.4842      4.7679      5.2877      6.1246      7.4085      9.3243    
  12.102      15.993      21.537      29.457      40.119      53.329      68.304      83.826      98.536      111.27    
  136.33      141.31      143.65      143.65      141.31      136.33      128.30      116.99      102.72      86.393    
  69.409      53.329      39.466      28.566      20.686      15.290      11.536      8.9040      7.1252      5.9584    
  5.2201      4.7869      4.5867      4.5867      4.7869      5.2200      5.9584      7.1252      8.9040      11.536    
  15.290      20.686      28.566      39.466      53.329      69.409      86.393      102.72      116.99      128.30    
  146.92      149.85      150.74      149.85      146.92      141.31      132.38      119.84      104.13      86.393    
  68.304      51.589      37.577      26.886      19.376      14.321      10.812      8.4010      6.8037      5.7799    
  5.1557      4.8206      4.7151      4.8206      5.1557      5.7799      6.8037      8.4010      10.812      14.321    
  19.376      26.886      37.577      51.589      68.304      86.393      104.13      119.84      132.38      141.31    
  153.14      154.47      154.47      153.14      149.85      143.65      133.71      119.84      102.72      83.826    
  65.072      48.272      34.651      24.606      17.748      13.164      9.9891      7.8531      6.4666      5.6012    
  5.1006      4.8716      4.8716      5.1006      5.6011      6.4666      7.8531      9.9891      13.164      17.748    
  24.606      34.651      48.272      65.072      83.826      102.72      119.84      133.71      143.65      149.85    
  156.01      156.39      156.01      154.47      150.74      143.65      132.38      116.99      98.536      78.833    
  59.966      43.689      30.994      21.967      15.950      11.901      9.1255      7.2959      6.1333      5.4318    
  5.0587      4.9418      5.0587      5.4318      6.1333      7.2959      9.1255      11.901      15.950      21.967    
  30.994      43.689      59.966      78.833      98.536      116.99      132.38      143.65      150.75      154.47    
  156.94      156.94      156.39      154.47      149.85      141.31      128.30      111.27      91.716      71.728    
  53.405      38.276      26.970      19.215      14.107      10.619      8.2743      6.7588      5.8187      5.2785    
  5.0327      5.0327      5.2785      5.8187      6.7588      8.2743      10.619      14.107      19.215      26.970    
  38.276      53.405      71.728      91.716      111.27      128.30      141.31      149.85      154.47      156.39    
  156.94      156.39      154.47      149.85      141.31      128.30      111.27      91.716      71.728      53.405    
  38.276      26.970      19.215      14.107      10.619      8.2743      6.7588      5.8187      5.2785      5.0327    
  5.0327      5.2785      5.8187      6.7588      8.2743      10.619      14.107      19.215      26.970      38.276    
  53.405      71.728      91.716      111.27      128.30      141.31      149.85      154.47      156.39      156.94    
  156.39      154.98      151.45      144.55      133.44      118.14      99.671      79.861      60.817      44.333    
  31.439      22.252      16.129      12.022      9.2079      7.3534      6.1759      5.4662      5.0890      4.9709    
  5.0890      5.4662      6.1759      7.3534      9.2079      12.022      16.129      22.252      31.439      44.333    
  60.817      79.861      99.671      118.14      133.44      144.55      151.45      154.98      156.39      156.73    
  154.47      151.45      145.55      135.89      122.19      105.06      85.984      66.907      49.703      35.674    
  25.280      18.171      13.441      10.178      7.9831      6.5599      5.6733      5.1616      4.9279      4.9279    
  5.1616      5.6733      6.5599      7.9831      10.178      13.441      18.171      25.280      35.674      49.703    
  66.907      85.984      105.06      122.19      135.89      145.55      151.45      154.47      155.65      155.65    
  149.85      144.55      135.89      123.52      107.76      89.762      71.209      53.904      39.275      28.035    
  20.106      14.788      11.131      8.6183      6.9561      5.8936      5.2480      4.9024      4.7938      4.9024    
  5.2480      5.8936      6.9561      8.6183      11.131      14.788      20.106      28.035      39.275      53.904    
  71.209      89.762      107.76      123.52      135.89      144.55      149.85      152.56      153.37      152.56    
  141.31      133.44      122.19      107.76      91.036      73.428      56.571      41.890      30.241      21.768    
  15.978      12.003      9.2215      7.3442      6.1170      5.3439      4.8925      4.6845      4.6845      4.8925    
  5.3439      6.1170      7.3442      9.2215      12.003      15.978      21.768      30.241      41.890      56.571    
  73.428      91.036      107.76      122.19      133.44      141.31      146.11      148.33      148.33      146.11    
  128.30      118.14      105.06      89.762      73.428      57.485      43.263      31.668      22.990      16.921    
  12.728      9.7504      7.6996      6.3306      5.4433      4.8954      4.5981      4.5038      4.5981      4.8954    
  5.4433      6.3306      7.6996      9.7504      12.728      16.921      22.990      31.668      43.263      57.485    
  73.428      89.762      105.06      118.14      128.30      135.33      139.38      140.70      139.38      135.33    
  111.27      99.671      85.984      71.209      56.571      43.263      32.162      23.638      17.529      13.249    
  10.164      7.9961      6.5193      5.5382      4.9076      4.5321      4.3567      4.3567      4.5321      4.9076    
  5.5382      6.5193      7.9961      10.164      13.249      17.529      23.638      32.162      43.263      56.571    
  71.209      85.984      99.671      111.27      120.16      126.08      129.02      129.02      126.08      120.16    
  91.716      79.861      66.907      53.904      41.890      31.668      23.638      17.739      13.520      10.427    
  8.2095      6.6679      5.6199      4.9243      4.4841      4.2402      4.1620      4.2402      4.4841      4.9243    
  5.6199      6.6679      8.2095      10.427      13.520      17.739      23.638      31.668      41.890      53.904    
  66.907      79.861      91.716      101.61      108.96      113.44      114.95      113.44      108.96      101.61    
  71.728      60.817      49.703      39.275      30.241      22.990      17.529      13.520      10.518      8.3213    
  6.7630      5.6801      4.9409      4.4515      4.1521      4.0097      4.0097      4.1521      4.4515      4.9409    
  5.6801      6.7630      8.3213      10.518      13.520      17.529      22.990      30.241      39.275      49.703    
  60.817      71.728      81.544      89.511      95.087      97.949      97.949      95.087      89.511      81.544    
  53.405      44.333      35.674      28.035      21.768      16.921      13.249      10.427      8.3213      6.7958    
  5.7121      4.9529      4.4315      4.0907      3.8970      3.8341      3.8970      4.0907      4.4315      4.9529    
  5.7121      6.7958      8.3213      10.427      13.249      16.921      21.768      28.035      35.674      44.333    
  53.405      62.146      69.809      75.752      79.503      80.784      79.503      75.752      69.809      62.146    
  38.276      31.439      25.280      20.106      15.978      12.728      10.164      8.2095      6.7630      5.7121    
  4.9573      4.4221      4.0544      3.8226      3.7100      3.7100      3.8226      4.0544      4.4221      4.9573    
  5.7121      6.7630      8.2095      10.164      12.728      15.978      20.106      25.280      31.439      38.276    
  45.291      51.881      57.441      61.456      63.558      63.558      61.456      57.441      51.881      45.291    
  26.970      22.252      18.171      14.788      12.003      9.7504      7.9961      6.6679      5.6801      4.9529    
  4.4221      4.0424      3.7855      3.6359      3.5867      3.6359      3.7855      4.0424      4.4221      4.9529    
  5.6801      6.6679      7.9961      9.7504      12.003      14.788      18.171      22.252      26.970      32.074    
  37.172      41.796      45.488      47.869      48.691      47.869      45.488      41.796      37.172      32.074    
  19.215      16.129      13.441      11.131      9.2215      7.6996      6.5193      5.6199      4.9409      4.4315    
  4.0544      3.7855      3.6113      3.5253      3.5253      3.6113      3.7855      4.0544      4.4315      4.9409    
  5.6199      6.5193      7.6996      9.2215      11.131      13.441      16.129      19.215      22.647      26.236    
  29.693      32.684      34.887      36.055      36.055      34.887      32.684      29.693      26.236      22.647    
  14.107      12.022      10.178      8.6183      7.3442      6.3306      5.5382      4.9243      4.4515      4.0907    
  3.8226      3.6359      3.5253      3.4886      3.5253      3.6359      3.8226      4.0907      4.4515      4.9243    
  5.5382      6.3306      7.3442      8.6183      10.178      12.022      14.107      16.370      18.755      21.137    
  23.320      25.087      26.239      26.640      26.239      25.087      23.320      21.137      18.755      16.370    
  10.619      9.2079      7.9831      6.9561      6.1170      5.4433      4.9076      4.4841      4.1521      3.8970    
  3.7100      3.5867      3.5253      3.5253      3.5867      3.7100      3.8970      4.1521      4.4841      4.9076    
  5.4433      6.1170      6.9561      7.9831      9.2079      10.619      12.176      13.810      15.428      16.941    
  18.236      19.190      19.696      19.696      19.190      18.236      16.941      15.428      13.810      12.176    
  8.2743      7.3534      6.5599      5.8936      5.3439      4.8954      4.5321      4.2402      4.0097      3.8341    
  3.7100      3.6359      3.6113      3.6359      3.7100      3.8341      4.0097      4.2402      4.5321      4.8954    
  5.3439      5.8936      6.5599      7.3534      8.2743      9.3070      10.416      11.547      12.628      13.580    
  14.327      14.804      14.969      14.804      14.327      13.580      12.628      11.547      10.416      9.3070    
  6.7588      6.1759      5.6733      5.2480      4.8925      4.5981      4.3567      4.1620      4.0097      3.8970    
  3.8226      3.7855      3.7855      3.8226      3.8970      4.0097      4.1620      4.3567      4.5981      4.8925    
  5.2480      5.6733      6.1759      6.7588      7.4171      8.1352      8.8846      9.6247      10.306      10.877    
  11.289      11.504      11.504      11.289      10.877      10.306      9.6247      8.8846      8.1352      7.4171    
  5.8187      5.4662      5.1616      4.9024      4.6845      4.5038      4.3567      4.2402      4.1521      4.0907    
  4.0544      4.0424      4.0544      4.0907      4.1521      4.2402      4.3567      4.5038      4.6845      4.9024    
  5.1616      5.4662      5.8187      6.2184      6.6591      7.1275      7.6024      8.0561      8.4563      8.7709    
  8.9721      9.0414      8.9721      8.7709      8.4563      8.0561      7.6024      7.1275      6.6591      6.2184    
  5.2785      5.0890      4.9279      4.7938      4.6845      4.5981      4.5321      4.4841      4.4515      4.4315    
  4.4221      4.4221      4.4315      4.4515      4.4841      4.5321      4.5981      4.6845      4.7937      4.9279    
  5.0890      5.2785      5.4968      5.7419      6.0082      6.2861      6.5611      6.8153      7.0291      7.1840    
  7.2654      7.2654      7.1840      7.0291      6.8153      6.5611      6.2861      6.0082      5.7419      5.4968    
  5.0327      4.9709      4.9279      4.9024      4.8925      4.8954      4.9076      4.9243      4.9409      4.9529    
  4.9573      4.9529      4.9409      4.9243      4.9076      4.8954      4.8925      4.9024      4.9279      4.9709    
  5.0327      5.1137      5.2138      5.3309      5.4611      5.5981      5.7329      5.8545      5.9519      6.0149    
  6.0367      6.0149      5.9519      5.8545      5.7329      5.5981      5.4611      5.3309      5.2138      5.1137    
  5.0327      5.0890      5.1616      5.2480      5.3439      5.4433      5.5382      5.6199      5.6801      5.7121    
  5.7121      5.6801      5.6199      5.5382      5.4433      5.3439      5.2480      5.1616      5.0890      5.0327    
  4.9939      4.9730      4.9695      4.9819      5.0078      5.0430      5.0825      5.1198      5.1490      5.1650    
  5.1650      5.1490      5.1198      5.0825      5.0430      5.0078      4.9819      4.9695      4.9730      4.9939    
  5.2785      5.4662      5.6733      5.8936      6.1170      6.3306      6.5193      6.6679      6.7630      6.7958    