Pt-fcc                                  
   1.00000000000000     
     0.000000    2.011295    2.011295
     2.011295    0.000000    2.011295
     2.011295    2.011295    0.000000
   Pt
     1
Direct
  0.000000  0.000000  0.000000
 
   40   40   40
  142.42      142.29      141.54      139.21      134.14      125.43      112.86      97.102      79.576      62.089    
  46.335      33.472      23.909      17.344      12.994      10.009      8.0044      6.7190      5.9435      5.5330    
  5.4050      5.5330      5.9435      6.7190      8.0044      10.009      12.994      17.344      23.909      33.472    
  46.335      62.089      79.576      97.102      112.86      125.43      134.14      139.21      141.54      142.29    
  142.29      141.85      140.29      136.54      129.54      118.74      104.39      87.568      69.936      53.279    
  39.034      27.965      20.090      14.825      11.276      8.8431      7.2456      6.2480      5.6748      5.4148    
  5.4148      5.6748      6.2480      7.2456      8.8431      11.276      14.825      20.090      27.965      39.034    
  53.279      69.936      87.568      104.39      118.74      129.54      136.54      140.29      141.85      142.29    
  141.54      140.29      137.27      131.46      122.15      109.24      93.477      76.258      59.306      44.192    
  31.954      22.912      16.718      12.586      9.7314      7.8137      6.5826      5.8383      5.4436      5.3203    
  5.4436      5.8383      6.5826      7.8137      9.7314      12.586      16.718      22.912      31.954      44.192    
  59.306      76.258      93.477      109.24      122.15      131.46      137.27      140.29      141.54      141.85    
  139.21      136.54      131.46      123.25      111.65      97.079      80.661      63.944      48.501      35.529    
  25.589      18.575      13.863      10.625      8.3999      6.9362      6.0187      5.4893      5.2482      5.2482    
  5.4893      6.0187      6.9362      8.3999      10.625      13.863      18.575      25.589      35.529      48.501    
  63.944      80.661      97.079      111.65      123.25      131.46      136.54      139.21      140.29      140.29    
  134.14      129.54      122.15      111.65      98.286      82.914      66.857      51.590      38.356      27.878    
  20.254      15.040      11.470      8.9728      7.2925      6.2084      5.5484      5.1960      5.0856      5.1960    
  5.5484      6.2084      7.2925      8.9728      11.470      15.040      20.254      27.878      38.356      51.590    
  66.857      82.914      98.286      111.65      122.15      129.54      134.14      136.54      137.27      136.54    
  125.43      118.74      109.24      97.079      82.914      67.850      53.201      40.168      29.551      21.599    
  16.033      12.207      9.4956      7.6304      6.3966      5.6160      5.1610      4.9523      4.9523      5.1610    
  5.6160      6.3966      7.6304      9.4956      12.207      16.033      21.599      29.551      40.168      53.201    
  67.850      82.914      97.079      109.24      118.74      125.43      129.54      131.46      131.46      129.54    
  112.86      104.39      93.477      80.661      66.857      53.201      40.792      30.433      22.470      16.758    
  12.781      9.9302      7.9268      6.5706      5.6858      5.1399      4.8448      4.7517      4.8448      5.1399    
  5.6858      6.5706      7.9268      9.9302      12.781      16.758      22.470      30.433      40.792      53.201    
  66.857      80.661      93.477      104.39      112.86      118.74      122.15      123.25      122.15      118.74    
  97.102      87.568      76.258      63.944      51.590      40.168      30.433      22.771      17.141      13.145    
  10.242      8.1585      6.7168      5.7507      5.1290      4.7605      4.5892      4.5892      4.7605      5.1290    
  5.7507      6.7168      8.1585      10.242      13.145      17.141      22.771      30.433      40.168      51.590    
  63.944      76.258      87.568      97.102      104.39      109.24      111.65      111.65      109.24      104.39    
  79.576      69.936      59.306      48.501      38.356      29.551      22.470      17.141      13.270      10.405    
  8.3063      6.8226      5.8035      5.1250      4.6970      4.4613      4.3861      4.4613      4.6970      5.1250    
  5.8035      6.8226      8.3063      10.405      13.270      17.141      22.470      29.551      38.356      48.501    
  59.306      69.936      79.576      87.568      93.477      97.079      98.286      97.079      93.477      87.568    
  62.089      53.279      44.192      35.529      27.878      21.599      16.758      13.145      10.405      8.3571    
  6.8781      5.8379      5.1244      4.6529      4.3662      4.2306      4.2306      4.3662      4.6529      5.1244    
  5.8380      6.8781      8.3571      10.405      13.145      16.758      21.599      27.878      35.529      44.192    
  53.279      62.089      69.936      76.258      80.661      82.914      82.914      80.661      76.258      69.936    
  46.335      39.034      31.954      25.589      20.254      16.033      12.781      10.242      8.3063      6.8781    
  5.8499      5.1248      4.6268      4.3030      4.1202      4.0611      4.1202      4.3030      4.6268      5.1248    
  5.8499      6.8781      8.3063      10.242      12.781      16.033      20.254      25.589      31.954      39.034    
  46.335      53.279      59.306      63.944      66.857      67.850      66.857      63.944      59.306      53.279    
  33.472      27.965      22.912      18.575      15.040      12.207      9.9302      8.1585      6.8226      5.8379    
  5.1248      4.6182      4.2714      4.0541      3.9491      3.9491      4.0541      4.2714      4.6182      5.1248    
  5.8380      6.8226      8.1585      9.9302      12.207      15.040      18.575      22.912      27.965      33.472    
  39.034      44.192      48.501      51.590      53.201      53.201      51.590      48.501      44.192      39.034    
  23.909      20.090      16.718      13.863      11.470      9.4956      7.9268      6.7168      5.8035      5.1244    
  4.6268      4.2714      4.0320      3.8933      3.8478      3.8933      4.0320      4.2714      4.6268      5.1244    
  5.8035      6.7168      7.9268      9.4956      11.470      13.863      16.718      20.090      23.909      27.965    
  31.954      35.529      38.356      40.168      40.792      40.168      38.356      35.529      31.954      27.965    
  17.344      14.825      12.586      10.625      8.9728      7.6304      6.5706      5.7507      5.1250      4.6529    
  4.3030      4.0541      3.8933      3.8142      3.8142      3.8933      4.0541      4.3030      4.6529      5.1250    
  5.7507      6.5706      7.6304      8.9728      10.625      12.586      14.825      17.344      20.090      22.912    
  25.589      27.878      29.551      30.433      30.433      29.551      27.878      25.589      22.912      20.090    
  12.994      11.276      9.7314      8.3999      7.2925      6.3966      5.6858      5.1290      4.6970      4.3662    
  4.1202      3.9491      3.8478      3.8142      3.8478      3.9491      4.1202      4.3662      4.6970      5.1290    
  5.6858      6.3966      7.2925      8.3999      9.7314      11.276      12.994      14.825      16.718      18.575    
  20.254      21.599      22.470      22.771      22.470      21.599      20.254      18.575      16.718      14.825    
  10.009      8.8431      7.8137      6.9362      6.2084      5.6160      5.1399      4.7605      4.4613      4.2306    
  4.0611      3.9491      3.8933      3.8933      3.9491      4.0611      4.2306      4.4613      4.7605      5.1399    
  5.6160      6.2084      6.9363      7.8137      8.8431      10.010      11.276      12.586      13.863      15.040    
  16.033      16.758      17.141      17.141      16.758      16.033      15.040      13.863      12.586      11.276    
  8.0044      7.2456      6.5826      6.0187      5.5484      5.1610      4.8448      4.5892      4.3861      4.2306    
  4.1202      4.0541      4.0320      4.0541      4.1202      4.2306      4.3861      4.5892      4.8448      5.1610    
  5.5484      6.0187      6.5826      7.2456      8.0044      8.8431      9.7314      10.625      11.470      12.207    
  12.781      13.145      13.270      13.145      12.781      12.207      11.470      10.625      9.7314      8.8431    
  6.7190      6.2480      5.8383      5.4893      5.1960      4.9523      4.7517      4.5892      4.4613      4.3662    
  4.3030      4.2714      4.2714      4.3030      4.3662      4.4613      4.5892      4.7517      4.9523      5.1960    
  5.4892      5.8383      6.2480      6.7190      7.2456      7.8137      8.3999      8.9728      9.4956      9.9302    
  10.242      10.405      10.405      10.242      9.9302      9.4956      8.9728      8.3999      7.8137      7.2456    
  5.9435      5.6748      5.4436      5.2482      5.0856      4.9523      4.8448      4.7605      4.6970      4.6529    
  4.6268      4.6182      4.6268      4.6529      4.6970      4.7605      4.8448      4.9523      5.0856      5.2482    
  5.4436      5.6748      5.9435      6.2480      6.5826      6.9363      7.2925      7.6304      7.9268      8.1585    
  8.3063      8.3571      8.3063      8.1585      7.9268      7.6304      7.2925      6.9362      6.5826      6.2480    
  5.5330      5.4148      5.3203      5.2482      5.1960      5.1610      5.1399      5.1290      5.1250      5.1244    
  5.1248      5.1248      5.1244      5.1250      5.1290      5.1399      5.1610      5.1960      5.2482      5.3203    
  5.4148      5.5330      5.6748      5.8383      6.0187      6.2084      6.3966      6.5706      6.7168      6.8226    
  6.8781      6.8781      6.8226      6.7168      6.5706      6.3966      6.2084      6.0187      5.8383      5.6748    
  5.4050      5.4148      5.4436      5.4893      5.5484      5.6160      5.6858      5.7507      5.8035      5.8380    
  5.8499      5.8380      5.8035      5.7507      5.6858      5.6160      5.5484      5.4892      5.4436      5.4148    
  5.4050      5.4148      5.4436      5.4892      5.5484      5.6160      5.6858      5.7507      5.8035      5.8380    
  5.8499      5.8380      5.8035      5.7507      5.6858      5.6160      5.5484      5.4893      5.4436      5.4148    
  5.5330      5.6748      5.8383      6.0187      6.2084      6.3966      6.5706      6.7168      6.8226      6.8781    
  6.8781      6.8226      6.7168      6.5706      6.3966      6.2084      6.0187      5.8383      5.6748      5.5330    
  5.4148      5.3203      5.2482      5.1960      5.1610      5.1399      5.1290      5.1250      5.1244      5.1248    
  5.1248      5.1244      5.1250      5.1290      5.1399      5.1610      5.1960      5.2482      5.3203      5.4148    
  5.9435      6.2480      6.5826      6.9362      7.2925      7.6304      7.9268      8.1585      8.3063      8.3571    
  8.3063      8.1585      7.9268      7.6304      7.2925      6.9363      6.5826      6.2480      5.9435      5.6748    
  5.4436      5.2482      5.0856      4.9523      4.8448      4.7605      4.6970      4.6529      4.6268      4.6182    
  4.6268      4.6529      4.6970      4.7605      4.8448      4.9523      5.0856      5.2482      5.4436      5.6748    
  6.7190      7.2456      7.8137      8.3999      8.9728      9.4956      9.9302      10.242      10.405      10.405    
  10.242      9.9302      9.4956      8.9728      8.3999      7.8137      7.2456      6.7190      6.2480      5.8383    
  5.4892      5.1960      4.9523      4.7517      4.5892      4.4613      4.3662      4.3030      4.2714      4.2714    
  4.3030      4.3662      4.4613      4.5892      4.7517      4.9523      5.1960      5.4893      5.8383      6.2480    
  8.0044      8.8431      9.7314      10.625      11.470      12.207      12.781      13.145      13.270      13.145    
  12.781      12.207      11.470      10.625      9.7314      8.8431      8.0044      7.2456      6.5826      6.0187    
  5.5484      5.1610      4.8448      4.5892      4.3861      4.2306      4.1202      4.0541      4.0320      4.0541    
  4.1202      4.2306      4.3861      4.5892      4.8448      5.1610      5.5484      6.0187      6.5826      7.2456    
  10.009      11.276      12.586      13.863      15.040      16.033      16.758      17.141      17.141      16.758    
  16.033      15.040      13.863      12.586      11.276      10.010      8.8431      7.8137      6.9363      6.2084    
  5.6160      5.1399      4.7605      4.4613      4.2306      4.0611      3.9491      3.8933      3.8933      3.9491    
  4.0611      4.2306      4.4613      4.7605      5.1399      5.6160      6.2084      6.9362      7.8137      8.8431    
  12.994      14.825      16.718      18.575      20.254      21.599      22.470      22.771      22.470      21.599    
  20.254      18.575      16.718      14.825      12.994      11.276      9.7314      8.3999      7.2925      6.3966    
  5.6858      5.1290      4.6970      4.3662      4.1202      3.9491      3.8478      3.8142      3.8478      3.9491    
  4.1202      4.3662      4.6970      5.1290      5.6858      6.3966      7.2925      8.3999      9.7314      11.276    
  17.344      20.090      22.912      25.589      27.878      29.551      30.433      30.433      29.551      27.878    
  25.589      22.912      20.090      17.344      14.825      12.586      10.625      8.9728      7.6304      6.5706    
  5.7507      5.1250      4.6529      4.3030      4.0541      3.8933      3.8142      3.8142      3.8933      4.0541    
  4.3030      4.6529      5.1250      5.7507      6.5706      7.6304      8.9728      10.625      12.586      14.825    
  23.909      27.965      31.954      35.529      38.356      40.168      40.792      40.168      38.356      35.529    
  31.954      27.965      23.909      20.090      16.718      13.863      11.470      9.4956      7.9268      6.7168    
  5.8035      5.1244      4.6268      4.2714      4.0320      3.8933      3.8478      3.8933      4.0320      4.2714    
  4.6268      5.1244      5.8035      6.7168      7.9268      9.4956      11.470      13.863      16.718      20.090    
  33.472      39.034      44.192      48.501      51.590      53.201      53.201      51.590      48.501      44.192    
  39.034      33.472      27.965      22.912      18.575      15.040      12.207      9.9302      8.1585      6.8226    
  5.8380      5.1248      4.6182      4.2714      4.0541      3.9491      3.9491      4.0541      4.2714      4.6182    
  5.1248      5.8379      6.8226      8.1585      9.9302      12.207      15.040      18.575      22.912      27.965    
  46.335      53.279      59.306      63.944      66.857      67.850      66.857      63.944      59.306      53.279    
  46.335      39.034      31.954      25.589      20.254      16.033      12.781      10.242      8.3063      6.8781    
  5.8499      5.1248      4.6268      4.3030      4.1202      4.0611      4.1202      4.3030      4.6268      5.1248    
  5.8499      6.8781      8.3063      10.242      12.781      16.033      20.254      25.589      31.954      39.034    
  62.089      69.936      76.258      80.661      82.914      82.914      80.661      76.258      69.936      62.089    
  53.279      44.192      35.529      27.878      21.599      16.758      13.145      10.405      8.3571      6.8781    
  5.8380      5.1244      4.6529      4.3662      4.2306      4.2306      4.3662      4.6529      5.1244      5.8379    
  6.8781      8.3571      10.405      13.145      16.758      21.599      27.878      35.529      44.192      53.279    
  79.576      87.568      93.477      97.079      98.286      97.079      93.477      87.568      79.576      69.936    
  59.306      48.501      38.356      29.551      22.470      17.141      13.270      10.405      8.3063      6.8226    
  5.8035      5.1250      4.6970      4.4613      4.3861      4.4613      4.6970      5.1250      5.8035      6.8226    
  8.3063      10.405      13.270      17.141      22.470      29.551      38.356      48.501      59.306      69.936    
  97.102      104.39      109.24      111.65      111.65      109.24      104.39      97.102      87.568      76.258    
  63.944      51.590      40.168      30.433      22.771      17.141      13.145      10.242      8.1585      6.7168    
  5.7507      5.1290      4.7605      4.5892      4.5892      4.7605      5.1290      5.7507      6.7168      8.1585    
  10.242      13.145      17.141      22.771      30.433      40.168      51.590      63.944      76.258      87.568    
  112.86      118.74      122.15      123.25      122.15      118.74      112.86      104.39      93.477      80.661    
  66.857      53.201      40.792      30.433      22.470      16.758      12.781      9.9302      7.9268      6.5706    
  5.6858      5.1399      4.8448      4.7517      4.8448      5.1399      5.6858      6.5706      7.9268      9.9302    
  12.781      16.758      22.470      30.433      40.792      53.201      66.857      80.661      93.477      104.39    
  125.43      129.54      131.46      131.46      129.54      125.43      118.74      109.24      97.079      82.914    
  67.850      53.201      40.168      29.551      21.599      16.033      12.207      9.4956      7.6304      6.3966    
  5.6160      5.1610      4.9523      4.9523      5.1610      5.6160      6.3966      7.6304      9.4956      12.207    
  16.033      21.599      29.551      40.168      53.201      67.850      82.914      97.079      109.24      118.74    
  134.14      136.54      137.27      136.54      134.14      129.54      122.15      111.65      98.286      82.914    
  66.857      51.590      38.356      27.878      20.254      15.040      11.470      8.9728      7.2925      6.2084    
  5.5484      5.1960      5.0856      5.1960      5.5484      6.2084      7.2925      8.9728      11.470      15.040    
  20.254      27.878      38.356      51.590      66.857      82.914      98.286      111.65      122.15      129.54    
  139.21      140.29      140.29      139.21      136.54      131.46      123.25      111.65      97.079      80.661    
  63.944      48.501      35.529      25.589      18.575      13.863      10.625      8.3999      6.9362      6.0187    
  5.4893      5.2482      5.2482      5.4893      6.0187      6.9362      8.3999      10.625      13.863      18.575    
  25.589      35.529      48.501      63.944      80.661      97.079      111.65      123.25      131.46      136.54    
  141.54      141.85      141.54      140.29      137.27      131.46      122.15      109.24      93.477      76.258    
  59.306      44.192      31.954      22.912      16.718      12.586      9.7314      7.8137      6.5826      5.8383    
  5.4436      5.3203      5.4436      5.8383      6.5826      7.8137      9.7314      12.586      16.718      22.912    
  31.954      44.192      59.306      76.258      93.477      109.24      122.15      131.46      137.27      140.29    
  142.29      142.29      141.85      140.29      136.54      129.54      118.74      104.39      87.568      69.936    
  53.279      39.034      27.965      20.090      14.825      11.276      8.8431      7.2456      6.2480      5.6748    
  5.4148      5.4148      5.6748      6.2480      7.2456      8.8431      11.276      14.825      20.090      27.965    
  39.034      53.279      69.936      87.568      104.39      118.74      129.54      136.54      140.29      141.85    
  142.29      141.85      140.29      136.54      129.54      118.74      104.39      87.568      69.936      53.279    
  39.034      27.965      20.090      14.825      11.276      8.8431      7.2456      6.2480      5.6748      5.4148    
  5.4148      5.6748      6.2480      7.2456      8.8431      11.276      14.825      20.090      27.965      39.034    
  53.279      69.936      87.568      104.39      118.74      129.54      136.54      140.29      141.85      142.29    
  141.85      140.71      137.84      132.19      123.02      110.20      94.447      77.159      60.075      44.796    
  32.390      23.202      16.902      12.708      9.8170      7.8743      6.6276      5.8743      5.4751      5.3505    
  5.4751      5.8743      6.6276      7.8743      9.8170      12.708      16.902      23.202      32.390      44.796    
  60.075      77.159      94.447      110.20      123.02      132.19      137.84      140.71      141.85      142.12    
  140.29      137.84      133.02      125.05      113.61      99.069      82.540      65.586      49.826      36.514    
  26.265      19.011      14.145      10.820      8.5364      7.0350      6.0948      5.5530      5.3067      5.3067    
  5.5530      6.0949      7.0350      8.5364      10.820      14.145      19.011      26.265      36.514      49.826    
  65.586      82.540      99.069      113.61      125.05      133.02      137.84      140.29      141.25      141.25    
  136.54      132.19      125.05      114.72      101.38      85.837      69.443      53.716      39.974      29.017    
  21.002      15.518      11.797      9.2002      7.4538      6.3288      5.6454      5.2814      5.1674      5.2814    
  5.6454      6.3288      7.4538      9.2002      11.797      15.518      21.002      29.017      39.974      53.716    
  69.443      85.837      101.38      114.72      125.05      132.19      136.54      138.75      139.41      138.75    
  129.54      123.02      113.61      101.38      86.945      71.422      56.167      42.462      31.198      22.703    
  16.742      12.682      9.8261      7.8619      6.5650      5.7470      5.2718      5.0543      5.0543      5.2718    
  5.7470      6.5650      7.8619      9.8261      12.682      16.742      22.703      31.198      42.462      56.167    
  71.422      86.945      101.38      113.61      123.02      129.54      133.48      135.30      135.30      133.48    
  118.74      110.20      99.069      85.837      71.422      57.003      43.762      32.599      23.945      17.716    
  13.414      10.372      8.2337      6.7896      5.8510      5.2745      4.9641      4.8664      4.9641      5.2745    
  5.8510      6.7896      8.2337      10.372      13.414      17.716      23.945      32.599      43.762      57.003    
  71.422      85.837      99.069      110.20      118.74      124.60      127.96      129.05      127.96      124.60    
  104.39      94.447      82.540      69.443      56.167      43.762      33.082      24.600      18.343      13.939    
  10.796      8.5423      6.9867      5.9491      5.2853      4.8940      4.7129      4.7129      4.8940      5.2853    
  5.9491      6.9867      8.5423      10.796      13.939      18.343      24.600      33.082      43.762      56.167    
  69.443      82.540      94.447      104.39      111.92      116.90      119.36      119.36      116.90      111.92    
  87.568      77.159      65.586      53.716      42.462      32.599      24.600      18.560      14.214      11.065    
  8.7636      7.1411      6.0327      5.3000      4.8412      4.5902      4.5103      4.5902      4.8412      5.3000    
  6.0327      7.1411      8.7636      11.065      14.214      18.560      24.600      32.599      42.462      53.716    
  65.586      77.159      87.568      96.136      102.44      106.26      107.54      106.26      102.44      96.136    
  69.936      60.075      49.826      39.974      31.198      23.945      18.343      14.214      11.157      8.8792    
  7.2396      6.0938      5.3142      4.8038      4.4960      4.3513      4.3513      4.4960      4.8038      5.3142    
  6.0938      7.2396      8.8792      11.157      14.214      18.343      23.945      31.198      39.974      49.826    
  60.075      69.936      78.665      85.663      90.519      92.998      92.998      90.519      85.663      78.665    
  53.279      44.796      36.514      29.017      22.703      17.716      13.939      11.065      8.8792      7.2735    
  6.1260      5.3244      4.7799      4.4293      4.2330      4.1697      4.2330      4.4293      4.7799      5.3244    
  6.1260      7.2735      8.8792      11.065      13.939      17.716      22.703      29.017      36.514      44.796    
  53.279      61.302      68.232      73.548      76.879      78.013      76.879      73.547      68.232      61.302    
  39.034      32.390      26.265      21.002      16.742      13.414      10.796      8.7636      7.2396      6.1260    
  5.3281      4.7682      4.3894      4.1542      4.0414      4.0414      4.1542      4.3893      4.7682      5.3281    
  6.1260      7.2396      8.7636      10.796      13.414      16.742      21.002      26.265      32.389      39.034    
  45.712      51.880      57.015      60.688      62.601      62.601      60.688      57.015      51.880      45.712    
  27.965      23.202      19.011      15.518      12.682      10.372      8.5423      7.1411      6.0938      5.3244    
  4.7682      4.3761      4.1148      3.9647      3.9156      3.9647      4.1148      4.3761      4.7682      5.3244    
  6.0938      7.1411      8.5423      10.372      12.682      15.518      19.011      23.202      27.965      33.020    
  37.979      42.411      45.909      48.147      48.917      48.147      45.909      42.411      37.979      33.020    
  20.090      16.902      14.145      11.797      9.8261      8.2337      6.9867      6.0327      5.3142      4.7799    
  4.3894      4.1148      3.9391      3.8532      3.8532      3.9391      4.1148      4.3894      4.7799      5.3142    
  6.0327      6.9867      8.2337      9.8261      11.797      14.145      16.902      20.090      23.607      27.234    
  30.680      33.623      35.772      36.906      36.906      35.772      33.623      30.680      27.234      23.607    
  14.825      12.708      10.820      9.2002      7.8619      6.7896      5.9491      5.3000      4.8038      4.4293    
  4.1542      3.9647      3.8532      3.8163      3.8532      3.9647      4.1542      4.4293      4.8038      5.3000    
  5.9491      6.7896      7.8619      9.2002      10.820      12.708      14.825      17.152      19.617      22.066    
  24.293      26.081      27.240      27.642      27.240      26.081      24.293      22.066      19.617      17.152    
  11.276      9.8170      8.5364      7.4538      6.5650      5.8510      5.2853      4.8412      4.4960      4.2330    
  4.0414      3.9156      3.8532      3.8532      3.9156      4.0414      4.2330      4.4960      4.8412      5.2853    
  5.8510      6.5650      7.4538      8.5364      9.8171      11.276      12.867      14.522      16.179      17.742    
  19.081      20.065      20.587      20.587      20.065      19.081      17.742      16.179      14.522      12.867    
  8.8431      7.8743      7.0350      6.3288      5.7470      5.2745      4.8940      4.5902      4.3513      4.1697    
  4.0414      3.9647      3.9391      3.9647      4.0414      4.1697      4.3513      4.5902      4.8940      5.2745    
  5.7470      6.3288      7.0350      7.8743      8.8431      9.9209      11.068      12.225      13.322      14.285    
  15.045      15.534      15.703      15.534      15.045      14.285      13.322      12.225      11.068      9.9209    
  7.2456      6.6276      6.0948      5.6454      5.2718      4.9641      4.7129      4.5103      4.3513      4.2330    
  4.1542      4.1148      4.1148      4.1542      4.2330      4.3513      4.5103      4.7129      4.9641      5.2718    
  5.6454      6.0949      6.6276      7.2456      7.9418      8.6972      9.4803      10.248      10.950      11.534    
  11.954      12.173      12.173      11.954      11.534      10.950      10.248      9.4803      8.6972      7.9418    
  6.2480      5.8743      5.5530      5.2814      5.0543      4.8664      4.7129      4.5902      4.4960      4.4293    
  4.3893      4.3761      4.3894      4.4293      4.4960      4.5902      4.7129      4.8664      5.0543      5.2814    
  5.5530      5.8743      6.2480      6.6726      7.1404      7.6359      8.1360      8.6111      9.0280      9.3543    
  9.5624      9.6339      9.5624      9.3543      9.0280      8.6111      8.1360      7.6359      7.1404      6.6726    
  5.6748      5.4751      5.3067      5.1674      5.0543      4.9641      4.8940      4.8412      4.8038      4.7799    
  4.7682      4.7682      4.7799      4.8038      4.8412      4.8940      4.9641      5.0543      5.1674      5.3066    
  5.4750      5.6748      5.9064      6.1672      6.4505      6.7451      7.0354      7.3024      7.5258      7.6871    
  7.7717      7.7717      7.6871      7.5258      7.3024      7.0354      6.7451      6.4505      6.1672      5.9064    
  5.4148      5.3505      5.3067      5.2814      5.2718      5.2745      5.2853      5.3000      5.3142      5.3244    
  5.3281      5.3244      5.3142      5.3000      5.2853      5.2745      5.2718      5.2814      5.3066      5.3505    
  5.4148      5.5006      5.6073      5.7324      5.8711      6.0158      6.1570      6.2834      6.3838      6.4485    
  6.4708      6.4485      6.3838      6.2834      6.1570      6.0158      5.8711      5.7324      5.6073      5.5006    
  5.4148      5.4751      5.5530      5.6454      5.7470      5.8510      5.9491      6.0327      6.0938      6.1260    
  6.1260      6.0938      6.0327      5.9491      5.8510      5.7470      5.6454      5.5530      5.4750      5.4148    
  5.3740      5.3530      5.3508      5.3652      5.3927      5.4288      5.4680      5.5044      5.5324      5.5477    
  5.5477      5.5324      5.5044      5.4680      5.4288      5.3927      5.3652      5.3508      5.3531      5.3741    
  5.6748      5.8743      6.0949      6.3288      6.5650      6.7896      6.9867      7.1411      7.2396      7.2735    