Pt-fcc                                  
   1.00000000000000     
     0.000000    2.077791    2.077791
     2.077791    0.000000    2.077791
     2.077791    2.077791    0.000000
   Pt
     1
Direct
  0.000000  0.000000  0.000000
 
   40   40   40
 0.15709737642E+03 0.15693955841E+03 0.15601213019E+03 0.15313942602E+03 0.14691729962E+03
 0.13633405706E+03 0.12128099547E+03 0.10274364574E+03 0.82587119748E+02 0.63019961034E+02
 0.45957831983E+02 0.32537990503E+02 0.22945041378E+02 0.16556169323E+02 0.12301528230E+02
 0.93922190053E+01 0.74765552055E+01 0.62623976702E+01 0.55321994715E+01 0.51449351967E+01
 0.50238752749E+01 0.51449351967E+01 0.55321994715E+01 0.62623976702E+01 0.74765552055E+01
 0.93922190053E+01 0.12301528230E+02 0.16556169323E+02 0.22945041378E+02 0.32537990503E+02
 0.45957831983E+02 0.63019961034E+02 0.82587119748E+02 0.10274364574E+03 0.12128099547E+03
 0.13633405706E+03 0.14691729962E+03 0.15313942602E+03 0.15601213019E+03 0.15693955841E+03
 0.15693955841E+03 0.15639370217E+03 0.15446966112E+03 0.14985163704E+03 0.14131263425E+03
 0.12829531153E+03 0.11126995323E+03 0.91716129682E+02 0.71728023404E+02 0.53405087672E+02
 0.38276099620E+02 0.26969854317E+02 0.19215264885E+02 0.14107109282E+02 0.10618936827E+02
 0.82743247030E+01 0.67587547406E+01 0.58186902215E+01 0.52785045968E+01 0.50326777424E+01
 0.50326787711E+01 0.52785071673E+01 0.58186930356E+01 0.67587563322E+01 0.82743241659E+01
 0.10618934296E+02 0.14107105953E+02 0.19215262497E+02 0.26969854309E+02 0.38276102261E+02
 0.53405091611E+02 0.71728025796E+02 0.91716127061E+02 0.11126994268E+03 0.12829529199E+03
 0.14131260724E+03 0.14985160659E+03 0.15446963304E+03 0.15639368234E+03 0.15693955126E+03
 0.15601213019E+03 0.15446966112E+03 0.15074500823E+03 0.14364696218E+03 0.13237907204E+03
 0.11699253013E+03 0.98536454871E+02 0.78833177718E+02 0.59965881569E+02 0.43689109604E+02
 0.30993504722E+02 0.21966750616E+02 0.15950079405E+02 0.11900765288E+02 0.91255391354E+01
 0.72959189106E+01 0.61332991817E+01 0.54318294451E+01 0.50586856854E+01 0.49418293907E+01
 0.50586891105E+01 0.54318345815E+01 0.61333034099E+01 0.72959199629E+01 0.91255362401E+01
 0.11900759661E+02 0.15950073813E+02 0.21966748129E+02 0.30993507139E+02 0.43689116177E+02
 0.59965888685E+02 0.78833179718E+02 0.98536445926E+02 0.11699250643E+03 0.13237903369E+03
 0.14364691386E+03 0.15074495844E+03 0.15446962009E+03 0.15601210701E+03 0.15639368234E+03
 0.15313942602E+03 0.14985163704E+03 0.14364696218E+03 0.13371137557E+03 0.11984452212E+03
 0.10272129906E+03 0.83825547351E+02 0.65072414340E+02 0.48272043014E+02 0.34651026980E+02
 0.24606348369E+02 0.17748028048E+02 0.13163735389E+02 0.99891394605E+01 0.78531233231E+01
 0.64665541892E+01 0.56011469235E+01 0.51005683951E+01 0.48716043984E+01 0.48716066353E+01
 0.51005739971E+01 0.56011530872E+01 0.64665577258E+01 0.78531222081E+01 0.99891338973E+01
 0.13163727900E+02 0.17748022452E+02 0.24606348019E+02 0.34651032951E+02 0.48272053044E+02
 0.65072423044E+02 0.83825547760E+02 0.10272128510E+03 0.11984449108E+03 0.13371132974E+03
 0.14364690885E+03 0.14985158692E+03 0.15313939029E+03 0.15446962009E+03 0.15446963304E+03
 0.14691729962E+03 0.14131263425E+03 0.13237907204E+03 0.11984452212E+03 0.10412832893E+03
 0.86392877568E+02 0.68303811726E+02 0.51589303452E+02 0.37576797239E+02 0.26886357755E+02
 0.19376347722E+02 0.14321346557E+02 0.10812235203E+02 0.84010272315E+01 0.68036800285E+01
 0.57798671161E+01 0.51557414477E+01 0.48206300823E+01 0.47150984621E+01 0.48206341670E+01
 0.51557476156E+01 0.57798722809E+01 0.68036814603E+01 0.84010238938E+01 0.10812228382E+02
 0.14321339465E+02 0.19376344181E+02 0.26886360424E+02 0.37576806155E+02 0.51589315478E+02
 0.68303821278E+02 0.86392878417E+02 0.10412831649E+03 0.11984449548E+03 0.13237903474E+03
 0.14131259376E+03 0.14691726531E+03 0.14985158692E+03 0.15074495844E+03 0.14985160659E+03
 0.13633405706E+03 0.12829531153E+03 0.11699253013E+03 0.10272129906E+03 0.86392877568E+02
 0.69408541513E+02 0.53328545416E+02 0.39465915258E+02 0.28566012851E+02 0.20685548773E+02
 0.15289867314E+02 0.11535780856E+02 0.89040279670E+01 0.71251583142E+01 0.59583908932E+01
 0.52200497417E+01 0.47869419017E+01 0.45867443209E+01 0.45867460298E+01 0.47869462164E+01
 0.52200545968E+01 0.59583938823E+01 0.71251578080E+01 0.89040239194E+01 0.11535774982E+02
 0.15289862484E+02 0.20685547895E+02 0.28566017585E+02 0.39465925185E+02 0.53328557896E+02
 0.69408552495E+02 0.86392882940E+02 0.10272129616E+03 0.11699251888E+03 0.12829529462E+03
 0.13633403923E+03 0.14131259376E+03 0.14364690885E+03 0.14364691386E+03 0.14131260724E+03
 0.12128099547E+03 0.11126995323E+03 0.98536454871E+02 0.83825547351E+02 0.68303811726E+02
 0.53328545416E+02 0.40118693414E+02 0.29457125158E+02 0.21536543714E+02 0.15992610393E+02
 0.12102202268E+02 0.93243497280E+01 0.74085098323E+01 0.61246166547E+01 0.52876973972E+01
 0.47678525209E+01 0.44841728986E+01 0.43939919832E+01 0.44841747311E+01 0.47678553838E+01
 0.52877000167E+01 0.61246178118E+01 0.74085088974E+01 0.93243469751E+01 0.12102198881E+02
 0.15992608091E+02 0.21536544213E+02 0.29457129555E+02 0.40118701857E+02 0.53328556988E+02
 0.68303824771E+02 0.83825560003E+02 0.98536465538E+02 0.11126996106E+03 0.12128100042E+03
 0.12829529462E+03 0.13237903474E+03 0.13371132974E+03 0.13237903369E+03 0.12829529199E+03
 0.10274364574E+03 0.91716129682E+02 0.78833177718E+02 0.65072414340E+02 0.51589303452E+02
 0.39465915258E+02 0.29457125158E+02 0.21831852674E+02 0.16363208321E+02 0.12463391224E+02
 0.96271846570E+01 0.76311063234E+01 0.62652069554E+01 0.53516138046E+01 0.47599047142E+01
 0.44050603412E+01 0.42384163715E+01 0.42384165339E+01 0.44050608210E+01 0.47599054519E+01
 0.53516146668E+01 0.62652076958E+01 0.76311066445E+01 0.96271843010E+01 0.12463390191E+02
 0.16363206991E+02 0.21831851950E+02 0.29457126317E+02 0.39465919752E+02 0.51589312473E+02
 0.65072428356E+02 0.78833196211E+02 0.91716150948E+02 0.10274366712E+03 0.11126996106E+03
 0.11699251888E+03 0.11984449548E+03 0.11984449108E+03 0.11699250643E+03 0.11126994268E+03
 0.82587119748E+02 0.71728023404E+02 0.59965881569E+02 0.48272043014E+02 0.37576797239E+02
 0.28566012851E+02 0.21536543714E+02 0.16363208321E+02 0.12587497821E+02 0.97858399934E+01
 0.77734923062E+01 0.63674497155E+01 0.54043055793E+01 0.47590883979E+01 0.43470524522E+01
 0.41170841604E+01 0.40430527629E+01 0.41170831888E+01 0.43470511133E+01 0.47590875792E+01
 0.54043059710E+01 0.63674513731E+01 0.77734945292E+01 0.97858415263E+01 0.12587497462E+02
 0.16363205530E+02 0.21536539175E+02 0.28566008491E+02 0.37576795809E+02 0.48272047255E+02
 0.59965893084E+02 0.71728041997E+02 0.82587143054E+02 0.91716150948E+02 0.98536465538E+02
 0.10272129616E+03 0.10412831649E+03 0.10272128510E+03 0.98536445926E+02 0.91716127061E+02
 0.63019961034E+02 0.53405087672E+02 0.43689109604E+02 0.34651026980E+02 0.26886357755E+02
 0.20685548773E+02 0.15992610393E+02 0.12463391224E+02 0.97858399934E+01 0.78225056307E+01
 0.64213328884E+01 0.54390596158E+01 0.47613743395E+01 0.43078101949E+01 0.40278748905E+01
 0.38938272592E+01 0.38938262838E+01 0.40278724702E+01 0.43078076494E+01 0.47613731157E+01
 0.54390605936E+01 0.64213357954E+01 0.78225090644E+01 0.97858418332E+01 0.12463389578E+02
 0.15992604409E+02 0.20685539281E+02 0.26886347211E+02 0.34651018722E+02 0.43689106898E+02
 0.53405092337E+02 0.63019972751E+02 0.71728041997E+02 0.78833196211E+02 0.83825560003E+02
 0.86392882940E+02 0.86392878417E+02 0.83825547760E+02 0.78833179718E+02 0.71728025796E+02
 0.45957831983E+02 0.38276099620E+02 0.30993504722E+02 0.24606348369E+02 0.19376347722E+02
 0.15289867314E+02 0.12102202268E+02 0.96271846570E+01 0.77734923062E+01 0.64213328884E+01
 0.54512031232E+01 0.47634539373E+01 0.42852506682E+01 0.39692651918E+01 0.37883305398E+01
 0.37292886820E+01 0.37883283911E+01 0.39692619448E+01 0.42852479499E+01 0.47634531856E+01
 0.54512048854E+01 0.64213364132E+01 0.77734957216E+01 0.96271855632E+01 0.12102198678E+02
 0.15289858467E+02 0.19376334451E+02 0.24606333093E+02 0.30993490483E+02 0.38276089313E+02
 0.45957827253E+02 0.53405092337E+02 0.59965893084E+02 0.65072428356E+02 0.68303824771E+02
 0.69408552495E+02 0.68303821278E+02 0.65072423044E+02 0.59965888685E+02 0.53405091611E+02
 0.32537990503E+02 0.26969854317E+02 0.21966750616E+02 0.17748028048E+02 0.14321346557E+02
 0.11535780856E+02 0.93243497280E+01 0.76311063234E+01 0.63674497155E+01 0.54390596158E+01
 0.47634539373E+01 0.42779077404E+01 0.39402259777E+01 0.37253645468E+01 0.36204887697E+01
 0.36204877117E+01 0.37253618557E+01 0.39402228489E+01 0.42779056332E+01 0.47634538793E+01
 0.54390617702E+01 0.63674531333E+01 0.76311092300E+01 0.93243500275E+01 0.11535776829E+02
 0.14321337509E+02 0.17748014398E+02 0.21966734026E+02 0.26969836966E+02 0.32537974544E+02
 0.38276089313E+02 0.43689106898E+02 0.48272047255E+02 0.51589312473E+02 0.53328556988E+02
 0.53328557896E+02 0.51589315478E+02 0.48272053044E+02 0.43689116177E+02 0.38276102261E+02
 0.22945041378E+02 0.19215264885E+02 0.15950079405E+02 0.13163735389E+02 0.10812235203E+02
 0.89040279670E+01 0.74085098323E+01 0.62652069554E+01 0.54043055793E+01 0.47613743395E+01
 0.42852506682E+01 0.39402259777E+01 0.37044209164E+01 0.35662531621E+01 0.35206479452E+01
 0.35662517082E+01 0.37044185798E+01 0.39402237035E+01 0.42852494380E+01 0.47613748135E+01
 0.54043078116E+01 0.62652103225E+01 0.74085130982E+01 0.89040296635E+01 0.10812233834E+02
 0.13163730051E+02 0.15950069731E+02 0.19215251329E+02 0.22945025154E+02 0.26969836966E+02
 0.30993490483E+02 0.34651018722E+02 0.37576795809E+02 0.39465919752E+02 0.40118701857E+02
 0.39465925185E+02 0.37576806155E+02 0.34651032951E+02 0.30993507139E+02 0.26969854309E+02
 0.16556169323E+02 0.14107109282E+02 0.11900765288E+02 0.99891394605E+01 0.84010272315E+01
 0.71251583142E+01 0.61246166547E+01 0.53516138046E+01 0.47590883979E+01 0.43078101949E+01
 0.39692651918E+01 0.37253645468E+01 0.35662531621E+01 0.34874657812E+01 0.34874654231E+01
 0.35662521912E+01 0.37253632593E+01 0.39692640498E+01 0.43078097635E+01 0.47590892305E+01
 0.53516162715E+01 0.61246207900E+01 0.71251636234E+01 0.84010327702E+01 0.99891437984E+01
 0.11900766915E+02 0.14107107012E+02 0.16556162434E+02 0.19215251329E+02 0.21966734026E+02
 0.24606333093E+02 0.26886347211E+02 0.28566008491E+02 0.29457126317E+02 0.29457129555E+02
 0.28566017585E+02 0.26886360424E+02 0.24606348019E+02 0.21966748129E+02 0.19215262497E+02
 0.12301528230E+02 0.10618936827E+02 0.91255391354E+01 0.78531233231E+01 0.68036800285E+01
 0.59583908932E+01 0.52876973972E+01 0.47599047142E+01 0.43470524522E+01 0.40278748905E+01
 0.37883305398E+01 0.36204887697E+01 0.35206479452E+01 0.34874654231E+01 0.35206480973E+01
 0.36204889066E+01 0.37883304844E+01 0.40278746650E+01 0.43470524484E+01 0.47599056984E+01
 0.52877002947E+01 0.59583964628E+01 0.68036883916E+01 0.78531338052E+01 0.91255501953E+01
 0.10618946328E+02 0.12301534172E+02 0.14107107012E+02 0.15950069731E+02 0.17748014398E+02
 0.19376334451E+02 0.20685539281E+02 0.21536539175E+02 0.21831851950E+02 0.21536544213E+02
 0.20685547895E+02 0.19376344181E+02 0.17748022452E+02 0.15950073813E+02 0.14107105953E+02
 0.93922190053E+01 0.82743247030E+01 0.72959189106E+01 0.64665541892E+01 0.57798671161E+01
 0.52200497417E+01 0.47678525209E+01 0.44050603412E+01 0.41170841604E+01 0.38938272592E+01
 0.37292886820E+01 0.36204877117E+01 0.35662517082E+01 0.35662521912E+01 0.36204889066E+01
 0.37292899540E+01 0.38938279726E+01 0.41170840901E+01 0.44050599594E+01 0.47678529870E+01
 0.52200525397E+01 0.57798735580E+01 0.64665647582E+01 0.72959329719E+01 0.82743405470E+01
 0.93922341767E+01 0.10618946328E+02 0.11900766915E+02 0.13163730051E+02 0.14321337509E+02
 0.15289858467E+02 0.15992604409E+02 0.16363205530E+02 0.16363206991E+02 0.15992608091E+02
 0.15289862484E+02 0.14321339465E+02 0.13163727900E+02 0.11900759661E+02 0.10618934296E+02
 0.74765552055E+01 0.67587547406E+01 0.61332991817E+01 0.56011469235E+01 0.51557414477E+01
 0.47869419017E+01 0.44841728986E+01 0.42384163715E+01 0.40430527629E+01 0.38938262838E+01
 0.37883283911E+01 0.37253618557E+01 0.37044185798E+01 0.37253632593E+01 0.37883304844E+01
 0.38938279726E+01 0.40430531206E+01 0.42384151517E+01 0.44841707907E+01 0.47869404484E+01
 0.51557425138E+01 0.56011521074E+01 0.61333091329E+01 0.67587688157E+01 0.74765716402E+01
 0.82743405470E+01 0.91255501953E+01 0.99891437984E+01 0.10812233834E+02 0.11535776829E+02
 0.12102198678E+02 0.12463389578E+02 0.12587497462E+02 0.12463390191E+02 0.12102198881E+02
 0.11535774982E+02 0.10812228382E+02 0.99891338973E+01 0.91255362401E+01 0.82743241659E+01
 0.62623976702E+01 0.58186902215E+01 0.54318294451E+01 0.51005683951E+01 0.48206300823E+01
 0.45867443209E+01 0.43939919832E+01 0.42384165339E+01 0.41170831888E+01 0.40278724702E+01
 0.39692619448E+01 0.39402228489E+01 0.39402237035E+01 0.39692640498E+01 0.40278746650E+01
 0.41170840901E+01 0.42384151517E+01 0.43939882026E+01 0.45867390537E+01 0.48206250850E+01
 0.51005656679E+01 0.54318306146E+01 0.58186960078E+01 0.62624075738E+01 0.67587688157E+01
 0.72959329719E+01 0.78531338052E+01 0.84010327702E+01 0.89040296635E+01 0.93243500275E+01
 0.96271855632E+01 0.97858418332E+01 0.97858415263E+01 0.96271843010E+01 0.93243469751E+01
 0.89040239194E+01 0.84010238938E+01 0.78531222081E+01 0.72959199629E+01 0.67587563322E+01
 0.55321994715E+01 0.52785045968E+01 0.50586856854E+01 0.48716043984E+01 0.47150984621E+01
 0.45867460298E+01 0.44841747311E+01 0.44050608210E+01 0.43470511133E+01 0.43078076494E+01
 0.42852479499E+01 0.42779056332E+01 0.42852494380E+01 0.43078097635E+01 0.43470524484E+01
 0.44050599594E+01 0.44841707907E+01 0.45867390537E+01 0.47150894373E+01 0.48715950507E+01
 0.50586779228E+01 0.52784999480E+01 0.55321987100E+01 0.58186960078E+01 0.61333091329E+01
 0.64665647582E+01 0.68036883916E+01 0.71251636234E+01 0.74085130982E+01 0.76311092300E+01
 0.77734957216E+01 0.78225090644E+01 0.77734945292E+01 0.76311066445E+01 0.74085088974E+01
 0.71251578080E+01 0.68036814603E+01 0.64665577258E+01 0.61333034099E+01 0.58186930356E+01
 0.51449351967E+01 0.50326777424E+01 0.49418293907E+01 0.48716066353E+01 0.48206341670E+01
 0.47869462164E+01 0.47678553838E+01 0.47599054519E+01 0.47590875792E+01 0.47613731157E+01
 0.47634531856E+01 0.47634538793E+01 0.47613748135E+01 0.47590892305E+01 0.47599056984E+01
 0.47678529870E+01 0.47869404484E+01 0.48206250850E+01 0.48715950507E+01 0.49418167053E+01
 0.50326656028E+01 0.51449250453E+01 0.52784999480E+01 0.54318306146E+01 0.56011521074E+01
 0.57798735580E+01 0.59583964628E+01 0.61246207900E+01 0.62652103225E+01 0.63674531333E+01
 0.64213364132E+01 0.64213357954E+01 0.63674513731E+01 0.62652076958E+01 0.61246178118E+01
 0.59583938823E+01 0.57798722809E+01 0.56011530872E+01 0.54318345815E+01 0.52785071673E+01
 0.50238752749E+01 0.50326787711E+01 0.50586891105E+01 0.51005739971E+01 0.51557476156E+01
 0.52200545968E+01 0.52877000167E+01 0.53516146668E+01 0.54043059710E+01 0.54390605936E+01
 0.54512048854E+01 0.54390617702E+01 0.54043078116E+01 0.53516162715E+01 0.52877002947E+01
 0.52200525397E+01 0.51557425138E+01 0.51005656679E+01 0.50586779228E+01 0.50326656028E+01
 0.50238613957E+01 0.50326656028E+01 0.50586779228E+01 0.51005656679E+01 0.51557425138E+01
 0.52200525397E+01 0.52877002947E+01 0.53516162715E+01 0.54043078116E+01 0.54390617702E+01
 0.54512048854E+01 0.54390605936E+01 0.54043059710E+01 0.53516146668E+01 0.52877000167E+01
 0.52200545968E+01 0.51557476156E+01 0.51005739971E+01 0.50586891105E+01 0.50326787711E+01
 0.51449351967E+01 0.52785071673E+01 0.54318345815E+01 0.56011530872E+01 0.57798722809E+01
 0.59583938823E+01 0.61246178118E+01 0.62652076958E+01 0.63674513731E+01 0.64213357954E+01
 0.64213364132E+01 0.63674531333E+01 0.62652103225E+01 0.61246207900E+01 0.59583964628E+01
 0.57798735580E+01 0.56011521074E+01 0.54318306146E+01 0.52784999480E+01 0.51449250453E+01
 0.50326656028E+01 0.49418167053E+01 0.48715950507E+01 0.48206250850E+01 0.47869404484E+01
 0.47678529870E+01 0.47599056984E+01 0.47590892305E+01 0.47613748135E+01 0.47634538793E+01
 0.47634531856E+01 0.47613731157E+01 0.47590875792E+01 0.47599054519E+01 0.47678553838E+01
 0.47869462164E+01 0.48206341670E+01 0.48716066353E+01 0.49418293907E+01 0.50326777424E+01
 0.55321994715E+01 0.58186930356E+01 0.61333034099E+01 0.64665577258E+01 0.68036814603E+01
 0.71251578080E+01 0.74085088974E+01 0.76311066445E+01 0.77734945292E+01 0.78225090644E+01
 0.77734957216E+01 0.76311092300E+01 0.74085130982E+01 0.71251636234E+01 0.68036883916E+01
 0.64665647582E+01 0.61333091329E+01 0.58186960078E+01 0.55321987100E+01 0.52784999480E+01
 0.50586779228E+01 0.48715950507E+01 0.47150894373E+01 0.45867390537E+01 0.44841707907E+01
 0.44050599594E+01 0.43470524484E+01 0.43078097635E+01 0.42852494380E+01 0.42779056332E+01
 0.42852479499E+01 0.43078076494E+01 0.43470511133E+01 0.44050608210E+01 0.44841747311E+01
 0.45867460298E+01 0.47150984621E+01 0.48716043984E+01 0.50586856854E+01 0.52785045968E+01
 0.62623976702E+01 0.67587563322E+01 0.72959199629E+01 0.78531222081E+01 0.84010238938E+01
 0.89040239194E+01 0.93243469751E+01 0.96271843010E+01 0.97858415263E+01 0.97858418332E+01
 0.96271855632E+01 0.93243500275E+01 0.89040296635E+01 0.84010327702E+01 0.78531338052E+01
 0.72959329719E+01 0.67587688157E+01 0.62624075738E+01 0.58186960078E+01 0.54318306146E+01
 0.51005656679E+01 0.48206250850E+01 0.45867390537E+01 0.43939882026E+01 0.42384151517E+01
 0.41170840901E+01 0.40278746650E+01 0.39692640498E+01 0.39402237035E+01 0.39402228489E+01
 0.39692619448E+01 0.40278724702E+01 0.41170831888E+01 0.42384165339E+01 0.43939919832E+01
 0.45867443209E+01 0.48206300823E+01 0.51005683951E+01 0.54318294451E+01 0.58186902215E+01
 0.74765552055E+01 0.82743241659E+01 0.91255362401E+01 0.99891338973E+01 0.10812228382E+02
 0.11535774982E+02 0.12102198881E+02 0.12463390191E+02 0.12587497462E+02 0.12463389578E+02
 0.12102198678E+02 0.11535776829E+02 0.10812233834E+02 0.99891437984E+01 0.91255501953E+01
 0.82743405470E+01 0.74765716402E+01 0.67587688157E+01 0.61333091329E+01 0.56011521074E+01
 0.51557425138E+01 0.47869404484E+01 0.44841707907E+01 0.42384151517E+01 0.40430531206E+01
 0.38938279726E+01 0.37883304844E+01 0.37253632593E+01 0.37044185798E+01 0.37253618557E+01
 0.37883283911E+01 0.38938262838E+01 0.40430527629E+01 0.42384163715E+01 0.44841728986E+01
 0.47869419017E+01 0.51557414477E+01 0.56011469235E+01 0.61332991817E+01 0.67587547406E+01
 0.93922190053E+01 0.10618934296E+02 0.11900759661E+02 0.13163727900E+02 0.14321339465E+02
 0.15289862484E+02 0.15992608091E+02 0.16363206991E+02 0.16363205530E+02 0.15992604409E+02
 0.15289858467E+02 0.14321337509E+02 0.13163730051E+02 0.11900766915E+02 0.10618946328E+02
 0.93922341767E+01 0.82743405470E+01 0.72959329719E+01 0.64665647582E+01 0.57798735580E+01
 0.52200525397E+01 0.47678529870E+01 0.44050599594E+01 0.41170840901E+01 0.38938279726E+01
 0.37292899540E+01 0.36204889066E+01 0.35662521912E+01 0.35662517082E+01 0.36204877117E+01
 0.37292886820E+01 0.38938272592E+01 0.41170841604E+01 0.44050603412E+01 0.47678525209E+01
 0.52200497417E+01 0.57798671161E+01 0.64665541892E+01 0.72959189106E+01 0.82743247030E+01
 0.12301528230E+02 0.14107105953E+02 0.15950073813E+02 0.17748022452E+02 0.19376344181E+02
 0.20685547895E+02 0.21536544213E+02 0.21831851950E+02 0.21536539175E+02 0.20685539281E+02
 0.19376334451E+02 0.17748014398E+02 0.15950069731E+02 0.14107107012E+02 0.12301534172E+02
 0.10618946328E+02 0.91255501953E+01 0.78531338052E+01 0.68036883916E+01 0.59583964628E+01
 0.52877002947E+01 0.47599056984E+01 0.43470524484E+01 0.40278746650E+01 0.37883304844E+01
 0.36204889066E+01 0.35206480973E+01 0.34874654231E+01 0.35206479452E+01 0.36204887697E+01
 0.37883305398E+01 0.40278748905E+01 0.43470524522E+01 0.47599047142E+01 0.52876973972E+01
 0.59583908932E+01 0.68036800285E+01 0.78531233231E+01 0.91255391354E+01 0.10618936827E+02
 0.16556169323E+02 0.19215262497E+02 0.21966748129E+02 0.24606348019E+02 0.26886360424E+02
 0.28566017585E+02 0.29457129555E+02 0.29457126317E+02 0.28566008491E+02 0.26886347211E+02
 0.24606333093E+02 0.21966734026E+02 0.19215251329E+02 0.16556162434E+02 0.14107107012E+02
 0.11900766915E+02 0.99891437984E+01 0.84010327702E+01 0.71251636234E+01 0.61246207900E+01
 0.53516162715E+01 0.47590892305E+01 0.43078097635E+01 0.39692640498E+01 0.37253632593E+01
 0.35662521912E+01 0.34874654231E+01 0.34874657812E+01 0.35662531621E+01 0.37253645468E+01
 0.39692651918E+01 0.43078101949E+01 0.47590883979E+01 0.53516138046E+01 0.61246166547E+01
 0.71251583142E+01 0.84010272315E+01 0.99891394605E+01 0.11900765288E+02 0.14107109282E+02
 0.22945041378E+02 0.26969854309E+02 0.30993507139E+02 0.34651032951E+02 0.37576806155E+02
 0.39465925185E+02 0.40118701857E+02 0.39465919752E+02 0.37576795809E+02 0.34651018722E+02
 0.30993490483E+02 0.26969836966E+02 0.22945025154E+02 0.19215251329E+02 0.15950069731E+02
 0.13163730051E+02 0.10812233834E+02 0.89040296635E+01 0.74085130982E+01 0.62652103225E+01
 0.54043078116E+01 0.47613748135E+01 0.42852494380E+01 0.39402237035E+01 0.37044185798E+01
 0.35662517082E+01 0.35206479452E+01 0.35662531621E+01 0.37044209164E+01 0.39402259777E+01
 0.42852506682E+01 0.47613743395E+01 0.54043055793E+01 0.62652069554E+01 0.74085098323E+01
 0.89040279670E+01 0.10812235203E+02 0.13163735389E+02 0.15950079405E+02 0.19215264885E+02
 0.32537990503E+02 0.38276102261E+02 0.43689116177E+02 0.48272053044E+02 0.51589315478E+02
 0.53328557896E+02 0.53328556988E+02 0.51589312473E+02 0.48272047255E+02 0.43689106898E+02
 0.38276089313E+02 0.32537974544E+02 0.26969836966E+02 0.21966734026E+02 0.17748014398E+02
 0.14321337509E+02 0.11535776829E+02 0.93243500275E+01 0.76311092300E+01 0.63674531333E+01
 0.54390617702E+01 0.47634538793E+01 0.42779056332E+01 0.39402228489E+01 0.37253618557E+01
 0.36204877117E+01 0.36204887697E+01 0.37253645468E+01 0.39402259777E+01 0.42779077404E+01
 0.47634539373E+01 0.54390596158E+01 0.63674497155E+01 0.76311063234E+01 0.93243497280E+01
 0.11535780856E+02 0.14321346557E+02 0.17748028048E+02 0.21966750616E+02 0.26969854317E+02
 0.45957831983E+02 0.53405091611E+02 0.59965888685E+02 0.65072423044E+02 0.68303821278E+02
 0.69408552495E+02 0.68303824771E+02 0.65072428356E+02 0.59965893084E+02 0.53405092337E+02
 0.45957827253E+02 0.38276089313E+02 0.30993490483E+02 0.24606333093E+02 0.19376334451E+02
 0.15289858467E+02 0.12102198678E+02 0.96271855632E+01 0.77734957216E+01 0.64213364132E+01
 0.54512048854E+01 0.47634531856E+01 0.42852479499E+01 0.39692619448E+01 0.37883283911E+01
 0.37292886820E+01 0.37883305398E+01 0.39692651918E+01 0.42852506682E+01 0.47634539373E+01
 0.54512031232E+01 0.64213328884E+01 0.77734923062E+01 0.96271846570E+01 0.12102202268E+02
 0.15289867314E+02 0.19376347722E+02 0.24606348369E+02 0.30993504722E+02 0.38276099620E+02
 0.63019961034E+02 0.71728025796E+02 0.78833179718E+02 0.83825547760E+02 0.86392878417E+02
 0.86392882940E+02 0.83825560003E+02 0.78833196211E+02 0.71728041997E+02 0.63019972751E+02
 0.53405092337E+02 0.43689106898E+02 0.34651018722E+02 0.26886347211E+02 0.20685539281E+02
 0.15992604409E+02 0.12463389578E+02 0.97858418332E+01 0.78225090644E+01 0.64213357954E+01
 0.54390605936E+01 0.47613731157E+01 0.43078076494E+01 0.40278724702E+01 0.38938262838E+01
 0.38938272592E+01 0.40278748905E+01 0.43078101949E+01 0.47613743395E+01 0.54390596158E+01
 0.64213328884E+01 0.78225056307E+01 0.97858399934E+01 0.12463391224E+02 0.15992610393E+02
 0.20685548773E+02 0.26886357755E+02 0.34651026980E+02 0.43689109604E+02 0.53405087672E+02
 0.82587119748E+02 0.91716127061E+02 0.98536445926E+02 0.10272128510E+03 0.10412831649E+03
 0.10272129616E+03 0.98536465538E+02 0.91716150948E+02 0.82587143054E+02 0.71728041997E+02
 0.59965893084E+02 0.48272047255E+02 0.37576795809E+02 0.28566008491E+02 0.21536539175E+02
 0.16363205530E+02 0.12587497462E+02 0.97858415263E+01 0.77734945292E+01 0.63674513731E+01
 0.54043059710E+01 0.47590875792E+01 0.43470511133E+01 0.41170831888E+01 0.40430527629E+01
 0.41170841604E+01 0.43470524522E+01 0.47590883979E+01 0.54043055793E+01 0.63674497155E+01
 0.77734923062E+01 0.97858399934E+01 0.12587497821E+02 0.16363208321E+02 0.21536543714E+02
 0.28566012851E+02 0.37576797239E+02 0.48272043014E+02 0.59965881569E+02 0.71728023404E+02
 0.10274364574E+03 0.11126994268E+03 0.11699250643E+03 0.11984449108E+03 0.11984449548E+03
 0.11699251888E+03 0.11126996106E+03 0.10274366712E+03 0.91716150948E+02 0.78833196211E+02
 0.65072428356E+02 0.51589312473E+02 0.39465919752E+02 0.29457126317E+02 0.21831851950E+02
 0.16363206991E+02 0.12463390191E+02 0.96271843010E+01 0.76311066445E+01 0.62652076958E+01
 0.53516146668E+01 0.47599054519E+01 0.44050608210E+01 0.42384165339E+01 0.42384163715E+01
 0.44050603412E+01 0.47599047142E+01 0.53516138046E+01 0.62652069554E+01 0.76311063234E+01
 0.96271846570E+01 0.12463391224E+02 0.16363208321E+02 0.21831852674E+02 0.29457125158E+02
 0.39465915258E+02 0.51589303452E+02 0.65072414340E+02 0.78833177718E+02 0.91716129682E+02
 0.12128099547E+03 0.12829529199E+03 0.13237903369E+03 0.13371132974E+03 0.13237903474E+03
 0.12829529462E+03 0.12128100042E+03 0.11126996106E+03 0.98536465538E+02 0.83825560003E+02
 0.68303824771E+02 0.53328556988E+02 0.40118701857E+02 0.29457129555E+02 0.21536544213E+02
 0.15992608091E+02 0.12102198881E+02 0.93243469751E+01 0.74085088974E+01 0.61246178118E+01
 0.52877000167E+01 0.47678553838E+01 0.44841747311E+01 0.43939919832E+01 0.44841728986E+01
 0.47678525209E+01 0.52876973972E+01 0.61246166547E+01 0.74085098323E+01 0.93243497280E+01
 0.12102202268E+02 0.15992610393E+02 0.21536543714E+02 0.29457125158E+02 0.40118693414E+02
 0.53328545416E+02 0.68303811726E+02 0.83825547351E+02 0.98536454871E+02 0.11126995323E+03
 0.13633405706E+03 0.14131260724E+03 0.14364691386E+03 0.14364690885E+03 0.14131259376E+03
 0.13633403923E+03 0.12829529462E+03 0.11699251888E+03 0.10272129616E+03 0.86392882940E+02
 0.69408552495E+02 0.53328557896E+02 0.39465925185E+02 0.28566017585E+02 0.20685547895E+02
 0.15289862484E+02 0.11535774982E+02 0.89040239194E+01 0.71251578080E+01 0.59583938823E+01
 0.52200545968E+01 0.47869462164E+01 0.45867460298E+01 0.45867443209E+01 0.47869419017E+01
 0.52200497417E+01 0.59583908932E+01 0.71251583142E+01 0.89040279670E+01 0.11535780856E+02
 0.15289867314E+02 0.20685548773E+02 0.28566012851E+02 0.39465915258E+02 0.53328545416E+02
 0.69408541513E+02 0.86392877568E+02 0.10272129906E+03 0.11699253013E+03 0.12829531153E+03
 0.14691729962E+03 0.14985160659E+03 0.15074495844E+03 0.14985158692E+03 0.14691726531E+03
 0.14131259376E+03 0.13237903474E+03 0.11984449548E+03 0.10412831649E+03 0.86392878417E+02
 0.68303821278E+02 0.51589315478E+02 0.37576806155E+02 0.26886360424E+02 0.19376344181E+02
 0.14321339465E+02 0.10812228382E+02 0.84010238938E+01 0.68036814603E+01 0.57798722809E+01
 0.51557476156E+01 0.48206341670E+01 0.47150984621E+01 0.48206300823E+01 0.51557414477E+01
 0.57798671161E+01 0.68036800285E+01 0.84010272315E+01 0.10812235203E+02 0.14321346557E+02
 0.19376347722E+02 0.26886357755E+02 0.37576797239E+02 0.51589303452E+02 0.68303811726E+02
 0.86392877568E+02 0.10412832893E+03 0.11984452212E+03 0.13237907204E+03 0.14131263425E+03
 0.15313942602E+03 0.15446963304E+03 0.15446962009E+03 0.15313939029E+03 0.14985158692E+03
 0.14364690885E+03 0.13371132974E+03 0.11984449108E+03 0.10272128510E+03 0.83825547760E+02
 0.65072423044E+02 0.48272053044E+02 0.34651032951E+02 0.24606348019E+02 0.17748022452E+02
 0.13163727900E+02 0.99891338973E+01 0.78531222081E+01 0.64665577258E+01 0.56011530872E+01
 0.51005739971E+01 0.48716066353E+01 0.48716043984E+01 0.51005683951E+01 0.56011469235E+01
 0.64665541892E+01 0.78531233231E+01 0.99891394605E+01 0.13163735389E+02 0.17748028048E+02
 0.24606348369E+02 0.34651026980E+02 0.48272043014E+02 0.65072414340E+02 0.83825547351E+02
 0.10272129906E+03 0.11984452212E+03 0.13371137557E+03 0.14364696218E+03 0.14985163704E+03
 0.15601213019E+03 0.15639368234E+03 0.15601210701E+03 0.15446962009E+03 0.15074495844E+03
 0.14364691386E+03 0.13237903369E+03 0.11699250643E+03 0.98536445926E+02 0.78833179718E+02
 0.59965888685E+02 0.43689116177E+02 0.30993507139E+02 0.21966748129E+02 0.15950073813E+02
 0.11900759661E+02 0.91255362401E+01 0.72959199629E+01 0.61333034099E+01 0.54318345815E+01
 0.50586891105E+01 0.49418293907E+01 0.50586856854E+01 0.54318294451E+01 0.61332991817E+01
 0.72959189106E+01 0.91255391354E+01 0.11900765288E+02 0.15950079405E+02 0.21966750616E+02
 0.30993504722E+02 0.43689109604E+02 0.59965881569E+02 0.78833177718E+02 0.98536454871E+02
 0.11699253013E+03 0.13237907204E+03 0.14364696218E+03 0.15074500823E+03 0.15446966112E+03
 0.15693955841E+03 0.15693955126E+03 0.15639368234E+03 0.15446963304E+03 0.14985160659E+03
 0.14131260724E+03 0.12829529199E+03 0.11126994268E+03 0.91716127061E+02 0.71728025796E+02
 0.53405091611E+02 0.38276102261E+02 0.26969854309E+02 0.19215262497E+02 0.14107105953E+02
 0.10618934296E+02 0.82743241659E+01 0.67587563322E+01 0.58186930356E+01 0.52785071673E+01
 0.50326787711E+01 0.50326777424E+01 0.52785045968E+01 0.58186902215E+01 0.67587547406E+01
 0.82743247030E+01 0.10618936827E+02 0.14107109282E+02 0.19215264885E+02 0.26969854317E+02
 0.38276099620E+02 0.53405087672E+02 0.71728023404E+02 0.91716129682E+02 0.11126995323E+03
 0.12829531153E+03 0.14131263425E+03 0.14985163704E+03 0.15446966112E+03 0.15639370217E+03
 0.15693955841E+03 0.15639370217E+03 0.15446966112E+03 0.14985163704E+03 0.14131263425E+03
 0.12829531153E+03 0.11126995323E+03 0.91716129682E+02 0.71728023404E+02 0.53405087672E+02
 0.38276099620E+02 0.26969854317E+02 0.19215264885E+02 0.14107109282E+02 0.10618936827E+02
 0.82743247030E+01 0.67587547406E+01 0.58186902215E+01 0.52785045968E+01 0.50326777424E+01
 0.50326787711E+01 0.52785071673E+01 0.58186930356E+01 0.67587563322E+01 0.82743241659E+01
 0.10618934296E+02 0.14107105953E+02 0.19215262497E+02 0.26969854309E+02 0.38276102261E+02