   1   1   1   0
  0.1794054E+02  0.2938440E-09  0.2938440E-09  0.2938440E-09  0.5000000E-15
  1.000000000000000E-004
  CAR 
 Pt-fcc                                  
     61.71805477    -48.35030807  301      8.93111581      1.00000000
    -48.350  0.0000E+00  0.0000E+00
    -47.983  0.0000E+00  0.0000E+00
    -47.617  0.0000E+00  0.0000E+00
    -47.250  0.0000E+00  0.0000E+00
    -46.883  0.0000E+00  0.0000E+00
    -46.516  0.0000E+00  0.0000E+00
    -46.149  0.0000E+00  0.0000E+00
    -45.782  0.0000E+00  0.0000E+00
    -45.415  0.0000E+00  0.0000E+00
    -45.048  0.0000E+00  0.0000E+00
    -44.681  0.0000E+00  0.0000E+00
    -44.314  0.0000E+00  0.0000E+00
    -43.948  0.0000E+00  0.0000E+00
    -43.581  0.1693E-13  0.6210E-14
    -43.214  0.7308E-01  0.2681E-01
    -42.847  0.8905E-01  0.6000E-01
    -42.480  0.0000E+00  0.6000E-01
    -42.113  0.0000E+00  0.6000E-01
    -41.746  0.0000E+00  0.6000E-01
    -41.379  0.0000E+00  0.6000E-01
    -41.012  0.0000E+00  0.6000E-01
    -40.646  0.0000E+00  0.6000E-01
    -40.279  0.0000E+00  0.6000E-01
    -39.912  0.0000E+00  0.6000E-01
    -39.545  0.0000E+00  0.6000E-01
    -39.178  0.0000E+00  0.6000E-01
    -38.811  0.0000E+00  0.6000E-01
    -38.444  0.0000E+00  0.6000E-01
    -38.077  0.0000E+00  0.6000E-01
    -37.710  0.0000E+00  0.6000E-01
    -37.343  0.0000E+00  0.6000E-01
    -36.977  0.0000E+00  0.6000E-01
    -36.610  0.0000E+00  0.6000E-01
    -36.243  0.0000E+00  0.6000E-01
    -35.876  0.0000E+00  0.6000E-01
    -35.509  0.0000E+00  0.6000E-01
    -35.142  0.0000E+00  0.6000E-01
    -34.775  0.0000E+00  0.6000E-01
    -34.408  0.0000E+00  0.6000E-01
    -34.041  0.0000E+00  0.6000E-01
    -33.675  0.0000E+00  0.6000E-01
    -33.308  0.0000E+00  0.6000E-01
    -32.941  0.0000E+00  0.6000E-01
    -32.574  0.0000E+00  0.6000E-01
    -32.207  0.0000E+00  0.6000E-01
    -31.840  0.0000E+00  0.6000E-01
    -31.473  0.0000E+00  0.6000E-01
    -31.106  0.0000E+00  0.6000E-01
    -30.739  0.0000E+00  0.6000E-01
    -30.372  0.0000E+00  0.6000E-01
    -30.006  0.0000E+00  0.6000E-01
    -29.639  0.0000E+00  0.6000E-01
    -29.272  0.0000E+00  0.6000E-01
    -28.905  0.0000E+00  0.6000E-01
    -28.538  0.0000E+00  0.6000E-01
    -28.171  0.0000E+00  0.6000E-01
    -27.804  0.0000E+00  0.6000E-01
    -27.437  0.0000E+00  0.6000E-01
    -27.070  0.0000E+00  0.6000E-01
    -26.704  0.0000E+00  0.6000E-01
    -26.337  0.0000E+00  0.6000E-01
    -25.970  0.0000E+00  0.6000E-01
    -25.603  0.0000E+00  0.6000E-01
    -25.236  0.0000E+00  0.6000E-01
    -24.869  0.0000E+00  0.6000E-01
    -24.502  0.0000E+00  0.6000E-01
    -24.135  0.0000E+00  0.6000E-01
    -23.768  0.0000E+00  0.6000E-01
    -23.401  0.0000E+00  0.6000E-01
    -23.035  0.0000E+00  0.6000E-01
    -22.668  0.0000E+00  0.6000E-01
    -22.301  0.0000E+00  0.6000E-01
    -21.934  0.0000E+00  0.6000E-01
    -21.567  0.0000E+00  0.6000E-01
    -21.200  0.0000E+00  0.6000E-01
    -20.833  0.0000E+00  0.6000E-01
    -20.466  0.0000E+00  0.6000E-01
    -20.099  0.0000E+00  0.6000E-01
    -19.733  0.0000E+00  0.6000E-01
    -19.366  0.0000E+00  0.6000E-01
    -18.999  0.0000E+00  0.6000E-01
    -18.632  0.0000E+00  0.6000E-01
    -18.265  0.0000E+00  0.6000E-01
    -17.898  0.0000E+00  0.6000E-01
    -17.531  0.0000E+00  0.6000E-01
    -17.164  0.0000E+00  0.6000E-01
    -16.797  0.0000E+00  0.6000E-01
    -16.430  0.0000E+00  0.6000E-01
    -16.064  0.0000E+00  0.6000E-01
    -15.697  0.0000E+00  0.6000E-01
    -15.330  0.0000E+00  0.6000E-01
    -14.963  0.0000E+00  0.6000E-01
    -14.596  0.0000E+00  0.6000E-01
    -14.229  0.0000E+00  0.6000E-01
    -13.862  0.0000E+00  0.6000E-01
    -13.495  0.0000E+00  0.6000E-01
    -13.128  0.0000E+00  0.6000E-01
    -12.762  0.0000E+00  0.6000E-01
    -12.395  0.0000E+00  0.6000E-01
    -12.028  0.0000E+00  0.6000E-01
    -11.661  0.0000E+00  0.6000E-01
    -11.294  0.0000E+00  0.6000E-01
    -10.927  0.0000E+00  0.6000E-01
    -10.560  0.0000E+00  0.6000E-01
    -10.193  0.0000E+00  0.6000E-01
     -9.826  0.0000E+00  0.6000E-01
     -9.459  0.0000E+00  0.6000E-01
     -9.093  0.0000E+00  0.6000E-01
     -8.726  0.0000E+00  0.6000E-01
     -8.359  0.0000E+00  0.6000E-01
     -7.992  0.0000E+00  0.6000E-01
     -7.625  0.0000E+00  0.6000E-01
     -7.258  0.0000E+00  0.6000E-01
     -6.891  0.0000E+00  0.6000E-01
     -6.524  0.0000E+00  0.6000E-01
     -6.157  0.0000E+00  0.6000E-01
     -5.791  0.0000E+00  0.6000E-01
     -5.424  0.0000E+00  0.6000E-01
     -5.057  0.0000E+00  0.6000E-01
     -4.690  0.0000E+00  0.6000E-01
     -4.323  0.0000E+00  0.6000E-01
     -3.956  0.0000E+00  0.6000E-01
     -3.589  0.0000E+00  0.6000E-01
     -3.222  0.0000E+00  0.6000E-01
     -2.855  0.0000E+00  0.6000E-01
     -2.488  0.0000E+00  0.6000E-01
     -2.122  0.0000E+00  0.6000E-01
     -1.755  0.0000E+00  0.6000E-01
     -1.388  0.0000E+00  0.6000E-01
     -1.021  0.0000E+00  0.6000E-01
     -0.654  0.0000E+00  0.6000E-01
     -0.287  0.0000E+00  0.6000E-01
      0.080  0.0000E+00  0.6000E-01
      0.447  0.3810E-07  0.6000E-01
      0.814  0.3455E-03  0.6013E-01
      1.180  0.4550E-03  0.6029E-01
      1.547  0.1057E-02  0.6068E-01
      1.914  0.9645E-03  0.6104E-01
      2.281  0.1355E-02  0.6154E-01
      2.648  0.1732E-02  0.6218E-01
      3.015  0.2346E-02  0.6304E-01
      3.382  0.4485E-02  0.6469E-01
      3.749  0.8864E-02  0.6794E-01
      4.116  0.1352E-01  0.7294E-01
      4.483  0.1620E-01  0.7895E-01
      4.849  0.1448E-01  0.8430E-01
      5.216  0.1341E-01  0.8928E-01
      5.583  0.1623E-01  0.9529E-01
      5.950  0.2054E-01  0.1029E+00
      6.317  0.2438E-01  0.1119E+00
      6.684  0.2321E-01  0.1205E+00
      7.051  0.1571E-01  0.1263E+00
      7.418  0.1673E-01  0.1325E+00
      7.785  0.1806E-01  0.1391E+00
      8.151  0.1479E-01  0.1446E+00
      8.518  0.1649E-01  0.1507E+00
      8.885  0.2238E-01  0.1589E+00
      9.252  0.1922E-01  0.1661E+00
      9.619  0.9320E-03  0.1665E+00
      9.986  0.5085E-02  0.1684E+00
     10.353  0.2361E-02  0.1692E+00
     10.720  0.3160E-02  0.1704E+00
     11.087  0.3215E-02  0.1716E+00
     11.454  0.3293E-02  0.1728E+00
     11.820  0.2360E-02  0.1737E+00
     12.187  0.3863E-02  0.1751E+00
     12.554  0.2097E-02  0.1759E+00
     12.921  0.2641E-02  0.1769E+00
     13.288  0.2376E-02  0.1778E+00
     13.655  0.5124E-02  0.1796E+00
     14.022  0.2382E-02  0.1806E+00
     14.389  0.3268E-02  0.1818E+00
     14.756  0.3511E-02  0.1830E+00
     15.122  0.3227E-02  0.1842E+00
     15.489  0.3381E-02  0.1855E+00
     15.856  0.4168E-02  0.1870E+00
     16.223  0.2600E-02  0.1881E+00
     16.590  0.2928E-02  0.1892E+00
     16.957  0.4179E-02  0.1907E+00
     17.324  0.1870E-02  0.1914E+00
     17.691  0.2612E-02  0.1924E+00
     18.058  0.5973E-02  0.1946E+00
     18.424  0.2935E-02  0.1957E+00
     18.791  0.2709E-02  0.1967E+00
     19.158  0.4398E-02  0.1983E+00
     19.525  0.3493E-02  0.1996E+00
     19.892  0.4747E-02  0.2014E+00
     20.259  0.5726E-02  0.2035E+00
     20.626  0.4564E-02  0.2052E+00
     20.993  0.4097E-02  0.2068E+00
     21.360  0.5721E-02  0.2089E+00
     21.727  0.6977E-02  0.2115E+00
     22.093  0.3412E-02  0.2127E+00
     22.460  0.5871E-02  0.2149E+00
     22.827  0.4562E-02  0.2166E+00
     23.194  0.6489E-02  0.2190E+00
     23.561  0.5561E-02  0.2211E+00
     23.928  0.7998E-02  0.2241E+00
     24.295  0.4955E-02  0.2260E+00
     24.662  0.5825E-02  0.2281E+00
     25.029  0.9263E-02  0.2315E+00
     25.395  0.4835E-02  0.2334E+00
     25.762  0.4230E-02  0.2349E+00
     26.129  0.3967E-02  0.2364E+00
     26.496  0.7617E-02  0.2392E+00
     26.863  0.6472E-02  0.2416E+00
     27.230  0.7164E-02  0.2442E+00
     27.597  0.1022E-01  0.2480E+00
     27.964  0.6839E-02  0.2505E+00
     28.331  0.8542E-02  0.2537E+00
     28.698  0.3941E-02  0.2552E+00
     29.064  0.6932E-02  0.2577E+00
     29.431  0.4304E-02  0.2594E+00
     29.798  0.4319E-02  0.2610E+00
     30.165  0.3776E-02  0.2624E+00
     30.532  0.4803E-02  0.2642E+00
     30.899  0.3322E-02  0.2654E+00
     31.266  0.4858E-02  0.2672E+00
     31.633  0.4698E-02  0.2689E+00
     32.000  0.6612E-02  0.2713E+00
     32.366  0.3944E-02  0.2728E+00
     32.733  0.5918E-02  0.2749E+00
     33.100  0.6268E-02  0.2773E+00
     33.467  0.6415E-02  0.2796E+00
     33.834  0.7235E-02  0.2823E+00
     34.201  0.1022E-01  0.2861E+00
     34.568  0.9384E-02  0.2895E+00
     34.935  0.1303E-01  0.2944E+00
     35.302  0.1473E-01  0.2998E+00
     35.669  0.7082E-02  0.3024E+00
     36.035  0.1164E-01  0.3067E+00
     36.402  0.7236E-02  0.3094E+00
     36.769  0.6689E-02  0.3119E+00
     37.136  0.9099E-02  0.3153E+00
     37.503  0.1077E-01  0.3193E+00
     37.870  0.8058E-02  0.3222E+00
     38.237  0.7640E-02  0.3250E+00
     38.604  0.6419E-02  0.3274E+00
     38.971  0.6573E-02  0.3299E+00
     39.337  0.6799E-02  0.3324E+00
     39.704  0.7788E-02  0.3352E+00
     40.071  0.7064E-02  0.3379E+00
     40.438  0.5535E-02  0.3399E+00
     40.805  0.7337E-02  0.3426E+00
     41.172  0.8206E-02  0.3456E+00
     41.539  0.9597E-02  0.3492E+00
     41.906  0.1160E-01  0.3534E+00
     42.273  0.9401E-02  0.3569E+00
     42.640  0.1361E-01  0.3619E+00
     43.006  0.1272E-01  0.3666E+00
     43.373  0.8597E-02  0.3698E+00
     43.740  0.1418E-01  0.3750E+00
     44.107  0.8961E-02  0.3783E+00
     44.474  0.6455E-02  0.3807E+00
     44.841  0.5960E-02  0.3829E+00
     45.208  0.1103E-01  0.3870E+00
     45.575  0.8399E-02  0.3901E+00
     45.942  0.7774E-02  0.3929E+00
     46.308  0.9022E-02  0.3963E+00
     46.675  0.9333E-02  0.3997E+00
     47.042  0.8404E-02  0.4028E+00
     47.409  0.7814E-02  0.4057E+00
     47.776  0.1264E-01  0.4104E+00
     48.143  0.9912E-02  0.4141E+00
     48.510  0.7466E-02  0.4169E+00
     48.877  0.8854E-02  0.4201E+00
     49.244  0.7788E-02  0.4230E+00
     49.611  0.1042E-01  0.4269E+00
     49.977  0.8337E-02  0.4299E+00
     50.344  0.6388E-01  0.4534E+00
     50.711  0.8238E-02  0.4565E+00
     51.078  0.7792E-02  0.4594E+00
     51.445  0.6901E-02  0.4619E+00
     51.812  0.1005E-01  0.4656E+00
     52.179  0.7614E-02  0.4684E+00
     52.546  0.9548E-02  0.4719E+00
     52.913  0.4857E-02  0.4737E+00
     53.279  0.5552E-02  0.4757E+00
     53.646  0.1883E-02  0.4764E+00
     54.013  0.2337E-02  0.4773E+00
     54.380  0.3313E-02  0.4785E+00
     54.747  0.1127E-02  0.4789E+00
     55.114  0.1871E-02  0.4796E+00
     55.481  0.0000E+00  0.4796E+00
     55.848  0.5800E-04  0.4797E+00
     56.215  0.5961E-03  0.4799E+00
     56.582  0.2632E-07  0.4799E+00
     56.948  0.3270E-03  0.4800E+00
     57.315  0.0000E+00  0.4800E+00
     57.682  0.0000E+00  0.4800E+00
     58.049  0.0000E+00  0.4800E+00
     58.416  0.0000E+00  0.4800E+00
     58.783  0.0000E+00  0.4800E+00
     59.150  0.0000E+00  0.4800E+00
     59.517  0.0000E+00  0.4800E+00
     59.884  0.0000E+00  0.4800E+00
     60.250  0.0000E+00  0.4800E+00
     60.617  0.0000E+00  0.4800E+00
     60.984  0.0000E+00  0.4800E+00
     61.351  0.0000E+00  0.4800E+00
     61.718  0.0000E+00  0.4800E+00
     61.71805477    -48.35030807  301      8.93111581      1.00000000
    -48.350  0.0000E+00  0.0000E+00  0.0000E+00  0.0000E+00  0.0000E+00  0.0000E+00  0.0000E+00  0.0000E+00  0.0000E+00
    -47.983  0.0000E+00  0.0000E+00  0.0000E+00  0.0000E+00  0.0000E+00  0.0000E+00  0.0000E+00  0.0000E+00  0.0000E+00
    -47.617  0.0000E+00  0.0000E+00  0.0000E+00  0.0000E+00  0.0000E+00  0.0000E+00  0.0000E+00  0.0000E+00  0.0000E+00
    -47.250  0.0000E+00  0.0000E+00  0.0000E+00  0.0000E+00  0.0000E+00  0.0000E+00  0.0000E+00  0.0000E+00  0.0000E+00
    -46.883  0.0000E+00  0.0000E+00  0.0000E+00  0.0000E+00  0.0000E+00  0.0000E+00  0.0000E+00  0.0000E+00  0.0000E+00
    -46.516  0.0000E+00  0.0000E+00  0.0000E+00  0.0000E+00  0.0000E+00  0.0000E+00  0.0000E+00  0.0000E+00  0.0000E+00
    -46.149  0.0000E+00  0.0000E+00  0.0000E+00  0.0000E+00  0.0000E+00  0.0000E+00  0.0000E+00  0.0000E+00  0.0000E+00
    -45.782  0.0000E+00  0.0000E+00  0.0000E+00  0.0000E+00  0.0000E+00  0.0000E+00  0.0000E+00  0.0000E+00  0.0000E+00
    -45.415  0.0000E+00  0.0000E+00  0.0000E+00  0.0000E+00  0.0000E+00  0.0000E+00  0.0000E+00  0.0000E+00  0.0000E+00
    -45.048  0.0000E+00  0.0000E+00  0.0000E+00  0.0000E+00  0.0000E+00  0.0000E+00  0.0000E+00  0.0000E+00  0.0000E+00
    -44.681  0.0000E+00  0.0000E+00  0.0000E+00  0.0000E+00  0.0000E+00  0.0000E+00  0.0000E+00  0.0000E+00  0.0000E+00
    -44.314  0.0000E+00  0.0000E+00  0.0000E+00  0.0000E+00  0.0000E+00  0.0000E+00  0.0000E+00  0.0000E+00  0.0000E+00
    -43.948  0.0000E+00  0.0000E+00  0.0000E+00  0.0000E+00  0.0000E+00  0.0000E+00  0.0000E+00  0.0000E+00  0.0000E+00
    -43.581  0.2079E-17  0.5562E-12  0.5562E-12  0.5562E-12  0.1040E-17  0.1040E-17  0.6787E-18  0.1040E-17  0.6787E-18
    -43.214  0.5730E-04  0.2408E+01  0.2408E+01  0.2408E+01  0.2091E-04  0.2091E-04  0.8712E-05  0.2091E-04  0.8712E-05
    -42.847  0.1773E-04  0.2946E+01  0.2946E+01  0.2946E+01  0.1805E-04  0.1805E-04  0.1183E-04  0.1805E-04  0.1183E-04
    -42.480  0.0000E+00  0.0000E+00  0.0000E+00  0.0000E+00  0.0000E+00  0.0000E+00  0.0000E+00  0.0000E+00  0.0000E+00
    -42.113  0.0000E+00  0.0000E+00  0.0000E+00  0.0000E+00  0.0000E+00  0.0000E+00  0.0000E+00  0.0000E+00  0.0000E+00
    -41.746  0.0000E+00  0.0000E+00  0.0000E+00  0.0000E+00  0.0000E+00  0.0000E+00  0.0000E+00  0.0000E+00  0.0000E+00
    -41.379  0.0000E+00  0.0000E+00  0.0000E+00  0.0000E+00  0.0000E+00  0.0000E+00  0.0000E+00  0.0000E+00  0.0000E+00
    -41.012  0.0000E+00  0.0000E+00  0.0000E+00  0.0000E+00  0.0000E+00  0.0000E+00  0.0000E+00  0.0000E+00  0.0000E+00
    -40.646  0.0000E+00  0.0000E+00  0.0000E+00  0.0000E+00  0.0000E+00  0.0000E+00  0.0000E+00  0.0000E+00  0.0000E+00
    -40.279  0.0000E+00  0.0000E+00  0.0000E+00  0.0000E+00  0.0000E+00  0.0000E+00  0.0000E+00  0.0000E+00  0.0000E+00
    -39.912  0.0000E+00  0.0000E+00  0.0000E+00  0.0000E+00  0.0000E+00  0.0000E+00  0.0000E+00  0.0000E+00  0.0000E+00
    -39.545  0.0000E+00  0.0000E+00  0.0000E+00  0.0000E+00  0.0000E+00  0.0000E+00  0.0000E+00  0.0000E+00  0.0000E+00
    -39.178  0.0000E+00  0.0000E+00  0.0000E+00  0.0000E+00  0.0000E+00  0.0000E+00  0.0000E+00  0.0000E+00  0.0000E+00
    -38.811  0.0000E+00  0.0000E+00  0.0000E+00  0.0000E+00  0.0000E+00  0.0000E+00  0.0000E+00  0.0000E+00  0.0000E+00
    -38.444  0.0000E+00  0.0000E+00  0.0000E+00  0.0000E+00  0.0000E+00  0.0000E+00  0.0000E+00  0.0000E+00  0.0000E+00
    -38.077  0.0000E+00  0.0000E+00  0.0000E+00  0.0000E+00  0.0000E+00  0.0000E+00  0.0000E+00  0.0000E+00  0.0000E+00
    -37.710  0.0000E+00  0.0000E+00  0.0000E+00  0.0000E+00  0.0000E+00  0.0000E+00  0.0000E+00  0.0000E+00  0.0000E+00
    -37.343  0.0000E+00  0.0000E+00  0.0000E+00  0.0000E+00  0.0000E+00  0.0000E+00  0.0000E+00  0.0000E+00  0.0000E+00
    -36.977  0.0000E+00  0.0000E+00  0.0000E+00  0.0000E+00  0.0000E+00  0.0000E+00  0.0000E+00  0.0000E+00  0.0000E+00
    -36.610  0.0000E+00  0.0000E+00  0.0000E+00  0.0000E+00  0.0000E+00  0.0000E+00  0.0000E+00  0.0000E+00  0.0000E+00
    -36.243  0.0000E+00  0.0000E+00  0.0000E+00  0.0000E+00  0.0000E+00  0.0000E+00  0.0000E+00  0.0000E+00  0.0000E+00
    -35.876  0.0000E+00  0.0000E+00  0.0000E+00  0.0000E+00  0.0000E+00  0.0000E+00  0.0000E+00  0.0000E+00  0.0000E+00
    -35.509  0.0000E+00  0.0000E+00  0.0000E+00  0.0000E+00  0.0000E+00  0.0000E+00  0.0000E+00  0.0000E+00  0.0000E+00
    -35.142  0.0000E+00  0.0000E+00  0.0000E+00  0.0000E+00  0.0000E+00  0.0000E+00  0.0000E+00  0.0000E+00  0.0000E+00
    -34.775  0.0000E+00  0.0000E+00  0.0000E+00  0.0000E+00  0.0000E+00  0.0000E+00  0.0000E+00  0.0000E+00  0.0000E+00
    -34.408  0.0000E+00  0.0000E+00  0.0000E+00  0.0000E+00  0.0000E+00  0.0000E+00  0.0000E+00  0.0000E+00  0.0000E+00
    -34.041  0.0000E+00  0.0000E+00  0.0000E+00  0.0000E+00  0.0000E+00  0.0000E+00  0.0000E+00  0.0000E+00  0.0000E+00
    -33.675  0.0000E+00  0.0000E+00  0.0000E+00  0.0000E+00  0.0000E+00  0.0000E+00  0.0000E+00  0.0000E+00  0.0000E+00
    -33.308  0.0000E+00  0.0000E+00  0.0000E+00  0.0000E+00  0.0000E+00  0.0000E+00  0.0000E+00  0.0000E+00  0.0000E+00
    -32.941  0.0000E+00  0.0000E+00  0.0000E+00  0.0000E+00  0.0000E+00  0.0000E+00  0.0000E+00  0.0000E+00  0.0000E+00
    -32.574  0.0000E+00  0.0000E+00  0.0000E+00  0.0000E+00  0.0000E+00  0.0000E+00  0.0000E+00  0.0000E+00  0.0000E+00
    -32.207  0.0000E+00  0.0000E+00  0.0000E+00  0.0000E+00  0.0000E+00  0.0000E+00  0.0000E+00  0.0000E+00  0.0000E+00
    -31.840  0.0000E+00  0.0000E+00  0.0000E+00  0.0000E+00  0.0000E+00  0.0000E+00  0.0000E+00  0.0000E+00  0.0000E+00
    -31.473  0.0000E+00  0.0000E+00  0.0000E+00  0.0000E+00  0.0000E+00  0.0000E+00  0.0000E+00  0.0000E+00  0.0000E+00
    -31.106  0.0000E+00  0.0000E+00  0.0000E+00  0.0000E+00  0.0000E+00  0.0000E+00  0.0000E+00  0.0000E+00  0.0000E+00
    -30.739  0.0000E+00  0.0000E+00  0.0000E+00  0.0000E+00  0.0000E+00  0.0000E+00  0.0000E+00  0.0000E+00  0.0000E+00
    -30.372  0.0000E+00  0.0000E+00  0.0000E+00  0.0000E+00  0.0000E+00  0.0000E+00  0.0000E+00  0.0000E+00  0.0000E+00
    -30.006  0.0000E+00  0.0000E+00  0.0000E+00  0.0000E+00  0.0000E+00  0.0000E+00  0.0000E+00  0.0000E+00  0.0000E+00
    -29.639  0.0000E+00  0.0000E+00  0.0000E+00  0.0000E+00  0.0000E+00  0.0000E+00  0.0000E+00  0.0000E+00  0.0000E+00
    -29.272  0.0000E+00  0.0000E+00  0.0000E+00  0.0000E+00  0.0000E+00  0.0000E+00  0.0000E+00  0.0000E+00  0.0000E+00
    -28.905  0.0000E+00  0.0000E+00  0.0000E+00  0.0000E+00  0.0000E+00  0.0000E+00  0.0000E+00  0.0000E+00  0.0000E+00
    -28.538  0.0000E+00  0.0000E+00  0.0000E+00  0.0000E+00  0.0000E+00  0.0000E+00  0.0000E+00  0.0000E+00  0.0000E+00
    -28.171  0.0000E+00  0.0000E+00  0.0000E+00  0.0000E+00  0.0000E+00  0.0000E+00  0.0000E+00  0.0000E+00  0.0000E+00
    -27.804  0.0000E+00  0.0000E+00  0.0000E+00  0.0000E+00  0.0000E+00  0.0000E+00  0.0000E+00  0.0000E+00  0.0000E+00
    -27.437  0.0000E+00  0.0000E+00  0.0000E+00  0.0000E+00  0.0000E+00  0.0000E+00  0.0000E+00  0.0000E+00  0.0000E+00
    -27.070  0.0000E+00  0.0000E+00  0.0000E+00  0.0000E+00  0.0000E+00  0.0000E+00  0.0000E+00  0.0000E+00  0.0000E+00
    -26.704  0.0000E+00  0.0000E+00  0.0000E+00  0.0000E+00  0.0000E+00  0.0000E+00  0.0000E+00  0.0000E+00  0.0000E+00
    -26.337  0.0000E+00  0.0000E+00  0.0000E+00  0.0000E+00  0.0000E+00  0.0000E+00  0.0000E+00  0.0000E+00  0.0000E+00
    -25.970  0.0000E+00  0.0000E+00  0.0000E+00  0.0000E+00  0.0000E+00  0.0000E+00  0.0000E+00  0.0000E+00  0.0000E+00
    -25.603  0.0000E+00  0.0000E+00  0.0000E+00  0.0000E+00  0.0000E+00  0.0000E+00  0.0000E+00  0.0000E+00  0.0000E+00
    -25.236  0.0000E+00  0.0000E+00  0.0000E+00  0.0000E+00  0.0000E+00  0.0000E+00  0.0000E+00  0.0000E+00  0.0000E+00
    -24.869  0.0000E+00  0.0000E+00  0.0000E+00  0.0000E+00  0.0000E+00  0.0000E+00  0.0000E+00  0.0000E+00  0.0000E+00
    -24.502  0.0000E+00  0.0000E+00  0.0000E+00  0.0000E+00  0.0000E+00  0.0000E+00  0.0000E+00  0.0000E+00  0.0000E+00
    -24.135  0.0000E+00  0.0000E+00  0.0000E+00  0.0000E+00  0.0000E+00  0.0000E+00  0.0000E+00  0.0000E+00  0.0000E+00
    -23.768  0.0000E+00  0.0000E+00  0.0000E+00  0.0000E+00  0.0000E+00  0.0000E+00  0.0000E+00  0.0000E+00  0.0000E+00
    -23.401  0.0000E+00  0.0000E+00  0.0000E+00  0.0000E+00  0.0000E+00  0.0000E+00  0.0000E+00  0.0000E+00  0.0000E+00
    -23.035  0.0000E+00  0.0000E+00  0.0000E+00  0.0000E+00  0.0000E+00  0.0000E+00  0.0000E+00  0.0000E+00  0.0000E+00
    -22.668  0.0000E+00  0.0000E+00  0.0000E+00  0.0000E+00  0.0000E+00  0.0000E+00  0.0000E+00  0.0000E+00  0.0000E+00
    -22.301  0.0000E+00  0.0000E+00  0.0000E+00  0.0000E+00  0.0000E+00  0.0000E+00  0.0000E+00  0.0000E+00  0.0000E+00
    -21.934  0.0000E+00  0.0000E+00  0.0000E+00  0.0000E+00  0.0000E+00  0.0000E+00  0.0000E+00  0.0000E+00  0.0000E+00
    -21.567  0.0000E+00  0.0000E+00  0.0000E+00  0.0000E+00  0.0000E+00  0.0000E+00  0.0000E+00  0.0000E+00  0.0000E+00
    -21.200  0.0000E+00  0.0000E+00  0.0000E+00  0.0000E+00  0.0000E+00  0.0000E+00  0.0000E+00  0.0000E+00  0.0000E+00
    -20.833  0.0000E+00  0.0000E+00  0.0000E+00  0.0000E+00  0.0000E+00  0.0000E+00  0.0000E+00  0.0000E+00  0.0000E+00
    -20.466  0.0000E+00  0.0000E+00  0.0000E+00  0.0000E+00  0.0000E+00  0.0000E+00  0.0000E+00  0.0000E+00  0.0000E+00
    -20.099  0.0000E+00  0.0000E+00  0.0000E+00  0.0000E+00  0.0000E+00  0.0000E+00  0.0000E+00  0.0000E+00  0.0000E+00
    -19.733  0.0000E+00  0.0000E+00  0.0000E+00  0.0000E+00  0.0000E+00  0.0000E+00  0.0000E+00  0.0000E+00  0.0000E+00
    -19.366  0.0000E+00  0.0000E+00  0.0000E+00  0.0000E+00  0.0000E+00  0.0000E+00  0.0000E+00  0.0000E+00  0.0000E+00
    -18.999  0.0000E+00  0.0000E+00  0.0000E+00  0.0000E+00  0.0000E+00  0.0000E+00  0.0000E+00  0.0000E+00  0.0000E+00
    -18.632  0.0000E+00  0.0000E+00  0.0000E+00  0.0000E+00  0.0000E+00  0.0000E+00  0.0000E+00  0.0000E+00  0.0000E+00
    -18.265  0.0000E+00  0.0000E+00  0.0000E+00  0.0000E+00  0.0000E+00  0.0000E+00  0.0000E+00  0.0000E+00  0.0000E+00
    -17.898  0.0000E+00  0.0000E+00  0.0000E+00  0.0000E+00  0.0000E+00  0.0000E+00  0.0000E+00  0.0000E+00  0.0000E+00
    -17.531  0.0000E+00  0.0000E+00  0.0000E+00  0.0000E+00  0.0000E+00  0.0000E+00  0.0000E+00  0.0000E+00  0.0000E+00
    -17.164  0.0000E+00  0.0000E+00  0.0000E+00  0.0000E+00  0.0000E+00  0.0000E+00  0.0000E+00  0.0000E+00  0.0000E+00
    -16.797  0.0000E+00  0.0000E+00  0.0000E+00  0.0000E+00  0.0000E+00  0.0000E+00  0.0000E+00  0.0000E+00  0.0000E+00
    -16.430  0.0000E+00  0.0000E+00  0.0000E+00  0.0000E+00  0.0000E+00  0.0000E+00  0.0000E+00  0.0000E+00  0.0000E+00
    -16.064  0.0000E+00  0.0000E+00  0.0000E+00  0.0000E+00  0.0000E+00  0.0000E+00  0.0000E+00  0.0000E+00  0.0000E+00
    -15.697  0.0000E+00  0.0000E+00  0.0000E+00  0.0000E+00  0.0000E+00  0.0000E+00  0.0000E+00  0.0000E+00  0.0000E+00
    -15.330  0.0000E+00  0.0000E+00  0.0000E+00  0.0000E+00  0.0000E+00  0.0000E+00  0.0000E+00  0.0000E+00  0.0000E+00
    -14.963  0.0000E+00  0.0000E+00  0.0000E+00  0.0000E+00  0.0000E+00  0.0000E+00  0.0000E+00  0.0000E+00  0.0000E+00
    -14.596  0.0000E+00  0.0000E+00  0.0000E+00  0.0000E+00  0.0000E+00  0.0000E+00  0.0000E+00  0.0000E+00  0.0000E+00
    -14.229  0.0000E+00  0.0000E+00  0.0000E+00  0.0000E+00  0.0000E+00  0.0000E+00  0.0000E+00  0.0000E+00  0.0000E+00
    -13.862  0.0000E+00  0.0000E+00  0.0000E+00  0.0000E+00  0.0000E+00  0.0000E+00  0.0000E+00  0.0000E+00  0.0000E+00
    -13.495  0.0000E+00  0.0000E+00  0.0000E+00  0.0000E+00  0.0000E+00  0.0000E+00  0.0000E+00  0.0000E+00  0.0000E+00
    -13.128  0.0000E+00  0.0000E+00  0.0000E+00  0.0000E+00  0.0000E+00  0.0000E+00  0.0000E+00  0.0000E+00  0.0000E+00
    -12.762  0.0000E+00  0.0000E+00  0.0000E+00  0.0000E+00  0.0000E+00  0.0000E+00  0.0000E+00  0.0000E+00  0.0000E+00
    -12.395  0.0000E+00  0.0000E+00  0.0000E+00  0.0000E+00  0.0000E+00  0.0000E+00  0.0000E+00  0.0000E+00  0.0000E+00
    -12.028  0.0000E+00  0.0000E+00  0.0000E+00  0.0000E+00  0.0000E+00  0.0000E+00  0.0000E+00  0.0000E+00  0.0000E+00
    -11.661  0.0000E+00  0.0000E+00  0.0000E+00  0.0000E+00  0.0000E+00  0.0000E+00  0.0000E+00  0.0000E+00  0.0000E+00
    -11.294  0.0000E+00  0.0000E+00  0.0000E+00  0.0000E+00  0.0000E+00  0.0000E+00  0.0000E+00  0.0000E+00  0.0000E+00
    -10.927  0.0000E+00  0.0000E+00  0.0000E+00  0.0000E+00  0.0000E+00  0.0000E+00  0.0000E+00  0.0000E+00  0.0000E+00
    -10.560  0.0000E+00  0.0000E+00  0.0000E+00  0.0000E+00  0.0000E+00  0.0000E+00  0.0000E+00  0.0000E+00  0.0000E+00
    -10.193  0.0000E+00  0.0000E+00  0.0000E+00  0.0000E+00  0.0000E+00  0.0000E+00  0.0000E+00  0.0000E+00  0.0000E+00
     -9.826  0.0000E+00  0.0000E+00  0.0000E+00  0.0000E+00  0.0000E+00  0.0000E+00  0.0000E+00  0.0000E+00  0.0000E+00
     -9.459  0.0000E+00  0.0000E+00  0.0000E+00  0.0000E+00  0.0000E+00  0.0000E+00  0.0000E+00  0.0000E+00  0.0000E+00
     -9.093  0.0000E+00  0.0000E+00  0.0000E+00  0.0000E+00  0.0000E+00  0.0000E+00  0.0000E+00  0.0000E+00  0.0000E+00
     -8.726  0.0000E+00  0.0000E+00  0.0000E+00  0.0000E+00  0.0000E+00  0.0000E+00  0.0000E+00  0.0000E+00  0.0000E+00
     -8.359  0.0000E+00  0.0000E+00  0.0000E+00  0.0000E+00  0.0000E+00  0.0000E+00  0.0000E+00  0.0000E+00  0.0000E+00
     -7.992  0.0000E+00  0.0000E+00  0.0000E+00  0.0000E+00  0.0000E+00  0.0000E+00  0.0000E+00  0.0000E+00  0.0000E+00
     -7.625  0.0000E+00  0.0000E+00  0.0000E+00  0.0000E+00  0.0000E+00  0.0000E+00  0.0000E+00  0.0000E+00  0.0000E+00
     -7.258  0.0000E+00  0.0000E+00  0.0000E+00  0.0000E+00  0.0000E+00  0.0000E+00  0.0000E+00  0.0000E+00  0.0000E+00
     -6.891  0.0000E+00  0.0000E+00  0.0000E+00  0.0000E+00  0.0000E+00  0.0000E+00  0.0000E+00  0.0000E+00  0.0000E+00
     -6.524  0.0000E+00  0.0000E+00  0.0000E+00  0.0000E+00  0.0000E+00  0.0000E+00  0.0000E+00  0.0000E+00  0.0000E+00
     -6.157  0.0000E+00  0.0000E+00  0.0000E+00  0.0000E+00  0.0000E+00  0.0000E+00  0.0000E+00  0.0000E+00  0.0000E+00
     -5.791  0.0000E+00  0.0000E+00  0.0000E+00  0.0000E+00  0.0000E+00  0.0000E+00  0.0000E+00  0.0000E+00  0.0000E+00
     -5.424  0.0000E+00  0.0000E+00  0.0000E+00  0.0000E+00  0.0000E+00  0.0000E+00  0.0000E+00  0.0000E+00  0.0000E+00
     -5.057  0.0000E+00  0.0000E+00  0.0000E+00  0.0000E+00  0.0000E+00  0.0000E+00  0.0000E+00  0.0000E+00  0.0000E+00
     -4.690  0.0000E+00  0.0000E+00  0.0000E+00  0.0000E+00  0.0000E+00  0.0000E+00  0.0000E+00  0.0000E+00  0.0000E+00
     -4.323  0.0000E+00  0.0000E+00  0.0000E+00  0.0000E+00  0.0000E+00  0.0000E+00  0.0000E+00  0.0000E+00  0.0000E+00
     -3.956  0.0000E+00  0.0000E+00  0.0000E+00  0.0000E+00  0.0000E+00  0.0000E+00  0.0000E+00  0.0000E+00  0.0000E+00
     -3.589  0.0000E+00  0.0000E+00  0.0000E+00  0.0000E+00  0.0000E+00  0.0000E+00  0.0000E+00  0.0000E+00  0.0000E+00
     -3.222  0.0000E+00  0.0000E+00  0.0000E+00  0.0000E+00  0.0000E+00  0.0000E+00  0.0000E+00  0.0000E+00  0.0000E+00
     -2.855  0.0000E+00  0.0000E+00  0.0000E+00  0.0000E+00  0.0000E+00  0.0000E+00  0.0000E+00  0.0000E+00  0.0000E+00
     -2.488  0.0000E+00  0.0000E+00  0.0000E+00  0.0000E+00  0.0000E+00  0.0000E+00  0.0000E+00  0.0000E+00  0.0000E+00
     -2.122  0.0000E+00  0.0000E+00  0.0000E+00  0.0000E+00  0.0000E+00  0.0000E+00  0.0000E+00  0.0000E+00  0.0000E+00
     -1.755  0.0000E+00  0.0000E+00  0.0000E+00  0.0000E+00  0.0000E+00  0.0000E+00  0.0000E+00  0.0000E+00  0.0000E+00
     -1.388  0.0000E+00  0.0000E+00  0.0000E+00  0.0000E+00  0.0000E+00  0.0000E+00  0.0000E+00  0.0000E+00  0.0000E+00
     -1.021  0.0000E+00  0.0000E+00  0.0000E+00  0.0000E+00  0.0000E+00  0.0000E+00  0.0000E+00  0.0000E+00  0.0000E+00
     -0.654  0.0000E+00  0.0000E+00  0.0000E+00  0.0000E+00  0.0000E+00  0.0000E+00  0.0000E+00  0.0000E+00  0.0000E+00
     -0.287  0.0000E+00  0.0000E+00  0.0000E+00  0.0000E+00  0.0000E+00  0.0000E+00  0.0000E+00  0.0000E+00  0.0000E+00
      0.080  0.0000E+00  0.0000E+00  0.0000E+00  0.0000E+00  0.0000E+00  0.0000E+00  0.0000E+00  0.0000E+00  0.0000E+00
      0.447  0.1310E-05  0.1239E-08  0.1239E-08  0.1239E-08  0.8001E-10  0.8001E-10  0.5616E-23  0.8001E-10  0.5616E-23
      0.814  0.1178E-01  0.3135E-04  0.3135E-04  0.3135E-04  0.3476E-05  0.3476E-05  0.2754E-05  0.3476E-05  0.2754E-05
      1.180  0.1526E-01  0.8518E-04  0.8518E-04  0.8518E-04  0.2977E-04  0.2977E-04  0.7335E-05  0.2977E-04  0.7335E-05
      1.547  0.3452E-01  0.3402E-03  0.3402E-03  0.3402E-03  0.1693E-03  0.1693E-03  0.9488E-04  0.1693E-03  0.9488E-04
      1.914  0.3036E-01  0.4429E-03  0.4429E-03  0.4429E-03  0.3852E-03  0.3852E-03  0.2400E-03  0.3852E-03  0.2400E-03
      2.281  0.4111E-01  0.7330E-03  0.7330E-03  0.7330E-03  0.1150E-02  0.1150E-02  0.4736E-03  0.1150E-02  0.4736E-03
      2.648  0.4936E-01  0.1098E-02  0.1098E-02  0.1098E-02  0.2767E-02  0.2767E-02  0.1136E-02  0.2767E-02  0.1136E-02
      3.015  0.6060E-01  0.1544E-02  0.1544E-02  0.1544E-02  0.7531E-02  0.7531E-02  0.2239E-02  0.7531E-02  0.2239E-02
      3.382  0.8757E-01  0.2068E-02  0.2068E-02  0.2068E-02  0.3735E-01  0.3735E-01  0.5142E-02  0.3735E-01  0.5142E-02
      3.749  0.1283E+00  0.3700E-02  0.3700E-02  0.3700E-02  0.7401E-01  0.7401E-01  0.5573E-01  0.7401E-01  0.5573E-01
      4.116  0.1113E+00  0.4169E-02  0.4169E-02  0.4169E-02  0.1280E+00  0.1280E+00  0.1553E+00  0.1280E+00  0.1553E+00
      4.483  0.7610E-01  0.4263E-02  0.4263E-02  0.4263E-02  0.2283E+00  0.2283E+00  0.1459E+00  0.2283E+00  0.1459E+00
      4.849  0.3456E-01  0.4903E-02  0.4903E-02  0.4903E-02  0.2173E+00  0.2173E+00  0.1421E+00  0.2173E+00  0.1421E+00
      5.216  0.8623E-02  0.6300E-02  0.6300E-02  0.6300E-02  0.1927E+00  0.1927E+00  0.1610E+00  0.1927E+00  0.1610E+00
      5.583  0.9033E-02  0.6397E-02  0.6397E-02  0.6397E-02  0.2322E+00  0.2322E+00  0.2197E+00  0.2322E+00  0.2197E+00
      5.950  0.1986E-01  0.8470E-02  0.8470E-02  0.8470E-02  0.3343E+00  0.3343E+00  0.2299E+00  0.3343E+00  0.2299E+00
      6.317  0.2838E-01  0.1078E-01  0.1078E-01  0.1078E-01  0.3731E+00  0.3731E+00  0.3210E+00  0.3731E+00  0.3210E+00
      6.684  0.2122E-01  0.7385E-02  0.7385E-02  0.7385E-02  0.3902E+00  0.3902E+00  0.3022E+00  0.3902E+00  0.3022E+00
      7.051  0.1329E-01  0.7468E-02  0.7468E-02  0.7468E-02  0.2248E+00  0.2248E+00  0.2535E+00  0.2248E+00  0.2535E+00
      7.418  0.1142E-01  0.5689E-02  0.5689E-02  0.5689E-02  0.1714E+00  0.1714E+00  0.4067E+00  0.1714E+00  0.4067E+00
      7.785  0.1203E-01  0.5424E-02  0.5424E-02  0.5424E-02  0.1577E+00  0.1577E+00  0.4972E+00  0.1577E+00  0.4972E+00
      8.151  0.9450E-02  0.2973E-02  0.2973E-02  0.2973E-02  0.1560E+00  0.1560E+00  0.3925E+00  0.1560E+00  0.3925E+00
      8.518  0.8349E-02  0.3348E-02  0.3348E-02  0.3348E-02  0.2425E+00  0.2425E+00  0.3492E+00  0.2425E+00  0.3492E+00
      8.885  0.7753E-02  0.2359E-02  0.2359E-02  0.2359E-02  0.4169E+00  0.4169E+00  0.3831E+00  0.4169E+00  0.3831E+00