    1    1  100    1
  0.1794054E+02  0.2938440E-09  0.2938440E-09  0.2938440E-09  0.5000000E-15
  1.000000000000000E-004
  CAR 
 Pt-fcc                                  
     16    110     24
 
  0.5000000E-01  0.5000000E-01  0.5000000E-01  0.2000000E-02
      1        -43.112407   1.000000
      2        -43.107508   1.000000
      3        -43.107508   1.000000
      4          0.566521   1.000000
      5          6.035365   1.000000
      6          6.099330   1.000000
      7          6.099330   1.000000
      8          7.678772   1.000000
      9          7.678772   1.000000
     10         23.945884   0.000000
     11         27.294104   0.000000
     12         27.954824   0.000000
     13         27.954824   0.000000
     14         33.121110   0.000000
     15         36.169772   0.000000
     16         36.817935   0.000000
     17         36.817935   0.000000
     18         39.165909   0.000000
     19         39.165909   0.000000
     20         39.989026   0.000000
     21         46.091510   0.000000
     22         46.091510   0.000000
     23         50.221454   0.000000
     24         50.858294   0.000000
 
  0.1500000E+00  0.5000000E-01  0.5000000E-01  0.6000000E-02
      1        -43.141488   1.000000
      2        -43.116077   1.000000
      3        -43.110416   1.000000
      4          1.011516   1.000000
      5          5.866353   1.000000
      6          6.240339   1.000000
      7          6.270405   1.000000
      8          7.518119   1.000000
      9          7.726122   1.000000
     10         24.440068   0.000000
     11         25.580209   0.000000
     12         27.815330   0.000000
     13         28.884404   0.000000
     14         32.644851   0.000000
     15         34.871901   0.000000
     16         35.991295   0.000000
     17         36.024628   0.000000
     18         37.902159   0.000000
     19         40.512850   0.000000
     20         42.458542   0.000000
     21         45.311168   0.000000
     22         47.254828   0.000000
     23         50.230369   0.000000
     24         53.003097   0.000000
 
  0.2500000E+00  0.5000000E-01  0.5000000E-01  0.6000000E-02
      1        -43.205743   1.000000
      2        -43.128125   1.000000
      3        -43.119752   1.000000
      4          1.987671   1.000000
      5          5.703035   1.000000
      6          6.391489   1.000000
      7          6.420151   1.000000
      8          7.515852   1.000000
      9          7.933559   1.000000
     10         22.312037   0.000000
     11         25.107086   0.000000
     12         28.285575   0.000000
     13         30.252391   0.000000
     14         30.429262   0.000000
     15         32.785556   0.000000
     16         33.454153   0.000000
     17         38.476016   0.000000
     18         39.365083   0.000000
     19         41.433101   0.000000
     20         43.425569   0.000000
     21         46.131738   0.000000
     22         48.117535   0.000000
     23         50.225308   0.000000
     24         54.775436   0.000000
 
  0.3500000E+00  0.5000000E-01  0.5000000E-01  0.6000000E-02
      1        -43.277715   1.000000
      2        -43.139682   1.000000
      3        -43.131147   1.000000
      4          2.941088   1.000000
      5          6.144958   1.000000
      6          6.294844   1.000000
      7          6.304771   1.000000
      8          8.014625   1.000000
      9          8.499616   1.000000
     10         18.646658   0.000000
     11         24.463028   0.000000
     12         27.419701   0.000000
     13         29.465492   0.000000
     14         31.354363   0.000000
     15         32.697338   0.000000
     16         33.564054   0.000000
     17         39.097032   0.000000
     18         40.792628   0.000000
     19         43.062929   0.000000
     20         45.238993   0.000000
     21         47.273863   0.000000
     22         48.941016   0.000000
     23         50.232153   0.000000
     24         53.524886   0.000000
 
  0.4500000E+00  0.5000000E-01  0.5000000E-01  0.6000000E-02
      1        -43.331908   1.000000
      2        -43.147124   1.000000
      3        -43.140658   1.000000
      4          3.254667   1.000000
      5          6.058406   1.000000
      6          6.133092   1.000000
      7          7.663158   1.000000
      8          8.639555   1.000000
      9          9.232649   0.000000
     10         15.122391   0.000000
     11         23.675030   0.000000
     12         26.367243   0.000000
     13         27.358844   0.000000
     14         33.518443   0.000000
     15         34.108469   0.000000
     16         34.968725   0.000000
     17         40.045317   0.000000
     18         41.024840   0.000000
     19         42.676916   0.000000
     20         47.142255   0.000000
     21         49.761987   0.000000
     22         49.966205   0.000000
     23         50.238551   0.000000
     24         50.762819   0.000000
 
 -0.4500000E+00  0.5000000E-01  0.5000000E-01  0.6000000E-02
      1        -43.347201   1.000000
      2        -43.147225   1.000000
      3        -43.144970   1.000000
      4          3.278823   1.000000
      5          5.990545   1.000000
      6          6.092516   1.000000
      7          8.229591   1.000000
      8          8.940856   0.391470
      9          9.800205   0.000000
     10         13.614163   0.000000
     11         23.458251   0.000000
     12         26.356495   0.000000
     13         26.444882   0.000000
     14         34.304707   0.000000
     15         34.444015   0.000000
     16         35.755046   0.000000
     17         40.414858   0.000000
     18         41.271974   0.000000
     19         41.930623   0.000000
     20         48.250919   0.000000
     21         48.918996   0.000000
     22         49.673162   0.000000
     23         50.240936   0.000000
     24         50.870187   0.000000
 
 -0.3500000E+00  0.5000000E-01  0.5000000E-01  0.6000000E-02
      1        -43.317468   1.000000
      2        -43.142438   1.000000
      3        -43.140779   1.000000
      4          3.206566   1.000000
      5          6.090470   1.000000
      6          6.204682   1.000000
      7          7.095590   1.000000
      8          8.727364   1.000000
      9          8.734500   1.000000
     10         16.214252   0.000000
     11         23.900263   0.000000
     12         26.863502   0.000000
     13         27.621688   0.000000
     14         33.432228   0.000000
     15         33.493370   0.000000
     16         34.214774   0.000000
     17         39.167791   0.000000
     18         41.888184   0.000000
     19         42.649420   0.000000
     20         46.941960   0.000000
     21         48.489253   0.000000
     22         49.828209   0.000000
     23         50.233480   0.000000
     24         51.226594   0.000000
 
 -0.2500000E+00  0.5000000E-01  0.5000000E-01  0.6000000E-02
      1        -43.253906   1.000000
      2        -43.133778   1.000000
      3        -43.129654   1.000000
      4          2.681752   1.000000
      5          5.879988   1.000000
      6          6.309160   1.000000
      7          6.380271   1.000000
      8          7.905155   1.000000
      9          8.203674   1.000000
     10         19.894626   0.000000
     11         24.805993   0.000000
     12         27.988324   0.000000
     13         29.583205   0.000000
     14         31.186847   0.000000
     15         32.534419   0.000000
     16         32.904545   0.000000
     17         38.534017   0.000000
     18         41.796329   0.000000
     19         41.916465   0.000000
     20         44.591324   0.000000
     21         46.137865   0.000000
     22         49.043526   0.000000
     23         50.234386   0.000000
     24         54.075614   0.000000
 
 -0.1500000E+00  0.5000000E-01  0.5000000E-01  0.6000000E-02
      1        -43.181748   1.000000
      2        -43.122019   1.000000
      3        -43.118203   1.000000
      4          1.625189   1.000000
      5          5.713323   1.000000
      6          6.384543   1.000000
      7          6.399399   1.000000
      8          7.471286   1.000000
      9          7.813883   1.000000
     10         23.441093   0.000000
     11         25.096150   0.000000
     12         28.254223   0.000000
     13         29.443919   0.000000
     14         31.193432   0.000000
     15         33.287268   0.000000
     16         34.094451   0.000000
     17         37.924434   0.000000
     18         38.673257   0.000000
     19         41.540466   0.000000
     20         42.935152   0.000000
     21         45.454027   0.000000
     22         47.996604   0.000000
     23         50.227858   0.000000
     24         54.767071   0.000000
 
 -0.5000000E-01  0.5000000E-01  0.5000000E-01  0.6000000E-02
      1        -43.125231   1.000000
      2        -43.111682   1.000000
      3        -43.110450   1.000000
      4          0.792627   1.000000
      5          5.919972   1.000000
      6          6.195001   1.000000
      7          6.200931   1.000000
      8          7.544864   1.000000
      9          7.737530   1.000000
     10         24.231823   0.000000
     11         26.526241   0.000000
     12         27.847526   0.000000
     13         28.140957   0.000000
     14         33.812484   0.000000
     15         35.255532   0.000000
     16         35.333219   0.000000
     17         36.719666   0.000000
     18         37.646096   0.000000
     19         40.968803   0.000000
     20         41.351117   0.000000
     21         45.223177   0.000000
     22         46.921142   0.000000
     23         50.235335   0.000000
     24         52.105191   0.000000
 
  0.1500000E+00  0.1500000E+00  0.5000000E-01  0.6000000E-02
      1        -43.148144   1.000000
      2        -43.120395   1.000000
      3        -43.118620   1.000000
      4          1.232355   1.000000
      5          5.691703   1.000000
      6          6.396327   1.000000
      7          6.400764   1.000000
      8          7.308385   1.000000
      9          7.850470   1.000000
     10         24.751587   0.000000
     11         25.773399   0.000000
     12         27.456700   0.000000
     13         27.934795   0.000000
     14         32.970430   0.000000
     15         34.119667   0.000000
     16         34.889044   0.000000
     17         36.719636   0.000000
     18         37.589877   0.000000
     19         42.633252   0.000000
     20         42.893376   0.000000
     21         43.992332   0.000000
     22         47.476834   0.000000
     23         50.231978   0.000000
     24         54.185339   0.000000
 
  0.2500000E+00  0.1500000E+00  0.5000000E-01  0.1200000E-01
      1        -43.192714   1.000000
      2        -43.137001   1.000000
      3        -43.125861   1.000000
      4          2.038841   1.000000
      5          5.424763   1.000000
      6          6.495457   1.000000
      7          6.683388   1.000000
      8          7.231914   1.000000
      9          8.069003   1.000000
     10         23.692985   0.000000
     11         25.188271   0.000000
     12         26.972128   0.000000
     13         28.190251   0.000000
     14         31.051770   0.000000
     15         33.370737   0.000000
     16         34.285365   0.000000
     17         37.298603   0.000000
     18         39.761448   0.000000
     19         42.358308   0.000000
     20         43.053829   0.000000
     21         45.561649   0.000000
     22         48.784876   0.000000
     23         50.229679   0.000000
     24         54.570669   0.000000
 
  0.3500000E+00  0.1500000E+00  0.5000000E-01  0.1200000E-01
      1        -43.255626   1.000000
      2        -43.152219   1.000000
      3        -43.137125   1.000000
      4          3.082485   1.000000
      5          5.449127   1.000000
      6          6.183227   1.000000
      7          6.696534   1.000000
      8          7.882412   1.000000
      9          8.628839   1.000000
     10         20.101908   0.000000
     11         24.780543   0.000000
     12         26.054623   0.000000
     13         28.216012   0.000000
     14         31.612155   0.000000
     15         33.011659   0.000000
     16         34.799276   0.000000
     17         36.817673   0.000000
     18         42.209441   0.000000
     19         43.006797   0.000000
     20         44.422767   0.000000
     21         46.231812   0.000000
     22         50.234292   0.000000
     23         50.556462   0.000000
     24         52.689520   0.000000
 
  0.4500000E+00  0.1500000E+00  0.5000000E-01  0.1200000E-01
      1        -43.311047   1.000000
      2        -43.163329   1.000000
      3        -43.148329   1.000000
      4          3.588887   1.000000
      5          5.868004   1.000000
      6          6.292817   1.000000
      7          6.540667   1.000000
      8          8.688200   1.000000
      9          9.647418   0.000000
     10         16.363132   0.000000
     11         24.112575   0.000000
     12         25.002581   0.000000
     13         27.011383   0.000000
     14         33.114003   0.000000
     15         34.601622   0.000000
     16         35.762074   0.000000
     17         36.992166   0.000000
     18         42.876431   0.000000
     19         44.067443   0.000000
     20         44.672779   0.000000
     21         48.812758   0.000000
     22         49.822400   0.000000
     23         50.234322   0.000000
     24         51.494983   0.000000
 
 -0.4500000E+00  0.1500000E+00  0.5000000E-01  0.1200000E-01
      1        -43.336813   1.000000
      2        -43.170219   1.000000
      3        -43.151719   1.000000
      4          3.651675   1.000000
      5          5.736938   1.000000
      6          6.394215   1.000000
      7          7.170696   1.000000
      8          8.888425   0.886378
      9         11.245109   0.000000
     10         13.557905   0.000000
     11         23.657332   0.000000
     12         24.697790   0.000000
     13         26.113932   0.000000
     14         34.013757   0.000000
     15         34.840945   0.000000
     16         37.025650   0.000000
     17         39.147338   0.000000
     18         41.380294   0.000000
     19         42.805631   0.000000
     20         46.390132   0.000000
     21         47.630929   0.000000
     22         50.230207   0.000000
     23         50.613013   0.000000
     24         52.267872   0.000000
 
 -0.3500000E+00  0.1500000E+00  0.5000000E-01  0.1200000E-01
      1        -43.322790   1.000000
      2        -43.171092   1.000000
      3        -43.146115   1.000000
      4          3.647374   1.000000
      5          5.821981   1.000000
      6          6.417570   1.000000
      7          6.802174   1.000000
      8          8.545322   1.000000
      9         10.286479   0.000000
     10         15.305332   0.000000
     11         23.571751   0.000000
     12         24.840929   0.000000
     13         27.121563   0.000000
     14         32.935961   0.000000
     15         34.643391   0.000000
     16         36.730023   0.000000
     17         38.505085   0.000000
     18         41.700970   0.000000
     19         43.393753   0.000000
     20         44.966511   0.000000
     21         49.031106   0.000000
     22         50.231964   0.000000
     23         50.878733   0.000000
     24         51.585184   0.000000
 
 -0.2500000E+00  0.1500000E+00  0.5000000E-01  0.1200000E-01
      1        -43.275190   1.000000
      2        -43.162771   1.000000
      3        -43.134713   1.000000
      4          3.360102   1.000000
      5          5.710321   1.000000
      6          6.106897   1.000000
      7          6.609333   1.000000
      8          7.817495   1.000000
      9          9.134673   0.000000
     10         18.855645   0.000000
     11         23.952462   0.000000
     12         25.807403   0.000000
     13         29.051643   0.000000
     14         30.985373   0.000000
     15         33.724375   0.000000
     16         35.881748   0.000000
     17         36.831810   0.000000
     18         41.047822   0.000000
     19         42.921723   0.000000
     20         45.876795   0.000000
     21         47.590521   0.000000
     22         50.235112   0.000000
     23         50.619422   0.000000
     24         51.845545   0.000000
 
 -0.1500000E+00  0.1500000E+00  0.5000000E-01  0.1200000E-01
      1        -43.214359   1.000000
      2        -43.146552   1.000000
      3        -43.123184   1.000000
      4          2.393317   1.000000
      5          5.457226   1.000000
      6          6.381488   1.000000
      7          6.710149   1.000000
      8          7.235594   1.000000
      9          8.317206   1.000000
     10         22.426916   0.000000
     11         24.549666   0.000000
     12         27.369542   0.000000
     13         28.319283   0.000000
     14         31.756890   0.000000
     15         32.835757   0.000000
     16         35.002392   0.000000
     17         36.475142   0.000000
     18         40.237818   0.000000
     19         41.368250   0.000000
     20         43.825396   0.000000
     21         47.171368   0.000000
     22         49.415160   0.000000
     23         50.228103   0.000000
     24         53.493032   0.000000
 
 -0.5000000E-01  0.1500000E+00  0.5000000E-01  0.1200000E-01
      1        -43.165032   1.000000
      2        -43.124851   1.000000
      3        -43.115638   1.000000
      4          1.436961   1.000000
      5          5.688809   1.000000
      6          6.397738   1.000000
      7          6.411277   1.000000
      8          7.349913   1.000000
      9          7.854298   1.000000
     10         24.474028   0.000000
     11         24.989916   0.000000
     12         27.498219   0.000000
     13         29.129336   0.000000
     14         31.501528   0.000000
     15         34.203151   0.000000
     16         35.057484   0.000000
     17         37.099241   0.000000
     18         37.630206   0.000000
     19         41.429906   0.000000
     20         43.672287   0.000000
     21         44.681358   0.000000
     22         48.079644   0.000000
     23         50.227198   0.000000
     24         54.094163   0.000000
 
  0.2500000E+00  0.2500000E+00  0.5000000E-01  0.6000000E-02
      1        -43.210188   1.000000
      2        -43.145980   1.000000
      3        -43.145571   1.000000
      4          2.587249   1.000000
      5          5.061062   1.000000
      6          6.626589   1.000000
      7          7.069893   1.000000
      8          7.250202   1.000000
      9          8.201904   1.000000
     10         24.200449   0.000000
     11         25.301905   0.000000
     12         26.022935   0.000000
     13         26.745875   0.000000
     14         28.511231   0.000000
     15         34.185324   0.000000
     16         34.287910   0.000000
     17         38.758688   0.000000
     18         40.802606   0.000000
     19         41.641999   0.000000
     20         45.214392   0.000000
     21         45.746218   0.000000
     22         47.717266   0.000000
     23         50.233400   0.000000
     24         56.714947   0.000000
 
  0.3500000E+00  0.2500000E+00  0.5000000E-01  0.1200000E-01
      1        -43.252972   1.000000
      2        -43.166366   1.000000
      3        -43.155810   1.000000
      4          3.426359   1.000000
      5          4.821144   1.000000
      6          6.323505   1.000000
      7          7.424729   1.000000
      8          7.899059   1.000000
      9          8.656533   1.000000
     10         21.672636   0.000000
     11         23.537074   0.000000
     12         24.974956   0.000000
     13         27.416697   0.000000
     14         28.737503   0.000000
     15         34.388939   0.000000
     16         35.522814   0.000000
     17         39.036548   0.000000
     18         40.234771   0.000000
     19         43.427950   0.000000
     20         45.823466   0.000000
     21         47.374889   0.000000
     22         48.490491   0.000000
     23         50.233003   0.000000
     24         55.058563   0.000000
 
  0.4500000E+00  0.2500000E+00  0.5000000E-01  0.1200000E-01
      1        -43.293386   1.000000
      2        -43.186455   1.000000
      3        -43.165536   1.000000
      4          4.024250   1.000000
      5          5.035227   1.000000
      6          6.037186   1.000000
      7          7.292562   1.000000
      8          8.784165   0.999984
      9          9.894055   0.000000
     10         17.823265   0.000000
     11         22.877047   0.000000
     12         23.393788   0.000000
     13         27.022804   0.000000
     14         31.657986   0.000000
     15         34.570623   0.000000
     16         36.187170   0.000000
     17         38.783972   0.000000
     18         41.640478   0.000000
     19         44.024603   0.000000
     20         45.627051   0.000000
     21         48.957086   0.000000
     22         49.483365   0.000000
     23         50.241914   0.000000
     24         53.251079   0.000000
 
 -0.4500000E+00  0.2500000E+00  0.5000000E-01  0.1200000E-01
      1        -43.314932   1.000000
      2        -43.207178   1.000000
      3        -43.167327   1.000000
      4          4.197376   1.000000
      5          5.326772   1.000000
      6          6.221141   1.000000
      7          7.090532   1.000000
      8          8.922068   0.600987
      9         12.148994   0.000000
     10         14.448471   0.000000
     11         21.722243   0.000000
     12         23.412946   0.000000
     13         26.490815   0.000000
     14         33.832396   0.000000
     15         35.396241   0.000000
     16         35.959433   0.000000
     17         39.255647   0.000000
     18         42.432074   0.000000
     19         44.007054   0.000000
     20         44.964435   0.000000
     21         48.362446   0.000000
     22         50.230004   0.000000
     23         50.456198   0.000000
     24         52.952498   0.000000
 
 -0.3500000E+00  0.2500000E+00  0.5000000E-01  0.1200000E-01
      1        -43.308936   1.000000
      2        -43.218354   1.000000
      3        -43.159567   1.000000
      4          4.355737   1.000000
      5          5.405386   1.000000
      6          6.234437   1.000000
      7          6.986902   1.000000
      8          8.498549   1.000000
      9         11.959528   0.000000
     10         15.045932   0.000000
     11         20.698207   0.000000
     12         24.516877   0.000000
     13         26.635447   0.000000
     14         33.041802   0.000000
     15         35.020256   0.000000
     16         37.302848   0.000000
     17         39.959477   0.000000
     18         41.894228   0.000000
     19         43.089174   0.000000
     20         45.508430   0.000000
     21         47.259226   0.000000
     22         50.230974   0.000000
     23         50.315804   0.000000
     24         52.369903   0.000000
 
 -0.2500000E+00  0.2500000E+00  0.5000000E-01  0.1200000E-01
      1        -43.284698   1.000000
      2        -43.208172   1.000000
      3        -43.146295   1.000000
      4          4.335441   1.000000
      5          5.464253   1.000000
      6          5.720630   1.000000
      7          7.066002   1.000000
      8          7.778485   1.000000
      9         10.420741   0.000000
     10         18.159971   0.000000
     11         20.698173   0.000000
     12         25.466920   0.000000
     13         28.261918   0.000000
     14         30.775715   0.000000
     15         34.957606   0.000000
     16         37.135894   0.000000
     17         38.852055   0.000000
     18         40.922237   0.000000
     19         42.063391   0.000000
     20         46.221623   0.000000
     21         49.658812   0.000000
     22         50.238616   0.000000
     23         50.436878   0.000000
     24         50.830304   0.000000
 
 -0.1500000E+00  0.2500000E+00  0.5000000E-01  0.1200000E-01
      1        -43.258553   1.000000
      2        -43.174923   1.000000
      3        -43.133428   1.000000
      4          3.464107   1.000000
      5          5.354487   1.000000
      6          6.087847   1.000000
      7          6.944161   1.000000
      8          7.367957   1.000000
      9          9.226698   0.000000
     10         20.161504   0.000000
     11         22.795822   0.000000
     12         26.246510   0.000000
     13         29.001857   0.000000
     14         30.561555   0.000000
     15         34.190243   0.000000
     16         35.543637   0.000000
     17         37.389302   0.000000
     18         40.342299   0.000000
     19         41.595117   0.000000
     20         46.404325   0.000000
     21         48.801517   0.000000
     22         50.232981   0.000000
     23         50.323422   0.000000
     24         51.684298   0.000000
 
 -0.5000000E-01  0.2500000E+00  0.5000000E-01  0.1200000E-01
      1        -43.230960   1.000000
      2        -43.138695   1.000000
      3        -43.125855   1.000000
      4          2.493119   1.000000
      5          5.607116   1.000000
      6          6.357427   1.000000
      7          6.517703   1.000000
      8          7.563806   1.000000
      9          8.247393   1.000000
     10         21.208024   0.000000
     11         25.035712   0.000000
     12         27.349297   0.000000
     13         29.323625   0.000000
     14         31.395726   0.000000
     15         32.287096   0.000000
     16         34.062627   0.000000
     17         37.368517   0.000000
     18         40.834572   0.000000
     19         42.580500   0.000000
     20         43.566150   0.000000
     21         46.118248   0.000000
     22         49.466865   0.000000
     23         50.230880   0.000000
     24         53.955121   0.000000
 
  0.3500000E+00  0.3500000E+00  0.5000000E-01  0.6000000E-02
      1        -43.277126   1.000000
      2        -43.175491   1.000000
      3        -43.174030   1.000000
      4          3.663547   1.000000
      5          4.439652   1.000000
      6          7.062297   1.000000
      7          7.976545   1.000000
      8          8.321178   1.000000
      9          8.627579   1.000000
     10         21.587595   0.000000
     11         22.483416   0.000000
     12         22.878235   0.000000
     13         26.504987   0.000000
     14         28.251796   0.000000
     15         36.328179   0.000000
     16         36.636037   0.000000
     17         38.601076   0.000000
     18         40.875031   0.000000
     19         43.456507   0.000000
     20         47.575195   0.000000
     21         47.757570   0.000000
     22         49.150952   0.000000
     23         50.238687   0.000000
     24         54.015438   0.000000
 
  0.4500000E+00  0.3500000E+00  0.5000000E-01  0.1200000E-01
      1        -43.303152   1.000000
      2        -43.194169   1.000000
      3        -43.183727   1.000000
      4          3.887621   1.000000
      5          4.322286   1.000000
      6          7.170554   1.000000
      7          8.280569   1.000000
      8          8.796985   0.999926
      9          9.883275   0.000000
     10         18.890586   0.000000
     11         20.956406   0.000000
     12         21.553651   0.000000
     13         27.499841   0.000000
     14         29.275271   0.000000
     15         35.906104   0.000000
     16         38.172774   0.000000
     17         39.573743   0.000000
     18         41.941164   0.000000
     19         43.087952   0.000000
     20         46.577470   0.000000
     21         48.765985   0.000000
     22         50.241677   0.000000
     23         50.877741   0.000000
     24         51.732727   0.000000
 
 -0.4500000E+00  0.3500000E+00  0.5000000E-01  0.1200000E-01
      1        -43.309348   1.000000
      2        -43.223540   1.000000
      3        -43.184777   1.000000
      4          4.106600   1.000000
      5          4.616356   1.000000
      6          6.840456   1.000000
      7          7.978257   1.000000
      8          9.021914   0.005112
      9         12.332510   0.000000
     10         15.807285   0.000000
     11         19.482301   0.000000
     12         21.580884   0.000000
     13         27.666479   0.000000
     14         31.717558   0.000000
     15         35.057821   0.000000
     16         37.628338   0.000000
     17         41.317069   0.000000
     18         42.467147   0.000000
     19         43.371801   0.000000
     20         46.338030   0.000000
     21         47.794690   0.000000
     22         50.238357   0.000000
     23         50.387376   0.000000
     24         51.661921   0.000000
 
 -0.3500000E+00  0.3500000E+00  0.5000000E-01  0.1200000E-01
      1        -43.288119   1.000000
      2        -43.258813   1.000000
      3        -43.176140   1.000000
      4          4.414562   1.000000
      5          5.102706   1.000000
      6          6.312064   1.000000
      7          7.639183   1.000000
      8          8.675936   1.000000
      9         13.324525   0.000000
     10         15.492930   0.000000
     11         17.897329   0.000000
     12         22.907356   0.000000
     13         27.290300   0.000000
     14         33.985884   0.000000
     15         34.751646   0.000000
     16         35.934552   0.000000
     17         40.826215   0.000000
     18         42.896803   0.000000
     19         44.778437   0.000000
     20         46.421545   0.000000
     21         46.827988   0.000000
     22         49.343083   0.000000
     23         50.232201   0.000000
     24         52.169341   0.000000
 
 -0.2500000E+00  0.3500000E+00  0.5000000E-01  0.1200000E-01
      1        -43.289077   1.000000
      2        -43.242429   1.000000
      3        -43.161221   1.000000
      4          4.656377   1.000000
      5          5.401388   1.000000
      6          5.807696   1.000000
      7          7.268022   1.000000