    1    1  100    1
  0.1627260E+02  0.2844400E-09  0.2844400E-09  0.2844400E-09  0.5000000E-15
  1.000000000000000E-004
  CAR 
 Pt-fcc                                  
     16    110     24
 
  0.5000000E-01  0.5000000E-01  0.5000000E-01  0.2000000E-02
      1        -41.698729   1.000000
      2        -41.691207   1.000000
      3        -41.691207   1.000000
      4          1.285788   1.000000
      5          7.220964   1.000000
      6          7.297018   1.000000
      7          7.297018   1.000000
      8          9.153823   1.000000
      9          9.153823   1.000000
     10         25.535107   0.000000
     11         29.391437   0.000000
     12         30.075805   0.000000
     13         30.075805   0.000000
     14         35.599971   0.000000
     15         39.651789   0.000000
     16         40.364350   0.000000
     17         40.364350   0.000000
     18         43.219252   0.000000
     19         43.219252   0.000000
     20         44.103768   0.000000
     21         50.083617   0.000000
     22         50.083617   0.000000
     23         51.548927   0.000000
     24         56.267256   0.000000
 
  0.1500000E+00  0.5000000E-01  0.5000000E-01  0.6000000E-02
      1        -41.739259   1.000000
      2        -41.703341   1.000000
      3        -41.694700   1.000000
      4          1.772824   1.000000
      5          7.018387   1.000000
      6          7.460239   1.000000
      7          7.495346   1.000000
      8          8.959117   1.000000
      9          9.207458   1.000000
     10         26.180663   0.000000
     11         27.680527   0.000000
     12         30.090308   0.000000
     13         31.112087   0.000000
     14         35.692817   0.000000
     15         38.023048   0.000000
     16         38.758181   0.000000
     17         39.483723   0.000000
     18         41.722948   0.000000
     19         44.617413   0.000000
     20         46.750562   0.000000
     21         49.073425   0.000000
     22         51.250886   0.000000
     23         51.560554   0.000000
     24         58.318348   0.000000
 
  0.2500000E+00  0.5000000E-01  0.5000000E-01  0.6000000E-02
      1        -41.831583   1.000000
      2        -41.719597   1.000000
      3        -41.706643   1.000000
      4          2.826715   1.000000
      5          6.821641   1.000000
      6          7.632558   1.000000
      7          7.667350   1.000000
      8          8.950918   1.000000
      9          9.447915   1.000000
     10         24.636031   0.000000
     11         26.989195   0.000000
     12         30.914584   0.000000
     13         32.804326   0.000000
     14         32.982274   0.000000
     15         35.832452   0.000000
     16         36.103293   0.000000
     17         42.224906   0.000000
     18         42.510786   0.000000
     19         45.331960   0.000000
     20         47.446682   0.000000
     21         50.037716   0.000000
     22         51.571457   0.000000
     23         51.984670   0.000000
     24         58.564565   0.000000
 
  0.3500000E+00  0.5000000E-01  0.5000000E-01  0.6000000E-02
      1        -41.937940   1.000000
      2        -41.735947   1.000000
      3        -41.722323   1.000000
      4          3.806212   1.000000
      5          7.331517   1.000000
      6          7.503804   1.000000
      7          7.528635   1.000000
      8          9.539365   1.000000
      9         10.112769   1.000000
     10         21.035169   0.000000
     11         26.266745   0.000000
     12         30.159549   0.000000
     13         32.322424   0.000000
     14         33.821496   0.000000
     15         35.427559   0.000000
     16         36.149789   0.000000
     17         42.738264   0.000000
     18         44.749650   0.000000
     19         46.982548   0.000000
     20         48.564459   0.000000
     21         50.949383   0.000000
     22         51.579131   0.000000
     23         52.729339   0.000000
     24         57.468438   0.000000
 
  0.4500000E+00  0.5000000E-01  0.5000000E-01  0.6000000E-02
      1        -42.016668   1.000000
      2        -41.746594   1.000000
      3        -41.737096   1.000000
      4          4.089965   1.000000
      5          7.237671   1.000000
      6          7.326111   1.000000
      7          8.988596   1.000000
      8         10.285389   1.000000
      9         10.923454   0.000000
     10         17.439777   0.000000
     11         25.332257   0.000000
     12         28.885921   0.000000
     13         29.904287   0.000000
     14         36.406926   0.000000
     15         37.245727   0.000000
     16         37.990971   0.000000
     17         43.530418   0.000000
     18         44.730757   0.000000
     19         46.225188   0.000000
     20         50.687336   0.000000
     21         51.571640   0.000000
     22         53.408895   0.000000
     23         53.658059   0.000000
     24         54.614240   0.000000
 
 -0.4500000E+00  0.5000000E-01  0.5000000E-01  0.6000000E-02
      1        -42.038992   1.000000
      2        -41.747053   1.000000
      3        -41.743936   1.000000
      4          4.103936   1.000000
      5          7.157331   1.000000
      6          7.278478   1.000000
      7          9.652180   1.000000
      8         10.649192   0.305820
      9         11.403864   0.000000
     10         15.937083   0.000000
     11         25.078210   0.000000
     12         28.823959   0.000000
     13         28.890286   0.000000
     14         37.456245   0.000000
     15         37.640275   0.000000
     16         39.090565   0.000000
     17         43.852145   0.000000
     18         44.825725   0.000000
     19         45.028905   0.000000
     20         51.565901   0.000000
     21         51.801887   0.000000
     22         52.442323   0.000000
     23         53.931623   0.000000
     24         54.935121   0.000000
 
 -0.3500000E+00  0.5000000E-01  0.5000000E-01  0.6000000E-02
      1        -41.995893   1.000000
      2        -41.740021   1.000000
      3        -41.737175   1.000000
      4          4.050773   1.000000
      5          7.274752   1.000000
      6          7.410891   1.000000
      7          8.370807   1.000000
      8         10.359484   1.000000
      9         10.392181   1.000000
     10         18.554629   0.000000
     11         25.587216   0.000000
     12         29.449204   0.000000
     13         30.257426   0.000000
     14         36.212511   0.000000
     15         36.359125   0.000000
     16         37.177747   0.000000
     17         42.719928   0.000000
     18         45.685042   0.000000
     19         46.416681   0.000000
     20         50.519152   0.000000
     21         51.570889   0.000000
     22         51.926276   0.000000
     23         53.519950   0.000000
     24         55.199964   0.000000
 
 -0.2500000E+00  0.5000000E-01  0.5000000E-01  0.6000000E-02
      1        -41.903841   1.000000
      2        -41.727337   1.000000
      3        -41.720993   1.000000
      4          3.548649   1.000000
      5          7.023377   1.000000
      6          7.531180   1.000000
      7          7.618678   1.000000
      8          9.405902   1.000000
      9          9.767161   1.000000
     10         22.284683   0.000000
     11         26.651440   0.000000
     12         30.814488   0.000000
     13         32.340447   0.000000
     14         33.870814   0.000000
     15         34.962268   0.000000
     16         35.508101   0.000000
     17         42.226087   0.000000
     18         45.555515   0.000000
     19         45.758621   0.000000
     20         48.223372   0.000000
     21         49.762485   0.000000
     22         51.573871   0.000000
     23         52.959635   0.000000
     24         58.272886   0.000000
 
 -0.1500000E+00  0.5000000E-01  0.5000000E-01  0.6000000E-02
      1        -41.796991   1.000000
      2        -41.711202   1.000000
      3        -41.705091   1.000000
      4          2.438507   1.000000
      5          6.835185   1.000000
      6          7.626090   1.000000
      7          7.644469   1.000000
      8          8.898962   1.000000
      9          9.308413   1.000000
     10         25.720287   0.000000
     11         26.890750   0.000000
     12         30.785859   0.000000
     13         31.817436   0.000000
     14         34.024592   0.000000
     15         36.078732   0.000000
     16         37.269737   0.000000
     17         41.134745   0.000000
     18         42.068584   0.000000
     19         45.616106   0.000000
     20         47.179609   0.000000
     21         49.117189   0.000000
     22         51.567349   0.000000
     23         52.020395   0.000000
     24         58.516303   0.000000
 
 -0.5000000E-01  0.5000000E-01  0.5000000E-01  0.6000000E-02
      1        -41.716995   1.000000
      2        -41.697553   1.000000
      3        -41.695392   1.000000
      4          1.533625   1.000000
      5          7.082951   1.000000
      6          7.407798   1.000000
      7          7.414725   1.000000
      8          8.991883   1.000000
      9          9.222672   1.000000
     10         25.887195   0.000000
     11         28.626882   0.000000
     12         30.055790   0.000000
     13         30.322763   0.000000
     14         36.618987   0.000000
     15         38.380875   0.000000
     16         38.556651   0.000000
     17         40.372762   0.000000
     18         41.409612   0.000000
     19         45.131961   0.000000
     20         45.565761   0.000000
     21         48.977857   0.000000
     22         51.029312   0.000000
     23         51.556249   0.000000
     24         57.471195   0.000000
 
  0.1500000E+00  0.1500000E+00  0.5000000E-01  0.6000000E-02
      1        -41.748386   1.000000
      2        -41.709689   1.000000
      3        -41.707114   1.000000
      4          2.014144   1.000000
      5          6.811972   1.000000
      6          7.641494   1.000000
      7          7.647055   1.000000
      8          8.706629   1.000000
      9          9.355685   1.000000
     10         26.544512   0.000000
     11         27.897059   0.000000
     12         29.839890   0.000000
     13         30.247352   0.000000
     14         36.120269   0.000000
     15         37.059751   0.000000
     16         38.412610   0.000000
     17         39.429392   0.000000
     18         41.084946   0.000000
     19         46.679923   0.000000
     20         47.170206   0.000000
     21         47.666388   0.000000
     22         51.554293   0.000000
     23         51.732046   0.000000
     24         58.931324   0.000000
 
  0.2500000E+00  0.1500000E+00  0.5000000E-01  0.1200000E-01
      1        -41.812824   1.000000
      2        -41.732914   1.000000
      3        -41.716358   1.000000
      4          2.888045   1.000000
      5          6.497019   1.000000
      6          7.749478   1.000000
      7          7.975441   1.000000
      8          8.612060   1.000000
      9          9.611592   1.000000
     10         25.997290   0.000000
     11         27.326011   0.000000
     12         29.363741   0.000000
     13         30.620083   0.000000
     14         34.012522   0.000000
     15         36.290272   0.000000
     16         37.116581   0.000000
     17         40.616597   0.000000
     18         42.698368   0.000000
     19         45.993930   0.000000
     20         46.816206   0.000000
     21         49.952668   0.000000
     22         51.569876   0.000000
     23         53.061846   0.000000
     24         58.753618   0.000000
 
  0.3500000E+00  0.1500000E+00  0.5000000E-01  0.1200000E-01
      1        -41.906372   1.000000
      2        -41.754107   1.000000
      3        -41.732046   1.000000
      4          3.986860   1.000000
      5          6.526689   1.000000
      6          7.375089   1.000000
      7          7.986835   1.000000
      8          9.372438   1.000000
      9         10.265820   1.000000
     10         22.515823   0.000000
     11         26.947611   0.000000
     12         28.553937   0.000000
     13         30.781497   0.000000
     14         34.526813   0.000000
     15         35.595031   0.000000
     16         37.509425   0.000000
     17         40.020916   0.000000
     18         45.685486   0.000000
     19         46.734453   0.000000
     20         47.734995   0.000000
     21         50.357726   0.000000
     22         51.569390   0.000000
     23         54.729041   0.000000
     24         56.740566   0.000000
 
  0.4500000E+00  0.1500000E+00  0.5000000E-01  0.1200000E-01
      1        -41.986450   1.000000
      2        -41.769917   1.000000
      3        -41.748276   1.000000
      4          4.472455   1.000000
      5          7.001116   1.000000
      6          7.491131   1.000000
      7          7.798436   1.000000
      8         10.333477   1.000000
      9         11.390749   0.000000
     10         18.671645   0.000000
     11         26.032130   0.000000
     12         27.542033   0.000000
     13         29.667837   0.000000
     14         35.723025   0.000000
     15         37.609025   0.000000
     16         38.684053   0.000000
     17         40.271880   0.000000
     18         46.627005   0.000000
     19         47.322874   0.000000
     20         48.402961   0.000000
     21         51.569915   0.000000
     22         52.429411   0.000000
     23         53.699170   0.000000
     24         55.296483   0.000000
 
 -0.4500000E+00  0.1500000E+00  0.5000000E-01  0.1200000E-01
      1        -42.022903   1.000000
      2        -41.779892   1.000000
      3        -41.753405   1.000000
      4          4.519839   1.000000
      5          6.849352   1.000000
      6          7.628959   1.000000
      7          8.473579   1.000000
      8         10.584882   0.905109
      9         13.000182   0.000000
     10         15.835372   0.000000
     11         25.547145   0.000000
     12         27.231358   0.000000
     13         28.541864   0.000000
     14         36.972982   0.000000
     15         37.779634   0.000000
     16         40.314307   0.000000
     17         42.501549   0.000000
     18         44.824083   0.000000
     19         46.316156   0.000000
     20         49.670058   0.000000
     21         51.000763   0.000000
     22         51.574405   0.000000
     23         54.484091   0.000000
     24         56.203259   0.000000
 
 -0.3500000E+00  0.1500000E+00  0.5000000E-01  0.1200000E-01
      1        -42.003176   1.000000
      2        -41.781202   1.000000
      3        -41.744649   1.000000
      4          4.527100   1.000000
      5          6.950799   1.000000
      6          7.655267   1.000000
      7          8.054848   1.000000
      8         10.167764   1.000000
      9         12.093246   0.000000
     10         17.586926   0.000000
     11         25.652386   0.000000
     12         27.140794   0.000000
     13         29.728178   0.000000
     14         35.601517   0.000000
     15         37.678114   0.000000
     16         39.767467   0.000000
     17         41.932192   0.000000
     18         45.460135   0.000000
     19         46.946911   0.000000
     20         48.176184   0.000000
     21         51.574053   0.000000
     22         52.525872   0.000000
     23         54.588981   0.000000
     24         55.393757   0.000000
 
 -0.2500000E+00  0.1500000E+00  0.5000000E-01  0.1200000E-01
      1        -41.934659   1.000000
      2        -41.769542   1.000000
      3        -41.727881   1.000000
      4          4.269594   1.000000
      5          6.831247   1.000000
      6          7.280261   1.000000
      7          7.882041   1.000000
      8          9.300687   1.000000
      9         10.850617   0.000000
     10         21.246491   0.000000
     11         26.260305   0.000000
     12         28.068422   0.000000
     13         31.692356   0.000000
     14         33.558429   0.000000
     15         36.648624   0.000000
     16         38.595283   0.000000
     17         40.100730   0.000000
     18         44.997756   0.000000
     19         46.129244   0.000000
     20         49.595410   0.000000
     21         51.347154   0.000000
     22         51.575132   0.000000
     23         54.539457   0.000000
     24         55.802982   0.000000
 
 -0.1500000E+00  0.1500000E+00  0.5000000E-01  0.1200000E-01
      1        -41.845093   1.000000
      2        -41.746341   1.000000
      3        -41.711364   1.000000
      4          3.268969   1.000000
      5          6.534943   1.000000
      6          7.613046   1.000000
      7          8.005619   1.000000
      8          8.616380   1.000000
      9          9.900570   1.000000
     10         24.760670   0.000000
     11         26.934945   0.000000
     12         29.638740   0.000000
     13         30.654023   0.000000
     14         34.269313   0.000000
     15         36.272564   0.000000
     16         37.707716   0.000000
     17         39.675380   0.000000
     18         43.529225   0.000000
     19         45.065632   0.000000
     20         47.253833   0.000000
     21         51.568511   0.000000
     22         51.708001   0.000000
     23         53.487887   0.000000
     24         57.675690   0.000000
 
 -0.5000000E-01  0.1500000E+00  0.5000000E-01  0.1200000E-01
      1        -41.772358   1.000000
      2        -41.715672   1.000000
      3        -41.701567   1.000000
      4          2.236347   1.000000
      5          6.807832   1.000000
      6          7.641985   1.000000
      7          7.658862   1.000000
      8          8.755917   1.000000
      9          9.358148   1.000000
     10         26.613353   0.000000
     11         26.894481   0.000000
     12         29.883429   0.000000
     13         31.495843   0.000000
     14         34.368938   0.000000
     15         37.109001   0.000000
     16         38.578899   0.000000
     17         40.342844   0.000000
     18         40.665496   0.000000
     19         45.542443   0.000000
     20         47.539569   0.000000
     21         48.751541   0.000000
     22         51.565963   0.000000
     23         52.192256   0.000000
     24         58.551703   0.000000
 
  0.2500000E+00  0.2500000E+00  0.5000000E-01  0.6000000E-02
      1        -41.839019   1.000000
      2        -41.745798   1.000000
      3        -41.745449   1.000000
      4          3.472576   1.000000
      5          6.071718   1.000000
      6          7.893691   1.000000
      7          8.426310   1.000000
      8          8.634327   1.000000
      9          9.770703   1.000000
     10         26.631275   0.000000
     11         27.890208   0.000000
     12         28.228765   0.000000
     13         28.987668   0.000000
     14         31.894068   0.000000
     15         36.616587   0.000000
     16         36.776944   0.000000
     17         42.131399   0.000000
     18         43.771576   0.000000
     19         44.770266   0.000000
     20         49.366368   0.000000
     21         50.003313   0.000000
     22         51.568984   0.000000
     23         51.880474   0.000000
     24         61.139776   0.000000
 
  0.3500000E+00  0.2500000E+00  0.5000000E-01  0.1200000E-01
      1        -41.901652   1.000000
      2        -41.775106   1.000000
      3        -41.759577   1.000000
      4          4.348099   1.000000
      5          5.794319   1.000000
      6          7.540454   1.000000
      7          8.839665   1.000000
      8          9.388294   1.000000
      9         10.301603   1.000000
     10         24.136678   0.000000
     11         26.073739   0.000000
     12         27.394036   0.000000
     13         29.924042   0.000000
     14         31.620360   0.000000
     15         36.857547   0.000000
     16         38.054424   0.000000
     17         42.187915   0.000000
     18         43.102855   0.000000
     19         46.942030   0.000000
     20         49.673365   0.000000
     21         51.411540   0.000000
     22         51.568996   0.000000
     23         52.607955   0.000000
     24         59.341298   0.000000
 
  0.4500000E+00  0.2500000E+00  0.5000000E-01  0.1200000E-01
      1        -41.961267   1.000000
      2        -41.803913   1.000000
      3        -41.773617   1.000000
      4          4.939987   1.000000
      5          6.041231   1.000000
      6          7.213856   1.000000
      7          8.680540   1.000000
      8         10.450856   1.000000
      9         11.670984   0.000000
     10         20.118850   0.000000
     11         25.392697   0.000000
     12         25.795257   0.000000
     13         29.552664   0.000000
     14         34.447641   0.000000
     15         37.221625   0.000000
     16         39.020870   0.000000
     17         41.790520   0.000000
     18         44.525272   0.000000
     19         47.286774   0.000000
     20         49.578359   0.000000
     21         51.572315   0.000000
     22         52.971457   0.000000
     23         53.480227   0.000000
     24         57.153033   0.000000
 
 -0.4500000E+00  0.2500000E+00  0.5000000E-01  0.1200000E-01
      1        -41.990347   1.000000
      2        -41.832912   1.000000
      3        -41.775630   1.000000
      4          5.115078   1.000000
      5          6.360977   1.000000
      6          7.418176   1.000000
      7          8.440587   1.000000
      8         10.624852   0.571703
      9         14.117603   0.000000
     10         16.571750   0.000000
     11         24.221810   0.000000
     12         25.838953   0.000000
     13         28.801531   0.000000
     14         36.507784   0.000000
     15         38.294238   0.000000
     16         39.005650   0.000000
     17         42.364174   0.000000
     18         45.775881   0.000000
     19         47.149940   0.000000
     20         48.703017   0.000000
     21         51.581828   0.000000
     22         51.940493   0.000000
     23         54.282488   0.000000
     24         56.868247   0.000000
 
 -0.3500000E+00  0.2500000E+00  0.5000000E-01  0.1200000E-01
      1        -41.982035   1.000000
      2        -41.849954   1.000000
      3        -41.764145   1.000000
      4          5.306050   1.000000
      5          6.452530   1.000000
      6          7.420246   1.000000
      7          8.317679   1.000000
      8         10.114601   1.000000
      9         13.919752   0.000000
     10         17.268836   0.000000
     11         23.159571   0.000000
     12         26.910484   0.000000
     13         28.992688   0.000000
     14         35.584778   0.000000
     15         37.685299   0.000000
     16         40.501641   0.000000
     17         43.573657   0.000000
     18         45.288088   0.000000
     19         46.873466   0.000000
     20         48.642925   0.000000
     21         50.473336   0.000000
     22         51.578064   0.000000
     23         54.062714   0.000000
     24         56.157192   0.000000
 
 -0.2500000E+00  0.2500000E+00  0.5000000E-01  0.1200000E-01
      1        -41.948382   1.000000
      2        -41.836158   1.000000
      3        -41.744689   1.000000
      4          5.327033   1.000000
      5          6.545212   1.000000
      6          6.815629   1.000000
      7          8.408521   1.000000
      8          9.258215   1.000000
      9         12.309637   0.000000
     10         20.491594   0.000000
     11         23.227887   0.000000
     12         27.632706   0.000000
     13         31.039765   0.000000
     14         33.016862   0.000000
     15         37.717347   0.000000
     16         40.576972   0.000000
     17         41.946072   0.000000
     18         43.988375   0.000000
     19         45.773433   0.000000
     20         49.944039   0.000000
     21         51.572947   0.000000
     22         53.258124   0.000000
     23         54.116206   0.000000
     24         54.706536   0.000000
 
 -0.1500000E+00  0.2500000E+00  0.5000000E-01  0.1200000E-01
      1        -41.910180   1.000000
      2        -41.787677   1.000000
      3        -41.725873   1.000000
      4          4.410456   1.000000
      5          6.416069   1.000000
      6          7.256818   1.000000
      7          8.272246   1.000000
      8          8.772182   1.000000
      9         10.961389   0.000000
     10         22.549179   0.000000
     11         25.396729   0.000000
     12         28.369957   0.000000
     13         31.166548   0.000000
     14         33.538138   0.000000
     15         37.221450   0.000000
     16         38.538236   0.000000
     17         40.123487   0.000000
     18         43.884953   0.000000
     19         45.138813   0.000000
     20         49.785835   0.000000
     21         51.570282   0.000000
     22         52.891765   0.000000
     23         54.612717   0.000000
     24         55.705420   0.000000
 
 -0.5000000E-01  0.2500000E+00  0.5000000E-01  0.1200000E-01
      1        -41.869853   1.000000
      2        -41.735021   1.000000
      3        -41.715152   1.000000
      4          3.365009   1.000000
      5          6.709457   1.000000
      6          7.586209   1.000000
      7          7.779676   1.000000
      8          9.003512   1.000000
      9          9.817756   1.000000
     10         23.589749   0.000000
     11         27.036571   0.000000
     12         30.031634   0.000000
     13         31.703866   0.000000
     14         34.291763   0.000000
     15         34.969935   0.000000
     16         36.704098   0.000000
     17         40.889458   0.000000
     18         44.356268   0.000000
     19         46.184752   0.000000
     20         47.237389   0.000000
     21         50.179323   0.000000
     22         51.570476   0.000000
     23         53.517579   0.000000
     24         58.080978   0.000000
 
  0.3500000E+00  0.3500000E+00  0.5000000E-01  0.6000000E-02
      1        -41.937316   1.000000
      2        -41.788468   1.000000
      3        -41.786217   1.000000
      4          4.544714   1.000000
      5          5.352320   1.000000
      6          8.386422   1.000000
      7          9.490631   1.000000
      8          9.877955   1.000000
      9         10.275602   1.000000
     10         24.056063   0.000000
     11         24.858026   0.000000
     12         25.518311   0.000000
     13         29.170436   0.000000
     14         30.870052   0.000000
     15         38.789135   0.000000
     16         39.156596   0.000000
     17         41.225629   0.000000
     18         44.074388   0.000000
     19         46.883568   0.000000
     20         51.566664   0.000000
     21         51.753575   0.000000
     22         51.881874   0.000000
     23         52.849312   0.000000
     24         57.905364   0.000000
 
  0.4500000E+00  0.3500000E+00  0.5000000E-01  0.1200000E-01
      1        -41.975315   1.000000
      2        -41.815552   1.000000
      3        -41.800234   1.000000
      4          4.746680   1.000000
      5          5.219211   1.000000
      6          8.510797   1.000000
      7          9.845490   1.000000
      8         10.466064   0.999999
      9         11.635693   0.000000
     10         21.258514   0.000000
     11         23.302609   0.000000
     12         23.986667   0.000000
     13         30.215666   0.000000
     14         32.043402   0.000000
     15         38.405506   0.000000
     16         40.879932   0.000000
     17         42.300380   0.000000
     18         45.010406   0.000000
     19         46.166251   0.000000
     20         50.487013   0.000000
     21         51.568347   0.000000
     22         52.832685   0.000000
     23         54.649973   0.000000
     24         55.572221   0.000000
 
 -0.4500000E+00  0.3500000E+00  0.5000000E-01  0.1200000E-01
      1        -41.982928   1.000000
      2        -41.858284   1.000000
      3        -41.801601   1.000000
      4          4.975233   1.000000
      5          5.556230   1.000000
      6          8.130231   1.000000
      7          9.485358   1.000000
      8         10.744646   0.000669
      9         14.320997   0.000000
     10         17.921963   0.000000
     11         21.964913   0.000000
     12         23.896238   0.000000
     13         30.311960   0.000000
     14         34.612175   0.000000
     15         37.570140   0.000000
     16         40.395182   0.000000
     17         44.335646   0.000000
     18         45.622670   0.000000
     19         46.444913   0.000000
     20         49.935560   0.000000
     21         51.568716   0.000000
     22         51.577390   0.000000
     23         54.091609   0.000000
     24         55.319765   0.000000
 
 -0.3500000E+00  0.3500000E+00  0.5000000E-01  0.1200000E-01
      1        -41.951436   1.000000
      2        -41.908829   1.000000
      3        -41.788525   1.000000
      4          5.329853   1.000000
      5          6.112520   1.000000
      6          7.519811   1.000000
      7          9.082047   1.000000
      8         10.327954   1.000000
      9         15.362515   0.000000
     10         17.667598   0.000000
     11         20.309201   0.000000
     12         25.378731   0.000000
     13         29.761837   0.000000
     14         36.466556   0.000000
     15         37.779976   0.000000
     16         38.452075   0.000000
     17         44.531816   0.000000
     18         45.998759   0.000000
     19         48.547578   0.000000
     20         49.814155   0.000000
     21         50.068066   0.000000
     22         51.577145   0.000000
     23         53.050320   0.000000
     24         55.700238   0.000000
 
 -0.2500000E+00  0.3500000E+00  0.5000000E-01  0.1200000E-01
      1        -41.953338   1.000000
      2        -41.885769   1.000000
      3        -41.766599   1.000000
      4          5.639794   1.000000
      5          6.448451   1.000000
      6          6.936712   1.000000
      7          8.644396   1.000000