 vasp.6.3.2 27Jun22 (build Aug 12 2022 00:53:59) complex                        
  
 executed on               tv2STD date 2024.12.03  02:20:47
 running   24 mpi-ranks, with    1 threads/rank
 distrk:  each k-point on   24 cores,    1 groups
 distr:  one band on NCORE=   1 cores,   24 groups


--------------------------------------------------------------------------------------------------------


 INCAR:
   SYSTEM = Pt-fcc
   NWRITE = 2    write-flag
   ISTART = 0    job   : 0-new, 1-cont, 2-samecut
   ICHARG = 2    charge: 0-wave, 1-file, 2-atom, >10-const
   INIWAV = 1    electr: 0-lowe 1-rand  2-diag
   ENCUT = 425.0     energy cutoff in eV
   PREC = accurate      normal | accurate
   ADDGRID = .FALSE.  (use fine grid)
   NELM = 100     number of ELM steps
   EDIFF = 1E-06    energy stopping-criterion for ELM
   LREAL = .FALSE.      real-space projection (.FALSE., .TRUE., On, Auto)
   ALGO = Normal     Normal, Fast, Very_Fast
   LWAVE = .TRUE.
   LCHARG = .TRUE.
   NSW = 100       max number of geometry steps
   IBRION = 2     ionic relax: 0-MD, 1-quasi-Newton, 2-CG, 3-Damped MD
   EDIFFG = -0.02  force (eV/A) stopping-criterion for geometry steps
   ISIF = 2     (1:force\=y stress\=trace only ions\=y shape\=n volume\=n)
   ISYM = 1     (1-use symmetry, 0-no symmetry)
   ISMEAR = 0     (-1-Fermi, 1-Methfessel/Paxton)
   SIGMA = 0.05   broadening in eV
   LORBIT = 11

 POTCAR:    PAW_PBE Pt_pv 12Dec2005               
 POTCAR:    PAW_PBE Pt_pv 12Dec2005               
   SHA256 =  e5abf7e8cd8db70d0153315afc5ad66b6e3eeee29cc2d5b91b16730957c1d208 Pt_pv/POTCAR          
   COPYR  = (c) Copyright 12Dec2005 Georg Kresse                                                    
   COPYR  = This file is part of the software VASP. Any use, copying, and all other rights are regul
   COPYR  = If you do not have a valid VASP license, you may not use, copy or distribute this file. 
   VRHFIN =Pt: 5ps1d9                                                                               
   LEXCH  = PE                                                                                      
   EATOM  =  2428.2504 eV,  178.4714 Ry                                                             
                                                                                                    
   TITEL  = PAW_PBE Pt_pv 12Dec2005                                                                 
   LULTRA =        F    use ultrasoft PP ?                                                          
   IUNSCR =        1    unscreen: 0-lin 1-nonlin 2-no                                               
   RPACOR =    2.000    partial core radius                                                         
   POMASS =  195.080; ZVAL   =   16.000    mass and valenz                                          
   RCORE  =    2.200    outmost cutoff radius                                                       
   RWIGS  =    2.200; RWIGS  =    1.164    wigner-seitz radius (au A)                               
   ENMAX  =  294.607; ENMIN  =  220.955 eV                                                          
   ICORE  =        3    local potential                                                             
   LCOR   =        T    correct aug charges                                                         
   LPAW   =        T    paw PP                                                                      
   EAUG   =  527.014                                                                                
   DEXC   =    0.000                                                                                
   RMAX   =    2.247    core radius for proj-oper                                                   
   RAUG   =    1.300    factor for augmentation sphere                                              
   RDEP   =    2.279    radius for radial grids                                                     
   RDEPT  =    1.878    core radius for aug-charge                                                  
                                                                                                    
   Atomic configuration                                                                             
   16 entries                                                                                       
     n  l   j            E        occ.                                                              
     1  0  0.50    -78401.1885   2.0000                                                             
     2  0  0.50    -13770.7750   2.0000                                                             
     2  1  1.50    -11931.0468   6.0000                                                             
     3  0  0.50     -3234.7234   2.0000                                                             
     3  1  1.50     -2699.2216   6.0000                                                             
     3  2  2.50     -2119.5714  10.0000                                                             
     4  0  0.50      -695.1528   2.0000                                                             
     4  1  1.50      -519.6034   6.0000                                                             
     4  2  2.50      -306.6786  10.0000                                                             
     4  3  3.50       -70.1041  14.0000                                                             
     5  0  0.50      -101.7747   2.0000                                                             
     5  1  1.50       -55.9873   6.0000                                                             
     6  1  1.50        -6.8029   0.0000                                                             
     5  2  2.50        -6.1423   9.0000                                                             
     6  0  0.50        -5.6573   1.0000                                                             
     5  3  2.50        -1.3606   0.0000                                                             
   Description                                                                                      
     l       E           TYP  RCUT    TYP  RCUT                                                     
     1    -55.9873477     23  2.000                                                                 
     1     27.2116520     23  2.000                                                                 
     2     -6.1423404     23  2.200                                                                 
     2     -4.6754623     23  2.200                                                                 
     0     -5.6573207     23  2.200                                                                 
     0     47.6203910     23  2.200                                                                 
     3      6.8029130     23  2.200                                                                 
  local pseudopotential read in
  partial core-charges read in
  partial kinetic energy density read in
  atomic valenz-charges read in
  non local Contribution for L=           1  read in
    real space projection operators read in
  non local Contribution for L=           1  read in
    real space projection operators read in
  non local Contribution for L=           2  read in
    real space projection operators read in
  non local Contribution for L=           2  read in
    real space projection operators read in
  non local Contribution for L=           0  read in
    real space projection operators read in
  non local Contribution for L=           0  read in
    real space projection operators read in
    PAW grid and wavefunctions read in
 
   number of l-projection  operators is LMAX  =           6
   number of lm-projection operators is LMMAX =          18
 
  PAW_PBE Pt_pv 12Dec2005               :
 energy of atom  1       EATOM=-2428.2504
 kinetic energy error for atom=    0.0554 (will be added to EATOM!!)
 
 
 POSCAR: Pt
  positions in cartesian coordinates
  No initial velocities read in
 exchange correlation table for  LEXCH =        8
   RHO(1)=    0.500       N(1)  =     2000
   RHO(2)=  100.500       N(2)  =     4000
 


--------------------------------------------------------------------------------------------------------


 ion  position               nearest neighbor table
   1  0.000  0.000  0.000-
 
  LATTYP: Found a face centered cubic cell.
 ALAT       =     4.1555821218
  
  Lattice vectors:
  
 A1 = (   0.0000000000,   2.0777910609,   2.0777910609)
 A2 = (   2.0777910609,   0.0000000000,   2.0777910609)
 A3 = (   2.0777910609,   2.0777910609,   0.0000000000)


Analysis of symmetry for initial positions (statically):
=====================================================================
 Subroutine PRICEL returns:
 Original cell was already a primitive cell.
 

 Routine SETGRP: Setting up the symmetry group for a 
 face centered cubic supercell.


 Subroutine GETGRP returns: Found 48 space group operations
 (whereof 48 operations were pure point group operations)
 out of a pool of 48 trial point group operations.


The static configuration has the point symmetry O_h .


Analysis of symmetry for dynamics (positions and initial velocities):
=====================================================================
 Subroutine PRICEL returns:
 Original cell was already a primitive cell.
 

 Routine SETGRP: Setting up the symmetry group for a 
 face centered cubic supercell.


 Subroutine GETGRP returns: Found 48 space group operations
 (whereof 48 operations were pure point group operations)
 out of a pool of 48 trial point group operations.


The dynamic configuration has the point symmetry O_h .


 Subroutine INISYM returns: Found 48 space group operations
 (whereof 48 operations are pure point group operations),
 and found     1 'primitive' translations


----------------------------------------------------------------------------------------

                                     Primitive cell                                     

  volume of cell :      17.9405

  direct lattice vectors                    reciprocal lattice vectors
     0.000000000  2.077791061  2.077791061    -0.240640173  0.240640173  0.240640173
     2.077791061  0.000000000  2.077791061     0.240640173 -0.240640173  0.240640173
     2.077791061  2.077791061  0.000000000     0.240640173  0.240640173 -0.240640173

  length of vectors
     2.938440298  2.938440298  2.938440298     0.416801006  0.416801006  0.416801006

  position of ions in fractional coordinates (direct lattice)
     0.000000000  0.000000000  0.000000000

  ion indices of the primitive-cell ions
   primitive index   ion index
                 1           1

----------------------------------------------------------------------------------------

 
 
 KPOINTS: Automatic mesh                          

Automatic generation of k-mesh.
 Grid dimensions read from file:
 generate k-points for:   10   10   10

 Generating k-lattice:

  Cartesian coordinates                     Fractional coordinates (reciprocal lattice)
    -0.024064017  0.024064017  0.024064017     0.100000000 -0.000000000 -0.000000000
     0.024064017 -0.024064017  0.024064017     0.000000000  0.100000000  0.000000000
     0.024064017  0.024064017 -0.024064017     0.000000000  0.000000000  0.100000000

  Length of vectors
     0.041680101  0.041680101  0.041680101

  Shift w.r.t. Gamma in fractional coordinates (k-lattice)
     0.500000000  0.500000000  0.500000000

 
 Subroutine IBZKPT returns following result:
 ===========================================
 
 Found    110 irreducible k-points:
 
 Following reciprocal coordinates:
            Coordinates               Weight
  0.050000  0.050000  0.050000      8.000000
  0.150000  0.050000  0.050000     24.000000
  0.250000  0.050000  0.050000     24.000000
  0.350000  0.050000  0.050000     24.000000
  0.450000  0.050000  0.050000     24.000000
 -0.450000  0.050000  0.050000     24.000000
 -0.350000  0.050000  0.050000     24.000000
 -0.250000  0.050000  0.050000     24.000000
 -0.150000  0.050000  0.050000     24.000000
 -0.050000  0.050000  0.050000     24.000000
  0.150000  0.150000  0.050000     24.000000
  0.250000  0.150000  0.050000     48.000000
  0.350000  0.150000  0.050000     48.000000
  0.450000  0.150000  0.050000     48.000000
 -0.450000  0.150000  0.050000     48.000000
 -0.350000  0.150000  0.050000     48.000000
 -0.250000  0.150000  0.050000     48.000000
 -0.150000  0.150000  0.050000     48.000000
 -0.050000  0.150000  0.050000     48.000000
  0.250000  0.250000  0.050000     24.000000
  0.350000  0.250000  0.050000     48.000000
  0.450000  0.250000  0.050000     48.000000
 -0.450000  0.250000  0.050000     48.000000
 -0.350000  0.250000  0.050000     48.000000
 -0.250000  0.250000  0.050000     48.000000
 -0.150000  0.250000  0.050000     48.000000
 -0.050000  0.250000  0.050000     48.000000
  0.350000  0.350000  0.050000     24.000000
  0.450000  0.350000  0.050000     48.000000
 -0.450000  0.350000  0.050000     48.000000
 -0.350000  0.350000  0.050000     48.000000
 -0.250000  0.350000  0.050000     48.000000
 -0.150000  0.350000  0.050000     48.000000
 -0.050000  0.350000  0.050000     48.000000
  0.450000  0.450000  0.050000     24.000000
 -0.450000  0.450000  0.050000     48.000000
 -0.350000  0.450000  0.050000     48.000000
 -0.250000  0.450000  0.050000     48.000000
 -0.150000  0.450000  0.050000     48.000000
 -0.050000  0.450000  0.050000     48.000000
 -0.450000 -0.450000  0.050000     24.000000
 -0.350000 -0.450000  0.050000     48.000000
 -0.250000 -0.450000  0.050000     48.000000
 -0.150000 -0.450000  0.050000     48.000000
 -0.350000 -0.350000  0.050000     24.000000
 -0.250000 -0.350000  0.050000     48.000000
 -0.150000 -0.350000  0.050000     48.000000
 -0.250000 -0.250000  0.050000     24.000000
 -0.150000 -0.250000  0.050000     48.000000
 -0.150000 -0.150000  0.050000     24.000000
  0.150000  0.150000  0.150000      8.000000
  0.250000  0.150000  0.150000     24.000000
  0.350000  0.150000  0.150000     24.000000
  0.450000  0.150000  0.150000     24.000000
 -0.450000  0.150000  0.150000     24.000000
 -0.350000  0.150000  0.150000     24.000000
 -0.250000  0.150000  0.150000     24.000000
 -0.150000  0.150000  0.150000     24.000000
  0.250000  0.250000  0.150000     24.000000
  0.350000  0.250000  0.150000     48.000000
  0.450000  0.250000  0.150000     48.000000
 -0.450000  0.250000  0.150000     48.000000
 -0.350000  0.250000  0.150000     48.000000
 -0.250000  0.250000  0.150000     48.000000
 -0.150000  0.250000  0.150000     48.000000
  0.350000  0.350000  0.150000     24.000000
  0.450000  0.350000  0.150000     48.000000
 -0.450000  0.350000  0.150000     48.000000
 -0.350000  0.350000  0.150000     48.000000
 -0.250000  0.350000  0.150000     48.000000
 -0.150000  0.350000  0.150000     48.000000
  0.450000  0.450000  0.150000     24.000000
 -0.450000  0.450000  0.150000     48.000000
 -0.350000  0.450000  0.150000     48.000000
 -0.250000  0.450000  0.150000     48.000000
 -0.150000  0.450000  0.150000     48.000000
 -0.450000 -0.450000  0.150000     24.000000
 -0.350000 -0.450000  0.150000     48.000000
 -0.250000 -0.450000  0.150000     48.000000
 -0.350000 -0.350000  0.150000     24.000000
 -0.250000 -0.350000  0.150000     48.000000
 -0.250000 -0.250000  0.150000     24.000000
  0.250000  0.250000  0.250000      8.000000
  0.350000  0.250000  0.250000     24.000000
  0.450000  0.250000  0.250000     24.000000
 -0.450000  0.250000  0.250000     24.000000
 -0.350000  0.250000  0.250000     24.000000
 -0.250000  0.250000  0.250000     24.000000
  0.350000  0.350000  0.250000     24.000000
  0.450000  0.350000  0.250000     48.000000
 -0.450000  0.350000  0.250000     48.000000
 -0.350000  0.350000  0.250000     48.000000
 -0.250000  0.350000  0.250000     48.000000
  0.450000  0.450000  0.250000     24.000000
 -0.450000  0.450000  0.250000     48.000000
 -0.350000  0.450000  0.250000     48.000000
 -0.250000  0.450000  0.250000     48.000000
 -0.450000 -0.450000  0.250000     24.000000
 -0.350000 -0.450000  0.250000     48.000000
 -0.350000 -0.350000  0.250000     24.000000
  0.350000  0.350000  0.350000      8.000000
  0.450000  0.350000  0.350000     24.000000
 -0.450000  0.350000  0.350000     24.000000
 -0.350000  0.350000  0.350000     24.000000
  0.450000  0.450000  0.350000     24.000000
 -0.450000  0.450000  0.350000     48.000000
 -0.350000  0.450000  0.350000     48.000000
 -0.450000 -0.450000  0.350000     24.000000
  0.450000  0.450000  0.450000      8.000000
 -0.450000  0.450000  0.450000     24.000000
 
 Following cartesian coordinates:
            Coordinates               Weight
  0.012032  0.012032  0.012032      8.000000
 -0.012032  0.036096  0.036096     24.000000
 -0.036096  0.060160  0.060160     24.000000
 -0.060160  0.084224  0.084224     24.000000
 -0.084224  0.108288  0.108288     24.000000
  0.132352 -0.108288 -0.108288     24.000000
  0.108288 -0.084224 -0.084224     24.000000
  0.084224 -0.060160 -0.060160     24.000000
  0.060160 -0.036096 -0.036096     24.000000
  0.036096 -0.012032 -0.012032     24.000000
  0.012032  0.012032  0.060160     24.000000
 -0.012032  0.036096  0.084224     48.000000
 -0.036096  0.060160  0.108288     48.000000
 -0.060160  0.084224  0.132352     48.000000
  0.156416 -0.132352 -0.084224     48.000000
  0.132352 -0.108288 -0.060160     48.000000
  0.108288 -0.084224 -0.036096     48.000000
  0.084224 -0.060160 -0.012032     48.000000
  0.060160 -0.036096  0.012032     48.000000
  0.012032  0.012032  0.108288     24.000000
 -0.012032  0.036096  0.132352     48.000000
 -0.036096  0.060160  0.156416     48.000000
  0.180480 -0.156416 -0.060160     48.000000
  0.156416 -0.132352 -0.036096     48.000000
  0.132352 -0.108288 -0.012032     48.000000
  0.108288 -0.084224  0.012032     48.000000
  0.084224 -0.060160  0.036096     48.000000
  0.012032  0.012032  0.156416     24.000000
 -0.012032  0.036096  0.180480     48.000000
  0.204544 -0.180480 -0.036096     48.000000
  0.180480 -0.156416 -0.012032     48.000000
  0.156416 -0.132352  0.012032     48.000000
  0.132352 -0.108288  0.036096     48.000000
  0.108288 -0.084224  0.060160     48.000000
  0.012032  0.012032  0.204544     24.000000
  0.228608 -0.204544 -0.012032     48.000000
  0.204544 -0.180480  0.012032     48.000000
  0.180480 -0.156416  0.036096     48.000000
  0.156416 -0.132352  0.060160     48.000000
  0.132352 -0.108288  0.084224     48.000000
  0.012032  0.012032 -0.228608     24.000000
 -0.012032  0.036096 -0.204544     48.000000
 -0.036096  0.060160 -0.180480     48.000000
 -0.060160  0.084224 -0.156416     48.000000
  0.012032  0.012032 -0.180480     24.000000
 -0.012032  0.036096 -0.156416     48.000000
 -0.036096  0.060160 -0.132352     48.000000
  0.012032  0.012032 -0.132352     24.000000
 -0.012032  0.036096 -0.108288     48.000000
  0.012032  0.012032 -0.084224     24.000000
  0.036096  0.036096  0.036096      8.000000
  0.012032  0.060160  0.060160     24.000000
 -0.012032  0.084224  0.084224     24.000000
 -0.036096  0.108288  0.108288     24.000000
  0.180480 -0.108288 -0.108288     24.000000
  0.156416 -0.084224 -0.084224     24.000000
  0.132352 -0.060160 -0.060160     24.000000
  0.108288 -0.036096 -0.036096     24.000000
  0.036096  0.036096  0.084224     24.000000
  0.012032  0.060160  0.108288     48.000000
 -0.012032  0.084224  0.132352     48.000000
  0.204544 -0.132352 -0.084224     48.000000
  0.180480 -0.108288 -0.060160     48.000000
  0.156416 -0.084224 -0.036096     48.000000
  0.132352 -0.060160 -0.012032     48.000000
  0.036096  0.036096  0.132352     24.000000
  0.012032  0.060160  0.156416     48.000000
  0.228608 -0.156416 -0.060160     48.000000
  0.204544 -0.132352 -0.036096     48.000000
  0.180480 -0.108288 -0.012032     48.000000
  0.156416 -0.084224  0.012032     48.000000
  0.036096  0.036096  0.180480     24.000000
  0.252672 -0.180480 -0.036096     48.000000
  0.228608 -0.156416 -0.012032     48.000000
  0.204544 -0.132352  0.012032     48.000000
  0.180480 -0.108288  0.036096     48.000000
  0.036096  0.036096 -0.252672     24.000000
  0.012032  0.060160 -0.228608     48.000000
 -0.012032  0.084224 -0.204544     48.000000
  0.036096  0.036096 -0.204544     24.000000
  0.012032  0.060160 -0.180480     48.000000
  0.036096  0.036096 -0.156416     24.000000
  0.060160  0.060160  0.060160      8.000000
  0.036096  0.084224  0.084224     24.000000
  0.012032  0.108288  0.108288     24.000000
  0.228608 -0.108288 -0.108288     24.000000
  0.204544 -0.084224 -0.084224     24.000000
  0.180480 -0.060160 -0.060160     24.000000
  0.060160  0.060160  0.108288     24.000000
  0.036096  0.084224  0.132352     48.000000
  0.252672 -0.132352 -0.084224     48.000000
  0.228608 -0.108288 -0.060160     48.000000
  0.204544 -0.084224 -0.036096     48.000000
  0.060160  0.060160  0.156416     24.000000
  0.276736 -0.156416 -0.060160     48.000000
  0.252672 -0.132352 -0.036096     48.000000
  0.228608 -0.108288 -0.012032     48.000000
  0.060160  0.060160 -0.276736     24.000000
  0.036096  0.084224 -0.252672     48.000000
  0.060160  0.060160 -0.228608     24.000000
  0.084224  0.084224  0.084224      8.000000
  0.060160  0.108288  0.108288     24.000000
  0.276736 -0.108288 -0.108288     24.000000
  0.252672 -0.084224 -0.084224     24.000000
  0.084224  0.084224  0.132352     24.000000
  0.300800 -0.132352 -0.084224     48.000000
  0.276736 -0.108288 -0.060160     48.000000
  0.084224  0.084224 -0.300800     24.000000
  0.108288  0.108288  0.108288      8.000000
  0.324864 -0.108288 -0.108288     24.000000
 


--------------------------------------------------------------------------------------------------------




 Dimension of arrays:
   k-points           NKPTS =    110   k-points in BZ     NKDIM =    110   number of bands    NBANDS=     24
   number of dos      NEDOS =    301   number of ions     NIONS =      1
   non local maximal  LDIM  =      6   non local SUM 2l+1 LMDIM =     18
   total plane-waves  NPLWV =   8000
   max r-space proj   IRMAX =      1   max aug-charges    IRDMAX=  15380
   dimension x,y,z NGX =    20 NGY =   20 NGZ =   20
   dimension x,y,z NGXF=    40 NGYF=   40 NGZF=   40
   support grid    NGXF=    40 NGYF=   40 NGZF=   40
   ions per type =               1
   NGX,Y,Z   is equivalent  to a cutoff of  11.32, 11.32, 11.32 a.u.
   NGXF,Y,Z  is equivalent  to a cutoff of  22.63, 22.63, 22.63 a.u.

 SYSTEM =  Pt-fcc                                  
 POSCAR =  Pt                                      

 Startparameter for this run:
   NWRITE =      2    write-flag & timer
   PREC   = accura    normal or accurate (medium, high low for compatibility)
   ISTART =      0    job   : 0-new  1-cont  2-samecut
   ICHARG =      2    charge: 1-file 2-atom 10-const
   ISPIN  =      1    spin polarized calculation?
   LNONCOLLINEAR =      F non collinear calculations
   LSORBIT =      F    spin-orbit coupling
   INIWAV =      1    electr: 0-lowe 1-rand  2-diag
   LASPH  =      F    aspherical Exc in radial PAW
 Electronic Relaxation 1
   ENCUT  =  425.0 eV  31.24 Ry    5.59 a.u.   4.94  4.94  4.94*2*pi/ulx,y,z
   ENINI  =  425.0     initial cutoff
   ENAUG  =  527.0 eV  augmentation charge cutoff
   NELM   =    100;   NELMIN=  2; NELMDL= -5     # of ELM steps 
   EDIFF  = 0.1E-05   stopping-criterion for ELM
   LREAL  =      F    real-space projection
   NLSPLINE    = F    spline interpolate recip. space projectors
   LCOMPAT=      F    compatible to vasp.4.4
   GGA_COMPAT  = T    GGA compatible to vasp.4.4-vasp.4.6
   LMAXPAW     = -100 max onsite density
   LMAXMIX     =    2 max onsite mixed and CHGCAR
   VOSKOWN=      0    Vosko Wilk Nusair interpolation
   ROPT   =    0.00000
 Ionic relaxation
   EDIFFG = -.2E-01   stopping-criterion for IOM
   NSW    =    100    number of steps for IOM
   NBLOCK =      1;   KBLOCK =    100    inner block; outer block 
   IBRION =      2    ionic relax: 0-MD 1-quasi-New 2-CG
   NFREE  =      1    steps in history (QN), initial steepest desc. (CG)
   ISIF   =      2    stress and relaxation
   IWAVPR =     11    prediction:  0-non 1-charg 2-wave 3-comb
   ISYM   =      1    0-nonsym 1-usesym 2-fastsym
   LCORR  =      T    Harris-Foulkes like correction to forces

   POTIM  = 0.5000    time-step for ionic-motion
   TEIN   =    0.0    initial temperature
   TEBEG  =    0.0;   TEEND  =   0.0 temperature during run
   SMASS  =  -3.00    Nose mass-parameter (am)
   estimated Nose-frequenzy (Omega)   =  0.10E-29 period in steps = 0.13E+47 mass=  -0.197E-27a.u.
   SCALEE = 1.0000    scale energy and forces
   NPACO  =    256;   APACO  = 10.0  distance and # of slots for P.C.
   PSTRESS=    0.0 pullay stress

  Mass of Ions in am
   POMASS = 195.08
  Ionic Valenz
   ZVAL   =  16.00
  Atomic Wigner-Seitz radii
   RWIGS  =  -1.00
  virtual crystal weights 
   VCA    =   1.00
   NELECT =      16.0000    total number of electrons
   NUPDOWN=      -1.0000    fix difference up-down

 DOS related values:
   EMIN   =  10.00;   EMAX   =-10.00  energy-range for DOS
   EFERMI =   0.00
   ISMEAR =     0;   SIGMA  =   0.05  broadening in eV -4-tet -1-fermi 0-gaus

 Electronic relaxation 2 (details)
   IALGO  =     38    algorithm
   LDIAG  =      T    sub-space diagonalisation (order eigenvalues)
   LSUBROT=      F    optimize rotation matrix (better conditioning)
   TURBO    =      0    0=normal 1=particle mesh
   IRESTART =      0    0=no restart 2=restart with 2 vectors
   NREBOOT  =      0    no. of reboots
   NMIN     =      0    reboot dimension
   EREF     =   0.00    reference energy to select bands
   IMIX   =      4    mixing-type and parameters
     AMIX     =   0.40;   BMIX     =  1.00
     AMIX_MAG =   1.60;   BMIX_MAG =  1.00
     AMIN     =   0.10
     WC   =   100.;   INIMIX=   1;  MIXPRE=   1;  MAXMIX= -45

 Intra band minimization:
   WEIMIN = 0.0010     energy-eigenvalue tresh-hold
   EBREAK =  0.10E-07  absolut break condition
   DEPER  =   0.30     relativ break condition  

   TIME   =   0.40     timestep for ELM

  volume/ion in A,a.u.               =      17.94       121.07
  Fermi-wavevector in a.u.,A,eV,Ry     =   1.575807  2.977843 33.785536  2.483167
  Thomas-Fermi vector in A             =   2.676735
 
 Write flags
   LWAVE        =      T    write WAVECAR
   LDOWNSAMPLE  =      F    k-point downsampling of WAVECAR
   LCHARG       =      T    write CHGCAR
   LVTOT        =      F    write LOCPOT, total local potential
   LVHAR        =      F    write LOCPOT, Hartree potential only
   LELF         =      F    write electronic localiz. function (ELF)
   LORBIT       =     11    0 simple, 1 ext, 2 COOP (PROOUT), +10 PAW based schemes


 Dipole corrections
   LMONO  =      F    monopole corrections only (constant potential shift)
   LDIPOL =      F    correct potential (dipole corrections)
   IDIPOL =      0    1-x, 2-y, 3-z, 4-all directions 
   EPSILON=  1.0000000 bulk dielectric constant

 Exchange correlation treatment:
   GGA     =    --    GGA type
   LEXCH   =     8    internal setting for exchange type
   LIBXC   =     F    Libxc                    
   VOSKOWN =     0    Vosko Wilk Nusair interpolation
   LHFCALC =     F    Hartree Fock is set to
   LHFONE  =     F    Hartree Fock one center treatment
   AEXX    =    0.0000 exact exchange contribution

 Linear response parameters
   LEPSILON=     F    determine dielectric tensor
   LRPA    =     F    only Hartree local field effects (RPA)
   LNABLA  =     F    use nabla operator in PAW spheres
   LVEL    =     F    velocity operator in full k-point grid
   CSHIFT  =0.1000    complex shift for real part using Kramers Kronig
   OMEGAMAX=  -1.0    maximum frequency
   DEG_THRESHOLD= 0.2000000E-02 threshold for treating states as degnerate
   RTIME   =   -0.100 relaxation time in fs
  (WPLASMAI=    0.000 imaginary part of plasma frequency in eV, 0.658/RTIME)
   DFIELD  = 0.0000000 0.0000000 0.0000000 field for delta impulse in time
 
  Optional k-point grid parameters
   LKPOINTS_OPT  =     F    use optional k-point grid
   KPOINTS_OPT_MODE=     1    mode for optional k-point grid
 
 Orbital magnetization related:
   ORBITALMAG=     F  switch on orbital magnetization
   LCHIMAG   =     F  perturbation theory with respect to B field
   DQ        =  0.001000  dq finite difference perturbation B field
   LLRAUG    =     F  two centre corrections for induced B field



--------------------------------------------------------------------------------------------------------


 conjugate gradient relaxation of ions
 charge density and potential will be updated during run
 non-spin polarized calculation
 Variant of blocked Davidson
 Davidson routine will perform the subspace rotation
 perform sub-space diagonalisation
    after iterative eigenvector-optimisation
 modified Broyden-mixing scheme, WC =      100.0
 initial mixing is a Kerker type mixing with AMIX =  0.4000 and BMIX =      1.0000
 Hartree-type preconditioning will be used
 using additional bands           16
 reciprocal scheme for non local part
 use partial core corrections
 calculate Harris-corrections to forces 
   (improved forces if not selfconsistent)
 use gradient corrections 
 use of overlap-Matrix (Vanderbilt PP)
 Gauss-broadening in eV      SIGMA  =   0.05


--------------------------------------------------------------------------------------------------------


  energy-cutoff  :      425.00
  volume of cell :       17.94
      direct lattice vectors                 reciprocal lattice vectors
     0.000000000  2.077791061  2.077791061    -0.240640173  0.240640173  0.240640173
     2.077791061  0.000000000  2.077791061     0.240640173 -0.240640173  0.240640173
     2.077791061  2.077791061  0.000000000     0.240640173  0.240640173 -0.240640173

  length of vectors
     2.938440298  2.938440298  2.938440298     0.416801006  0.416801006  0.416801006


 
 k-points in units of 2pi/SCALE and weight: Automatic mesh                          
   0.01203201  0.01203201  0.01203201       0.002
  -0.01203201  0.03609603  0.03609603       0.006
  -0.03609603  0.06016004  0.06016004       0.006
  -0.06016004  0.08422406  0.08422406       0.006
  -0.08422406  0.10828808  0.10828808       0.006
   0.13235210 -0.10828808 -0.10828808       0.006
   0.10828808 -0.08422406 -0.08422406       0.006
   0.08422406 -0.06016004 -0.06016004       0.006
   0.06016004 -0.03609603 -0.03609603       0.006
   0.03609603 -0.01203201 -0.01203201       0.006
   0.01203201  0.01203201  0.06016004       0.006
  -0.01203201  0.03609603  0.08422406       0.012
  -0.03609603  0.06016004  0.10828808       0.012
  -0.06016004  0.08422406  0.13235210       0.012
   0.15641611 -0.13235210 -0.08422406       0.012
   0.13235210 -0.10828808 -0.06016004       0.012
   0.10828808 -0.08422406 -0.03609603       0.012
   0.08422406 -0.06016004 -0.01203201       0.012
   0.06016004 -0.03609603  0.01203201       0.012
   0.01203201  0.01203201  0.10828808       0.006
  -0.01203201  0.03609603  0.13235210       0.012
  -0.03609603  0.06016004  0.15641611       0.012
   0.18048013 -0.15641611 -0.06016004       0.012
   0.15641611 -0.13235210 -0.03609603       0.012
   0.13235210 -0.10828808 -0.01203201       0.012
   0.10828808 -0.08422406  0.01203201       0.012
   0.08422406 -0.06016004  0.03609603       0.012
   0.01203201  0.01203201  0.15641611       0.006
  -0.01203201  0.03609603  0.18048013       0.012
   0.20454415 -0.18048013 -0.03609603       0.012
   0.18048013 -0.15641611 -0.01203201       0.012
   0.15641611 -0.13235210  0.01203201       0.012
   0.13235210 -0.10828808  0.03609603       0.012
   0.10828808 -0.08422406  0.06016004       0.012
   0.01203201  0.01203201  0.20454415       0.006
   0.22860816 -0.20454415 -0.01203201       0.012
   0.20454415 -0.18048013  0.01203201       0.012
   0.18048013 -0.15641611  0.03609603       0.012
   0.15641611 -0.13235210  0.06016004       0.012
   0.13235210 -0.10828808  0.08422406       0.012
   0.01203201  0.01203201 -0.22860816       0.006
  -0.01203201  0.03609603 -0.20454415       0.012
  -0.03609603  0.06016004 -0.18048013       0.012
  -0.06016004  0.08422406 -0.15641611       0.012
   0.01203201  0.01203201 -0.18048013       0.006
  -0.01203201  0.03609603 -0.15641611       0.012
  -0.03609603  0.06016004 -0.13235210       0.012
   0.01203201  0.01203201 -0.13235210       0.006
  -0.01203201  0.03609603 -0.10828808       0.012
   0.01203201  0.01203201 -0.08422406       0.006
   0.03609603  0.03609603  0.03609603       0.002
   0.01203201  0.06016004  0.06016004       0.006
  -0.01203201  0.08422406  0.08422406       0.006
  -0.03609603  0.10828808  0.10828808       0.006
   0.18048013 -0.10828808 -0.10828808       0.006
   0.15641611 -0.08422406 -0.08422406       0.006
   0.13235210 -0.06016004 -0.06016004       0.006
   0.10828808 -0.03609603 -0.03609603       0.006
   0.03609603  0.03609603  0.08422406       0.006
   0.01203201  0.06016004  0.10828808       0.012
  -0.01203201  0.08422406  0.13235210       0.012
   0.20454415 -0.13235210 -0.08422406       0.012
   0.18048013 -0.10828808 -0.06016004       0.012
   0.15641611 -0.08422406 -0.03609603       0.012
   0.13235210 -0.06016004 -0.01203201       0.012
   0.03609603  0.03609603  0.13235210       0.006
   0.01203201  0.06016004  0.15641611       0.012
   0.22860816 -0.15641611 -0.06016004       0.012
   0.20454415 -0.13235210 -0.03609603       0.012
   0.18048013 -0.10828808 -0.01203201       0.012
   0.15641611 -0.08422406  0.01203201       0.012
   0.03609603  0.03609603  0.18048013       0.006
   0.25267218 -0.18048013 -0.03609603       0.012
   0.22860816 -0.15641611 -0.01203201       0.012
   0.20454415 -0.13235210  0.01203201       0.012
   0.18048013 -0.10828808  0.03609603       0.012
   0.03609603  0.03609603 -0.25267218       0.006
   0.01203201  0.06016004 -0.22860816       0.012
  -0.01203201  0.08422406 -0.20454415       0.012
   0.03609603  0.03609603 -0.20454415       0.006
   0.01203201  0.06016004 -0.18048013       0.012
   0.03609603  0.03609603 -0.15641611       0.006
   0.06016004  0.06016004  0.06016004       0.002
   0.03609603  0.08422406  0.08422406       0.006
   0.01203201  0.10828808  0.10828808       0.006
   0.22860816 -0.10828808 -0.10828808       0.006
   0.20454415 -0.08422406 -0.08422406       0.006
   0.18048013 -0.06016004 -0.06016004       0.006
   0.06016004  0.06016004  0.10828808       0.006
   0.03609603  0.08422406  0.13235210       0.012
   0.25267218 -0.13235210 -0.08422406       0.012
   0.22860816 -0.10828808 -0.06016004       0.012
   0.20454415 -0.08422406 -0.03609603       0.012
   0.06016004  0.06016004  0.15641611       0.006
   0.27673620 -0.15641611 -0.06016004       0.012
   0.25267218 -0.13235210 -0.03609603       0.012
   0.22860816 -0.10828808 -0.01203201       0.012
   0.06016004  0.06016004 -0.27673620       0.006
   0.03609603  0.08422406 -0.25267218       0.012
   0.06016004  0.06016004 -0.22860816       0.006
   0.08422406  0.08422406  0.08422406       0.002
   0.06016004  0.10828808  0.10828808       0.006
   0.27673620 -0.10828808 -0.10828808       0.006
   0.25267218 -0.08422406 -0.08422406       0.006
   0.08422406  0.08422406  0.13235210       0.006
   0.30080022 -0.13235210 -0.08422406       0.012
   0.27673620 -0.10828808 -0.06016004       0.012
   0.08422406  0.08422406 -0.30080022       0.006
   0.10828808  0.10828808  0.10828808       0.002
   0.32486423 -0.10828808 -0.10828808       0.006
 
 k-points in reciprocal lattice and weights: Automatic mesh                          
   0.05000000  0.05000000  0.05000000       0.002
   0.15000000  0.05000000  0.05000000       0.006
   0.25000000  0.05000000  0.05000000       0.006
   0.35000000  0.05000000  0.05000000       0.006
   0.45000000  0.05000000  0.05000000       0.006
  -0.45000000  0.05000000  0.05000000       0.006
  -0.35000000  0.05000000  0.05000000       0.006
  -0.25000000  0.05000000  0.05000000       0.006
  -0.15000000  0.05000000  0.05000000       0.006
  -0.05000000  0.05000000  0.05000000       0.006
   0.15000000  0.15000000  0.05000000       0.006
   0.25000000  0.15000000  0.05000000       0.012
   0.35000000  0.15000000  0.05000000       0.012
   0.45000000  0.15000000  0.05000000       0.012
  -0.45000000  0.15000000  0.05000000       0.012
  -0.35000000  0.15000000  0.05000000       0.012
  -0.25000000  0.15000000  0.05000000       0.012
  -0.15000000  0.15000000  0.05000000       0.012
  -0.05000000  0.15000000  0.05000000       0.012
   0.25000000  0.25000000  0.05000000       0.006
   0.35000000  0.25000000  0.05000000       0.012
   0.45000000  0.25000000  0.05000000       0.012
  -0.45000000  0.25000000  0.05000000       0.012
  -0.35000000  0.25000000  0.05000000       0.012
  -0.25000000  0.25000000  0.05000000       0.012
  -0.15000000  0.25000000  0.05000000       0.012
  -0.05000000  0.25000000  0.05000000       0.012
   0.35000000  0.35000000  0.05000000       0.006
   0.45000000  0.35000000  0.05000000       0.012
  -0.45000000  0.35000000  0.05000000       0.012
  -0.35000000  0.35000000  0.05000000       0.012
  -0.25000000  0.35000000  0.05000000       0.012
  -0.15000000  0.35000000  0.05000000       0.012
  -0.05000000  0.35000000  0.05000000       0.012
   0.45000000  0.45000000  0.05000000       0.006
  -0.45000000  0.45000000  0.05000000       0.012
  -0.35000000  0.45000000  0.05000000       0.012
  -0.25000000  0.45000000  0.05000000       0.012
  -0.15000000  0.45000000  0.05000000       0.012
  -0.05000000  0.45000000  0.05000000       0.012
  -0.45000000 -0.45000000  0.05000000       0.006
  -0.35000000 -0.45000000  0.05000000       0.012
  -0.25000000 -0.45000000  0.05000000       0.012
  -0.15000000 -0.45000000  0.05000000       0.012
  -0.35000000 -0.35000000  0.05000000       0.006
  -0.25000000 -0.35000000  0.05000000       0.012
  -0.15000000 -0.35000000  0.05000000       0.012
  -0.25000000 -0.25000000  0.05000000       0.006
  -0.15000000 -0.25000000  0.05000000       0.012
  -0.15000000 -0.15000000  0.05000000       0.006
   0.15000000  0.15000000  0.15000000       0.002
   0.25000000  0.15000000  0.15000000       0.006
   0.35000000  0.15000000  0.15000000       0.006
   0.45000000  0.15000000  0.15000000       0.006
  -0.45000000  0.15000000  0.15000000       0.006
  -0.35000000  0.15000000  0.15000000       0.006
  -0.25000000  0.15000000  0.15000000       0.006
  -0.15000000  0.15000000  0.15000000       0.006
   0.25000000  0.25000000  0.15000000       0.006
   0.35000000  0.25000000  0.15000000       0.012
   0.45000000  0.25000000  0.15000000       0.012
  -0.45000000  0.25000000  0.15000000       0.012
  -0.35000000  0.25000000  0.15000000       0.012
  -0.25000000  0.25000000  0.15000000       0.012
  -0.15000000  0.25000000  0.15000000       0.012
   0.35000000  0.35000000  0.15000000       0.006
   0.45000000  0.35000000  0.15000000       0.012
  -0.45000000  0.35000000  0.15000000       0.012
  -0.35000000  0.35000000  0.15000000       0.012
  -0.25000000  0.35000000  0.15000000       0.012
  -0.15000000  0.35000000  0.15000000       0.012
   0.45000000  0.45000000  0.15000000       0.006
  -0.45000000  0.45000000  0.15000000       0.012
  -0.35000000  0.45000000  0.15000000       0.012
  -0.25000000  0.45000000  0.15000000       0.012
  -0.15000000  0.45000000  0.15000000       0.012
  -0.45000000 -0.45000000  0.15000000       0.006
  -0.35000000 -0.45000000  0.15000000       0.012
  -0.25000000 -0.45000000  0.15000000       0.012
  -0.35000000 -0.35000000  0.15000000       0.006
  -0.25000000 -0.35000000  0.15000000       0.012
  -0.25000000 -0.25000000  0.15000000       0.006
   0.25000000  0.25000000  0.25000000       0.002
   0.35000000  0.25000000  0.25000000       0.006
   0.45000000  0.25000000  0.25000000       0.006
  -0.45000000  0.25000000  0.25000000       0.006
  -0.35000000  0.25000000  0.25000000       0.006
  -0.25000000  0.25000000  0.25000000       0.006
   0.35000000  0.35000000  0.25000000       0.006
   0.45000000  0.35000000  0.25000000       0.012
  -0.45000000  0.35000000  0.25000000       0.012
  -0.35000000  0.35000000  0.25000000       0.012
  -0.25000000  0.35000000  0.25000000       0.012
   0.45000000  0.45000000  0.25000000       0.006
  -0.45000000  0.45000000  0.25000000       0.012
  -0.35000000  0.45000000  0.25000000       0.012
  -0.25000000  0.45000000  0.25000000       0.012
  -0.45000000 -0.45000000  0.25000000       0.006
  -0.35000000 -0.45000000  0.25000000       0.012
  -0.35000000 -0.35000000  0.25000000       0.006
   0.35000000  0.35000000  0.35000000       0.002
   0.45000000  0.35000000  0.35000000       0.006
  -0.45000000  0.35000000  0.35000000       0.006
  -0.35000000  0.35000000  0.35000000       0.006
   0.45000000  0.45000000  0.35000000       0.006
  -0.45000000  0.45000000  0.35000000       0.012
  -0.35000000  0.45000000  0.35000000       0.012
  -0.45000000 -0.45000000  0.35000000       0.006
   0.45000000  0.45000000  0.45000000       0.002
  -0.45000000  0.45000000  0.45000000       0.006
 
 position of ions in fractional coordinates (direct lattice) 
   0.00000000  0.00000000  0.00000000
 
 position of ions in cartesian coordinates  (Angst):
   0.00000000  0.00000000  0.00000000
 


--------------------------------------------------------------------------------------------------------


 k-point   1 :   0.0500 0.0500 0.0500  plane waves:     338
 k-point   2 :   0.1500 0.0500 0.0500  plane waves:     345
 k-point   3 :   0.2500 0.0500 0.0500  plane waves:     356
 k-point   4 :   0.3500 0.0500 0.0500  plane waves:     354
 k-point   5 :   0.4500 0.0500 0.0500  plane waves:     356
 k-point   6 :  -0.4500 0.0500 0.0500  plane waves:     356
 k-point   7 :  -0.3500 0.0500 0.0500  plane waves:     355
 k-point   8 :  -0.2500 0.0500 0.0500  plane waves:     351
 k-point   9 :  -0.1500 0.0500 0.0500  plane waves:     352
 k-point  10 :  -0.0500 0.0500 0.0500  plane waves:     337
 k-point  11 :   0.1500 0.1500 0.0500  plane waves:     345
 k-point  12 :   0.2500 0.1500 0.0500  plane waves:     352
 k-point  13 :   0.3500 0.1500 0.0500  plane waves:     354
 k-point  14 :   0.4500 0.1500 0.0500  plane waves:     358
 k-point  15 :  -0.4500 0.1500 0.0500  plane waves:     359
 k-point  16 :  -0.3500 0.1500 0.0500  plane waves:     359
 k-point  17 :  -0.2500 0.1500 0.0500  plane waves:     354
 k-point  18 :  -0.1500 0.1500 0.0500  plane waves:     356
 k-point  19 :  -0.0500 0.1500 0.0500  plane waves:     351
 k-point  20 :   0.2500 0.2500 0.0500  plane waves:     349
 k-point  21 :   0.3500 0.2500 0.0500  plane waves:     354
 k-point  22 :   0.4500 0.2500 0.0500  plane waves:     352
 k-point  23 :  -0.4500 0.2500 0.0500  plane waves:     362
 k-point  24 :  -0.3500 0.2500 0.0500  plane waves:     362
 k-point  25 :  -0.2500 0.2500 0.0500  plane waves:     355
 k-point  26 :  -0.1500 0.2500 0.0500  plane waves:     356
 k-point  27 :  -0.0500 0.2500 0.0500  plane waves:     354
 k-point  28 :   0.3500 0.3500 0.0500  plane waves:     351
 k-point  29 :   0.4500 0.3500 0.0500  plane waves:     352
 k-point  30 :  -0.4500 0.3500 0.0500  plane waves:     355
 k-point  31 :  -0.3500 0.3500 0.0500  plane waves:     363
 k-point  32 :  -0.2500 0.3500 0.0500  plane waves:     361
 k-point  33 :  -0.1500 0.3500 0.0500  plane waves:     357
 k-point  34 :  -0.0500 0.3500 0.0500  plane waves:     356
 k-point  35 :   0.4500 0.4500 0.0500  plane waves:     353
 k-point  36 :  -0.4500 0.4500 0.0500  plane waves:     358
 k-point  37 :  -0.3500 0.4500 0.0500  plane waves:     362
 k-point  38 :  -0.2500 0.4500 0.0500  plane waves:     360
 k-point  39 :  -0.1500 0.4500 0.0500  plane waves:     363
 k-point  40 :  -0.0500 0.4500 0.0500  plane waves:     358
 k-point  41 :  -0.4500-0.4500 0.0500  plane waves:     349
 k-point  42 :  -0.3500-0.4500 0.0500  plane waves:     357
 k-point  43 :  -0.2500-0.4500 0.0500  plane waves:     357
 k-point  44 :  -0.1500-0.4500 0.0500  plane waves:     360
 k-point  45 :  -0.3500-0.3500 0.0500  plane waves:     351
 k-point  46 :  -0.2500-0.3500 0.0500  plane waves:     351
 k-point  47 :  -0.1500-0.3500 0.0500  plane waves:     355
 k-point  48 :  -0.2500-0.2500 0.0500  plane waves:     348
 k-point  49 :  -0.1500-0.2500 0.0500  plane waves:     351
 k-point  50 :  -0.1500-0.1500 0.0500  plane waves:     353
 k-point  51 :   0.1500 0.1500 0.1500  plane waves:     344
 k-point  52 :   0.2500 0.1500 0.1500  plane waves:     357
 k-point  53 :   0.3500 0.1500 0.1500  plane waves:     353
 k-point  54 :   0.4500 0.1500 0.1500  plane waves:     356
 k-point  55 :  -0.4500 0.1500 0.1500  plane waves:     361
 k-point  56 :  -0.3500 0.1500 0.1500  plane waves:     361
 k-point  57 :  -0.2500 0.1500 0.1500  plane waves:     354
 k-point  58 :  -0.1500 0.1500 0.1500  plane waves:     354
 k-point  59 :   0.2500 0.2500 0.1500  plane waves:     352
 k-point  60 :   0.3500 0.2500 0.1500  plane waves:     350
 k-point  61 :   0.4500 0.2500 0.1500  plane waves:     355
 k-point  62 :  -0.4500 0.2500 0.1500  plane waves:     361
 k-point  63 :  -0.3500 0.2500 0.1500  plane waves:     363
 k-point  64 :  -0.2500 0.2500 0.1500  plane waves:     358
 k-point  65 :  -0.1500 0.2500 0.1500  plane waves:     352
 k-point  66 :   0.3500 0.3500 0.1500  plane waves:     349
 k-point  67 :   0.4500 0.3500 0.1500  plane waves:     353
 k-point  68 :  -0.4500 0.3500 0.1500  plane waves:     358
 k-point  69 :  -0.3500 0.3500 0.1500  plane waves:     364
 k-point  70 :  -0.2500 0.3500 0.1500  plane waves:     360
 k-point  71 :  -0.1500 0.3500 0.1500  plane waves:     356
 k-point  72 :   0.4500 0.4500 0.1500  plane waves:     354
 k-point  73 :  -0.4500 0.4500 0.1500  plane waves:     357
 k-point  74 :  -0.3500 0.4500 0.1500  plane waves:     362
 k-point  75 :  -0.2500 0.4500 0.1500  plane waves:     365
 k-point  76 :  -0.1500 0.4500 0.1500  plane waves:     363
 k-point  77 :  -0.4500-0.4500 0.1500  plane waves:     360
 k-point  78 :  -0.3500-0.4500 0.1500  plane waves:     361
 k-point  79 :  -0.2500-0.4500 0.1500  plane waves:     359
 k-point  80 :  -0.3500-0.3500 0.1500  plane waves:     358
 k-point  81 :  -0.2500-0.3500 0.1500  plane waves:     350
 k-point  82 :  -0.2500-0.2500 0.1500  plane waves:     349
 k-point  83 :   0.2500 0.2500 0.2500  plane waves:     356
 k-point  84 :   0.3500 0.2500 0.2500  plane waves:     352
 k-point  85 :   0.4500 0.2500 0.2500  plane waves:     356
 k-point  86 :  -0.4500 0.2500 0.2500  plane waves:     358
 k-point  87 :  -0.3500 0.2500 0.2500  plane waves:     363
 k-point  88 :  -0.2500 0.2500 0.2500  plane waves:     362
 k-point  89 :   0.3500 0.3500 0.2500  plane waves:     354
 k-point  90 :   0.4500 0.3500 0.2500  plane waves:     354
 k-point  91 :  -0.4500 0.3500 0.2500  plane waves:     359
 k-point  92 :  -0.3500 0.3500 0.2500  plane waves:     364
 k-point  93 :  -0.2500 0.3500 0.2500  plane waves:     362
 k-point  94 :   0.4500 0.4500 0.2500  plane waves:     354
 k-point  95 :  -0.4500 0.4500 0.2500  plane waves:     361
 k-point  96 :  -0.3500 0.4500 0.2500  plane waves:     364
 k-point  97 :  -0.2500 0.4500 0.2500  plane waves:     366
 k-point  98 :  -0.4500-0.4500 0.2500  plane waves:     359
 k-point  99 :  -0.3500-0.4500 0.2500  plane waves:     363
 k-point 100 :  -0.3500-0.3500 0.2500  plane waves:     366
 k-point 101 :   0.3500 0.3500 0.3500  plane waves:     359
 k-point 102 :   0.4500 0.3500 0.3500  plane waves:     356
 k-point 103 :  -0.4500 0.3500 0.3500  plane waves:     359
 k-point 104 :  -0.3500 0.3500 0.3500  plane waves:     360
 k-point 105 :   0.4500 0.4500 0.3500  plane waves:     359
 k-point 106 :  -0.4500 0.4500 0.3500  plane waves:     363
 k-point 107 :  -0.3500 0.4500 0.3500  plane waves:     363
 k-point 108 :  -0.4500-0.4500 0.3500  plane waves:     363
 k-point 109 :   0.4500 0.4500 0.4500  plane waves:     356
 k-point 110 :  -0.4500 0.4500 0.4500  plane waves:     357

 maximum and minimum number of plane-waves per node :       366      337

 maximum number of plane-waves:       366
 maximum index in each direction: 
   IXMAX=    5   IYMAX=    5   IZMAX=    4
   IXMIN=   -5   IYMIN=   -5   IZMIN=   -5


 serial   3D FFT for wavefunctions
 parallel 3D FFT for charge:
    minimum data exchange during FFTs selected (reduces bandwidth)


 total amount of memory used by VASP MPI-rank0    37453. kBytes
=======================================================================

   base      :      30000. kBytes
   nonl-proj :       6088. kBytes
   fftplans  :        147. kBytes
   grid      :        485. kBytes
   one-center:         15. kBytes
   wavefun   :        718. kBytes
 
     INWAV:  cpu time      0.0000: real time      0.0001
 Broyden mixing: mesh for mixing (old mesh)
   NGX =  9   NGY =  9   NGZ =  9
  (NGX  = 40   NGY  = 40   NGZ  = 40)
  gives a total of    729 points

 initial charge density was supplied:
 charge density of overlapping atoms calculated
 number of electron      16.0000000 magnetization 
 keeping initial charge density in first step


--------------------------------------------------------------------------------------------------------


 Maximum index for augmentation-charges          721 (set IRDMAX)


--------------------------------------------------------------------------------------------------------


 First call to EWALD:  gamma=   0.677
 Maximum number of real-space cells 3x 3x 3
 Maximum number of reciprocal cells 3x 3x 3

    FEWALD:  cpu time      0.0015: real time      0.0015


--------------------------------------- Iteration      1(   1)  ---------------------------------------


    POTLOK:  cpu time      0.0034: real time      0.0035
    SETDIJ:  cpu time      0.0021: real time      0.0022
     EDDAV:  cpu time      0.5222: real time      0.5250
       DOS:  cpu time      0.0010: real time      0.0010
    --------------------------------------------
      LOOP:  cpu time      0.5287: real time      0.5317

 eigenvalue-minimisations  :  5952
 total energy-change (2. order) : 0.1922479E+02  (-0.1151104E+04)
 number of electron      16.0000000 magnetization 
 augmentation part       16.0000000 magnetization 

 Free energy of the ion-electron system (eV)
  ---------------------------------------------------
  alpha Z        PSCENC =       133.73722187
  Ewald energy   TEWEN  =     -2033.57619277
  -Hartree energ DENC   =      -451.51740138
  -exchange      EXHF   =         0.00000000
  -V(xc)+E(xc)   XCENC  =        63.08942542
  PAW double counting   =      2065.75261637    -2030.83594803
  entropy T*S    EENTRO =        -0.00106098
  eigenvalues    EBANDS =      -155.61888438
  atomic energy  EATOM  =      2428.19501064
  Solvation  Ediel_sol  =         0.00000000
  ---------------------------------------------------
  free energy    TOTEN  =        19.22478676 eV

  energy without entropy =       19.22584774  energy(sigma->0) =       19.22531725


--------------------------------------------------------------------------------------------------------




--------------------------------------- Iteration      1(   2)  ---------------------------------------


     EDDAV:  cpu time      0.6889: real time      0.6928
       DOS:  cpu time      0.0005: real time      0.0005
    --------------------------------------------
      LOOP:  cpu time      0.6894: real time      0.6933

 eigenvalue-minimisations  :  7080
 total energy-change (2. order) :-0.2543634E+02  (-0.2507380E+02)
 number of electron      16.0000000 magnetization 
 augmentation part       16.0000000 magnetization 

 Free energy of the ion-electron system (eV)
  ---------------------------------------------------
  alpha Z        PSCENC =       133.73722187
  Ewald energy   TEWEN  =     -2033.57619277
  -Hartree energ DENC   =      -451.51740138
  -exchange      EXHF   =         0.00000000
  -V(xc)+E(xc)   XCENC  =        63.08942542
  PAW double counting   =      2065.75261637    -2030.83594803
  entropy T*S    EENTRO =        -0.00259110
  eigenvalues    EBANDS =      -181.05369189
  atomic energy  EATOM  =      2428.19501064
  Solvation  Ediel_sol  =         0.00000000
  ---------------------------------------------------
  free energy    TOTEN  =        -6.21155087 eV

  energy without entropy =       -6.20895977  energy(sigma->0) =       -6.21025532


--------------------------------------------------------------------------------------------------------




--------------------------------------- Iteration      1(   3)  ---------------------------------------


     EDDAV:  cpu time      0.6540: real time      0.6571
       DOS:  cpu time      0.0005: real time      0.0005
    --------------------------------------------
      LOOP:  cpu time      0.6545: real time      0.6576

 eigenvalue-minimisations  :  6600
 total energy-change (2. order) :-0.4067010E-01  (-0.4066788E-01)
 number of electron      16.0000000 magnetization 
 augmentation part       16.0000000 magnetization 

 Free energy of the ion-electron system (eV)
  ---------------------------------------------------
  alpha Z        PSCENC =       133.73722187
  Ewald energy   TEWEN  =     -2033.57619277
  -Hartree energ DENC   =      -451.51740138
  -exchange      EXHF   =         0.00000000
  -V(xc)+E(xc)   XCENC  =        63.08942542
  PAW double counting   =      2065.75261637    -2030.83594803
  entropy T*S    EENTRO =        -0.00262529
  eigenvalues    EBANDS =      -181.09432780
  atomic energy  EATOM  =      2428.19501064
  Solvation  Ediel_sol  =         0.00000000
  ---------------------------------------------------
  free energy    TOTEN  =        -6.25222097 eV

  energy without entropy =       -6.24959568  energy(sigma->0) =       -6.25090832


--------------------------------------------------------------------------------------------------------




--------------------------------------- Iteration      1(   4)  ---------------------------------------


     EDDAV:  cpu time      1.0386: real time      1.0436
       DOS:  cpu time      0.0005: real time      0.0005
    --------------------------------------------
      LOOP:  cpu time      1.0391: real time      1.0441

 eigenvalue-minimisations  :  8832
 total energy-change (2. order) :-0.5347802E-04  (-0.5347943E-04)
 number of electron      16.0000000 magnetization 
 augmentation part       16.0000000 magnetization 

 Free energy of the ion-electron system (eV)
  ---------------------------------------------------
  alpha Z        PSCENC =       133.73722187
  Ewald energy   TEWEN  =     -2033.57619277
  -Hartree energ DENC   =      -451.51740138
  -exchange      EXHF   =         0.00000000
  -V(xc)+E(xc)   XCENC  =        63.08942542
  PAW double counting   =      2065.75261637    -2030.83594803
  entropy T*S    EENTRO =        -0.00262530
  eigenvalues    EBANDS =      -181.09438127
  atomic energy  EATOM  =      2428.19501064
  Solvation  Ediel_sol  =         0.00000000
  ---------------------------------------------------
  free energy    TOTEN  =        -6.25227445 eV

  energy without entropy =       -6.24964915  energy(sigma->0) =       -6.25096180


--------------------------------------------------------------------------------------------------------




--------------------------------------- Iteration      1(   5)  ---------------------------------------


     EDDAV:  cpu time      0.6438: real time      0.6468
       DOS:  cpu time      0.0005: real time      0.0005
    CHARGE:  cpu time      0.0183: real time      0.0184
    MIXING:  cpu time      0.0002: real time      0.0002
    --------------------------------------------
      LOOP:  cpu time      0.6629: real time      0.6660

 eigenvalue-minimisations  :  6528
 total energy-change (2. order) :-0.1338321E-08  (-0.7495980E-09)
 number of electron      15.9999998 magnetization 
 augmentation part        3.9693441 magnetization 

 Broyden mixing:
  rms(total) = 0.10190E+01    rms(broyden)= 0.10187E+01
  rms(prec ) = 0.17263E+01
  weight for this iteration     100.00

 Free energy of the ion-electron system (eV)
  ---------------------------------------------------
  alpha Z        PSCENC =       133.73722187
  Ewald energy   TEWEN  =     -2033.57619277
  -Hartree energ DENC   =      -451.51740138
  -exchange      EXHF   =         0.00000000
  -V(xc)+E(xc)   XCENC  =        63.08942542
  PAW double counting   =      2065.75261637    -2030.83594803
  entropy T*S    EENTRO =        -0.00262530
  eigenvalues    EBANDS =      -181.09438127
  atomic energy  EATOM  =      2428.19501064
  Solvation  Ediel_sol  =         0.00000000
  ---------------------------------------------------
  free energy    TOTEN  =        -6.25227445 eV

  energy without entropy =       -6.24964915  energy(sigma->0) =       -6.25096180


--------------------------------------------------------------------------------------------------------




--------------------------------------- Iteration      1(   6)  ---------------------------------------


    POTLOK:  cpu time      0.0025: real time      0.0027
    SETDIJ:  cpu time      0.0020: real time      0.0021
     EDDAV:  cpu time      0.5350: real time      0.5379
       DOS:  cpu time      0.0005: real time      0.0005
    CHARGE:  cpu time      0.0176: real time      0.0177
    MIXING:  cpu time      0.0002: real time      0.0002
    --------------------------------------------
      LOOP:  cpu time      0.5580: real time      0.5611

 eigenvalue-minimisations  :  6000
 total energy-change (2. order) : 0.3510542E+00  (-0.1601297E+00)
 number of electron      15.9999998 magnetization 
 augmentation part        4.1014008 magnetization 

 Broyden mixing:
  rms(total) = 0.22776E+00    rms(broyden)= 0.22773E+00
  rms(prec ) = 0.35174E+00
  weight for this iteration     100.00

 eigenvalues of (default mixing * dielectric matrix)
  average eigenvalue GAMMA=   1.2335
  1.2335

 Free energy of the ion-electron system (eV)
  ---------------------------------------------------
  alpha Z        PSCENC =       133.73722187
  Ewald energy   TEWEN  =     -2033.57619277
  -Hartree energ DENC   =      -434.63161537
  -exchange      EXHF   =         0.00000000
  -V(xc)+E(xc)   XCENC  =        62.37539203
  PAW double counting   =      2152.93429296    -2119.89357329
  entropy T*S    EENTRO =        -0.00322105
  eigenvalues    EBANDS =      -195.03853529
  atomic energy  EATOM  =      2428.19501064
  Solvation  Ediel_sol  =         0.00000000
  ---------------------------------------------------
  free energy    TOTEN  =        -5.90122028 eV

  energy without entropy =       -5.89799923  energy(sigma->0) =       -5.89960975


--------------------------------------------------------------------------------------------------------




--------------------------------------- Iteration      1(   7)  ---------------------------------------


    POTLOK:  cpu time      0.0023: real time      0.0024
    SETDIJ:  cpu time      0.0019: real time      0.0019
     EDDAV:  cpu time      0.8539: real time      0.8580
       DOS:  cpu time      0.0005: real time      0.0005
    CHARGE:  cpu time      0.0175: real time      0.0175
    MIXING:  cpu time      0.0003: real time      0.0003
    --------------------------------------------
      LOOP:  cpu time      0.8764: real time      0.8807

 eigenvalue-minimisations  :  8040
 total energy-change (2. order) : 0.9425729E-02  (-0.3186692E-02)
 number of electron      15.9999998 magnetization 
 augmentation part        4.1176872 magnetization 

 Broyden mixing:
  rms(total) = 0.93584E-01    rms(broyden)= 0.93582E-01
  rms(prec ) = 0.14480E+00
  weight for this iteration     100.00

 eigenvalues of (default mixing * dielectric matrix)
  average eigenvalue GAMMA=   1.8693
  1.1034  2.6351

 Free energy of the ion-electron system (eV)
  ---------------------------------------------------
  alpha Z        PSCENC =       133.73722187
  Ewald energy   TEWEN  =     -2033.57619277
  -Hartree energ DENC   =      -432.14282525
  -exchange      EXHF   =         0.00000000
  -V(xc)+E(xc)   XCENC  =        62.25934037
  PAW double counting   =      2164.87758693    -2132.03040895
  entropy T*S    EENTRO =        -0.00326255
  eigenvalues    EBANDS =      -197.20826484
  atomic energy  EATOM  =      2428.19501064
  Solvation  Ediel_sol  =         0.00000000
  ---------------------------------------------------
  free energy    TOTEN  =        -5.89179455 eV

  energy without entropy =       -5.88853200  energy(sigma->0) =       -5.89016327


--------------------------------------------------------------------------------------------------------




--------------------------------------- Iteration      1(   8)  ---------------------------------------


    POTLOK:  cpu time      0.0022: real time      0.0024
    SETDIJ:  cpu time      0.0019: real time      0.0019
     EDDAV:  cpu time      0.5693: real time      0.5721
       DOS:  cpu time      0.0005: real time      0.0005
    CHARGE:  cpu time      0.0176: real time      0.0177
    MIXING:  cpu time      0.0002: real time      0.0002
    --------------------------------------------
      LOOP:  cpu time      0.5918: real time      0.5949

 eigenvalue-minimisations  :  6216
 total energy-change (2. order) : 0.1039510E-02  (-0.3856343E-03)
 number of electron      15.9999998 magnetization 
 augmentation part        4.1156955 magnetization 

 Broyden mixing:
  rms(total) = 0.41957E-02    rms(broyden)= 0.41465E-02
  rms(prec ) = 0.78780E-02
  weight for this iteration     100.00

 eigenvalues of (default mixing * dielectric matrix)
  average eigenvalue GAMMA=   1.5581
  1.0798  1.1732  2.4214

 Free energy of the ion-electron system (eV)
  ---------------------------------------------------
  alpha Z        PSCENC =       133.73722187
  Ewald energy   TEWEN  =     -2033.57619277
  -Hartree energ DENC   =      -431.83166649
  -exchange      EXHF   =         0.00000000
  -V(xc)+E(xc)   XCENC  =        62.23211081
  PAW double counting   =      2169.51992782    -2136.56688533
  entropy T*S    EENTRO =        -0.00329604
  eigenvalues    EBANDS =      -197.59698555
  atomic energy  EATOM  =      2428.19501064
  Solvation  Ediel_sol  =         0.00000000
  ---------------------------------------------------
  free energy    TOTEN  =        -5.89075504 eV

  energy without entropy =       -5.88745900  energy(sigma->0) =       -5.88910702


--------------------------------------------------------------------------------------------------------




--------------------------------------- Iteration      1(   9)  ---------------------------------------


    POTLOK:  cpu time      0.0023: real time      0.0024
    SETDIJ:  cpu time      0.0019: real time      0.0019
     EDDAV:  cpu time      0.7818: real time      0.7856
       DOS:  cpu time      0.0005: real time      0.0005
    CHARGE:  cpu time      0.0192: real time      0.0193
    MIXING:  cpu time      0.0009: real time      0.0009
    --------------------------------------------
      LOOP:  cpu time      0.8066: real time      0.8105

 eigenvalue-minimisations  :  7416
 total energy-change (2. order) : 0.1445144E-04  (-0.2185805E-05)
 number of electron      15.9999998 magnetization 
 augmentation part        4.1157228 magnetization 

 Broyden mixing:
  rms(total) = 0.16212E-02    rms(broyden)= 0.16174E-02
  rms(prec ) = 0.33167E-02
  weight for this iteration     100.00

 eigenvalues of (default mixing * dielectric matrix)
  average eigenvalue GAMMA=   1.8172
  1.0216  1.1185  2.7856  2.3431

 Free energy of the ion-electron system (eV)
  ---------------------------------------------------
  alpha Z        PSCENC =       133.73722187
  Ewald energy   TEWEN  =     -2033.57619277
  -Hartree energ DENC   =      -431.87699267
  -exchange      EXHF   =         0.00000000
  -V(xc)+E(xc)   XCENC  =        62.23450461
  PAW double counting   =      2170.42965750    -2137.45948294
  entropy T*S    EENTRO =        -0.00329331
  eigenvalues    EBANDS =      -197.57117351
  atomic energy  EATOM  =      2428.19501064
  Solvation  Ediel_sol  =         0.00000000
  ---------------------------------------------------
  free energy    TOTEN  =        -5.89074059 eV

  energy without entropy =       -5.88744727  energy(sigma->0) =       -5.88909393


--------------------------------------------------------------------------------------------------------




--------------------------------------- Iteration      1(  10)  ---------------------------------------


    POTLOK:  cpu time      0.0031: real time      0.0033
    SETDIJ:  cpu time      0.0019: real time      0.0019
     EDDAV:  cpu time      0.7659: real time      0.7694
       DOS:  cpu time      0.0005: real time      0.0005
    CHARGE:  cpu time      0.0176: real time      0.0176
    MIXING:  cpu time      0.0004: real time      0.0004
    --------------------------------------------
      LOOP:  cpu time      0.7894: real time      0.7931

 eigenvalue-minimisations  :  7416
 total energy-change (2. order) :-0.8559250E-05  (-0.8105675E-06)
 number of electron      15.9999998 magnetization 
 augmentation part        4.1157813 magnetization 

 Broyden mixing:
  rms(total) = 0.50320E-03    rms(broyden)= 0.50256E-03
  rms(prec ) = 0.52207E-03
  weight for this iteration     100.00

 eigenvalues of (default mixing * dielectric matrix)
  average eigenvalue GAMMA=   1.7649
  2.6866  2.3671  0.9958  1.1204  1.6545

 Free energy of the ion-electron system (eV)
  ---------------------------------------------------
  alpha Z        PSCENC =       133.73722187
  Ewald energy   TEWEN  =     -2033.57619277
  -Hartree energ DENC   =      -431.90170132
  -exchange      EXHF   =         0.00000000
  -V(xc)+E(xc)   XCENC  =        62.23541070
  PAW double counting   =      2171.85452855    -2138.85635096
  entropy T*S    EENTRO =        -0.00329258
  eigenvalues    EBANDS =      -197.57538329
  atomic energy  EATOM  =      2428.19501064
  Solvation  Ediel_sol  =         0.00000000
  ---------------------------------------------------
  free energy    TOTEN  =        -5.89074915 eV

  energy without entropy =       -5.88745657  energy(sigma->0) =       -5.88910286


--------------------------------------------------------------------------------------------------------




--------------------------------------- Iteration      1(  11)  ---------------------------------------


    POTLOK:  cpu time      0.0023: real time      0.0024
    SETDIJ:  cpu time      0.0019: real time      0.0019
     EDDAV:  cpu time      0.3558: real time      0.3577
       DOS:  cpu time      0.0005: real time      0.0005
    --------------------------------------------
      LOOP:  cpu time      0.3605: real time      0.3626

 eigenvalue-minimisations  :  4080
 total energy-change (2. order) : 0.1107769E-06  (-0.1065308E-08)
 number of electron      15.9999998 magnetization 
 augmentation part        4.1157813 magnetization 

 Free energy of the ion-electron system (eV)
  ---------------------------------------------------
  alpha Z        PSCENC =       133.73722187
  Ewald energy   TEWEN  =     -2033.57619277
  -Hartree energ DENC   =      -431.90053028
  -exchange      EXHF   =         0.00000000
  -V(xc)+E(xc)   XCENC  =        62.23536946
  PAW double counting   =      2171.64644471    -2138.64960071
  entropy T*S    EENTRO =        -0.00329254
  eigenvalues    EBANDS =      -197.57517943
  atomic energy  EATOM  =      2428.19501064
  Solvation  Ediel_sol  =         0.00000000
  ---------------------------------------------------
  free energy    TOTEN  =        -5.89074903 eV

  energy without entropy =       -5.88745650  energy(sigma->0) =       -5.88910277


--------------------------------------------------------------------------------------------------------




 average (electrostatic) potential at core
  the test charge radii are     0.9952
  (the norm of the test charge is              1.0000)
       1 -91.3343
 
 
 
 E-fermi :   8.9311     XC(G=0): -12.9023     alpha+bet :-14.6221

 Fermi energy:         8.9311158064

 k-point     1 :       0.0500    0.0500    0.0500
  band No.  band energies     occupation 
      1     -43.1124      2.00000
      2     -43.1075      2.00000
      3     -43.1075      2.00000
      4       0.5665      2.00000
      5       6.0354      2.00000
      6       6.0993      2.00000
      7       6.0993      2.00000
      8       7.6788      2.00000
      9       7.6788      2.00000
     10      23.9459      0.00000
     11      27.2941      0.00000
     12      27.9548      0.00000
     13      27.9548      0.00000
     14      33.1211      0.00000
     15      36.1698      0.00000
     16      36.8179      0.00000
     17      36.8179      0.00000
     18      39.1659      0.00000
     19      39.1659      0.00000
     20      39.9890      0.00000
     21      46.0915      0.00000
     22      46.0915      0.00000
     23      50.2215      0.00000
     24      50.8583      0.00000

 k-point     2 :       0.1500    0.0500    0.0500
  band No.  band energies     occupation 
      1     -43.1415      2.00000
      2     -43.1161      2.00000
      3     -43.1104      2.00000
      4       1.0115      2.00000
      5       5.8664      2.00000
      6       6.2403      2.00000
      7       6.2704      2.00000
      8       7.5181      2.00000
      9       7.7261      2.00000
     10      24.4401      0.00000
     11      25.5802      0.00000
     12      27.8153      0.00000
     13      28.8844      0.00000
     14      32.6449      0.00000
     15      34.8719      0.00000
     16      35.9913      0.00000
     17      36.0246      0.00000
     18      37.9022      0.00000
     19      40.5128      0.00000
     20      42.4585      0.00000
     21      45.3112      0.00000
     22      47.2548      0.00000
     23      50.2304      0.00000
     24      53.0031      0.00000

 k-point     3 :       0.2500    0.0500    0.0500
  band No.  band energies     occupation 
      1     -43.2057      2.00000
      2     -43.1281      2.00000
      3     -43.1198      2.00000
      4       1.9877      2.00000
      5       5.7030      2.00000
      6       6.3915      2.00000
      7       6.4202      2.00000
      8       7.5159      2.00000
      9       7.9336      2.00000
     10      22.3120      0.00000
     11      25.1071      0.00000
     12      28.2856      0.00000
     13      30.2524      0.00000
     14      30.4293      0.00000
     15      32.7856      0.00000
     16      33.4542      0.00000
     17      38.4760      0.00000
     18      39.3651      0.00000
     19      41.4331      0.00000
     20      43.4256      0.00000
     21      46.1317      0.00000
     22      48.1175      0.00000
     23      50.2253      0.00000
     24      54.7754      0.00000

 k-point     4 :       0.3500    0.0500    0.0500
  band No.  band energies     occupation 
      1     -43.2777      2.00000
      2     -43.1397      2.00000
      3     -43.1311      2.00000
      4       2.9411      2.00000
      5       6.1450      2.00000
      6       6.2948      2.00000
      7       6.3048      2.00000
      8       8.0146      2.00000
      9       8.4996      2.00000
     10      18.6467      0.00000
     11      24.4630      0.00000
     12      27.4197      0.00000
     13      29.4655      0.00000
     14      31.3544      0.00000
     15      32.6973      0.00000
     16      33.5641      0.00000
     17      39.0970      0.00000
     18      40.7926      0.00000
     19      43.0629      0.00000
     20      45.2390      0.00000
     21      47.2739      0.00000
     22      48.9410      0.00000
     23      50.2322      0.00000
     24      53.5249      0.00000

 k-point     5 :       0.4500    0.0500    0.0500
  band No.  band energies     occupation 
      1     -43.3319      2.00000
      2     -43.1471      2.00000
      3     -43.1407      2.00000
      4       3.2547      2.00000
      5       6.0584      2.00000
      6       6.1331      2.00000
      7       7.6632      2.00000
      8       8.6396      2.00000
      9       9.2326      0.00000
     10      15.1224      0.00000
     11      23.6750      0.00000
     12      26.3672      0.00000
     13      27.3588      0.00000
     14      33.5184      0.00000
     15      34.1085      0.00000
     16      34.9687      0.00000
     17      40.0453      0.00000
     18      41.0248      0.00000
     19      42.6769      0.00000
     20      47.1423      0.00000
     21      49.7620      0.00000
     22      49.9662      0.00000
     23      50.2386      0.00000
     24      50.7628      0.00000

 k-point     6 :      -0.4500    0.0500    0.0500
  band No.  band energies     occupation 
      1     -43.3472      2.00000
      2     -43.1472      2.00000
      3     -43.1450      2.00000
      4       3.2788      2.00000
      5       5.9905      2.00000
      6       6.0925      2.00000
      7       8.2296      2.00000
      8       8.9409      0.78294
      9       9.8002      0.00000
     10      13.6142      0.00000
     11      23.4583      0.00000
     12      26.3565      0.00000
     13      26.4449      0.00000
     14      34.3047      0.00000
     15      34.4440      0.00000
     16      35.7550      0.00000
     17      40.4149      0.00000
     18      41.2720      0.00000
     19      41.9306      0.00000
     20      48.2509      0.00000
     21      48.9190      0.00000
     22      49.6732      0.00000
     23      50.2409      0.00000
     24      50.8702      0.00000

 k-point     7 :      -0.3500    0.0500    0.0500
  band No.  band energies     occupation 
      1     -43.3175      2.00000
      2     -43.1424      2.00000
      3     -43.1408      2.00000
      4       3.2066      2.00000
      5       6.0905      2.00000
      6       6.2047      2.00000
      7       7.0956      2.00000
      8       8.7274      2.00000
      9       8.7345      2.00000
     10      16.2143      0.00000
     11      23.9003      0.00000
     12      26.8635      0.00000
     13      27.6217      0.00000
     14      33.4322      0.00000
     15      33.4934      0.00000
     16      34.2148      0.00000
     17      39.1678      0.00000
     18      41.8882      0.00000
     19      42.6494      0.00000
     20      46.9420      0.00000
     21      48.4893      0.00000
     22      49.8282      0.00000
     23      50.2335      0.00000
     24      51.2266      0.00000

 k-point     8 :      -0.2500    0.0500    0.0500
  band No.  band energies     occupation 
      1     -43.2539      2.00000
      2     -43.1338      2.00000
      3     -43.1297      2.00000
      4       2.6818      2.00000
      5       5.8800      2.00000
      6       6.3092      2.00000
      7       6.3803      2.00000
      8       7.9052      2.00000
      9       8.2037      2.00000
     10      19.8946      0.00000
     11      24.8060      0.00000
     12      27.9883      0.00000
     13      29.5832      0.00000
     14      31.1868      0.00000
     15      32.5344      0.00000
     16      32.9045      0.00000
     17      38.5340      0.00000
     18      41.7963      0.00000
     19      41.9165      0.00000
     20      44.5913      0.00000
     21      46.1379      0.00000
     22      49.0435      0.00000
     23      50.2344      0.00000
     24      54.0756      0.00000

 k-point     9 :      -0.1500    0.0500    0.0500
  band No.  band energies     occupation 
      1     -43.1817      2.00000
      2     -43.1220      2.00000
      3     -43.1182      2.00000
      4       1.6252      2.00000
      5       5.7133      2.00000
      6       6.3845      2.00000
      7       6.3994      2.00000
      8       7.4713      2.00000
      9       7.8139      2.00000
     10      23.4411      0.00000
     11      25.0962      0.00000
     12      28.2542      0.00000
     13      29.4439      0.00000
     14      31.1934      0.00000
     15      33.2873      0.00000
     16      34.0945      0.00000
     17      37.9244      0.00000
     18      38.6733      0.00000
     19      41.5405      0.00000
     20      42.9352      0.00000
     21      45.4540      0.00000
     22      47.9966      0.00000
     23      50.2279      0.00000
     24      54.7671      0.00000

 k-point    10 :      -0.0500    0.0500    0.0500
  band No.  band energies     occupation 
      1     -43.1252      2.00000
      2     -43.1117      2.00000
      3     -43.1104      2.00000
      4       0.7926      2.00000
      5       5.9200      2.00000
      6       6.1950      2.00000
      7       6.2009      2.00000
      8       7.5449      2.00000
      9       7.7375      2.00000
     10      24.2318      0.00000
     11      26.5262      0.00000
     12      27.8475      0.00000
     13      28.1410      0.00000
     14      33.8125      0.00000
     15      35.2555      0.00000
     16      35.3332      0.00000
     17      36.7197      0.00000
     18      37.6461      0.00000
     19      40.9688      0.00000
     20      41.3511      0.00000
     21      45.2232      0.00000
     22      46.9211      0.00000
     23      50.2353      0.00000
     24      52.1052      0.00000

 k-point    11 :       0.1500    0.1500    0.0500
  band No.  band energies     occupation 
      1     -43.1481      2.00000
      2     -43.1204      2.00000
      3     -43.1186      2.00000
      4       1.2324      2.00000
      5       5.6917      2.00000
      6       6.3963      2.00000
      7       6.4008      2.00000
      8       7.3084      2.00000
      9       7.8505      2.00000
     10      24.7516      0.00000
     11      25.7734      0.00000
     12      27.4567      0.00000
     13      27.9348      0.00000
     14      32.9704      0.00000
     15      34.1197      0.00000
     16      34.8890      0.00000
     17      36.7196      0.00000
     18      37.5899      0.00000
     19      42.6333      0.00000
     20      42.8934      0.00000
     21      43.9923      0.00000
     22      47.4768      0.00000
     23      50.2320      0.00000
     24      54.1853      0.00000

 k-point    12 :       0.2500    0.1500    0.0500
  band No.  band energies     occupation 
      1     -43.1927      2.00000
      2     -43.1370      2.00000
      3     -43.1259      2.00000
      4       2.0388      2.00000
      5       5.4248      2.00000
      6       6.4955      2.00000
      7       6.6834      2.00000
      8       7.2319      2.00000
      9       8.0690      2.00000
     10      23.6930      0.00000
     11      25.1883      0.00000
     12      26.9721      0.00000
     13      28.1903      0.00000
     14      31.0518      0.00000
     15      33.3707      0.00000
     16      34.2854      0.00000
     17      37.2986      0.00000
     18      39.7614      0.00000
     19      42.3583      0.00000
     20      43.0538      0.00000
     21      45.5616      0.00000
     22      48.7849      0.00000
     23      50.2297      0.00000
     24      54.5707      0.00000

 k-point    13 :       0.3500    0.1500    0.0500
  band No.  band energies     occupation 
      1     -43.2556      2.00000
      2     -43.1522      2.00000
      3     -43.1371      2.00000
      4       3.0825      2.00000
      5       5.4491      2.00000
      6       6.1832      2.00000
      7       6.6965      2.00000
      8       7.8824      2.00000
      9       8.6288      2.00000
     10      20.1019      0.00000
     11      24.7805      0.00000
     12      26.0546      0.00000
     13      28.2160      0.00000
     14      31.6122      0.00000
     15      33.0117      0.00000
     16      34.7993      0.00000
     17      36.8177      0.00000
     18      42.2094      0.00000
     19      43.0068      0.00000
     20      44.4228      0.00000
     21      46.2318      0.00000
     22      50.2343      0.00000
     23      50.5565      0.00000
     24      52.6895      0.00000

[...]
     13      28.6104      0.00000
     14      33.1670      0.00000
     15      33.9702      0.00000
     16      37.7766      0.00000
     17      39.8920      0.00000
     18      42.3052      0.00000
     19      45.1329      0.00000
     20      46.4027      0.00000
     21      47.3320      0.00000
     22      50.2330      0.00000
     23      51.2392      0.00000
     24      51.6437      0.00000

 k-point   100 :      -0.3500   -0.3500    0.2500
  band No.  band energies     occupation 
      1     -43.3007      2.00000
      2     -43.2486      2.00000
      3     -43.1814      2.00000
      4       4.1860      2.00000
      5       4.8129      2.00000
      6       6.7933      2.00000
      7       7.9202      2.00000
      8       8.8124      1.99922
      9      13.9365      0.00000
     10      14.7034      0.00000
     11      17.9718      0.00000
     12      22.3928      0.00000
     13      27.1984      0.00000
     14      33.1746      0.00000
     15      35.0553      0.00000
     16      36.2394      0.00000
     17      42.1197      0.00000
     18      43.5070      0.00000
     19      43.7617      0.00000
     20      46.4168      0.00000
     21      46.5741      0.00000
     22      50.2279      0.00000
     23      50.4135      0.00000
     24      51.3959      0.00000

 k-point   101 :       0.3500    0.3500    0.3500
  band No.  band energies     occupation 
      1     -43.3004      2.00000
      2     -43.1365      2.00000
      3     -43.1365      2.00000
      4       3.0392      2.00000
      5       6.2012      2.00000
      6       6.2012      2.00000
      7       6.7613      2.00000
      8       8.4085      2.00000
      9       8.4085      2.00000
     10      17.3765      0.00000
     11      24.0977      0.00000
     12      28.0756      0.00000
     13      28.0756      0.00000
     14      32.7684      0.00000
     15      33.0132      0.00000
     16      33.0132      0.00000
     17      40.6298      0.00000
     18      40.6298      0.00000
     19      42.0919      0.00000
     20      47.3542      0.00000
     21      48.0455      0.00000
     22      48.0455      0.00000
     23      50.2263      0.00000
     24      53.3790      0.00000

 k-point   102 :       0.4500    0.3500    0.3500
  band No.  band energies     occupation 
      1     -43.3134      2.00000
      2     -43.1592      2.00000
      3     -43.1389      2.00000
      4       3.4182      2.00000
      5       6.0038      2.00000
      6       6.3144      2.00000
      7       6.7539      2.00000
      8       8.2916      2.00000
      9       9.5302      0.00000
     10      16.3301      0.00000
     11      23.9027      0.00000
     12      25.5091      0.00000
     13      28.0684      0.00000
     14      32.2691      0.00000
     15      34.1444      0.00000
     16      35.7174      0.00000
     17      38.8566      0.00000
     18      40.7213      0.00000
     19      44.1829      0.00000
     20      45.0605      0.00000
     21      49.6515      0.00000
     22      50.0184      0.00000
     23      50.2342      0.00000
     24      51.1472      0.00000

 k-point   103 :      -0.4500    0.3500    0.3500
  band No.  band energies     occupation 
      1     -43.3084      2.00000
      2     -43.2046      2.00000
      3     -43.1508      2.00000
      4       4.1627      2.00000
      5       5.5909      2.00000
      6       6.2829      2.00000
      7       6.7785      2.00000
      8       8.2643      2.00000
      9      11.0883      0.00000
     10      15.8178      0.00000
     11      21.3937      0.00000
     12      25.4530      0.00000
     13      26.6026      0.00000
     14      32.4891      0.00000
     15      34.6071      0.00000
     16      37.7151      0.00000
     17      39.8974      0.00000
     18      41.2528      0.00000
     19      42.8088      0.00000
     20      44.7350      0.00000
     21      48.1284      0.00000
     22      50.2347      0.00000
     23      51.1774      0.00000
     24      52.0425      0.00000

 k-point   104 :      -0.3500    0.3500    0.3500
  band No.  band energies     occupation 
      1     -43.2855      2.00000
      2     -43.2566      2.00000
      3     -43.1667      2.00000
      4       4.5121      2.00000
      5       5.3315      2.00000
      6       6.0858      2.00000
      7       7.4188      2.00000
      8       8.4149      2.00000
      9      12.4887      0.00000
     10      16.1856      0.00000
     11      18.1674      0.00000
     12      24.4259      0.00000
     13      26.4086      0.00000
     14      33.9004      0.00000
     15      34.6822      0.00000
     16      36.0185      0.00000
     17      41.7443      0.00000
     18      42.5363      0.00000
     19      43.4435      0.00000
     20      46.5872      0.00000
     21      46.7885      0.00000
     22      48.1881      0.00000
     23      50.2357      0.00000
     24      53.1425      0.00000

 k-point   105 :       0.4500    0.4500    0.3500
  band No.  band energies     occupation 
      1     -43.3280      2.00000
      2     -43.1537      2.00000
      3     -43.1491      2.00000
      4       3.4447      2.00000
      5       5.9107      2.00000
      6       6.3141      2.00000
      7       7.0055      2.00000
      8       8.9255      1.12562
      9       9.6903      0.00000
     10      15.1583      0.00000
     11      23.8814      0.00000
     12      25.8987      0.00000
     13      26.4070      0.00000
     14      33.8704      0.00000
     15      34.5982      0.00000
     16      35.4807      0.00000
     17      37.9047      0.00000
     18      42.8118      0.00000
     19      43.1080      0.00000
     20      45.8678      0.00000
     21      49.2589      0.00000
     22      49.7282      0.00000
     23      50.2333      0.00000
     24      50.9118      0.00000

 k-point   106 :      -0.4500    0.4500    0.3500
  band No.  band energies     occupation 
      1     -43.3246      2.00000
      2     -43.1867      2.00000
      3     -43.1559      2.00000
      4       3.9341      2.00000
      5       5.5813      2.00000
      6       6.5408      2.00000
      7       6.7210      2.00000
      8       8.7611      2.00000
      9      11.3718      0.00000
     10      14.3994      0.00000
     11      23.1587      0.00000
     12      23.8362      0.00000
     13      26.6500      0.00000
     14      33.3117      0.00000
     15      35.2731      0.00000
     16      37.3948      0.00000
     17      38.2786      0.00000
     18      41.7936      0.00000
     19      43.4956      0.00000
     20      45.1195      0.00000
     21      48.0521      0.00000
     22      50.2295      0.00000
     23      51.0681      0.00000
     24      52.2365      0.00000

 k-point   107 :      -0.3500    0.4500    0.3500
  band No.  band energies     occupation 
      1     -43.3039      2.00000
      2     -43.2311      2.00000
      3     -43.1711      2.00000
      4       4.5738      2.00000
      5       5.1910      2.00000
      6       6.0728      2.00000
      7       7.2496      2.00000
      8       8.7094      2.00000
      9      13.0524      0.00000
     10      14.4201      0.00000
     11      20.1089      0.00000
     12      22.8080      0.00000
     13      27.6403      0.00000
     14      32.9362      0.00000
     15      36.2281      0.00000
     16      36.6809      0.00000
     17      38.8712      0.00000
     18      41.4246      0.00000
     19      45.1045      0.00000
     20      46.3381      0.00000
     21      47.1898      0.00000
     22      49.6338      0.00000
     23      50.2317      0.00000
     24      52.0977      0.00000

 k-point   108 :      -0.4500   -0.4500    0.3500
  band No.  band energies     occupation 
      1     -43.3231      2.00000
      2     -43.1994      2.00000
      3     -43.1607      2.00000
      4       4.0673      2.00000
      5       5.4714      2.00000
      6       6.5182      2.00000
      7       6.8092      2.00000
      8       8.8672      1.92938
      9      12.4942      0.00000
     10      13.4945      0.00000
     11      22.0609      0.00000
     12      24.7621      0.00000
     13      25.5214      0.00000
     14      34.5108      0.00000
     15      34.6489      0.00000
     16      36.6494      0.00000
     17      39.3478      0.00000
     18      42.4470      0.00000
     19      43.1066      0.00000
     20      45.3940      0.00000
     21      47.6041      0.00000
     22      50.2258      0.00000
     23      50.3720      0.00000
     24      52.9972      0.00000

 k-point   109 :       0.4500    0.4500    0.4500
  band No.  band energies     occupation 
      1     -43.3439      2.00000
      2     -43.1427      2.00000
      3     -43.1427      2.00000
      4       3.2054      2.00000
      5       6.0576      2.00000
      6       6.0576      2.00000
      7       8.6350      2.00000
      8       8.8689      1.92165
      9       8.8689      1.92165
     10      14.1891      0.00000
     11      23.4449      0.00000
     12      26.7880      0.00000
     13      26.7880      0.00000
     14      34.1841      0.00000
     15      34.1841      0.00000
     16      35.1119      0.00000
     17      40.9060      0.00000
     18      40.9060      0.00000
     19      41.9544      0.00000
     20      49.0765      0.00000
     21      49.0765      0.00000
     22      49.6284      0.00000
     23      50.2395      0.00000
     24      50.7798      0.00000

 k-point   110 :      -0.4500    0.4500    0.4500
  band No.  band energies     occupation 
      1     -43.3417      2.00000
      2     -43.1603      2.00000
      3     -43.1472      2.00000
      4       3.4731      2.00000
      5       5.8666      2.00000
      6       6.2347      2.00000
      7       7.5967      2.00000
      8       8.8439      1.98635
      9      10.6806      0.00000
     10      13.5995      0.00000
     11      23.6065      0.00000
     12      25.3704      0.00000
     13      26.3440      0.00000
     14      34.2121      0.00000
     15      34.4282      0.00000
     16      36.5305      0.00000
     17      40.4203      0.00000
     18      41.0907      0.00000
     19      41.8633      0.00000
     20      47.2104      0.00000
     21      47.7888      0.00000
     22      50.2309      0.00000
     23      50.6973      0.00000
     24      51.5719      0.00000


--------------------------------------------------------------------------------------------------------


 soft charge-density along one line, spin component           1
         0         1         2         3         4         5         6         7         8         9
 total charge-density along one line
 
 pseudopotential strength for first ion, spin component:           1
-32.327  -0.000  -0.000  11.381   0.000   0.000  -0.000   0.000
 -0.000 -32.327  -0.000   0.000  11.381   0.000  -0.000  -0.000
 -0.000  -0.000 -32.327   0.000   0.000  11.381  -0.000  -0.000
 11.381   0.000   0.000  15.991  -0.000  -0.000   0.000   0.000
  0.000  11.381   0.000  -0.000  15.991  -0.000   0.000   0.000
  0.000   0.000  11.381  -0.000  -0.000  15.991   0.000   0.000
 -0.000  -0.000  -0.000   0.000   0.000   0.000  -4.145   0.000
  0.000  -0.000  -0.000   0.000   0.000   0.000   0.000  -4.145
  0.000   0.000   0.000  -0.000  -0.000  -0.000   0.000  -0.000
 -0.000  -0.000   0.000   0.000   0.000   0.000   0.000   0.000
  0.000   0.000  -0.000   0.000  -0.000   0.000   0.000   0.000
 -0.000  -0.000  -0.000   0.000   0.000   0.000  -4.427   0.000
 -0.000  -0.000  -0.000   0.000   0.000   0.000   0.000  -4.427
  0.000  -0.000   0.000   0.000  -0.000   0.000   0.000  -0.000
 -0.000  -0.000   0.000   0.000   0.000   0.000   0.000   0.000
  0.000   0.000   0.000  -0.000  -0.000   0.000   0.000   0.000
  0.000   0.000   0.000   0.000  -0.000   0.000   0.000   0.000
 -0.000   0.000  -0.000   0.000  -0.000  -0.000  -0.000  -0.000
 total augmentation occupancy for first ion, spin component:           1
  2.002  -0.000   0.000  -0.018   0.000   0.000   0.000   0.000   0.000   0.000   0.000   0.000   0.000   0.000   0.000   0.000
  0.000   2.002  -0.000   0.000  -0.018  -0.000   0.000   0.000   0.000   0.000   0.000   0.000   0.000   0.000   0.000   0.000
  0.000  -0.000   2.002   0.000  -0.000  -0.018   0.000   0.000   0.000   0.000   0.000   0.000   0.000   0.000   0.000   0.000
 -0.018   0.000   0.000   0.035  -0.000   0.000   0.000   0.000   0.000   0.000   0.000   0.000   0.000   0.000   0.000   0.000
  0.000  -0.018  -0.000  -0.000   0.035  -0.000   0.000   0.000   0.000   0.000   0.000   0.000   0.000   0.000   0.000   0.000
  0.000  -0.000  -0.018   0.000  -0.000   0.035   0.000   0.000   0.000   0.000   0.000   0.000   0.000   0.000   0.000   0.000
  0.000   0.000   0.000   0.000   0.000   0.000   3.749   0.000  -0.000  -0.000   0.000  -1.761   0.000   0.000   0.000   0.000
  0.000   0.000   0.000   0.000   0.000   0.000   0.000   3.749   0.000  -0.000  -0.000  -0.000  -1.761  -0.000   0.000   0.000
  0.000   0.000   0.000   0.000   0.000   0.000  -0.000   0.000   3.096  -0.000   0.000  -0.000  -0.000  -1.330   0.000  -0.000
  0.000   0.000   0.000   0.000   0.000   0.000  -0.000  -0.000  -0.000   3.749  -0.000   0.000  -0.000   0.000  -1.761  -0.000
  0.000   0.000   0.000   0.000   0.000   0.000   0.000  -0.000   0.000  -0.000   3.096  -0.000   0.000  -0.000   0.000  -1.330
  0.000   0.000   0.000   0.000   0.000   0.000  -1.761  -0.000   0.000   0.000  -0.000   1.466  -0.000   0.000   0.000   0.000
  0.000   0.000   0.000   0.000   0.000   0.000  -0.000  -1.761  -0.000   0.000   0.000   0.000   1.466  -0.000  -0.000   0.000
  0.000   0.000   0.000   0.000   0.000   0.000   0.000  -0.000  -1.330   0.000  -0.000   0.000  -0.000   1.385  -0.000   0.000
  0.000   0.000   0.000   0.000   0.000   0.000   0.000   0.000   0.000  -1.761   0.000   0.000   0.000  -0.000   1.466   0.000
  0.000   0.000   0.000   0.000   0.000   0.000   0.000   0.000  -0.000   0.000  -1.330  -0.000   0.000   0.000   0.000   1.385
  0.000   0.000   0.000   0.000   0.000   0.000   0.000   0.000  -0.000   0.000   0.000   0.000  -0.000   0.000   0.000   0.000
  0.000   0.000   0.000   0.000   0.000   0.000   0.000   0.000  -0.000  -0.000  -0.000  -0.000  -0.000   0.000   0.000  -0.000


------------------------ aborting loop because EDIFF is reached ----------------------------------------





 total charge

# of ion       s       p       d       tot
------------------------------------------
    1        0.307   6.045   7.050  13.401
 
    CHARGE:  cpu time      0.0173: real time      0.0174
    FORLOC:  cpu time      0.0001: real time      0.0001
    FORNL :  cpu time      0.0068: real time      0.0068
    STRESS:  cpu time      0.1376: real time      0.1381
    FORCOR:  cpu time      0.0019: real time      0.0019
    FORHAR:  cpu time      0.0004: real time      0.0004
    MIXING:  cpu time      0.0002: real time      0.0002
    OFIELD:  cpu time      0.0000: real time      0.0000

  FORCE on cell =-STRESS in cart. coord.  units (eV):
  Direction    XX          YY          ZZ          XY          YZ          ZX
  --------------------------------------------------------------------------------------
  Alpha Z   133.73722   133.73722   133.73722
  Ewald    -677.85875  -677.85875  -677.85875     0.00000    -0.00000    -0.00000
  Hartree   143.96641   143.96641   143.96641     0.00000     0.00000     0.00000
  E(xc)     -84.96972   -84.96972   -84.96972     0.00000     0.00000     0.00000
  Local      94.15143    94.15143    94.15143    -0.00002    -0.00002    -0.00002
  n-local   -32.90970   -30.73404   -35.68957     3.11322    -2.89240     0.16168
  augment    73.33945    73.33945    73.33945     0.00002     0.00002     0.00002
  Kinetic   347.32075   351.66233   344.69958     3.93890    -3.15084    -0.45334
  Fock        0.00000     0.00000     0.00000     0.00000     0.00000     0.00000
  -------------------------------------------------------------------------------------
  Total      -2.85084    -2.85084    -2.85084     0.00000     0.00000    -0.00000
  in kB    -254.59414  -254.59414  -254.59414     0.00000     0.00000    -0.00000
  external pressure =     -254.59 kB  Pullay stress =        0.00 kB


 VOLUME and BASIS-vectors are now :
 -----------------------------------------------------------------------------
  energy-cutoff  :      425.00
  volume of cell :       17.94
      direct lattice vectors                 reciprocal lattice vectors
     0.000000000  2.077791061  2.077791061    -0.240640173  0.240640173  0.240640173
     2.077791061  0.000000000  2.077791061     0.240640173 -0.240640173  0.240640173
     2.077791061  2.077791061  0.000000000     0.240640173  0.240640173 -0.240640173

  length of vectors
     2.938440298  2.938440298  2.938440298     0.416801006  0.416801006  0.416801006


 FORCES acting on ions
    electron-ion (+dipol)            ewald-force                    non-local-force                 convergence-correction
 -----------------------------------------------------------------------------------------------
   -.643E-14 -.749E-14 -.102E-15   0.110E-14 -.236E-14 -.852E-16   0.000E+00 0.000E+00 -.103E-24   -.420E-13 -.711E-13 -.180E-13
 -----------------------------------------------------------------------------------------------
   -.643E-14 -.749E-14 -.102E-15   0.110E-14 -.236E-14 -.852E-16   0.000E+00 0.000E+00 -.103E-24   -.420E-13 -.711E-13 -.180E-13
 
 
 POSITION                                       TOTAL-FORCE (eV/Angst)
 -----------------------------------------------------------------------------------
      0.00000      0.00000      0.00000         0.000000     -0.000000      0.000000
 -----------------------------------------------------------------------------------
    total drift:                               -0.000000     -0.000000     -0.000000


--------------------------------------------------------------------------------------------------------



  FREE ENERGIE OF THE ION-ELECTRON SYSTEM (eV)
  ---------------------------------------------------
  free  energy   TOTEN  =        -5.89074903 eV

  energy  without entropy=       -5.88745650  energy(sigma->0) =       -5.88910277
 


--------------------------------------------------------------------------------------------------------


    POTLOK:  cpu time      0.0044: real time      0.0044


--------------------------------------------------------------------------------------------------------




--------------------------------------------------------------------------------------------------------


  
 reached required accuracy - stopping structural energy minimisation
 writing wavefunctions
     LOOP+:  cpu time      7.8268: real time      7.9079
    4ORBIT:  cpu time      0.0000: real time      0.0000



 total charge

# of ion       s       p       d       tot
------------------------------------------
    1        0.307   6.045   7.050  13.401
 

 total amount of memory used by VASP MPI-rank0    37453. kBytes
=======================================================================

   base      :      30000. kBytes
   nonl-proj :       6088. kBytes
   fftplans  :        147. kBytes
   grid      :        485. kBytes
   one-center:         15. kBytes
   wavefun   :        718. kBytes
 
  
  
 General timing and accounting informations for this job:
 ========================================================
  
                  Total CPU time used (sec):        8.990
                            User time (sec):        8.500
                          System time (sec):        0.490
                         Elapsed time (sec):       10.404
  
                   Maximum memory used (kb):      223920.
                   Average memory used (kb):          N/A
  
                          Minor page faults:        26546
                          Major page faults:           56
                 Voluntary context switches:         2132
