 vasp.6.3.2 27Jun22 (build Aug 12 2022 00:53:59) complex                        
  
 executed on               tv2STD date 2024.11.30  17:15:06
 running   24 mpi-ranks, with    1 threads/rank
 distrk:  each k-point on   24 cores,    1 groups
 distr:  one band on NCORE=   1 cores,   24 groups


--------------------------------------------------------------------------------------------------------


 INCAR:
   SYSTEM = Pt-fcc
   NWRITE = 2    write-flag
   ISTART = 0    job   : 0-new, 1-cont, 2-samecut
   ICHARG = 2    charge: 0-wave, 1-file, 2-atom, >10-const
   INIWAV = 1    electr: 0-lowe 1-rand  2-diag
   ENCUT = 425.0     energy cutoff in eV
   PREC = accurate      normal | accurate
   ADDGRID = .FALSE.  (use fine grid)
   NELM = 100     number of ELM steps
   EDIFF = 1E-06    energy stopping-criterion for ELM
   LREAL = .FALSE.      real-space projection (.FALSE., .TRUE., On, Auto)
   ALGO = Normal     Normal, Fast, Very_Fast
   LWAVE = .TRUE.
   LCHARG = .TRUE.
   NSW = 100       max number of geometry steps
   IBRION = 2     ionic relax: 0-MD, 1-quasi-Newton, 2-CG, 3-Damped MD
   EDIFFG = -0.02  force (eV/A) stopping-criterion for geometry steps
   ISIF = 2     (1:force\=y stress\=trace only ions\=y shape\=n volume\=n)
   ISYM = 1     (1-use symmetry, 0-no symmetry)
   ISMEAR = 0     (-1-Fermi, 1-Methfessel/Paxton)
   SIGMA = 0.05   broadening in eV
   LORBIT = 11

 POTCAR:    PAW_PBE Pt_pv 12Dec2005               
 POTCAR:    PAW_PBE Pt_pv 12Dec2005               
   SHA256 =  e5abf7e8cd8db70d0153315afc5ad66b6e3eeee29cc2d5b91b16730957c1d208 Pt_pv/POTCAR          
   COPYR  = (c) Copyright 12Dec2005 Georg Kresse                                                    
   COPYR  = This file is part of the software VASP. Any use, copying, and all other rights are regul
   COPYR  = If you do not have a valid VASP license, you may not use, copy or distribute this file. 
   VRHFIN =Pt: 5ps1d9                                                                               
   LEXCH  = PE                                                                                      
   EATOM  =  2428.2504 eV,  178.4714 Ry                                                             
                                                                                                    
   TITEL  = PAW_PBE Pt_pv 12Dec2005                                                                 
   LULTRA =        F    use ultrasoft PP ?                                                          
   IUNSCR =        1    unscreen: 0-lin 1-nonlin 2-no                                               
   RPACOR =    2.000    partial core radius                                                         
   POMASS =  195.080; ZVAL   =   16.000    mass and valenz                                          
   RCORE  =    2.200    outmost cutoff radius                                                       
   RWIGS  =    2.200; RWIGS  =    1.164    wigner-seitz radius (au A)                               
   ENMAX  =  294.607; ENMIN  =  220.955 eV                                                          
   ICORE  =        3    local potential                                                             
   LCOR   =        T    correct aug charges                                                         
   LPAW   =        T    paw PP                                                                      
   EAUG   =  527.014                                                                                
   DEXC   =    0.000                                                                                
   RMAX   =    2.247    core radius for proj-oper                                                   
   RAUG   =    1.300    factor for augmentation sphere                                              
   RDEP   =    2.279    radius for radial grids                                                     
   RDEPT  =    1.878    core radius for aug-charge                                                  
                                                                                                    
   Atomic configuration                                                                             
   16 entries                                                                                       
     n  l   j            E        occ.                                                              
     1  0  0.50    -78401.1885   2.0000                                                             
     2  0  0.50    -13770.7750   2.0000                                                             
     2  1  1.50    -11931.0468   6.0000                                                             
     3  0  0.50     -3234.7234   2.0000                                                             
     3  1  1.50     -2699.2216   6.0000                                                             
     3  2  2.50     -2119.5714  10.0000                                                             
     4  0  0.50      -695.1528   2.0000                                                             
     4  1  1.50      -519.6034   6.0000                                                             
     4  2  2.50      -306.6786  10.0000                                                             
     4  3  3.50       -70.1041  14.0000                                                             
     5  0  0.50      -101.7747   2.0000                                                             
     5  1  1.50       -55.9873   6.0000                                                             
     6  1  1.50        -6.8029   0.0000                                                             
     5  2  2.50        -6.1423   9.0000                                                             
     6  0  0.50        -5.6573   1.0000                                                             
     5  3  2.50        -1.3606   0.0000                                                             
   Description                                                                                      
     l       E           TYP  RCUT    TYP  RCUT                                                     
     1    -55.9873477     23  2.000                                                                 
     1     27.2116520     23  2.000                                                                 
     2     -6.1423404     23  2.200                                                                 
     2     -4.6754623     23  2.200                                                                 
     0     -5.6573207     23  2.200                                                                 
     0     47.6203910     23  2.200                                                                 
     3      6.8029130     23  2.200                                                                 
  local pseudopotential read in
  partial core-charges read in
  partial kinetic energy density read in
  atomic valenz-charges read in
  non local Contribution for L=           1  read in
    real space projection operators read in
  non local Contribution for L=           1  read in
    real space projection operators read in
  non local Contribution for L=           2  read in
    real space projection operators read in
  non local Contribution for L=           2  read in
    real space projection operators read in
  non local Contribution for L=           0  read in
    real space projection operators read in
  non local Contribution for L=           0  read in
    real space projection operators read in
    PAW grid and wavefunctions read in
 
   number of l-projection  operators is LMAX  =           6
   number of lm-projection operators is LMMAX =          18
 
  PAW_PBE Pt_pv 12Dec2005               :
 energy of atom  1       EATOM=-2428.2504
 kinetic energy error for atom=    0.0554 (will be added to EATOM!!)
 
 
 POSCAR: Pt
  positions in cartesian coordinates
  No initial velocities read in
 exchange correlation table for  LEXCH =        8
   RHO(1)=    0.500       N(1)  =     2000
   RHO(2)=  100.500       N(2)  =     4000
 


--------------------------------------------------------------------------------------------------------


 ion  position               nearest neighbor table
   1  0.000  0.000  0.000-
 
  LATTYP: Found a face centered cubic cell.
 ALAT       =     4.0225890753
  
  Lattice vectors:
  
 A1 = (   0.0000000000,   2.0112945376,   2.0112945376)
 A2 = (   2.0112945376,   0.0000000000,   2.0112945376)
 A3 = (   2.0112945376,   2.0112945376,   0.0000000000)


Analysis of symmetry for initial positions (statically):
=====================================================================
 Subroutine PRICEL returns:
 Original cell was already a primitive cell.
 

 Routine SETGRP: Setting up the symmetry group for a 
 face centered cubic supercell.


 Subroutine GETGRP returns: Found 48 space group operations
 (whereof 48 operations were pure point group operations)
 out of a pool of 48 trial point group operations.


The static configuration has the point symmetry O_h .


Analysis of symmetry for dynamics (positions and initial velocities):
=====================================================================
 Subroutine PRICEL returns:
 Original cell was already a primitive cell.
 

 Routine SETGRP: Setting up the symmetry group for a 
 face centered cubic supercell.


 Subroutine GETGRP returns: Found 48 space group operations
 (whereof 48 operations were pure point group operations)
 out of a pool of 48 trial point group operations.


The dynamic configuration has the point symmetry O_h .


 Subroutine INISYM returns: Found 48 space group operations
 (whereof 48 operations are pure point group operations),
 and found     1 'primitive' translations


----------------------------------------------------------------------------------------

                                     Primitive cell                                     

  volume of cell :      16.2726

  direct lattice vectors                    reciprocal lattice vectors
     0.000000000  2.011294538  2.011294538    -0.248596111  0.248596111  0.248596111
     2.011294538  0.000000000  2.011294538     0.248596111 -0.248596111  0.248596111
     2.011294538  2.011294538  0.000000000     0.248596111  0.248596111 -0.248596111

  length of vectors
     2.844400013  2.844400013  2.844400013     0.430581095  0.430581095  0.430581095

  position of ions in fractional coordinates (direct lattice)
     0.000000000  0.000000000  0.000000000

  ion indices of the primitive-cell ions
   primitive index   ion index
                 1           1

----------------------------------------------------------------------------------------

 
 
 KPOINTS: Automatic mesh                          

Automatic generation of k-mesh.
 Grid dimensions read from file:
 generate k-points for:   10   10   10

 Generating k-lattice:

  Cartesian coordinates                     Fractional coordinates (reciprocal lattice)
    -0.024859611  0.024859611  0.024859611     0.100000000  0.000000000  0.000000000
     0.024859611 -0.024859611  0.024859611     0.000000000  0.100000000 -0.000000000
     0.024859611  0.024859611 -0.024859611     0.000000000 -0.000000000  0.100000000

  Length of vectors
     0.043058109  0.043058109  0.043058109

  Shift w.r.t. Gamma in fractional coordinates (k-lattice)
     0.500000000  0.500000000  0.500000000

 
 Subroutine IBZKPT returns following result:
 ===========================================
 
 Found    110 irreducible k-points:
 
 Following reciprocal coordinates:
            Coordinates               Weight
  0.050000  0.050000  0.050000      8.000000
  0.150000  0.050000  0.050000     24.000000
  0.250000  0.050000  0.050000     24.000000
  0.350000  0.050000  0.050000     24.000000
  0.450000  0.050000  0.050000     24.000000
 -0.450000  0.050000  0.050000     24.000000
 -0.350000  0.050000  0.050000     24.000000
 -0.250000  0.050000  0.050000     24.000000
 -0.150000  0.050000  0.050000     24.000000
 -0.050000  0.050000  0.050000     24.000000
  0.150000  0.150000  0.050000     24.000000
  0.250000  0.150000  0.050000     48.000000
  0.350000  0.150000  0.050000     48.000000
  0.450000  0.150000  0.050000     48.000000
 -0.450000  0.150000  0.050000     48.000000
 -0.350000  0.150000  0.050000     48.000000
 -0.250000  0.150000  0.050000     48.000000
 -0.150000  0.150000  0.050000     48.000000
 -0.050000  0.150000  0.050000     48.000000
  0.250000  0.250000  0.050000     24.000000
  0.350000  0.250000  0.050000     48.000000
  0.450000  0.250000  0.050000     48.000000
 -0.450000  0.250000  0.050000     48.000000
 -0.350000  0.250000  0.050000     48.000000
 -0.250000  0.250000  0.050000     48.000000
 -0.150000  0.250000  0.050000     48.000000
 -0.050000  0.250000  0.050000     48.000000
  0.350000  0.350000  0.050000     24.000000
  0.450000  0.350000  0.050000     48.000000
 -0.450000  0.350000  0.050000     48.000000
 -0.350000  0.350000  0.050000     48.000000
 -0.250000  0.350000  0.050000     48.000000
 -0.150000  0.350000  0.050000     48.000000
 -0.050000  0.350000  0.050000     48.000000
  0.450000  0.450000  0.050000     24.000000
 -0.450000  0.450000  0.050000     48.000000
 -0.350000  0.450000  0.050000     48.000000
 -0.250000  0.450000  0.050000     48.000000
 -0.150000  0.450000  0.050000     48.000000
 -0.050000  0.450000  0.050000     48.000000
 -0.450000 -0.450000  0.050000     24.000000
 -0.350000 -0.450000  0.050000     48.000000
 -0.250000 -0.450000  0.050000     48.000000
 -0.150000 -0.450000  0.050000     48.000000
 -0.350000 -0.350000  0.050000     24.000000
 -0.250000 -0.350000  0.050000     48.000000
 -0.150000 -0.350000  0.050000     48.000000
 -0.250000 -0.250000  0.050000     24.000000
 -0.150000 -0.250000  0.050000     48.000000
 -0.150000 -0.150000  0.050000     24.000000
  0.150000  0.150000  0.150000      8.000000
  0.250000  0.150000  0.150000     24.000000
  0.350000  0.150000  0.150000     24.000000
  0.450000  0.150000  0.150000     24.000000
 -0.450000  0.150000  0.150000     24.000000
 -0.350000  0.150000  0.150000     24.000000
 -0.250000  0.150000  0.150000     24.000000
 -0.150000  0.150000  0.150000     24.000000
  0.250000  0.250000  0.150000     24.000000
  0.350000  0.250000  0.150000     48.000000
  0.450000  0.250000  0.150000     48.000000
 -0.450000  0.250000  0.150000     48.000000
 -0.350000  0.250000  0.150000     48.000000
 -0.250000  0.250000  0.150000     48.000000
 -0.150000  0.250000  0.150000     48.000000
  0.350000  0.350000  0.150000     24.000000
  0.450000  0.350000  0.150000     48.000000
 -0.450000  0.350000  0.150000     48.000000
 -0.350000  0.350000  0.150000     48.000000
 -0.250000  0.350000  0.150000     48.000000
 -0.150000  0.350000  0.150000     48.000000
  0.450000  0.450000  0.150000     24.000000
 -0.450000  0.450000  0.150000     48.000000
 -0.350000  0.450000  0.150000     48.000000
 -0.250000  0.450000  0.150000     48.000000
 -0.150000  0.450000  0.150000     48.000000
 -0.450000 -0.450000  0.150000     24.000000
 -0.350000 -0.450000  0.150000     48.000000
 -0.250000 -0.450000  0.150000     48.000000
 -0.350000 -0.350000  0.150000     24.000000
 -0.250000 -0.350000  0.150000     48.000000
 -0.250000 -0.250000  0.150000     24.000000
  0.250000  0.250000  0.250000      8.000000
  0.350000  0.250000  0.250000     24.000000
  0.450000  0.250000  0.250000     24.000000
 -0.450000  0.250000  0.250000     24.000000
 -0.350000  0.250000  0.250000     24.000000
 -0.250000  0.250000  0.250000     24.000000
  0.350000  0.350000  0.250000     24.000000
  0.450000  0.350000  0.250000     48.000000
 -0.450000  0.350000  0.250000     48.000000
 -0.350000  0.350000  0.250000     48.000000
 -0.250000  0.350000  0.250000     48.000000
  0.450000  0.450000  0.250000     24.000000
 -0.450000  0.450000  0.250000     48.000000
 -0.350000  0.450000  0.250000     48.000000
 -0.250000  0.450000  0.250000     48.000000
 -0.450000 -0.450000  0.250000     24.000000
 -0.350000 -0.450000  0.250000     48.000000
 -0.350000 -0.350000  0.250000     24.000000
  0.350000  0.350000  0.350000      8.000000
  0.450000  0.350000  0.350000     24.000000
 -0.450000  0.350000  0.350000     24.000000
 -0.350000  0.350000  0.350000     24.000000
  0.450000  0.450000  0.350000     24.000000
 -0.450000  0.450000  0.350000     48.000000
 -0.350000  0.450000  0.350000     48.000000
 -0.450000 -0.450000  0.350000     24.000000
  0.450000  0.450000  0.450000      8.000000
 -0.450000  0.450000  0.450000     24.000000
 
 Following cartesian coordinates:
            Coordinates               Weight
  0.012430  0.012430  0.012430      8.000000
 -0.012430  0.037289  0.037289     24.000000
 -0.037289  0.062149  0.062149     24.000000
 -0.062149  0.087009  0.087009     24.000000
 -0.087009  0.111868  0.111868     24.000000
  0.136728 -0.111868 -0.111868     24.000000
  0.111868 -0.087009 -0.087009     24.000000
  0.087009 -0.062149 -0.062149     24.000000
  0.062149 -0.037289 -0.037289     24.000000
  0.037289 -0.012430 -0.012430     24.000000
  0.012430  0.012430  0.062149     24.000000
 -0.012430  0.037289  0.087009     48.000000
 -0.037289  0.062149  0.111868     48.000000
 -0.062149  0.087009  0.136728     48.000000
  0.161587 -0.136728 -0.087009     48.000000
  0.136728 -0.111868 -0.062149     48.000000
  0.111868 -0.087009 -0.037289     48.000000
  0.087009 -0.062149 -0.012430     48.000000
  0.062149 -0.037289  0.012430     48.000000
  0.012430  0.012430  0.111868     24.000000
 -0.012430  0.037289  0.136728     48.000000
 -0.037289  0.062149  0.161587     48.000000
  0.186447 -0.161587 -0.062149     48.000000
  0.161587 -0.136728 -0.037289     48.000000
  0.136728 -0.111868 -0.012430     48.000000
  0.111868 -0.087009  0.012430     48.000000
  0.087009 -0.062149  0.037289     48.000000
  0.012430  0.012430  0.161587     24.000000
 -0.012430  0.037289  0.186447     48.000000
  0.211307 -0.186447 -0.037289     48.000000
  0.186447 -0.161587 -0.012430     48.000000
  0.161587 -0.136728  0.012430     48.000000
  0.136728 -0.111868  0.037289     48.000000
  0.111868 -0.087009  0.062149     48.000000
  0.012430  0.012430  0.211307     24.000000
  0.236166 -0.211307 -0.012430     48.000000
  0.211307 -0.186447  0.012430     48.000000
  0.186447 -0.161587  0.037289     48.000000
  0.161587 -0.136728  0.062149     48.000000
  0.136728 -0.111868  0.087009     48.000000
  0.012430  0.012430 -0.236166     24.000000
 -0.012430  0.037289 -0.211307     48.000000
 -0.037289  0.062149 -0.186447     48.000000
 -0.062149  0.087009 -0.161587     48.000000
  0.012430  0.012430 -0.186447     24.000000
 -0.012430  0.037289 -0.161587     48.000000
 -0.037289  0.062149 -0.136728     48.000000
  0.012430  0.012430 -0.136728     24.000000
 -0.012430  0.037289 -0.111868     48.000000
  0.012430  0.012430 -0.087009     24.000000
  0.037289  0.037289  0.037289      8.000000
  0.012430  0.062149  0.062149     24.000000
 -0.012430  0.087009  0.087009     24.000000
 -0.037289  0.111868  0.111868     24.000000
  0.186447 -0.111868 -0.111868     24.000000
  0.161587 -0.087009 -0.087009     24.000000
  0.136728 -0.062149 -0.062149     24.000000
  0.111868 -0.037289 -0.037289     24.000000
  0.037289  0.037289  0.087009     24.000000
  0.012430  0.062149  0.111868     48.000000
 -0.012430  0.087009  0.136728     48.000000
  0.211307 -0.136728 -0.087009     48.000000
  0.186447 -0.111868 -0.062149     48.000000
  0.161587 -0.087009 -0.037289     48.000000
  0.136728 -0.062149 -0.012430     48.000000
  0.037289  0.037289  0.136728     24.000000
  0.012430  0.062149  0.161587     48.000000
  0.236166 -0.161587 -0.062149     48.000000
  0.211307 -0.136728 -0.037289     48.000000
  0.186447 -0.111868 -0.012430     48.000000
  0.161587 -0.087009  0.012430     48.000000
  0.037289  0.037289  0.186447     24.000000
  0.261026 -0.186447 -0.037289     48.000000
  0.236166 -0.161587 -0.012430     48.000000
  0.211307 -0.136728  0.012430     48.000000
  0.186447 -0.111868  0.037289     48.000000
  0.037289  0.037289 -0.261026     24.000000
  0.012430  0.062149 -0.236166     48.000000
 -0.012430  0.087009 -0.211307     48.000000
  0.037289  0.037289 -0.211307     24.000000
  0.012430  0.062149 -0.186447     48.000000
  0.037289  0.037289 -0.161587     24.000000
  0.062149  0.062149  0.062149      8.000000
  0.037289  0.087009  0.087009     24.000000
  0.012430  0.111868  0.111868     24.000000
  0.236166 -0.111868 -0.111868     24.000000
  0.211307 -0.087009 -0.087009     24.000000
  0.186447 -0.062149 -0.062149     24.000000
  0.062149  0.062149  0.111868     24.000000
  0.037289  0.087009  0.136728     48.000000
  0.261026 -0.136728 -0.087009     48.000000
  0.236166 -0.111868 -0.062149     48.000000
  0.211307 -0.087009 -0.037289     48.000000
  0.062149  0.062149  0.161587     24.000000
  0.285886 -0.161587 -0.062149     48.000000
  0.261026 -0.136728 -0.037289     48.000000
  0.236166 -0.111868 -0.012430     48.000000
  0.062149  0.062149 -0.285886     24.000000
  0.037289  0.087009 -0.261026     48.000000
  0.062149  0.062149 -0.236166     24.000000
  0.087009  0.087009  0.087009      8.000000
  0.062149  0.111868  0.111868     24.000000
  0.285886 -0.111868 -0.111868     24.000000
  0.261026 -0.087009 -0.087009     24.000000
  0.087009  0.087009  0.136728     24.000000
  0.310745 -0.136728 -0.087009     48.000000
  0.285886 -0.111868 -0.062149     48.000000
  0.087009  0.087009 -0.310745     24.000000
  0.111868  0.111868  0.111868      8.000000
  0.335605 -0.111868 -0.111868     24.000000
 


--------------------------------------------------------------------------------------------------------




 Dimension of arrays:
   k-points           NKPTS =    110   k-points in BZ     NKDIM =    110   number of bands    NBANDS=     24
   number of dos      NEDOS =    301   number of ions     NIONS =      1
   non local maximal  LDIM  =      6   non local SUM 2l+1 LMDIM =     18
   total plane-waves  NPLWV =   8000
   max r-space proj   IRMAX =      1   max aug-charges    IRDMAX=  16936
   dimension x,y,z NGX =    20 NGY =   20 NGZ =   20
   dimension x,y,z NGXF=    40 NGYF=   40 NGZF=   40
   support grid    NGXF=    40 NGYF=   40 NGZF=   40
   ions per type =               1
   NGX,Y,Z   is equivalent  to a cutoff of  11.69, 11.69, 11.69 a.u.
   NGXF,Y,Z  is equivalent  to a cutoff of  23.38, 23.38, 23.38 a.u.

 SYSTEM =  Pt-fcc                                  
 POSCAR =  Pt                                      

 Startparameter for this run:
   NWRITE =      2    write-flag & timer
   PREC   = accura    normal or accurate (medium, high low for compatibility)
   ISTART =      0    job   : 0-new  1-cont  2-samecut
   ICHARG =      2    charge: 1-file 2-atom 10-const
   ISPIN  =      1    spin polarized calculation?
   LNONCOLLINEAR =      F non collinear calculations
   LSORBIT =      F    spin-orbit coupling
   INIWAV =      1    electr: 0-lowe 1-rand  2-diag
   LASPH  =      F    aspherical Exc in radial PAW
 Electronic Relaxation 1
   ENCUT  =  425.0 eV  31.24 Ry    5.59 a.u.   4.78  4.78  4.78*2*pi/ulx,y,z
   ENINI  =  425.0     initial cutoff
   ENAUG  =  527.0 eV  augmentation charge cutoff
   NELM   =    100;   NELMIN=  2; NELMDL= -5     # of ELM steps 
   EDIFF  = 0.1E-05   stopping-criterion for ELM
   LREAL  =      F    real-space projection
   NLSPLINE    = F    spline interpolate recip. space projectors
   LCOMPAT=      F    compatible to vasp.4.4
   GGA_COMPAT  = T    GGA compatible to vasp.4.4-vasp.4.6
   LMAXPAW     = -100 max onsite density
   LMAXMIX     =    2 max onsite mixed and CHGCAR
   VOSKOWN=      0    Vosko Wilk Nusair interpolation
   ROPT   =    0.00000
 Ionic relaxation
   EDIFFG = -.2E-01   stopping-criterion for IOM
   NSW    =    100    number of steps for IOM
   NBLOCK =      1;   KBLOCK =    100    inner block; outer block 
   IBRION =      2    ionic relax: 0-MD 1-quasi-New 2-CG
   NFREE  =      1    steps in history (QN), initial steepest desc. (CG)
   ISIF   =      2    stress and relaxation
   IWAVPR =     11    prediction:  0-non 1-charg 2-wave 3-comb
   ISYM   =      1    0-nonsym 1-usesym 2-fastsym
   LCORR  =      T    Harris-Foulkes like correction to forces

   POTIM  = 0.5000    time-step for ionic-motion
   TEIN   =    0.0    initial temperature
   TEBEG  =    0.0;   TEEND  =   0.0 temperature during run
   SMASS  =  -3.00    Nose mass-parameter (am)
   estimated Nose-frequenzy (Omega)   =  0.10E-29 period in steps = 0.13E+47 mass=  -0.185E-27a.u.
   SCALEE = 1.0000    scale energy and forces
   NPACO  =    256;   APACO  = 10.0  distance and # of slots for P.C.
   PSTRESS=    0.0 pullay stress

  Mass of Ions in am
   POMASS = 195.08
  Ionic Valenz
   ZVAL   =  16.00
  Atomic Wigner-Seitz radii
   RWIGS  =  -1.00
  virtual crystal weights 
   VCA    =   1.00
   NELECT =      16.0000    total number of electrons
   NUPDOWN=      -1.0000    fix difference up-down

 DOS related values:
   EMIN   =  10.00;   EMAX   =-10.00  energy-range for DOS
   EFERMI =   0.00
   ISMEAR =     0;   SIGMA  =   0.05  broadening in eV -4-tet -1-fermi 0-gaus

 Electronic relaxation 2 (details)
   IALGO  =     38    algorithm
   LDIAG  =      T    sub-space diagonalisation (order eigenvalues)
   LSUBROT=      F    optimize rotation matrix (better conditioning)
   TURBO    =      0    0=normal 1=particle mesh
   IRESTART =      0    0=no restart 2=restart with 2 vectors
   NREBOOT  =      0    no. of reboots
   NMIN     =      0    reboot dimension
   EREF     =   0.00    reference energy to select bands
   IMIX   =      4    mixing-type and parameters
     AMIX     =   0.40;   BMIX     =  1.00
     AMIX_MAG =   1.60;   BMIX_MAG =  1.00
     AMIN     =   0.10
     WC   =   100.;   INIMIX=   1;  MIXPRE=   1;  MAXMIX= -45

 Intra band minimization:
   WEIMIN = 0.0010     energy-eigenvalue tresh-hold
   EBREAK =  0.10E-07  absolut break condition
   DEPER  =   0.30     relativ break condition  

   TIME   =   0.40     timestep for ELM

  volume/ion in A,a.u.               =      16.27       109.81
  Fermi-wavevector in a.u.,A,eV,Ry     =   1.627905  3.076295 36.056471  2.650076
  Thomas-Fermi vector in A             =   2.720624
 
 Write flags
   LWAVE        =      T    write WAVECAR
   LDOWNSAMPLE  =      F    k-point downsampling of WAVECAR
   LCHARG       =      T    write CHGCAR
   LVTOT        =      F    write LOCPOT, total local potential
   LVHAR        =      F    write LOCPOT, Hartree potential only
   LELF         =      F    write electronic localiz. function (ELF)
   LORBIT       =     11    0 simple, 1 ext, 2 COOP (PROOUT), +10 PAW based schemes


 Dipole corrections
   LMONO  =      F    monopole corrections only (constant potential shift)
   LDIPOL =      F    correct potential (dipole corrections)
   IDIPOL =      0    1-x, 2-y, 3-z, 4-all directions 
   EPSILON=  1.0000000 bulk dielectric constant

 Exchange correlation treatment:
   GGA     =    --    GGA type
   LEXCH   =     8    internal setting for exchange type
   LIBXC   =     F    Libxc                    
   VOSKOWN =     0    Vosko Wilk Nusair interpolation
   LHFCALC =     F    Hartree Fock is set to
   LHFONE  =     F    Hartree Fock one center treatment
   AEXX    =    0.0000 exact exchange contribution

 Linear response parameters
   LEPSILON=     F    determine dielectric tensor
   LRPA    =     F    only Hartree local field effects (RPA)
   LNABLA  =     F    use nabla operator in PAW spheres
   LVEL    =     F    velocity operator in full k-point grid
   CSHIFT  =0.1000    complex shift for real part using Kramers Kronig
   OMEGAMAX=  -1.0    maximum frequency
   DEG_THRESHOLD= 0.2000000E-02 threshold for treating states as degnerate
   RTIME   =   -0.100 relaxation time in fs
  (WPLASMAI=    0.000 imaginary part of plasma frequency in eV, 0.658/RTIME)
   DFIELD  = 0.0000000 0.0000000 0.0000000 field for delta impulse in time
 
  Optional k-point grid parameters
   LKPOINTS_OPT  =     F    use optional k-point grid
   KPOINTS_OPT_MODE=     1    mode for optional k-point grid
 
 Orbital magnetization related:
   ORBITALMAG=     F  switch on orbital magnetization
   LCHIMAG   =     F  perturbation theory with respect to B field
   DQ        =  0.001000  dq finite difference perturbation B field
   LLRAUG    =     F  two centre corrections for induced B field



--------------------------------------------------------------------------------------------------------


 conjugate gradient relaxation of ions
 charge density and potential will be updated during run
 non-spin polarized calculation
 Variant of blocked Davidson
 Davidson routine will perform the subspace rotation
 perform sub-space diagonalisation
    after iterative eigenvector-optimisation
 modified Broyden-mixing scheme, WC =      100.0
 initial mixing is a Kerker type mixing with AMIX =  0.4000 and BMIX =      1.0000
 Hartree-type preconditioning will be used
 using additional bands           16
 reciprocal scheme for non local part
 use partial core corrections
 calculate Harris-corrections to forces 
   (improved forces if not selfconsistent)
 use gradient corrections 
 use of overlap-Matrix (Vanderbilt PP)
 Gauss-broadening in eV      SIGMA  =   0.05


--------------------------------------------------------------------------------------------------------


  energy-cutoff  :      425.00
  volume of cell :       16.27
      direct lattice vectors                 reciprocal lattice vectors
     0.000000000  2.011294538  2.011294538    -0.248596111  0.248596111  0.248596111
     2.011294538  0.000000000  2.011294538     0.248596111 -0.248596111  0.248596111
     2.011294538  2.011294538  0.000000000     0.248596111  0.248596111 -0.248596111

  length of vectors
     2.844400013  2.844400013  2.844400013     0.430581095  0.430581095  0.430581095


 
 k-points in units of 2pi/SCALE and weight: Automatic mesh                          
   0.01242981  0.01242981  0.01242981       0.002
  -0.01242981  0.03728942  0.03728942       0.006
  -0.03728942  0.06214903  0.06214903       0.006
  -0.06214903  0.08700864  0.08700864       0.006
  -0.08700864  0.11186825  0.11186825       0.006
   0.13672786 -0.11186825 -0.11186825       0.006
   0.11186825 -0.08700864 -0.08700864       0.006
   0.08700864 -0.06214903 -0.06214903       0.006
   0.06214903 -0.03728942 -0.03728942       0.006
   0.03728942 -0.01242981 -0.01242981       0.006
   0.01242981  0.01242981  0.06214903       0.006
  -0.01242981  0.03728942  0.08700864       0.012
  -0.03728942  0.06214903  0.11186825       0.012
  -0.06214903  0.08700864  0.13672786       0.012
   0.16158747 -0.13672786 -0.08700864       0.012
   0.13672786 -0.11186825 -0.06214903       0.012
   0.11186825 -0.08700864 -0.03728942       0.012
   0.08700864 -0.06214903 -0.01242981       0.012
   0.06214903 -0.03728942  0.01242981       0.012
   0.01242981  0.01242981  0.11186825       0.006
  -0.01242981  0.03728942  0.13672786       0.012
  -0.03728942  0.06214903  0.16158747       0.012
   0.18644708 -0.16158747 -0.06214903       0.012
   0.16158747 -0.13672786 -0.03728942       0.012
   0.13672786 -0.11186825 -0.01242981       0.012
   0.11186825 -0.08700864  0.01242981       0.012
   0.08700864 -0.06214903  0.03728942       0.012
   0.01242981  0.01242981  0.16158747       0.006
  -0.01242981  0.03728942  0.18644708       0.012
   0.21130669 -0.18644708 -0.03728942       0.012
   0.18644708 -0.16158747 -0.01242981       0.012
   0.16158747 -0.13672786  0.01242981       0.012
   0.13672786 -0.11186825  0.03728942       0.012
   0.11186825 -0.08700864  0.06214903       0.012
   0.01242981  0.01242981  0.21130669       0.006
   0.23616631 -0.21130669 -0.01242981       0.012
   0.21130669 -0.18644708  0.01242981       0.012
   0.18644708 -0.16158747  0.03728942       0.012
   0.16158747 -0.13672786  0.06214903       0.012
   0.13672786 -0.11186825  0.08700864       0.012
   0.01242981  0.01242981 -0.23616631       0.006
  -0.01242981  0.03728942 -0.21130669       0.012
  -0.03728942  0.06214903 -0.18644708       0.012
  -0.06214903  0.08700864 -0.16158747       0.012
   0.01242981  0.01242981 -0.18644708       0.006
  -0.01242981  0.03728942 -0.16158747       0.012
  -0.03728942  0.06214903 -0.13672786       0.012
   0.01242981  0.01242981 -0.13672786       0.006
  -0.01242981  0.03728942 -0.11186825       0.012
   0.01242981  0.01242981 -0.08700864       0.006
   0.03728942  0.03728942  0.03728942       0.002
   0.01242981  0.06214903  0.06214903       0.006
  -0.01242981  0.08700864  0.08700864       0.006
  -0.03728942  0.11186825  0.11186825       0.006
   0.18644708 -0.11186825 -0.11186825       0.006
   0.16158747 -0.08700864 -0.08700864       0.006
   0.13672786 -0.06214903 -0.06214903       0.006
   0.11186825 -0.03728942 -0.03728942       0.006
   0.03728942  0.03728942  0.08700864       0.006
   0.01242981  0.06214903  0.11186825       0.012
  -0.01242981  0.08700864  0.13672786       0.012
   0.21130669 -0.13672786 -0.08700864       0.012
   0.18644708 -0.11186825 -0.06214903       0.012
   0.16158747 -0.08700864 -0.03728942       0.012
   0.13672786 -0.06214903 -0.01242981       0.012
   0.03728942  0.03728942  0.13672786       0.006
   0.01242981  0.06214903  0.16158747       0.012
   0.23616631 -0.16158747 -0.06214903       0.012
   0.21130669 -0.13672786 -0.03728942       0.012
   0.18644708 -0.11186825 -0.01242981       0.012
   0.16158747 -0.08700864  0.01242981       0.012
   0.03728942  0.03728942  0.18644708       0.006
   0.26102592 -0.18644708 -0.03728942       0.012
   0.23616631 -0.16158747 -0.01242981       0.012
   0.21130669 -0.13672786  0.01242981       0.012
   0.18644708 -0.11186825  0.03728942       0.012
   0.03728942  0.03728942 -0.26102592       0.006
   0.01242981  0.06214903 -0.23616631       0.012
  -0.01242981  0.08700864 -0.21130669       0.012
   0.03728942  0.03728942 -0.21130669       0.006
   0.01242981  0.06214903 -0.18644708       0.012
   0.03728942  0.03728942 -0.16158747       0.006
   0.06214903  0.06214903  0.06214903       0.002
   0.03728942  0.08700864  0.08700864       0.006
   0.01242981  0.11186825  0.11186825       0.006
   0.23616631 -0.11186825 -0.11186825       0.006
   0.21130669 -0.08700864 -0.08700864       0.006
   0.18644708 -0.06214903 -0.06214903       0.006
   0.06214903  0.06214903  0.11186825       0.006
   0.03728942  0.08700864  0.13672786       0.012
   0.26102592 -0.13672786 -0.08700864       0.012
   0.23616631 -0.11186825 -0.06214903       0.012
   0.21130669 -0.08700864 -0.03728942       0.012
   0.06214903  0.06214903  0.16158747       0.006
   0.28588553 -0.16158747 -0.06214903       0.012
   0.26102592 -0.13672786 -0.03728942       0.012
   0.23616631 -0.11186825 -0.01242981       0.012
   0.06214903  0.06214903 -0.28588553       0.006
   0.03728942  0.08700864 -0.26102592       0.012
   0.06214903  0.06214903 -0.23616631       0.006
   0.08700864  0.08700864  0.08700864       0.002
   0.06214903  0.11186825  0.11186825       0.006
   0.28588553 -0.11186825 -0.11186825       0.006
   0.26102592 -0.08700864 -0.08700864       0.006
   0.08700864  0.08700864  0.13672786       0.006
   0.31074514 -0.13672786 -0.08700864       0.012
   0.28588553 -0.11186825 -0.06214903       0.012
   0.08700864  0.08700864 -0.31074514       0.006
   0.11186825  0.11186825  0.11186825       0.002
   0.33560475 -0.11186825 -0.11186825       0.006
 
 k-points in reciprocal lattice and weights: Automatic mesh                          
   0.05000000  0.05000000  0.05000000       0.002
   0.15000000  0.05000000  0.05000000       0.006
   0.25000000  0.05000000  0.05000000       0.006
   0.35000000  0.05000000  0.05000000       0.006
   0.45000000  0.05000000  0.05000000       0.006
  -0.45000000  0.05000000  0.05000000       0.006
  -0.35000000  0.05000000  0.05000000       0.006
  -0.25000000  0.05000000  0.05000000       0.006
  -0.15000000  0.05000000  0.05000000       0.006
  -0.05000000  0.05000000  0.05000000       0.006
   0.15000000  0.15000000  0.05000000       0.006
   0.25000000  0.15000000  0.05000000       0.012
   0.35000000  0.15000000  0.05000000       0.012
   0.45000000  0.15000000  0.05000000       0.012
  -0.45000000  0.15000000  0.05000000       0.012
  -0.35000000  0.15000000  0.05000000       0.012
  -0.25000000  0.15000000  0.05000000       0.012
  -0.15000000  0.15000000  0.05000000       0.012
  -0.05000000  0.15000000  0.05000000       0.012
   0.25000000  0.25000000  0.05000000       0.006
   0.35000000  0.25000000  0.05000000       0.012
   0.45000000  0.25000000  0.05000000       0.012
  -0.45000000  0.25000000  0.05000000       0.012
  -0.35000000  0.25000000  0.05000000       0.012
  -0.25000000  0.25000000  0.05000000       0.012
  -0.15000000  0.25000000  0.05000000       0.012
  -0.05000000  0.25000000  0.05000000       0.012
   0.35000000  0.35000000  0.05000000       0.006
   0.45000000  0.35000000  0.05000000       0.012
  -0.45000000  0.35000000  0.05000000       0.012
  -0.35000000  0.35000000  0.05000000       0.012
  -0.25000000  0.35000000  0.05000000       0.012
  -0.15000000  0.35000000  0.05000000       0.012
  -0.05000000  0.35000000  0.05000000       0.012
   0.45000000  0.45000000  0.05000000       0.006
  -0.45000000  0.45000000  0.05000000       0.012
  -0.35000000  0.45000000  0.05000000       0.012
  -0.25000000  0.45000000  0.05000000       0.012
  -0.15000000  0.45000000  0.05000000       0.012
  -0.05000000  0.45000000  0.05000000       0.012
  -0.45000000 -0.45000000  0.05000000       0.006
  -0.35000000 -0.45000000  0.05000000       0.012
  -0.25000000 -0.45000000  0.05000000       0.012
  -0.15000000 -0.45000000  0.05000000       0.012
  -0.35000000 -0.35000000  0.05000000       0.006
  -0.25000000 -0.35000000  0.05000000       0.012
  -0.15000000 -0.35000000  0.05000000       0.012
  -0.25000000 -0.25000000  0.05000000       0.006
  -0.15000000 -0.25000000  0.05000000       0.012
  -0.15000000 -0.15000000  0.05000000       0.006
   0.15000000  0.15000000  0.15000000       0.002
   0.25000000  0.15000000  0.15000000       0.006
   0.35000000  0.15000000  0.15000000       0.006
   0.45000000  0.15000000  0.15000000       0.006
  -0.45000000  0.15000000  0.15000000       0.006
  -0.35000000  0.15000000  0.15000000       0.006
  -0.25000000  0.15000000  0.15000000       0.006
  -0.15000000  0.15000000  0.15000000       0.006
   0.25000000  0.25000000  0.15000000       0.006
   0.35000000  0.25000000  0.15000000       0.012
   0.45000000  0.25000000  0.15000000       0.012
  -0.45000000  0.25000000  0.15000000       0.012
  -0.35000000  0.25000000  0.15000000       0.012
  -0.25000000  0.25000000  0.15000000       0.012
  -0.15000000  0.25000000  0.15000000       0.012
   0.35000000  0.35000000  0.15000000       0.006
   0.45000000  0.35000000  0.15000000       0.012
  -0.45000000  0.35000000  0.15000000       0.012
  -0.35000000  0.35000000  0.15000000       0.012
  -0.25000000  0.35000000  0.15000000       0.012
  -0.15000000  0.35000000  0.15000000       0.012
   0.45000000  0.45000000  0.15000000       0.006
  -0.45000000  0.45000000  0.15000000       0.012
  -0.35000000  0.45000000  0.15000000       0.012
  -0.25000000  0.45000000  0.15000000       0.012
  -0.15000000  0.45000000  0.15000000       0.012
  -0.45000000 -0.45000000  0.15000000       0.006
  -0.35000000 -0.45000000  0.15000000       0.012
  -0.25000000 -0.45000000  0.15000000       0.012
  -0.35000000 -0.35000000  0.15000000       0.006
  -0.25000000 -0.35000000  0.15000000       0.012
  -0.25000000 -0.25000000  0.15000000       0.006
   0.25000000  0.25000000  0.25000000       0.002
   0.35000000  0.25000000  0.25000000       0.006
   0.45000000  0.25000000  0.25000000       0.006
  -0.45000000  0.25000000  0.25000000       0.006
  -0.35000000  0.25000000  0.25000000       0.006
  -0.25000000  0.25000000  0.25000000       0.006
   0.35000000  0.35000000  0.25000000       0.006
   0.45000000  0.35000000  0.25000000       0.012
  -0.45000000  0.35000000  0.25000000       0.012
  -0.35000000  0.35000000  0.25000000       0.012
  -0.25000000  0.35000000  0.25000000       0.012
   0.45000000  0.45000000  0.25000000       0.006
  -0.45000000  0.45000000  0.25000000       0.012
  -0.35000000  0.45000000  0.25000000       0.012
  -0.25000000  0.45000000  0.25000000       0.012
  -0.45000000 -0.45000000  0.25000000       0.006
  -0.35000000 -0.45000000  0.25000000       0.012
  -0.35000000 -0.35000000  0.25000000       0.006
   0.35000000  0.35000000  0.35000000       0.002
   0.45000000  0.35000000  0.35000000       0.006
  -0.45000000  0.35000000  0.35000000       0.006
  -0.35000000  0.35000000  0.35000000       0.006
   0.45000000  0.45000000  0.35000000       0.006
  -0.45000000  0.45000000  0.35000000       0.012
  -0.35000000  0.45000000  0.35000000       0.012
  -0.45000000 -0.45000000  0.35000000       0.006
   0.45000000  0.45000000  0.45000000       0.002
  -0.45000000  0.45000000  0.45000000       0.006
 
 position of ions in fractional coordinates (direct lattice) 
   0.00000000  0.00000000  0.00000000
 
 position of ions in cartesian coordinates  (Angst):
   0.00000000  0.00000000  0.00000000
 


--------------------------------------------------------------------------------------------------------


 k-point   1 :   0.0500 0.0500 0.0500  plane waves:     331
 k-point   2 :   0.1500 0.0500 0.0500  plane waves:     325
 k-point   3 :   0.2500 0.0500 0.0500  plane waves:     319
 k-point   4 :   0.3500 0.0500 0.0500  plane waves:     319
 k-point   5 :   0.4500 0.0500 0.0500  plane waves:     326
 k-point   6 :  -0.4500 0.0500 0.0500  plane waves:     331
 k-point   7 :  -0.3500 0.0500 0.0500  plane waves:     326
 k-point   8 :  -0.2500 0.0500 0.0500  plane waves:     321
 k-point   9 :  -0.1500 0.0500 0.0500  plane waves:     321
 k-point  10 :  -0.0500 0.0500 0.0500  plane waves:     328
 k-point  11 :   0.1500 0.1500 0.0500  plane waves:     325
 k-point  12 :   0.2500 0.1500 0.0500  plane waves:     320
 k-point  13 :   0.3500 0.1500 0.0500  plane waves:     324
 k-point  14 :   0.4500 0.1500 0.0500  plane waves:     326
 k-point  15 :  -0.4500 0.1500 0.0500  plane waves:     325
 k-point  16 :  -0.3500 0.1500 0.0500  plane waves:     325
 k-point  17 :  -0.2500 0.1500 0.0500  plane waves:     321
 k-point  18 :  -0.1500 0.1500 0.0500  plane waves:     321
 k-point  19 :  -0.0500 0.1500 0.0500  plane waves:     321
 k-point  20 :   0.2500 0.2500 0.0500  plane waves:     321
 k-point  21 :   0.3500 0.2500 0.0500  plane waves:     323
 k-point  22 :   0.4500 0.2500 0.0500  plane waves:     322
 k-point  23 :  -0.4500 0.2500 0.0500  plane waves:     319
 k-point  24 :  -0.3500 0.2500 0.0500  plane waves:     324
 k-point  25 :  -0.2500 0.2500 0.0500  plane waves:     324
 k-point  26 :  -0.1500 0.2500 0.0500  plane waves:     323
 k-point  27 :  -0.0500 0.2500 0.0500  plane waves:     322
 k-point  28 :   0.3500 0.3500 0.0500  plane waves:     323
 k-point  29 :   0.4500 0.3500 0.0500  plane waves:     325
 k-point  30 :  -0.4500 0.3500 0.0500  plane waves:     324
 k-point  31 :  -0.3500 0.3500 0.0500  plane waves:     326
 k-point  32 :  -0.2500 0.3500 0.0500  plane waves:     327
 k-point  33 :  -0.1500 0.3500 0.0500  plane waves:     323
 k-point  34 :  -0.0500 0.3500 0.0500  plane waves:     325
 k-point  35 :   0.4500 0.4500 0.0500  plane waves:     324
 k-point  36 :  -0.4500 0.4500 0.0500  plane waves:     324
 k-point  37 :  -0.3500 0.4500 0.0500  plane waves:     323
 k-point  38 :  -0.2500 0.4500 0.0500  plane waves:     323
 k-point  39 :  -0.1500 0.4500 0.0500  plane waves:     323
 k-point  40 :  -0.0500 0.4500 0.0500  plane waves:     327
 k-point  41 :  -0.4500-0.4500 0.0500  plane waves:     328
 k-point  42 :  -0.3500-0.4500 0.0500  plane waves:     326
 k-point  43 :  -0.2500-0.4500 0.0500  plane waves:     327
 k-point  44 :  -0.1500-0.4500 0.0500  plane waves:     324
 k-point  45 :  -0.3500-0.3500 0.0500  plane waves:     323
 k-point  46 :  -0.2500-0.3500 0.0500  plane waves:     323
 k-point  47 :  -0.1500-0.3500 0.0500  plane waves:     322
 k-point  48 :  -0.2500-0.2500 0.0500  plane waves:     319
 k-point  49 :  -0.1500-0.2500 0.0500  plane waves:     322
 k-point  50 :  -0.1500-0.1500 0.0500  plane waves:     320
 k-point  51 :   0.1500 0.1500 0.1500  plane waves:     320
 k-point  52 :   0.2500 0.1500 0.1500  plane waves:     319
 k-point  53 :   0.3500 0.1500 0.1500  plane waves:     321
 k-point  54 :   0.4500 0.1500 0.1500  plane waves:     319
 k-point  55 :  -0.4500 0.1500 0.1500  plane waves:     324
 k-point  56 :  -0.3500 0.1500 0.1500  plane waves:     323
 k-point  57 :  -0.2500 0.1500 0.1500  plane waves:     323
 k-point  58 :  -0.1500 0.1500 0.1500  plane waves:     326
 k-point  59 :   0.2500 0.2500 0.1500  plane waves:     320
 k-point  60 :   0.3500 0.2500 0.1500  plane waves:     323
 k-point  61 :   0.4500 0.2500 0.1500  plane waves:     322
 k-point  62 :  -0.4500 0.2500 0.1500  plane waves:     323
 k-point  63 :  -0.3500 0.2500 0.1500  plane waves:     321
 k-point  64 :  -0.2500 0.2500 0.1500  plane waves:     326
 k-point  65 :  -0.1500 0.2500 0.1500  plane waves:     323
 k-point  66 :   0.3500 0.3500 0.1500  plane waves:     322
 k-point  67 :   0.4500 0.3500 0.1500  plane waves:     325
 k-point  68 :  -0.4500 0.3500 0.1500  plane waves:     328
 k-point  69 :  -0.3500 0.3500 0.1500  plane waves:     322
 k-point  70 :  -0.2500 0.3500 0.1500  plane waves:     323
 k-point  71 :  -0.1500 0.3500 0.1500  plane waves:     323
 k-point  72 :   0.4500 0.4500 0.1500  plane waves:     327
 k-point  73 :  -0.4500 0.4500 0.1500  plane waves:     325
 k-point  74 :  -0.3500 0.4500 0.1500  plane waves:     326
 k-point  75 :  -0.2500 0.4500 0.1500  plane waves:     324
 k-point  76 :  -0.1500 0.4500 0.1500  plane waves:     324
 k-point  77 :  -0.4500-0.4500 0.1500  plane waves:     322
 k-point  78 :  -0.3500-0.4500 0.1500  plane waves:     324
 k-point  79 :  -0.2500-0.4500 0.1500  plane waves:     326
 k-point  80 :  -0.3500-0.3500 0.1500  plane waves:     324
 k-point  81 :  -0.2500-0.3500 0.1500  plane waves:     325
 k-point  82 :  -0.2500-0.2500 0.1500  plane waves:     323
 k-point  83 :   0.2500 0.2500 0.2500  plane waves:     323
 k-point  84 :   0.3500 0.2500 0.2500  plane waves:     322
 k-point  85 :   0.4500 0.2500 0.2500  plane waves:     323
 k-point  86 :  -0.4500 0.2500 0.2500  plane waves:     329
 k-point  87 :  -0.3500 0.2500 0.2500  plane waves:     323
 k-point  88 :  -0.2500 0.2500 0.2500  plane waves:     327
 k-point  89 :   0.3500 0.3500 0.2500  plane waves:     325
 k-point  90 :   0.4500 0.3500 0.2500  plane waves:     323
 k-point  91 :  -0.4500 0.3500 0.2500  plane waves:     325
 k-point  92 :  -0.3500 0.3500 0.2500  plane waves:     323
 k-point  93 :  -0.2500 0.3500 0.2500  plane waves:     325
 k-point  94 :   0.4500 0.4500 0.2500  plane waves:     321
 k-point  95 :  -0.4500 0.4500 0.2500  plane waves:     329
 k-point  96 :  -0.3500 0.4500 0.2500  plane waves:     325
 k-point  97 :  -0.2500 0.4500 0.2500  plane waves:     323
 k-point  98 :  -0.4500-0.4500 0.2500  plane waves:     324
 k-point  99 :  -0.3500-0.4500 0.2500  plane waves:     326
 k-point 100 :  -0.3500-0.3500 0.2500  plane waves:     327
 k-point 101 :   0.3500 0.3500 0.3500  plane waves:     323
 k-point 102 :   0.4500 0.3500 0.3500  plane waves:     324
 k-point 103 :  -0.4500 0.3500 0.3500  plane waves:     324
 k-point 104 :  -0.3500 0.3500 0.3500  plane waves:     323
 k-point 105 :   0.4500 0.4500 0.3500  plane waves:     325
 k-point 106 :  -0.4500 0.4500 0.3500  plane waves:     323
 k-point 107 :  -0.3500 0.4500 0.3500  plane waves:     321
 k-point 108 :  -0.4500-0.4500 0.3500  plane waves:     320
 k-point 109 :   0.4500 0.4500 0.4500  plane waves:     329
 k-point 110 :  -0.4500 0.4500 0.4500  plane waves:     324

 maximum and minimum number of plane-waves per node :       331      319

 maximum number of plane-waves:       331
 maximum index in each direction: 
   IXMAX=    5   IYMAX=    5   IZMAX=    4
   IXMIN=   -5   IYMIN=   -5   IZMIN=   -5


 serial   3D FFT for wavefunctions
 parallel 3D FFT for charge:
    minimum data exchange during FFTs selected (reduces bandwidth)


 total amount of memory used by VASP MPI-rank0    36607. kBytes
=======================================================================

   base      :      30000. kBytes
   nonl-proj :       5327. kBytes
   fftplans  :        147. kBytes
   grid      :        485. kBytes
   one-center:         15. kBytes
   wavefun   :        633. kBytes
 
     INWAV:  cpu time      0.0000: real time      0.0001
 Broyden mixing: mesh for mixing (old mesh)
   NGX =  9   NGY =  9   NGZ =  9
  (NGX  = 40   NGY  = 40   NGZ  = 40)
  gives a total of    729 points

 initial charge density was supplied:
 charge density of overlapping atoms calculated
 number of electron      16.0000000 magnetization 
 keeping initial charge density in first step


--------------------------------------------------------------------------------------------------------


 Maximum index for augmentation-charges          793 (set IRDMAX)


--------------------------------------------------------------------------------------------------------


 First call to EWALD:  gamma=   0.699
 Maximum number of real-space cells 3x 3x 3
 Maximum number of reciprocal cells 3x 3x 3

    FEWALD:  cpu time      0.0014: real time      0.0014


--------------------------------------- Iteration      1(   1)  ---------------------------------------


    POTLOK:  cpu time      0.0034: real time      0.0035
    SETDIJ:  cpu time      0.0021: real time      0.0021
     EDDAV:  cpu time      0.5142: real time      0.5174
       DOS:  cpu time      0.0009: real time      0.0009
    --------------------------------------------
      LOOP:  cpu time      0.5206: real time      0.5239

 eigenvalue-minimisations  :  6000
 total energy-change (2. order) : 0.1638653E+02  (-0.1153511E+04)
 number of electron      16.0000000 magnetization 
 augmentation part       16.0000000 magnetization 

 Free energy of the ion-electron system (eV)
  ---------------------------------------------------
  alpha Z        PSCENC =       147.44528711
  Ewald energy   TEWEN  =     -2100.80938218
  -Hartree energ DENC   =      -418.51751960
  -exchange      EXHF   =         0.00000000
  -V(xc)+E(xc)   XCENC  =        63.51377354
  PAW double counting   =      2065.75261637    -2030.83594803
  entropy T*S    EENTRO =        -0.00050827
  eigenvalues    EBANDS =      -138.35679514
  atomic energy  EATOM  =      2428.19501064
  Solvation  Ediel_sol  =         0.00000000
  ---------------------------------------------------
  free energy    TOTEN  =        16.38653445 eV

  energy without entropy =       16.38704272  energy(sigma->0) =       16.38678858


--------------------------------------------------------------------------------------------------------




--------------------------------------- Iteration      1(   2)  ---------------------------------------


     EDDAV:  cpu time      0.6748: real time      0.6789
       DOS:  cpu time      0.0005: real time      0.0005
    --------------------------------------------
      LOOP:  cpu time      0.6753: real time      0.6794

 eigenvalue-minimisations  :  7080
 total energy-change (2. order) :-0.2278121E+02  (-0.2254921E+02)
 number of electron      16.0000000 magnetization 
 augmentation part       16.0000000 magnetization 

 Free energy of the ion-electron system (eV)
  ---------------------------------------------------
  alpha Z        PSCENC =       147.44528711
  Ewald energy   TEWEN  =     -2100.80938218
  -Hartree energ DENC   =      -418.51751960
  -exchange      EXHF   =         0.00000000
  -V(xc)+E(xc)   XCENC  =        63.51377354
  PAW double counting   =      2065.75261637    -2030.83594803
  entropy T*S    EENTRO =        -0.00200649
  eigenvalues    EBANDS =      -161.13650969
  atomic energy  EATOM  =      2428.19501064
  Solvation  Ediel_sol  =         0.00000000
  ---------------------------------------------------
  free energy    TOTEN  =        -6.39467833 eV

  energy without entropy =       -6.39267184  energy(sigma->0) =       -6.39367509


--------------------------------------------------------------------------------------------------------




--------------------------------------- Iteration      1(   3)  ---------------------------------------


     EDDAV:  cpu time      0.6732: real time      0.6765
       DOS:  cpu time      0.0005: real time      0.0005
    --------------------------------------------
      LOOP:  cpu time      0.6737: real time      0.6770

 eigenvalue-minimisations  :  6792
 total energy-change (2. order) :-0.3259742E-01  (-0.3259646E-01)
 number of electron      16.0000000 magnetization 
 augmentation part       16.0000000 magnetization 

 Free energy of the ion-electron system (eV)
  ---------------------------------------------------
  alpha Z        PSCENC =       147.44528711
  Ewald energy   TEWEN  =     -2100.80938218
  -Hartree energ DENC   =      -418.51751960
  -exchange      EXHF   =         0.00000000
  -V(xc)+E(xc)   XCENC  =        63.51377354
  PAW double counting   =      2065.75261637    -2030.83594803
  entropy T*S    EENTRO =        -0.00198821
  eigenvalues    EBANDS =      -161.16912540
  atomic energy  EATOM  =      2428.19501064
  Solvation  Ediel_sol  =         0.00000000
  ---------------------------------------------------
  free energy    TOTEN  =        -6.42727575 eV

  energy without entropy =       -6.42528755  energy(sigma->0) =       -6.42628165


--------------------------------------------------------------------------------------------------------




--------------------------------------- Iteration      1(   4)  ---------------------------------------


     EDDAV:  cpu time      0.9650: real time      0.9718
       DOS:  cpu time      0.0005: real time      0.0005
    --------------------------------------------
      LOOP:  cpu time      0.9655: real time      0.9722

 eigenvalue-minimisations  :  8544
 total energy-change (2. order) :-0.3193774E-04  (-0.3193675E-04)
 number of electron      16.0000000 magnetization 
 augmentation part       16.0000000 magnetization 

 Free energy of the ion-electron system (eV)
  ---------------------------------------------------
  alpha Z        PSCENC =       147.44528711
  Ewald energy   TEWEN  =     -2100.80938218
  -Hartree energ DENC   =      -418.51751960
  -exchange      EXHF   =         0.00000000
  -V(xc)+E(xc)   XCENC  =        63.51377354
  PAW double counting   =      2065.75261637    -2030.83594803
  entropy T*S    EENTRO =        -0.00198819
  eigenvalues    EBANDS =      -161.16915735
  atomic energy  EATOM  =      2428.19501064
  Solvation  Ediel_sol  =         0.00000000
  ---------------------------------------------------
  free energy    TOTEN  =        -6.42730769 eV

  energy without entropy =       -6.42531950  energy(sigma->0) =       -6.42631360


--------------------------------------------------------------------------------------------------------




--------------------------------------- Iteration      1(   5)  ---------------------------------------


     EDDAV:  cpu time      0.6585: real time      0.6617
       DOS:  cpu time      0.0005: real time      0.0005
    CHARGE:  cpu time      0.0183: real time      0.0184
    MIXING:  cpu time      0.0004: real time      0.0004
    --------------------------------------------
      LOOP:  cpu time      0.6778: real time      0.6810

 eigenvalue-minimisations  :  6696
 total energy-change (2. order) :-0.4247340E-09  (-0.5160724E-09)
 number of electron      16.0000002 magnetization 
 augmentation part        3.9724032 magnetization 

 Broyden mixing:
  rms(total) = 0.12853E+01    rms(broyden)= 0.12851E+01
  rms(prec ) = 0.19084E+01
  weight for this iteration     100.00

 Free energy of the ion-electron system (eV)
  ---------------------------------------------------
  alpha Z        PSCENC =       147.44528711
  Ewald energy   TEWEN  =     -2100.80938218
  -Hartree energ DENC   =      -418.51751960
  -exchange      EXHF   =         0.00000000
  -V(xc)+E(xc)   XCENC  =        63.51377354
  PAW double counting   =      2065.75261637    -2030.83594803
  entropy T*S    EENTRO =        -0.00198819
  eigenvalues    EBANDS =      -161.16915735
  atomic energy  EATOM  =      2428.19501064
  Solvation  Ediel_sol  =         0.00000000
  ---------------------------------------------------
  free energy    TOTEN  =        -6.42730769 eV

  energy without entropy =       -6.42531950  energy(sigma->0) =       -6.42631360


--------------------------------------------------------------------------------------------------------




--------------------------------------- Iteration      1(   6)  ---------------------------------------


    POTLOK:  cpu time      0.0025: real time      0.0027
    SETDIJ:  cpu time      0.0020: real time      0.0020
     EDDAV:  cpu time      0.5014: real time      0.5038
       DOS:  cpu time      0.0005: real time      0.0005
    CHARGE:  cpu time      0.0177: real time      0.0178
    MIXING:  cpu time      0.0002: real time      0.0002
    --------------------------------------------
      LOOP:  cpu time      0.5243: real time      0.5270

 eigenvalue-minimisations  :  5856
 total energy-change (2. order) : 0.3459253E+00  (-0.1389006E+00)
 number of electron      16.0000003 magnetization 
 augmentation part        4.0934236 magnetization 

 Broyden mixing:
  rms(total) = 0.36327E+00    rms(broyden)= 0.36325E+00
  rms(prec ) = 0.47971E+00
  weight for this iteration     100.00

 eigenvalues of (default mixing * dielectric matrix)
  average eigenvalue GAMMA=   1.3613
  1.3613

 Free energy of the ion-electron system (eV)
  ---------------------------------------------------
  alpha Z        PSCENC =       147.44528711
  Ewald energy   TEWEN  =     -2100.80938218
  -Hartree energ DENC   =      -402.50192747
  -exchange      EXHF   =         0.00000000
  -V(xc)+E(xc)   XCENC  =        62.82840904
  PAW double counting   =      2199.53124979    -2166.61263433
  entropy T*S    EENTRO =        -0.00265968
  eigenvalues    EBANDS =      -174.15473536
  atomic energy  EATOM  =      2428.19501064
  Solvation  Ediel_sol  =         0.00000000
  ---------------------------------------------------
  free energy    TOTEN  =        -6.08138244 eV

  energy without entropy =       -6.07872276  energy(sigma->0) =       -6.08005260


--------------------------------------------------------------------------------------------------------




--------------------------------------- Iteration      1(   7)  ---------------------------------------


    POTLOK:  cpu time      0.0023: real time      0.0024
    SETDIJ:  cpu time      0.0018: real time      0.0018
     EDDAV:  cpu time      0.7966: real time      0.8002
       DOS:  cpu time      0.0005: real time      0.0005
    CHARGE:  cpu time      0.0175: real time      0.0176
    MIXING:  cpu time      0.0003: real time      0.0003
    --------------------------------------------
      LOOP:  cpu time      0.8190: real time      0.8229

 eigenvalue-minimisations  :  7848
 total energy-change (2. order) : 0.1478552E-01  (-0.5727286E-02)
 number of electron      16.0000003 magnetization 
 augmentation part        4.1160885 magnetization 

 Broyden mixing:
  rms(total) = 0.12546E+00    rms(broyden)= 0.12546E+00
  rms(prec ) = 0.16417E+00
  weight for this iteration     100.00

 eigenvalues of (default mixing * dielectric matrix)
  average eigenvalue GAMMA=   1.9250
  1.1568  2.6932

 Free energy of the ion-electron system (eV)
  ---------------------------------------------------
  alpha Z        PSCENC =       147.44528711
  Ewald energy   TEWEN  =     -2100.80938218
  -Hartree energ DENC   =      -399.09960426
  -exchange      EXHF   =         0.00000000
  -V(xc)+E(xc)   XCENC  =        62.67243345
  PAW double counting   =      2242.62063362    -2210.11851359
  entropy T*S    EENTRO =        -0.00273578
  eigenvalues    EBANDS =      -176.96972593
  atomic energy  EATOM  =      2428.19501064
  Solvation  Ediel_sol  =         0.00000000
  ---------------------------------------------------
  free energy    TOTEN  =        -6.06659692 eV

  energy without entropy =       -6.06386114  energy(sigma->0) =       -6.06522903


--------------------------------------------------------------------------------------------------------




--------------------------------------- Iteration      1(   8)  ---------------------------------------


    POTLOK:  cpu time      0.0023: real time      0.0024
    SETDIJ:  cpu time      0.0019: real time      0.0019
     EDDAV:  cpu time      0.5491: real time      0.5517
       DOS:  cpu time      0.0005: real time      0.0005
    CHARGE:  cpu time      0.0175: real time      0.0176
    MIXING:  cpu time      0.0002: real time      0.0002
    --------------------------------------------
      LOOP:  cpu time      0.5715: real time      0.5743

 eigenvalue-minimisations  :  6144
 total energy-change (2. order) : 0.1368443E-02  (-0.3811371E-03)
 number of electron      16.0000003 magnetization 
 augmentation part        4.1129735 magnetization 

 Broyden mixing:
  rms(total) = 0.91428E-02    rms(broyden)= 0.91260E-02
  rms(prec ) = 0.13091E-01
  weight for this iteration     100.00

 eigenvalues of (default mixing * dielectric matrix)
  average eigenvalue GAMMA=   1.5648
  1.0817  1.1820  2.4307

 Free energy of the ion-electron system (eV)
  ---------------------------------------------------
  alpha Z        PSCENC =       147.44528711
  Ewald energy   TEWEN  =     -2100.80938218
  -Hartree energ DENC   =      -398.89025026
  -exchange      EXHF   =         0.00000000
  -V(xc)+E(xc)   XCENC  =        62.64985451
  PAW double counting   =      2269.05591361    -2236.54326016
  entropy T*S    EENTRO =        -0.00276458
  eigenvalues    EBANDS =      -177.16563718
  atomic energy  EATOM  =      2428.19501064
  Solvation  Ediel_sol  =         0.00000000
  ---------------------------------------------------
  free energy    TOTEN  =        -6.06522848 eV

  energy without entropy =       -6.06246390  energy(sigma->0) =       -6.06384619


--------------------------------------------------------------------------------------------------------




--------------------------------------- Iteration      1(   9)  ---------------------------------------


    POTLOK:  cpu time      0.0022: real time      0.0024
    SETDIJ:  cpu time      0.0018: real time      0.0018
     EDDAV:  cpu time      0.7852: real time      0.7887
       DOS:  cpu time      0.0005: real time      0.0005
    CHARGE:  cpu time      0.0175: real time      0.0175
    MIXING:  cpu time      0.0002: real time      0.0002
    --------------------------------------------
      LOOP:  cpu time      0.8074: real time      0.8111

 eigenvalue-minimisations  :  7512
 total energy-change (2. order) : 0.4453627E-04  (-0.3374384E-05)
 number of electron      16.0000003 magnetization 
 augmentation part        4.1131950 magnetization 

 Broyden mixing:
  rms(total) = 0.16111E-02    rms(broyden)= 0.16089E-02
  rms(prec ) = 0.32258E-02
  weight for this iteration     100.00

 eigenvalues of (default mixing * dielectric matrix)
  average eigenvalue GAMMA=   1.8244
  1.0165  1.1633  2.7600  2.3579

 Free energy of the ion-electron system (eV)
  ---------------------------------------------------
  alpha Z        PSCENC =       147.44528711
  Ewald energy   TEWEN  =     -2100.80938218
  -Hartree energ DENC   =      -398.93234447
  -exchange      EXHF   =         0.00000000
  -V(xc)+E(xc)   XCENC  =        62.65255100
  PAW double counting   =      2268.22656461    -2235.69464807
  entropy T*S    EENTRO =        -0.00276073
  eigenvalues    EBANDS =      -177.14546185
  atomic energy  EATOM  =      2428.19501064
  Solvation  Ediel_sol  =         0.00000000
  ---------------------------------------------------
  free energy    TOTEN  =        -6.06518394 eV

  energy without entropy =       -6.06242321  energy(sigma->0) =       -6.06380358


--------------------------------------------------------------------------------------------------------




--------------------------------------- Iteration      1(  10)  ---------------------------------------


    POTLOK:  cpu time      0.0022: real time      0.0024
    SETDIJ:  cpu time      0.0018: real time      0.0018
     EDDAV:  cpu time      0.7022: real time      0.7056
       DOS:  cpu time      0.0005: real time      0.0005
    CHARGE:  cpu time      0.0181: real time      0.0182
    MIXING:  cpu time      0.0003: real time      0.0003
    --------------------------------------------
      LOOP:  cpu time      0.7250: real time      0.7287

 eigenvalue-minimisations  :  7152
 total energy-change (2. order) :-0.6593566E-05  (-0.6023055E-06)
 number of electron      16.0000003 magnetization 
 augmentation part        4.1132422 magnetization 

 Broyden mixing:
  rms(total) = 0.56496E-03    rms(broyden)= 0.56463E-03
  rms(prec ) = 0.57570E-03
  weight for this iteration     100.00

 eigenvalues of (default mixing * dielectric matrix)
  average eigenvalue GAMMA=   1.7564
  2.6787  2.3500  0.9923  1.1680  1.5930

 Free energy of the ion-electron system (eV)
  ---------------------------------------------------
  alpha Z        PSCENC =       147.44528711
  Ewald energy   TEWEN  =     -2100.80938218
  -Hartree energ DENC   =      -398.96015121
  -exchange      EXHF   =         0.00000000
  -V(xc)+E(xc)   XCENC  =        62.65359628
  PAW double counting   =      2269.81745079    -2237.25801752
  entropy T*S    EENTRO =        -0.00275944
  eigenvalues    EBANDS =      -177.14622501
  atomic energy  EATOM  =      2428.19501064
  Solvation  Ediel_sol  =         0.00000000
  ---------------------------------------------------
  free energy    TOTEN  =        -6.06519054 eV

  energy without entropy =       -6.06243110  energy(sigma->0) =       -6.06381082


--------------------------------------------------------------------------------------------------------




--------------------------------------- Iteration      1(  11)  ---------------------------------------


    POTLOK:  cpu time      0.0023: real time      0.0025
    SETDIJ:  cpu time      0.0019: real time      0.0019
     EDDAV:  cpu time      0.3349: real time      0.3365
       DOS:  cpu time      0.0005: real time      0.0005
    --------------------------------------------
      LOOP:  cpu time      0.3396: real time      0.3413

 eigenvalue-minimisations  :  3864
 total energy-change (2. order) : 0.7903191E-07  (-0.5563503E-09)
 number of electron      16.0000003 magnetization 
 augmentation part        4.1132422 magnetization 

 Free energy of the ion-electron system (eV)
  ---------------------------------------------------
  alpha Z        PSCENC =       147.44528711
  Ewald energy   TEWEN  =     -2100.80938218
  -Hartree energ DENC   =      -398.95942746
  -exchange      EXHF   =         0.00000000
  -V(xc)+E(xc)   XCENC  =        62.65356704
  PAW double counting   =      2269.63412276    -2237.07540674
  entropy T*S    EENTRO =        -0.00275943
  eigenvalues    EBANDS =      -177.14620220
  atomic energy  EATOM  =      2428.19501064
  Solvation  Ediel_sol  =         0.00000000
  ---------------------------------------------------
  free energy    TOTEN  =        -6.06519046 eV

  energy without entropy =       -6.06243103  energy(sigma->0) =       -6.06381074


--------------------------------------------------------------------------------------------------------




 average (electrostatic) potential at core
  the test charge radii are     0.9952
  (the norm of the test charge is              1.0000)
       1 -89.9388
 
 
 
 E-fermi :  10.6312     XC(G=0): -13.5153     alpha+bet :-16.1208

 Fermi energy:        10.6312413608

 k-point     1 :       0.0500    0.0500    0.0500
  band No.  band energies     occupation 
      1     -41.6987      2.00000
      2     -41.6912      2.00000
      3     -41.6912      2.00000
      4       1.2858      2.00000
      5       7.2210      2.00000
      6       7.2970      2.00000
      7       7.2970      2.00000
      8       9.1538      2.00000
      9       9.1538      2.00000
     10      25.5351      0.00000
     11      29.3914      0.00000
     12      30.0758      0.00000
     13      30.0758      0.00000
     14      35.6000      0.00000
     15      39.6518      0.00000
     16      40.3644      0.00000
     17      40.3644      0.00000
     18      43.2193      0.00000
     19      43.2193      0.00000
     20      44.1038      0.00000
     21      50.0836      0.00000
     22      50.0836      0.00000
     23      51.5489      0.00000
     24      56.2673      0.00000

 k-point     2 :       0.1500    0.0500    0.0500
  band No.  band energies     occupation 
      1     -41.7393      2.00000
      2     -41.7033      2.00000
      3     -41.6947      2.00000
      4       1.7728      2.00000
      5       7.0184      2.00000
      6       7.4602      2.00000
      7       7.4953      2.00000
      8       8.9591      2.00000
      9       9.2075      2.00000
     10      26.1807      0.00000
     11      27.6805      0.00000
     12      30.0903      0.00000
     13      31.1121      0.00000
     14      35.6928      0.00000
     15      38.0230      0.00000
     16      38.7582      0.00000
     17      39.4837      0.00000
     18      41.7229      0.00000
     19      44.6174      0.00000
     20      46.7506      0.00000
     21      49.0734      0.00000
     22      51.2509      0.00000
     23      51.5606      0.00000
     24      58.3183      0.00000

 k-point     3 :       0.2500    0.0500    0.0500
  band No.  band energies     occupation 
      1     -41.8316      2.00000
      2     -41.7196      2.00000
      3     -41.7066      2.00000
      4       2.8267      2.00000
      5       6.8216      2.00000
      6       7.6326      2.00000
      7       7.6673      2.00000
      8       8.9509      2.00000
      9       9.4479      2.00000
     10      24.6360      0.00000
     11      26.9892      0.00000
     12      30.9146      0.00000
     13      32.8043      0.00000
     14      32.9823      0.00000
     15      35.8325      0.00000
     16      36.1033      0.00000
     17      42.2249      0.00000
     18      42.5108      0.00000
     19      45.3320      0.00000
     20      47.4467      0.00000
     21      50.0377      0.00000
     22      51.5715      0.00000
     23      51.9847      0.00000
     24      58.5646      0.00000

 k-point     4 :       0.3500    0.0500    0.0500
  band No.  band energies     occupation 
      1     -41.9379      2.00000
      2     -41.7359      2.00000
      3     -41.7223      2.00000
      4       3.8062      2.00000
      5       7.3315      2.00000
      6       7.5038      2.00000
      7       7.5286      2.00000
      8       9.5394      2.00000
      9      10.1128      2.00000
     10      21.0352      0.00000
     11      26.2667      0.00000
     12      30.1595      0.00000
     13      32.3224      0.00000
     14      33.8215      0.00000
     15      35.4276      0.00000
     16      36.1498      0.00000
     17      42.7383      0.00000
     18      44.7497      0.00000
     19      46.9825      0.00000
     20      48.5645      0.00000
     21      50.9494      0.00000
     22      51.5791      0.00000
     23      52.7293      0.00000
     24      57.4684      0.00000

 k-point     5 :       0.4500    0.0500    0.0500
  band No.  band energies     occupation 
      1     -42.0167      2.00000
      2     -41.7466      2.00000
      3     -41.7371      2.00000
      4       4.0900      2.00000
      5       7.2377      2.00000
      6       7.3261      2.00000
      7       8.9886      2.00000
      8      10.2854      2.00000
      9      10.9235      0.00000
     10      17.4398      0.00000
     11      25.3323      0.00000
     12      28.8859      0.00000
     13      29.9043      0.00000
     14      36.4069      0.00000
     15      37.2457      0.00000
     16      37.9910      0.00000
     17      43.5304      0.00000
     18      44.7308      0.00000
     19      46.2252      0.00000
     20      50.6873      0.00000
     21      51.5716      0.00000
     22      53.4089      0.00000
     23      53.6581      0.00000
     24      54.6142      0.00000

 k-point     6 :      -0.4500    0.0500    0.0500
  band No.  band energies     occupation 
      1     -42.0390      2.00000
      2     -41.7471      2.00000
      3     -41.7439      2.00000
      4       4.1039      2.00000
      5       7.1573      2.00000
      6       7.2785      2.00000
      7       9.6522      2.00000
      8      10.6492      0.61164
      9      11.4039      0.00000
     10      15.9371      0.00000
     11      25.0782      0.00000
     12      28.8240      0.00000
     13      28.8903      0.00000
     14      37.4562      0.00000
     15      37.6403      0.00000
     16      39.0906      0.00000
     17      43.8521      0.00000
     18      44.8257      0.00000
     19      45.0289      0.00000
     20      51.5659      0.00000
     21      51.8019      0.00000
     22      52.4423      0.00000
     23      53.9316      0.00000
     24      54.9351      0.00000

 k-point     7 :      -0.3500    0.0500    0.0500
  band No.  band energies     occupation 
      1     -41.9959      2.00000
      2     -41.7400      2.00000
      3     -41.7372      2.00000
      4       4.0508      2.00000
      5       7.2748      2.00000
      6       7.4109      2.00000
      7       8.3708      2.00000
      8      10.3595      2.00000
      9      10.3922      2.00000
     10      18.5546      0.00000
     11      25.5872      0.00000
     12      29.4492      0.00000
     13      30.2574      0.00000
     14      36.2125      0.00000
     15      36.3591      0.00000
     16      37.1777      0.00000
     17      42.7199      0.00000
     18      45.6850      0.00000
     19      46.4167      0.00000
     20      50.5192      0.00000
     21      51.5709      0.00000
     22      51.9263      0.00000
     23      53.5199      0.00000
     24      55.2000      0.00000

 k-point     8 :      -0.2500    0.0500    0.0500
  band No.  band energies     occupation 
      1     -41.9038      2.00000
      2     -41.7273      2.00000
      3     -41.7210      2.00000
      4       3.5486      2.00000
      5       7.0234      2.00000
      6       7.5312      2.00000
      7       7.6187      2.00000
      8       9.4059      2.00000
      9       9.7672      2.00000
     10      22.2847      0.00000
     11      26.6514      0.00000
     12      30.8145      0.00000
     13      32.3404      0.00000
     14      33.8708      0.00000
     15      34.9623      0.00000
     16      35.5081      0.00000
     17      42.2261      0.00000
     18      45.5555      0.00000
     19      45.7586      0.00000
     20      48.2234      0.00000
     21      49.7625      0.00000
     22      51.5739      0.00000
     23      52.9596      0.00000
     24      58.2729      0.00000

 k-point     9 :      -0.1500    0.0500    0.0500
  band No.  band energies     occupation 
      1     -41.7970      2.00000
      2     -41.7112      2.00000
      3     -41.7051      2.00000
      4       2.4385      2.00000
      5       6.8352      2.00000
      6       7.6261      2.00000
      7       7.6445      2.00000
      8       8.8990      2.00000
      9       9.3084      2.00000
     10      25.7203      0.00000
     11      26.8907      0.00000
     12      30.7859      0.00000
     13      31.8174      0.00000
     14      34.0246      0.00000
     15      36.0787      0.00000
     16      37.2697      0.00000
     17      41.1347      0.00000
     18      42.0686      0.00000
     19      45.6161      0.00000
     20      47.1796      0.00000
     21      49.1172      0.00000
     22      51.5673      0.00000
     23      52.0204      0.00000
     24      58.5163      0.00000

 k-point    10 :      -0.0500    0.0500    0.0500
  band No.  band energies     occupation 
      1     -41.7170      2.00000
      2     -41.6976      2.00000
      3     -41.6954      2.00000
      4       1.5336      2.00000
      5       7.0830      2.00000
      6       7.4078      2.00000
      7       7.4147      2.00000
      8       8.9919      2.00000
      9       9.2227      2.00000
     10      25.8872      0.00000
     11      28.6269      0.00000
     12      30.0558      0.00000
     13      30.3228      0.00000
     14      36.6190      0.00000
     15      38.3809      0.00000
     16      38.5567      0.00000
     17      40.3728      0.00000
     18      41.4096      0.00000
     19      45.1320      0.00000
     20      45.5658      0.00000
     21      48.9779      0.00000
     22      51.0293      0.00000
     23      51.5562      0.00000
     24      57.4712      0.00000

 k-point    11 :       0.1500    0.1500    0.0500
  band No.  band energies     occupation 
      1     -41.7484      2.00000
      2     -41.7097      2.00000
      3     -41.7071      2.00000
      4       2.0141      2.00000
      5       6.8120      2.00000
      6       7.6415      2.00000
      7       7.6471      2.00000
      8       8.7066      2.00000
      9       9.3557      2.00000
     10      26.5445      0.00000
     11      27.8971      0.00000
     12      29.8399      0.00000
     13      30.2474      0.00000
     14      36.1203      0.00000
     15      37.0598      0.00000
     16      38.4126      0.00000
     17      39.4294      0.00000
     18      41.0849      0.00000
     19      46.6799      0.00000
     20      47.1702      0.00000
     21      47.6664      0.00000
     22      51.5543      0.00000
     23      51.7320      0.00000
     24      58.9313      0.00000

 k-point    12 :       0.2500    0.1500    0.0500
  band No.  band energies     occupation 
      1     -41.8128      2.00000
      2     -41.7329      2.00000
      3     -41.7164      2.00000
      4       2.8880      2.00000
      5       6.4970      2.00000
      6       7.7495      2.00000
      7       7.9754      2.00000
      8       8.6121      2.00000
      9       9.6116      2.00000
     10      25.9973      0.00000
     11      27.3260      0.00000
     12      29.3637      0.00000
     13      30.6201      0.00000
     14      34.0125      0.00000
     15      36.2903      0.00000
     16      37.1166      0.00000
     17      40.6166      0.00000
     18      42.6984      0.00000
     19      45.9939      0.00000
     20      46.8162      0.00000
     21      49.9527      0.00000
     22      51.5699      0.00000
     23      53.0618      0.00000
     24      58.7536      0.00000

 k-point    13 :       0.3500    0.1500    0.0500
  band No.  band energies     occupation 
      1     -41.9064      2.00000
      2     -41.7541      2.00000
      3     -41.7320      2.00000
      4       3.9869      2.00000
      5       6.5267      2.00000
      6       7.3751      2.00000
      7       7.9868      2.00000
      8       9.3724      2.00000
      9      10.2658      2.00000
     10      22.5158      0.00000
     11      26.9476      0.00000
     12      28.5539      0.00000
     13      30.7815      0.00000
     14      34.5268      0.00000
     15      35.5950      0.00000
     16      37.5094      0.00000
     17      40.0209      0.00000
     18      45.6855      0.00000
     19      46.7345      0.00000
     20      47.7350      0.00000
     21      50.3577      0.00000
     22      51.5694      0.00000
     23      54.7290      0.00000
     24      56.7406      0.00000

[...]
     13      31.2123      0.00000
     14      35.9418      0.00000
     15      36.6643      0.00000
     16      40.3710      0.00000
     17      43.4426      0.00000
     18      45.2337      0.00000
     19      48.1693      0.00000
     20      49.7569      0.00000
     21      51.3253      0.00000
     22      51.5768      0.00000
     23      54.7977      0.00000
     24      55.5044      0.00000

 k-point   100 :      -0.3500   -0.3500    0.2500
  band No.  band energies     occupation 
      1     -41.9694      2.00000
      2     -41.8936      2.00000
      3     -41.7960      2.00000
      4       5.0627      2.00000
      5       5.7812      2.00000
      6       8.0727      2.00000
      7       9.4169      2.00000
      8      10.4927      1.99991
      9      16.0534      0.00000
     10      16.7412      0.00000
     11      20.4063      0.00000
     12      24.7700      0.00000
     13      29.8012      0.00000
     14      36.1580      0.00000
     15      37.5062      0.00000
     16      38.7927      0.00000
     17      45.6526      0.00000
     18      46.7543      0.00000
     19      47.0385      0.00000
     20      49.6000      0.00000
     21      50.4619      0.00000
     22      51.5753      0.00000
     23      53.8036      0.00000
     24      55.2068      0.00000

 k-point   101 :       0.3500    0.3500    0.3500
  band No.  band energies     occupation 
      1     -41.9705      2.00000
      2     -41.7306      2.00000
      3     -41.7306      2.00000
      4       3.8870      2.00000
      5       7.4078      2.00000
      6       7.4078      2.00000
      7       8.0034      2.00000
      8      10.0095      2.00000
      9      10.0095      2.00000
     10      19.7470      0.00000
     11      25.8069      0.00000
     12      30.7782      0.00000
     13      30.7782      0.00000
     14      35.4290      0.00000
     15      35.7658      0.00000
     16      35.7658      0.00000
     17      44.3879      0.00000
     18      44.3879      0.00000
     19      46.0721      0.00000
     20      50.6458      0.00000
     21      51.5759      0.00000
     22      51.7458      0.00000
     23      51.7458      0.00000
     24      57.4423      0.00000

 k-point   102 :       0.4500    0.3500    0.3500
  band No.  band energies     occupation 
      1     -41.9898      2.00000
      2     -41.7640      2.00000
      3     -41.7344      2.00000
      4       4.2866      2.00000
      5       7.1704      2.00000
      6       7.5366      2.00000
      7       7.9944      2.00000
      8       9.8678      2.00000
      9      11.2820      0.00000
     10      18.6607      0.00000
     11      25.7852      0.00000
     12      27.9641      0.00000
     13      30.7575      0.00000
     14      34.8516      0.00000
     15      37.2187      0.00000
     16      38.5904      0.00000
     17      42.2575      0.00000
     18      44.5943      0.00000
     19      47.7931      0.00000
     20      48.5633      0.00000
     21      51.5738      0.00000
     22      53.1166      0.00000
     23      53.6312      0.00000
     24      54.9361      0.00000

 k-point   103 :      -0.4500    0.3500    0.3500
  band No.  band energies     occupation 
      1     -41.9821      2.00000
      2     -41.8301      2.00000
      3     -41.7514      2.00000
      4       5.1016      2.00000
      5       6.6733      2.00000
      6       7.4698      2.00000
      7       8.0749      2.00000
      8       9.8351      2.00000
      9      13.0042      0.00000
     10      18.0895      0.00000
     11      23.8619      0.00000
     12      27.4750      0.00000
     13      29.3329      0.00000
     14      34.9225      0.00000
     15      37.4126      0.00000
     16      40.8550      0.00000
     17      43.4967      0.00000
     18      44.9110      0.00000
     19      46.3929      0.00000
     20      47.9028      0.00000
     21      51.4123      0.00000
     22      51.5759      0.00000
     23      55.0372      0.00000
     24      55.7966      0.00000

 k-point   104 :      -0.3500    0.3500    0.3500
  band No.  band energies     occupation 
      1     -41.9478      2.00000
      2     -41.9060      2.00000
      3     -41.7746      2.00000
      4       5.4554      2.00000
      5       6.3713      2.00000
      6       7.2587      2.00000
      7       8.8228      2.00000
      8      10.0161      2.00000
      9      14.4775      0.00000
     10      18.4566      0.00000
     11      20.5609      0.00000
     12      27.0255      0.00000
     13      28.7278      0.00000
     14      36.2896      0.00000
     15      37.2313      0.00000
     16      39.1070      0.00000
     17      45.5332      0.00000
     18      46.4666      0.00000
     19      46.7832      0.00000
     20      49.7163      0.00000
     21      50.0080      0.00000
     22      51.5795      0.00000
     23      51.7641      0.00000
     24      56.9398      0.00000

 k-point   105 :       0.4500    0.4500    0.3500
  band No.  band energies     occupation 
      1     -42.0105      2.00000
      2     -41.7555      2.00000
      3     -41.7496      2.00000
      4       4.3005      2.00000
      5       7.0573      2.00000
      6       7.5374      2.00000
      7       8.2835      2.00000
      8      10.6315      0.99383
      9      11.3847      0.00000
     10      17.4498      0.00000
     11      25.6262      0.00000
     12      28.4161      0.00000
     13      29.0337      0.00000
     14      36.6632      0.00000
     15      37.6678      0.00000
     16      38.5069      0.00000
     17      41.2838      0.00000
     18      46.5182      0.00000
     19      46.6127      0.00000
     20      49.2946      0.00000
     21      51.5732      0.00000
     22      52.9421      0.00000
     23      53.6553      0.00000
     24      54.6032      0.00000

 k-point   106 :      -0.4500    0.4500    0.3500
  band No.  band energies     occupation 
      1     -42.0050      2.00000
      2     -41.8033      2.00000
      3     -41.7589      2.00000
      4       4.8375      2.00000
      5       6.6622      2.00000
      6       7.7765      2.00000
      7       7.9966      2.00000
      8      10.4286      2.00000
      9      13.2426      0.00000
     10      16.6207      0.00000
     11      25.5097      0.00000
     12      26.1442      0.00000
     13      29.0275      0.00000
     14      36.0758      0.00000
     15      38.1160      0.00000
     16      40.7066      0.00000
     17      41.5184      0.00000
     18      45.3141      0.00000
     19      47.0867      0.00000
     20      48.2682      0.00000
     21      51.4713      0.00000
     22      51.5777      0.00000
     23      54.8545      0.00000
     24      56.1814      0.00000

 k-point   107 :      -0.3500    0.4500    0.3500
  band No.  band energies     occupation 
      1     -41.9739      2.00000
      2     -41.8685      2.00000
      3     -41.7808      2.00000
      4       5.5399      2.00000
      5       6.2040      2.00000
      6       7.2405      2.00000
      7       8.6239      2.00000
      8      10.3665      2.00000
      9      15.0997      0.00000
     10      16.5568      0.00000
     11      22.5786      0.00000
     12      25.2552      0.00000
     13      29.9523      0.00000
     14      35.5326      0.00000
     15      38.8466      0.00000
     16      39.9008      0.00000
     17      42.3616      0.00000
     18      44.5328      0.00000
     19      48.8954      0.00000
     20      49.7209      0.00000
     21      50.3513      0.00000
     22      51.5821      0.00000
     23      53.3477      0.00000
     24      55.8377      0.00000

 k-point   108 :      -0.4500   -0.4500    0.3500
  band No.  band energies     occupation 
      1     -42.0019      2.00000
      2     -41.8216      2.00000
      3     -41.7662      2.00000
      4       4.9771      2.00000
      5       6.5303      2.00000
      6       7.7471      2.00000
      7       8.1122      2.00000
      8      10.5595      1.95760
      9      14.3681      0.00000
     10      15.7092      0.00000
     11      24.4894      0.00000
     12      27.2862      0.00000
     13      27.6939      0.00000
     14      37.2136      0.00000
     15      37.4410      0.00000
     16      39.9168      0.00000
     17      42.5293      0.00000
     18      45.8017      0.00000
     19      47.0390      0.00000
     20      48.4852      0.00000
     21      50.9879      0.00000
     22      51.5816      0.00000
     23      54.1612      0.00000
     24      56.8206      0.00000

 k-point   109 :       0.4500    0.4500    0.4500
  band No.  band energies     occupation 
      1     -42.0338      2.00000
      2     -41.7405      2.00000
      3     -41.7405      2.00000
      4       4.0263      2.00000
      5       7.2383      2.00000
      6       7.2383      2.00000
      7       9.9643      2.00000
      8      10.5623      1.94871
      9      10.5623      1.94871
     10      16.5086      0.00000
     11      25.0460      0.00000
     12      29.2485      0.00000
     13      29.2485      0.00000
     14      37.3498      0.00000
     15      37.3498      0.00000
     16      38.3152      0.00000
     17      44.4353      0.00000
     18      44.4353      0.00000
     19      45.2223      0.00000
     20      51.5682      0.00000
     21      52.7511      0.00000
     22      52.7511      0.00000
     23      53.8082      0.00000
     24      54.6296      0.00000

 k-point   110 :      -0.4500    0.4500    0.4500
  band No.  band energies     occupation 
      1     -42.0304      2.00000
      2     -41.7657      2.00000
      3     -41.7466      2.00000
      4       4.3211      2.00000
      5       7.0064      2.00000
      6       7.4437      2.00000
      7       8.9464      2.00000
      8      10.5316      1.99518
      9      12.3865      0.00000
     10      15.9007      0.00000
     11      25.3603      0.00000
     12      27.8333      0.00000
     13      28.8435      0.00000
     14      37.2052      0.00000
     15      37.5125      0.00000
     16      39.8252      0.00000
     17      43.9282      0.00000
     18      44.6670      0.00000
     19      45.0545      0.00000
     20      50.5739      0.00000
     21      51.1819      0.00000
     22      51.5759      0.00000
     23      54.7659      0.00000
     24      55.4063      0.00000


--------------------------------------------------------------------------------------------------------


 soft charge-density along one line, spin component           1
         0         1         2         3         4         5         6         7         8         9
 total charge-density along one line
 
 pseudopotential strength for first ion, spin component:           1
-31.826  -0.000  -0.000  10.879   0.000   0.000  -0.000  -0.000
 -0.000 -31.826  -0.000   0.000  10.879   0.000   0.000  -0.000
 -0.000  -0.000 -31.826   0.000   0.000  10.879  -0.000   0.000
 10.879   0.000   0.000  16.190  -0.000  -0.000   0.000   0.000
  0.000  10.879   0.000  -0.000  16.190  -0.000   0.000   0.000
  0.000   0.000  10.879  -0.000  -0.000  16.190   0.000   0.000
 -0.000   0.000  -0.000   0.000   0.000   0.000  -3.813   0.000
 -0.000  -0.000   0.000   0.000   0.000   0.000   0.000  -3.813
  0.000  -0.000   0.000  -0.000   0.000  -0.000   0.000  -0.000
  0.000  -0.000  -0.000   0.000   0.000   0.000   0.000   0.000
  0.000   0.000  -0.000   0.000  -0.000   0.000   0.000   0.000
 -0.000   0.000  -0.000   0.000   0.000   0.000  -4.054   0.000
 -0.000  -0.000   0.000   0.000   0.000  -0.000   0.000  -4.054
  0.000   0.000   0.000  -0.000   0.000  -0.000   0.000  -0.000
  0.000  -0.000  -0.000  -0.000   0.000   0.000   0.000   0.000
  0.000   0.000  -0.000  -0.000  -0.000   0.000   0.000   0.000
  0.000  -0.000   0.000   0.000   0.000   0.000   0.000   0.000
 -0.000   0.000  -0.000  -0.000  -0.000  -0.000  -0.000  -0.000
 total augmentation occupancy for first ion, spin component:           1
  2.002   0.000  -0.000  -0.020   0.000   0.000   0.000   0.000   0.000   0.000   0.000   0.000   0.000   0.000   0.000   0.000
 -0.000   2.002   0.000  -0.000  -0.020   0.000   0.000   0.000   0.000   0.000   0.000   0.000   0.000   0.000   0.000   0.000
  0.000   0.000   2.002  -0.000   0.000  -0.020   0.000   0.000   0.000   0.000   0.000   0.000   0.000   0.000   0.000   0.000
 -0.020   0.000   0.000   0.044   0.000  -0.000   0.000   0.000   0.000   0.000   0.000   0.000   0.000   0.000   0.000   0.000
  0.000  -0.020   0.000   0.000   0.044  -0.000   0.000   0.000   0.000   0.000   0.000   0.000   0.000   0.000   0.000   0.000
 -0.000   0.000  -0.020  -0.000  -0.000   0.044   0.000   0.000   0.000   0.000   0.000   0.000   0.000   0.000   0.000   0.000
  0.000   0.000   0.000   0.000   0.000   0.000   4.660  -0.000   0.000   0.000  -0.000  -2.478   0.000   0.000  -0.000   0.000
  0.000   0.000   0.000   0.000   0.000   0.000  -0.000   4.660  -0.000  -0.000   0.000   0.000  -2.478   0.000   0.000  -0.000
  0.000   0.000   0.000   0.000   0.000   0.000   0.000  -0.000   3.839   0.000   0.000   0.000   0.000  -1.940  -0.000  -0.000
  0.000   0.000   0.000   0.000   0.000   0.000   0.000  -0.000  -0.000   4.660   0.000  -0.000   0.000   0.000  -2.478  -0.000
  0.000   0.000   0.000   0.000   0.000   0.000  -0.000   0.000   0.000   0.000   3.839   0.000  -0.000  -0.000  -0.000  -1.940
  0.000   0.000   0.000   0.000   0.000   0.000  -2.478   0.000   0.000  -0.000   0.000   2.013  -0.000   0.000   0.000  -0.000
  0.000   0.000   0.000   0.000   0.000   0.000   0.000  -2.478   0.000   0.000  -0.000  -0.000   2.013   0.000  -0.000   0.000
  0.000   0.000   0.000   0.000   0.000   0.000   0.000   0.000  -1.940  -0.000  -0.000  -0.000   0.000   1.879  -0.000   0.000
  0.000   0.000   0.000   0.000   0.000   0.000  -0.000   0.000  -0.000  -2.478  -0.000   0.000  -0.000  -0.000   2.013   0.000
  0.000   0.000   0.000   0.000   0.000   0.000   0.000  -0.000  -0.000  -0.000  -1.940  -0.000  -0.000   0.000   0.000   1.879
  0.000   0.000   0.000   0.000   0.000   0.000  -0.000   0.000   0.000   0.000   0.000   0.000  -0.000  -0.000  -0.000  -0.000
  0.000   0.000   0.000   0.000   0.000   0.000   0.000  -0.000   0.000   0.000   0.000   0.000   0.000  -0.000  -0.000  -0.000


------------------------ aborting loop because EDIFF is reached ----------------------------------------





 total charge

# of ion       s       p       d       tot
------------------------------------------
    1        0.327   6.067   7.055  13.450
 
    CHARGE:  cpu time      0.0174: real time      0.0175
    FORLOC:  cpu time      0.0002: real time      0.0002
    FORNL :  cpu time      0.0064: real time      0.0064
    STRESS:  cpu time      0.1228: real time      0.1232
    FORCOR:  cpu time      0.0019: real time      0.0019
    FORHAR:  cpu time      0.0004: real time      0.0004
    MIXING:  cpu time      0.0002: real time      0.0002
    OFIELD:  cpu time      0.0000: real time      0.0000

  FORCE on cell =-STRESS in cart. coord.  units (eV):
  Direction    XX          YY          ZZ          XY          YZ          ZX
  --------------------------------------------------------------------------------------
  Alpha Z   147.44529   147.44529   147.44529
  Ewald    -700.26982  -700.26982  -700.26982    -0.00000     0.00000     0.00000
  Hartree   132.98581   132.98581   132.98581     0.00000     0.00000     0.00000
  E(xc)     -85.28629   -85.28629   -85.28629     0.00000     0.00000     0.00000
  Local     113.29536   113.29536   113.29536    -0.00000    -0.00000    -0.00000
  n-local   -31.16977   -28.69924   -33.91615     3.21521    -2.99592     0.17337
  augment    73.34068    73.34068    73.34068     0.00001     0.00001     0.00001
  Kinetic   347.89186   352.74818   345.22769     4.26727    -3.54070    -0.51575
  Fock        0.00000     0.00000     0.00000     0.00000     0.00000     0.00000
  -------------------------------------------------------------------------------------
  Total      -1.12811    -1.12811    -1.12811    -0.00000     0.00000     0.00000
  in kB    -111.07206  -111.07206  -111.07206    -0.00000     0.00000     0.00000
  external pressure =     -111.07 kB  Pullay stress =        0.00 kB


 VOLUME and BASIS-vectors are now :
 -----------------------------------------------------------------------------
  energy-cutoff  :      425.00
  volume of cell :       16.27
      direct lattice vectors                 reciprocal lattice vectors
     0.000000000  2.011294538  2.011294538    -0.248596111  0.248596111  0.248596111
     2.011294538  0.000000000  2.011294538     0.248596111 -0.248596111  0.248596111
     2.011294538  2.011294538  0.000000000     0.248596111  0.248596111 -0.248596111

  length of vectors
     2.844400013  2.844400013  2.844400013     0.430581095  0.430581095  0.430581095


 FORCES acting on ions
    electron-ion (+dipol)            ewald-force                    non-local-force                 convergence-correction
 -----------------------------------------------------------------------------------------------
   -.621E-14 -.735E-14 -.665E-15   0.749E-15 0.840E-15 0.395E-15   0.258E-25 0.000E+00 0.000E+00   -.157E-13 -.103E-12 -.356E-13
 -----------------------------------------------------------------------------------------------
   -.621E-14 -.735E-14 -.665E-15   0.749E-15 0.840E-15 0.395E-15   0.258E-25 0.000E+00 0.000E+00   -.157E-13 -.103E-12 -.356E-13
 
 
 POSITION                                       TOTAL-FORCE (eV/Angst)
 -----------------------------------------------------------------------------------
      0.00000      0.00000      0.00000         0.000000      0.000000      0.000000
 -----------------------------------------------------------------------------------
    total drift:                               -0.000000     -0.000000     -0.000000


--------------------------------------------------------------------------------------------------------



  FREE ENERGIE OF THE ION-ELECTRON SYSTEM (eV)
  ---------------------------------------------------
  free  energy   TOTEN  =        -6.06519046 eV

  energy  without entropy=       -6.06243103  energy(sigma->0) =       -6.06381074
 


--------------------------------------------------------------------------------------------------------


    POTLOK:  cpu time      0.0043: real time      0.0043


--------------------------------------------------------------------------------------------------------




--------------------------------------------------------------------------------------------------------


  
 reached required accuracy - stopping structural energy minimisation
 writing wavefunctions
     LOOP+:  cpu time      7.5493: real time      7.6891
    4ORBIT:  cpu time      0.0000: real time      0.0000



 total charge

# of ion       s       p       d       tot
------------------------------------------
    1        0.327   6.067   7.055  13.450
 

 total amount of memory used by VASP MPI-rank0    36607. kBytes
=======================================================================

   base      :      30000. kBytes
   nonl-proj :       5327. kBytes
   fftplans  :        147. kBytes
   grid      :        485. kBytes
   one-center:         15. kBytes
   wavefun   :        633. kBytes
 
  
  
 General timing and accounting informations for this job:
 ========================================================
  
                  Total CPU time used (sec):        8.691
                            User time (sec):        8.189
                          System time (sec):        0.502
                         Elapsed time (sec):       10.387
  
                   Maximum memory used (kb):      221100.
                   Average memory used (kb):          N/A
  
                          Minor page faults:        26785
                          Major page faults:           78
                 Voluntary context switches:         2218
