PROCAR lm decomposed
# of k-points:  110         # of bands:   24         # of ions:    1

 k-point     1 :    0.05000000 0.05000000 0.05000000     weight = 0.00200000

band     1 # energy  -41.69872888 # occ.  2.00000000
 
ion      s     py     pz     px    dxy    dyz    dz2    dxz  x2-y2    tot
    1  0.000  0.332  0.332  0.332  0.000  0.000  0.000  0.000  0.000  0.995
 
band     2 # energy  -41.69120738 # occ.  2.00000000
 
ion      s     py     pz     px    dxy    dyz    dz2    dxz  x2-y2    tot
    1  0.000  0.266  0.213  0.517  0.000  0.000  0.000  0.000  0.000  0.996
 
band     3 # energy  -41.69120738 # occ.  2.00000000
 
ion      s     py     pz     px    dxy    dyz    dz2    dxz  x2-y2    tot
    1  0.000  0.398  0.451  0.147  0.000  0.000  0.000  0.000  0.000  0.996
 
band     4 # energy    1.28578844 # occ.  2.00000000
 
ion      s     py     pz     px    dxy    dyz    dz2    dxz  x2-y2    tot
    1  0.373  0.000  0.000  0.000  0.000  0.000  0.000  0.000  0.000  0.374
 
band     5 # energy    7.22096369 # occ.  2.00000000
 
ion      s     py     pz     px    dxy    dyz    dz2    dxz  x2-y2    tot
    1  0.000  0.000  0.000  0.000  0.279  0.279  0.000  0.279  0.000  0.836
 
band     6 # energy    7.29701806 # occ.  2.00000000
 
ion      s     py     pz     px    dxy    dyz    dz2    dxz  x2-y2    tot
    1  0.000  0.000  0.000  0.000  0.560  0.140  0.000  0.140  0.000  0.841
 
band     7 # energy    7.29701806 # occ.  2.00000000
 
ion      s     py     pz     px    dxy    dyz    dz2    dxz  x2-y2    tot
    1  0.000  0.000  0.000  0.000  0.000  0.420  0.000  0.420  0.000  0.841
 
band     8 # energy    9.15382272 # occ.  2.00000000
 
ion      s     py     pz     px    dxy    dyz    dz2    dxz  x2-y2    tot
    1  0.000  0.000  0.000  0.000  0.000  0.000  0.904  0.000  0.000  0.904
 
band     9 # energy    9.15382272 # occ.  2.00000000
 
ion      s     py     pz     px    dxy    dyz    dz2    dxz  x2-y2    tot
    1  0.000  0.000  0.000  0.000  0.000  0.000  0.000  0.000  0.904  0.904
 
band    10 # energy   25.53510733 # occ.  0.00000000
 
ion      s     py     pz     px    dxy    dyz    dz2    dxz  x2-y2    tot
    1  0.000  0.000  0.000  0.000  0.002  0.002  0.000  0.002  0.000  0.007
 
band    11 # energy   29.39143693 # occ.  0.00000000
 
ion      s     py     pz     px    dxy    dyz    dz2    dxz  x2-y2    tot
    1  0.010  0.024  0.024  0.024  0.002  0.002  0.000  0.002  0.000  0.086
 
band    12 # energy   30.07580518 # occ.  0.00000000
 
ion      s     py     pz     px    dxy    dyz    dz2    dxz  x2-y2    tot
    1  0.000  0.014  0.051  0.012  0.001  0.000  0.003  0.000  0.000  0.081
 
band    13 # energy   30.07580518 # occ.  0.00000000
 
ion      s     py     pz     px    dxy    dyz    dz2    dxz  x2-y2    tot
    1  0.000  0.037  0.000  0.039  0.000  0.001  0.000  0.001  0.003  0.081
 
band    14 # energy   35.59997130 # occ.  0.00000000
 
ion      s     py     pz     px    dxy    dyz    dz2    dxz  x2-y2    tot
    1  0.048  0.006  0.006  0.006  0.001  0.001  0.000  0.001  0.000  0.069
 
band    15 # energy   39.65178887 # occ.  0.00000000
 
ion      s     py     pz     px    dxy    dyz    dz2    dxz  x2-y2    tot
    1  0.010  0.052  0.052  0.052  0.092  0.092  0.000  0.092  0.000  0.441
 
band    16 # energy   40.36435010 # occ.  0.00000000
 
ion      s     py     pz     px    dxy    dyz    dz2    dxz  x2-y2    tot
    1  0.000  0.014  0.060  0.017  0.241  0.067  0.002  0.054  0.000  0.454
 
band    17 # energy   40.36435010 # occ.  0.00000000
 
ion      s     py     pz     px    dxy    dyz    dz2    dxz  x2-y2    tot
    1  0.000  0.047  0.000  0.044  0.000  0.174  0.000  0.187  0.002  0.454
 
band    18 # energy   43.21925217 # occ.  0.00000000
 
ion      s     py     pz     px    dxy    dyz    dz2    dxz  x2-y2    tot
    1  0.000  0.076  0.328  0.088  0.059  0.016  0.014  0.014  0.000  0.594
 
band    19 # energy   43.21925217 # occ.  0.00000000
 
ion      s     py     pz     px    dxy    dyz    dz2    dxz  x2-y2    tot
    1  0.000  0.252  0.000  0.239  0.000  0.043  0.000  0.046  0.014  0.594
 
band    20 # energy   44.10376828 # occ.  0.00000000
 
ion      s     py     pz     px    dxy    dyz    dz2    dxz  x2-y2    tot
    1  0.026  0.132  0.132  0.132  0.059  0.059  0.000  0.059  0.000  0.599
 
band    21 # energy   50.08361699 # occ.  0.00000000
 
ion      s     py     pz     px    dxy    dyz    dz2    dxz  x2-y2    tot
    1  0.000  0.004  0.014  0.003  0.000  0.000  0.425  0.000  0.000  0.447
 
band    22 # energy   50.08361699 # occ.  0.00000000
 
ion      s     py     pz     px    dxy    dyz    dz2    dxz  x2-y2    tot
    1  0.000  0.011  0.000  0.011  0.000  0.000  0.000  0.000  0.425  0.447
 
band    23 # energy   51.54892750 # occ.  0.00000000
 
ion      s     py     pz     px    dxy    dyz    dz2    dxz  x2-y2    tot
    1  6.297  0.000  0.000  0.000  0.000  0.000  0.000  0.000  0.000  6.297
 
band    24 # energy   56.26725550 # occ.  0.00000000
 
ion      s     py     pz     px    dxy    dyz    dz2    dxz  x2-y2    tot
    1  0.451  0.015  0.015  0.015  0.000  0.000  0.000  0.000  0.000  0.496
 

 k-point     2 :    0.15000000 0.05000000 0.05000000     weight = 0.00600000

band     1 # energy  -41.73925886 # occ.  2.00000000
 
ion      s     py     pz     px    dxy    dyz    dz2    dxz  x2-y2    tot
    1  0.000  0.454  0.454  0.086  0.000  0.000  0.000  0.000  0.000  0.994
 
band     2 # energy  -41.70334100 # occ.  2.00000000
 
ion      s     py     pz     px    dxy    dyz    dz2    dxz  x2-y2    tot
    1  0.000  0.043  0.043  0.909  0.000  0.000  0.000  0.000  0.000  0.995
 
band     3 # energy  -41.69469972 # occ.  2.00000000
 
ion      s     py     pz     px    dxy    dyz    dz2    dxz  x2-y2    tot
    1  0.000  0.498  0.498  0.000  0.000  0.000  0.000  0.000  0.000  0.996
 
band     4 # energy    1.77282442 # occ.  2.00000000
 
ion      s     py     pz     px    dxy    dyz    dz2    dxz  x2-y2    tot
    1  0.362  0.003  0.003  0.000  0.000  0.002  0.000  0.000  0.000  0.372
 
band     5 # energy    7.01838709 # occ.  2.00000000
 
ion      s     py     pz     px    dxy    dyz    dz2    dxz  x2-y2    tot
    1  0.000  0.000  0.000  0.002  0.393  0.028  0.000  0.393  0.000  0.816
 
band     6 # energy    7.46023923 # occ.  2.00000000
 
ion      s     py     pz     px    dxy    dyz    dz2    dxz  x2-y2    tot
    1  0.000  0.000  0.000  0.000  0.420  0.000  0.003  0.420  0.001  0.844
 
band     7 # energy    7.49534621 # occ.  2.00000000
 
ion      s     py     pz     px    dxy    dyz    dz2    dxz  x2-y2    tot
    1  0.000  0.001  0.001  0.000  0.015  0.785  0.006  0.015  0.018  0.840
 
band     8 # energy    8.95911689 # occ.  2.00000000
 
ion      s     py     pz     px    dxy    dyz    dz2    dxz  x2-y2    tot
    1  0.000  0.000  0.000  0.000  0.002  0.000  0.665  0.002  0.222  0.892
 
band     9 # energy    9.20745795 # occ.  2.00000000
 
ion      s     py     pz     px    dxy    dyz    dz2    dxz  x2-y2    tot
    1  0.000  0.000  0.000  0.000  0.001  0.024  0.219  0.001  0.658  0.902
 
band    10 # energy   26.18066256 # occ.  0.00000000
 
ion      s     py     pz     px    dxy    dyz    dz2    dxz  x2-y2    tot
    1  0.000  0.000  0.000  0.002  0.022  0.003  0.000  0.022  0.000  0.049
 
band    11 # energy   27.68052677 # occ.  0.00000000
 
ion      s     py     pz     px    dxy    dyz    dz2    dxz  x2-y2    tot
    1  0.036  0.029  0.029  0.008  0.002  0.018  0.001  0.002  0.004  0.129
 
band    12 # energy   30.09030777 # occ.  0.00000000
 
ion      s     py     pz     px    dxy    dyz    dz2    dxz  x2-y2    tot
    1  0.000  0.003  0.003  0.097  0.012  0.003  0.001  0.012  0.003  0.135
 
band    13 # energy   31.11208724 # occ.  0.00000000
 
ion      s     py     pz     px    dxy    dyz    dz2    dxz  x2-y2    tot
    1  0.000  0.036  0.036  0.000  0.001  0.000  0.020  0.001  0.007  0.101
 
band    14 # energy   35.69281654 # occ.  0.00000000
 
ion      s     py     pz     px    dxy    dyz    dz2    dxz  x2-y2    tot
    1  0.005  0.100  0.100  0.007  0.005  0.106  0.001  0.005  0.002  0.329
 
band    15 # energy   38.02304791 # occ.  0.00000000
 
ion      s     py     pz     px    dxy    dyz    dz2    dxz  x2-y2    tot
    1  0.003  0.004  0.004  0.148  0.071  0.030  0.002  0.071  0.005  0.338
 
band    16 # energy   38.75818058 # occ.  0.00000000
 
ion      s     py     pz     px    dxy    dyz    dz2    dxz  x2-y2    tot
    1  0.067  0.002  0.002  0.014  0.010  0.009  0.001  0.010  0.003  0.119
 
band    17 # energy   39.48372294 # occ.  0.00000000
 
ion      s     py     pz     px    dxy    dyz    dz2    dxz  x2-y2    tot
    1  0.000  0.087  0.087  0.000  0.120  0.000  0.017  0.120  0.006  0.438
 
band    18 # energy   41.72294781 # occ.  0.00000000
 
ion      s     py     pz     px    dxy    dyz    dz2    dxz  x2-y2    tot
    1  0.000  0.161  0.161  0.000  0.083  0.000  0.036  0.083  0.012  0.537
 
band    19 # energy   44.61741327 # occ.  0.00000000
 
ion      s     py     pz     px    dxy    dyz    dz2    dxz  x2-y2    tot
    1  0.073  0.103  0.103  0.027  0.000  0.246  0.005  0.000  0.016  0.575
 
band    20 # energy   46.75056189 # occ.  0.00000000
 
ion      s     py     pz     px    dxy    dyz    dz2    dxz  x2-y2    tot
    1  0.031  0.003  0.003  0.315  0.122  0.003  0.005  0.122  0.014  0.620
 
band    21 # energy   49.07342502 # occ.  0.00000000
 
ion      s     py     pz     px    dxy    dyz    dz2    dxz  x2-y2    tot
    1  0.007  0.006  0.006  0.046  0.003  0.007  0.068  0.003  0.204  0.350
 
band    22 # energy   51.25088598 # occ.  0.00000000
 
ion      s     py     pz     px    dxy    dyz    dz2    dxz  x2-y2    tot
    1  0.000  0.051  0.051  0.000  0.000  0.000  0.229  0.000  0.076  0.408
 
band    23 # energy   51.56055445 # occ.  0.00000000
 
ion      s     py     pz     px    dxy    dyz    dz2    dxz  x2-y2    tot
    1  6.292  0.000  0.000  0.000  0.000  0.000  0.000  0.000  0.000  6.292
 
band    24 # energy   58.31834848 # occ.  0.00000000
 
ion      s     py     pz     px    dxy    dyz    dz2    dxz  x2-y2    tot
    1  0.279  0.084  0.084  0.013  0.003  0.001  0.005  0.003  0.015  0.487
 

 k-point     3 :    0.25000000 0.05000000 0.05000000     weight = 0.00600000

band     1 # energy  -41.83158278 # occ.  2.00000000
 
ion      s     py     pz     px    dxy    dyz    dz2    dxz  x2-y2    tot
    1  0.000  0.390  0.390  0.211  0.000  0.000  0.000  0.000  0.000  0.991
 
band     2 # energy  -41.71959658 # occ.  2.00000000
 
ion      s     py     pz     px    dxy    dyz    dz2    dxz  x2-y2    tot
    1  0.000  0.106  0.106  0.783  0.000  0.000  0.000  0.000  0.000  0.995
 
band     3 # energy  -41.70664260 # occ.  2.00000000
 
ion      s     py     pz     px    dxy    dyz    dz2    dxz  x2-y2    tot
    1  0.000  0.498  0.498  0.000  0.000  0.000  0.000  0.000  0.000  0.995
 
band     4 # energy    2.82671499 # occ.  2.00000000
 
ion      s     py     pz     px    dxy    dyz    dz2    dxz  x2-y2    tot
    1  0.326  0.007  0.007  0.002  0.011  0.020  0.000  0.011  0.001  0.385
 
band     5 # energy    6.82164079 # occ.  2.00000000
 
ion      s     py     pz     px    dxy    dyz    dz2    dxz  x2-y2    tot
    1  0.008  0.003  0.003  0.005  0.337  0.064  0.000  0.337  0.000  0.758
 
band     6 # energy    7.63255750 # occ.  2.00000000
 
ion      s     py     pz     px    dxy    dyz    dz2    dxz  x2-y2    tot
    1  0.001  0.001  0.001  0.000  0.034  0.571  0.049  0.034  0.146  0.836
 
band     7 # energy    7.66734951 # occ.  2.00000000
 
ion      s     py     pz     px    dxy    dyz    dz2    dxz  x2-y2    tot
    1  0.000  0.000  0.000  0.000  0.345  0.000  0.117  0.345  0.039  0.847
 
band     8 # energy    8.95091838 # occ.  2.00000000
 
ion      s     py     pz     px    dxy    dyz    dz2    dxz  x2-y2    tot
    1  0.000  0.000  0.000  0.000  0.082  0.000  0.539  0.082  0.180  0.882
 
band     9 # energy    9.44791491 # occ.  2.00000000
 
ion      s     py     pz     px    dxy    dyz    dz2    dxz  x2-y2    tot
    1  0.002  0.001  0.001  0.000  0.011  0.180  0.174  0.011  0.521  0.899
 
band    10 # energy   24.63603131 # occ.  0.00000000
 
ion      s     py     pz     px    dxy    dyz    dz2    dxz  x2-y2    tot
    1  0.087  0.033  0.033  0.029  0.033  0.046  0.001  0.033  0.003  0.297
 
band    11 # energy   26.98919537 # occ.  0.00000000
 
ion      s     py     pz     px    dxy    dyz    dz2    dxz  x2-y2    tot
    1  0.000  0.001  0.001  0.008  0.039  0.007  0.000  0.039  0.001  0.096
 
band    12 # energy   30.91458408 # occ.  0.00000000
 
ion      s     py     pz     px    dxy    dyz    dz2    dxz  x2-y2    tot
    1  0.002  0.019  0.019  0.127  0.016  0.034  0.004  0.016  0.013  0.251
 
band    13 # energy   32.80432627 # occ.  0.00000000
 
ion      s     py     pz     px    dxy    dyz    dz2    dxz  x2-y2    tot
    1  0.033  0.068  0.068  0.005  0.000  0.027  0.003  0.000  0.008  0.213
 
band    14 # energy   32.98227420 # occ.  0.00000000
 
ion      s     py     pz     px    dxy    dyz    dz2    dxz  x2-y2    tot
    1  0.000  0.045  0.045  0.000  0.011  0.000  0.046  0.011  0.015  0.174
 
band    15 # energy   35.83245153 # occ.  0.00000000
 
ion      s     py     pz     px    dxy    dyz    dz2    dxz  x2-y2    tot
    1  0.000  0.100  0.100  0.000  0.046  0.000  0.040  0.046  0.013  0.346
 
band    16 # energy   36.10329309 # occ.  0.00000000
 
ion      s     py     pz     px    dxy    dyz    dz2    dxz  x2-y2    tot
    1  0.003  0.000  0.000  0.098  0.017  0.011  0.008  0.017  0.025  0.179
 
band    17 # energy   42.22490641 # occ.  0.00000000
 
ion      s     py     pz     px    dxy    dyz    dz2    dxz  x2-y2    tot
    1  0.000  0.110  0.110  0.000  0.112  0.000  0.039  0.112  0.013  0.497
 
band    18 # energy   42.51078601 # occ.  0.00000000
 
ion      s     py     pz     px    dxy    dyz    dz2    dxz  x2-y2    tot
    1  0.100  0.000  0.000  0.000  0.000  0.017  0.003  0.000  0.009  0.130
 
band    19 # energy   45.33195981 # occ.  0.00000000
 
ion      s     py     pz     px    dxy    dyz    dz2    dxz  x2-y2    tot
    1  0.042  0.058  0.058  0.082  0.002  0.219  0.011  0.002  0.034  0.507
 
band    20 # energy   47.44668203 # occ.  0.00000000
 
ion      s     py     pz     px    dxy    dyz    dz2    dxz  x2-y2    tot
    1  0.106  0.003  0.003  0.034  0.103  0.001  0.023  0.103  0.070  0.448
 
band    21 # energy   50.03771562 # occ.  0.00000000
 
ion      s     py     pz     px    dxy    dyz    dz2    dxz  x2-y2    tot
    1  0.015  0.011  0.011  0.201  0.038  0.032  0.015  0.038  0.045  0.407
 
band    22 # energy   51.57145653 # occ.  0.00000000
 
ion      s     py     pz     px    dxy    dyz    dz2    dxz  x2-y2    tot
    1  6.286  0.000  0.000  0.000  0.000  0.000  0.000  0.000  0.000  6.286
 
band    23 # energy   51.98467005 # occ.  0.00000000
 
ion      s     py     pz     px    dxy    dyz    dz2    dxz  x2-y2    tot
    1  0.000  0.073  0.073  0.000  0.006  0.000  0.121  0.006  0.040  0.319
 
band    24 # energy   58.56456518 # occ.  0.00000000
 
ion      s     py     pz     px    dxy    dyz    dz2    dxz  x2-y2    tot
    1  0.000  0.000  0.000  0.000  0.001  0.000  0.039  0.001  0.013  0.053
 

 k-point     4 :    0.35000000 0.05000000 0.05000000     weight = 0.00600000

band     1 # energy  -41.93793974 # occ.  2.00000000
 
ion      s     py     pz     px    dxy    dyz    dz2    dxz  x2-y2    tot
    1  0.000  0.360  0.360  0.267  0.000  0.000  0.000  0.000  0.000  0.987
 
band     2 # energy  -41.73594717 # occ.  2.00000000
 
ion      s     py     pz     px    dxy    dyz    dz2    dxz  x2-y2    tot
    1  0.000  0.134  0.134  0.725  0.000  0.000  0.000  0.000  0.000  0.994
 
band     3 # energy  -41.72232263 # occ.  2.00000000
 
ion      s     py     pz     px    dxy    dyz    dz2    dxz  x2-y2    tot
    1  0.000  0.497  0.497  0.000  0.000  0.000  0.000  0.000  0.000  0.995
 
band     4 # energy    3.80621190 # occ.  2.00000000
 
ion      s     py     pz     px    dxy    dyz    dz2    dxz  x2-y2    tot
    1  0.232  0.006  0.006  0.002  0.077  0.089  0.000  0.077  0.001  0.490
 
band     5 # energy    7.33151720 # occ.  2.00000000
 
ion      s     py     pz     px    dxy    dyz    dz2    dxz  x2-y2    tot
    1  0.039  0.009  0.009  0.014  0.270  0.010  0.012  0.270  0.035  0.667
 
band     6 # energy    7.50380376 # occ.  2.00000000
 
ion      s     py     pz     px    dxy    dyz    dz2    dxz  x2-y2    tot
    1  0.014  0.007  0.007  0.003  0.001  0.366  0.089  0.001  0.266  0.753
 
band     7 # energy    7.52863519 # occ.  2.00000000
 
ion      s     py     pz     px    dxy    dyz    dz2    dxz  x2-y2    tot
    1  0.000  0.000  0.000  0.000  0.216  0.000  0.304  0.216  0.101  0.838
 
band     8 # energy    9.53936469 # occ.  2.00000000
 
ion      s     py     pz     px    dxy    dyz    dz2    dxz  x2-y2    tot
    1  0.000  0.000  0.000  0.000  0.220  0.000  0.344  0.220  0.115  0.898
 
band     9 # energy   10.11276926 # occ.  2.00000000
 
ion      s     py     pz     px    dxy    dyz    dz2    dxz  x2-y2    tot
    1  0.007  0.002  0.002  0.000  0.026  0.364  0.119  0.026  0.357  0.903
 
band    10 # energy   21.03516875 # occ.  0.00000000
 
ion      s     py     pz     px    dxy    dyz    dz2    dxz  x2-y2    tot
    1  0.171  0.032  0.032  0.034  0.065  0.068  0.001  0.065  0.002  0.471
 
band    11 # energy   26.26674499 # occ.  0.00000000
 
ion      s     py     pz     px    dxy    dyz    dz2    dxz  x2-y2    tot
    1  0.001  0.004  0.004  0.011  0.025  0.004  0.001  0.025  0.003  0.076
 
band    12 # energy   30.15954852 # occ.  0.00000000
 
ion      s     py     pz     px    dxy    dyz    dz2    dxz  x2-y2    tot
    1  0.010  0.048  0.048  0.136  0.025  0.030  0.000  0.025  0.001  0.323
 
band    13 # energy   32.32242436 # occ.  0.00000000
 
ion      s     py     pz     px    dxy    dyz    dz2    dxz  x2-y2    tot
    1  0.000  0.122  0.122  0.000  0.028  0.000  0.012  0.028  0.004  0.317
 
band    14 # energy   33.82149600 # occ.  0.00000000
 
ion      s     py     pz     px    dxy    dyz    dz2    dxz  x2-y2    tot
    1  0.020  0.007  0.007  0.034  0.002  0.018  0.013  0.002  0.039  0.142
 
band    15 # energy   35.42755935 # occ.  0.00000000
 
ion      s     py     pz     px    dxy    dyz    dz2    dxz  x2-y2    tot
    1  0.000  0.009  0.009  0.000  0.016  0.000  0.126  0.016  0.042  0.217
 
band    16 # energy   36.14978865 # occ.  0.00000000
 
ion      s     py     pz     px    dxy    dyz    dz2    dxz  x2-y2    tot
    1  0.023  0.005  0.005  0.024  0.005  0.000  0.017  0.005  0.052  0.135
 
band    17 # energy   42.73826407 # occ.  0.00000000
 
ion      s     py     pz     px    dxy    dyz    dz2    dxz  x2-y2    tot
    1  0.000  0.117  0.117  0.000  0.084  0.000  0.028  0.084  0.009  0.440
 
band    18 # energy   44.74965022 # occ.  0.00000000
 
ion      s     py     pz     px    dxy    dyz    dz2    dxz  x2-y2    tot
    1  0.144  0.013  0.013  0.073  0.000  0.174  0.013  0.000  0.040  0.472
 
band    19 # energy   46.98254767 # occ.  0.00000000
 
ion      s     py     pz     px    dxy    dyz    dz2    dxz  x2-y2    tot
    1  0.088  0.028  0.028  0.055  0.072  0.006  0.012  0.072  0.036  0.397
 
band    20 # energy   48.56445913 # occ.  0.00000000
 
ion      s     py     pz     px    dxy    dyz    dz2    dxz  x2-y2    tot
    1  0.013  0.019  0.019  0.021  0.026  0.001  0.005  0.026  0.016  0.147
 
band    21 # energy   50.94938289 # occ.  0.00000000
 
ion      s     py     pz     px    dxy    dyz    dz2    dxz  x2-y2    tot
    1  0.010  0.019  0.019  0.108  0.015  0.067  0.003  0.015  0.008  0.266
 
band    22 # energy   51.57913099 # occ.  0.00000000
 
ion      s     py     pz     px    dxy    dyz    dz2    dxz  x2-y2    tot
    1  6.287  0.000  0.000  0.000  0.000  0.000  0.000  0.000  0.000  6.287
 
band    23 # energy   52.72933889 # occ.  0.00000000
 
ion      s     py     pz     px    dxy    dyz    dz2    dxz  x2-y2    tot
    1  0.000  0.078  0.078  0.000  0.013  0.000  0.056  0.013  0.019  0.258
 
band    24 # energy   57.46843777 # occ.  0.00000000
 
ion      s     py     pz     px    dxy    dyz    dz2    dxz  x2-y2    tot
    1  0.000  0.002  0.002  0.000  0.045  0.000  0.067  0.045  0.022  0.183
 

 k-point     5 :    0.45000000 0.05000000 0.05000000     weight = 0.00600000

band     1 # energy  -42.01666825 # occ.  2.00000000
 
ion      s     py     pz     px    dxy    dyz    dz2    dxz  x2-y2    tot
    1  0.000  0.340  0.340  0.304  0.000  0.000  0.000  0.000  0.000  0.984
 
band     2 # energy  -41.74659399 # occ.  2.00000000
 
ion      s     py     pz     px    dxy    dyz    dz2    dxz  x2-y2    tot
    1  0.000  0.153  0.153  0.687  0.000  0.000  0.000  0.000  0.000  0.994
 
band     3 # energy  -41.73709589 # occ.  2.00000000
 
ion      s     py     pz     px    dxy    dyz    dz2    dxz  x2-y2    tot
    1  0.000  0.497  0.497  0.000  0.000  0.000  0.000  0.000  0.000  0.994
 
band     4 # energy    4.08996527 # occ.  2.00000000
 
ion      s     py     pz     px    dxy    dyz    dz2    dxz  x2-y2    tot
    1  0.145  0.002  0.002  0.000  0.149  0.154  0.000  0.149  0.000  0.600
 
band     5 # energy    7.23767103 # occ.  2.00000000
 
ion      s     py     pz     px    dxy    dyz    dz2    dxz  x2-y2    tot
    1  0.000  0.000  0.000  0.000  0.055  0.245  0.117  0.055  0.350  0.823
 
band     6 # energy    7.32611111 # occ.  2.00000000
 
ion      s     py     pz     px    dxy    dyz    dz2    dxz  x2-y2    tot
    1  0.000  0.000  0.000  0.000  0.173  0.000  0.363  0.173  0.121  0.829
 
band     7 # energy    8.98859607 # occ.  2.00000000
 
ion      s     py     pz     px    dxy    dyz    dz2    dxz  x2-y2    tot
    1  0.045  0.031  0.031  0.032  0.114  0.009  0.018  0.114  0.053  0.447
 
band     8 # energy   10.28538945 # occ.  2.00000000
 
ion      s     py     pz     px    dxy    dyz    dz2    dxz  x2-y2    tot
    1  0.000  0.000  0.000  0.000  0.274  0.000  0.284  0.274  0.095  0.927
 
band     9 # energy   10.92345432 # occ.  0.00000000
 
ion      s     py     pz     px    dxy    dyz    dz2    dxz  x2-y2    tot
    1  0.020  0.010  0.010  0.006  0.022  0.406  0.083  0.022  0.248  0.826
 
band    10 # energy   17.43977694 # occ.  0.00000000
 
ion      s     py     pz     px    dxy    dyz    dz2    dxz  x2-y2    tot
    1  0.278  0.016  0.016  0.020  0.108  0.093  0.001  0.108  0.002  0.641
 
band    11 # energy   25.33225730 # occ.  0.00000000
 
ion      s     py     pz     px    dxy    dyz    dz2    dxz  x2-y2    tot
    1  0.000  0.003  0.003  0.006  0.007  0.000  0.001  0.007  0.004  0.030
 
band    12 # energy   28.88592138 # occ.  0.00000000
 
ion      s     py     pz     px    dxy    dyz    dz2    dxz  x2-y2    tot
    1  0.006  0.039  0.039  0.142  0.014  0.003  0.000  0.014  0.001  0.259
 
band    13 # energy   29.90428669 # occ.  0.00000000
 
ion      s     py     pz     px    dxy    dyz    dz2    dxz  x2-y2    tot
    1  0.000  0.111  0.111  0.000  0.005  0.000  0.011  0.005  0.004  0.247
 
band    14 # energy   36.40692600 # occ.  0.00000000
 
ion      s     py     pz     px    dxy    dyz    dz2    dxz  x2-y2    tot
    1  0.010  0.000  0.000  0.016  0.000  0.070  0.039  0.000  0.118  0.254
 
band    15 # energy   37.24572690 # occ.  0.00000000
 
ion      s     py     pz     px    dxy    dyz    dz2    dxz  x2-y2    tot
    1  0.000  0.003  0.003  0.000  0.047  0.000  0.182  0.047  0.061  0.343
 
band    16 # energy   37.99097142 # occ.  0.00000000
 
ion      s     py     pz     px    dxy    dyz    dz2    dxz  x2-y2    tot
    1  0.079  0.006  0.006  0.011  0.052  0.009  0.010  0.052  0.029  0.252
 
band    17 # energy   43.53041783 # occ.  0.00000000
 
ion      s     py     pz     px    dxy    dyz    dz2    dxz  x2-y2    tot
    1  0.000  0.143  0.143  0.000  0.027  0.000  0.002  0.027  0.001  0.344
 
band    18 # energy   44.73075745 # occ.  0.00000000
 
ion      s     py     pz     px    dxy    dyz    dz2    dxz  x2-y2    tot
    1  0.079  0.010  0.010  0.155  0.000  0.092  0.011  0.000  0.034  0.391
 
band    19 # energy   46.22518756 # occ.  0.00000000
 
ion      s     py     pz     px    dxy    dyz    dz2    dxz  x2-y2    tot
    1  0.040  0.061  0.061  0.022  0.037  0.007  0.004  0.037  0.012  0.282
 
band    20 # energy   50.68733622 # occ.  0.00000000
 
ion      s     py     pz     px    dxy    dyz    dz2    dxz  x2-y2    tot
    1  0.005  0.026  0.026  0.054  0.011  0.061  0.002  0.011  0.005  0.201
 
band    21 # energy   51.57164008 # occ.  0.00000000
 
ion      s     py     pz     px    dxy    dyz    dz2    dxz  x2-y2    tot
    1  6.295  0.000  0.000  0.000  0.000  0.000  0.000  0.000  0.000  6.295
 
band    22 # energy   53.40889497 # occ.  0.00000000
 
ion      s     py     pz     px    dxy    dyz    dz2    dxz  x2-y2    tot
    1  0.000  0.063  0.063  0.000  0.002  0.000  0.021  0.002  0.007  0.157
 
band    23 # energy   53.65805861 # occ.  0.00000000
 
ion      s     py     pz     px    dxy    dyz    dz2    dxz  x2-y2    tot
    1  0.065  0.001  0.001  0.004  0.001  0.001  0.000  0.001  0.000  0.075
 
band    24 # energy   54.61423952 # occ.  0.00000000
 
ion      s     py     pz     px    dxy    dyz    dz2    dxz  x2-y2    tot
    1  0.000  0.009  0.009  0.000  0.109  0.000  0.008  0.109  0.003  0.247
 

 k-point     6 :   -0.45000000 0.05000000 0.05000000     weight = 0.00600000

band     1 # energy  -42.03899189 # occ.  2.00000000
 
ion      s     py     pz     px    dxy    dyz    dz2    dxz  x2-y2    tot
    1  0.000  0.324  0.324  0.335  0.000  0.000  0.000  0.000  0.000  0.983
 
band     2 # energy  -41.74705285 # occ.  2.00000000
 
ion      s     py     pz     px    dxy    dyz    dz2    dxz  x2-y2    tot
    1  0.000  0.169  0.169  0.655  0.000  0.000  0.000  0.000  0.000  0.994
 
band     3 # energy  -41.74393569 # occ.  2.00000000
 
ion      s     py     pz     px    dxy    dyz    dz2    dxz  x2-y2    tot
    1  0.000  0.497  0.497  0.000  0.000  0.000  0.000  0.000  0.000  0.994
 
band     4 # energy    4.10393619 # occ.  2.00000000
 
ion      s     py     pz     px    dxy    dyz    dz2    dxz  x2-y2    tot
    1  0.128  0.000  0.000  0.001  0.161  0.171  0.000  0.161  0.000  0.622
 
band     5 # energy    7.15733052 # occ.  2.00000000
 
ion      s     py     pz     px    dxy    dyz    dz2    dxz  x2-y2    tot
    1  0.000  0.000  0.000  0.000  0.058  0.208  0.124  0.058  0.371  0.819
 
band     6 # energy    7.27847787 # occ.  2.00000000
 
ion      s     py     pz     px    dxy    dyz    dz2    dxz  x2-y2    tot
    1  0.000  0.000  0.000  0.000  0.169  0.000  0.366  0.169  0.122  0.827
 
band     7 # energy    9.65217998 # occ.  2.00000000
 
ion      s     py     pz     px    dxy    dyz    dz2    dxz  x2-y2    tot
    1  0.002  0.029  0.029  0.028  0.034  0.227  0.037  0.034  0.112  0.532
 
band     8 # energy   10.64919244 # occ.  0.61164041
 
ion      s     py     pz     px    dxy    dyz    dz2    dxz  x2-y2    tot
    1  0.000  0.000  0.000  0.000  0.282  0.000  0.285  0.282  0.095  0.944
 
band     9 # energy   11.40386397 # occ.  0.00000000
 
ion      s     py     pz     px    dxy    dyz    dz2    dxz  x2-y2    tot
    1  0.003  0.027  0.027  0.030  0.068  0.154  0.055  0.068  0.165  0.595
 
band    10 # energy   15.93708273 # occ.  0.00000000
 
ion      s     py     pz     px    dxy    dyz    dz2    dxz  x2-y2    tot
    1  0.362  0.002  0.002  0.000  0.133  0.140  0.000  0.133  0.000  0.773
 
band    11 # energy   25.07820964 # occ.  0.00000000
 
ion      s     py     pz     px    dxy    dyz    dz2    dxz  x2-y2    tot
    1  0.000  0.003  0.003  0.005  0.000  0.004  0.001  0.000  0.004  0.020
 
band    12 # energy   28.82395941 # occ.  0.00000000
 
ion      s     py     pz     px    dxy    dyz    dz2    dxz  x2-y2    tot
    1  0.006  0.036  0.036  0.142  0.003  0.005  0.002  0.003  0.006  0.239
 
band    13 # energy   28.89028617 # occ.  0.00000000
 
ion      s     py     pz     px    dxy    dyz    dz2    dxz  x2-y2    tot
    1  0.000  0.110  0.110  0.000  0.001  0.000  0.005  0.001  0.002  0.227
 
band    14 # energy   37.45624541 # occ.  0.00000000
 
ion      s     py     pz     px    dxy    dyz    dz2    dxz  x2-y2    tot
    1  0.000  0.001  0.001  0.000  0.050  0.000  0.183  0.050  0.061  0.347
 
band    15 # energy   37.64027469 # occ.  0.00000000
 
ion      s     py     pz     px    dxy    dyz    dz2    dxz  x2-y2    tot
    1  0.000  0.000  0.000  0.000  0.013  0.079  0.064  0.013  0.191  0.361
 
band    16 # energy   39.09056472 # occ.  0.00000000
 
ion      s     py     pz     px    dxy    dyz    dz2    dxz  x2-y2    tot
    1  0.135  0.002  0.002  0.000  0.070  0.063  0.000  0.070  0.000  0.344
 
band    17 # energy   43.85214518 # occ.  0.00000000
 
ion      s     py     pz     px    dxy    dyz    dz2    dxz  x2-y2    tot
    1  0.021  0.070  0.070  0.132  0.002  0.001  0.001  0.002  0.003  0.301
 
band    18 # energy   44.82572490 # occ.  0.00000000
 
ion      s     py     pz     px    dxy    dyz    dz2    dxz  x2-y2    tot
    1  0.000  0.156  0.156  0.000  0.002  0.000  0.015  0.002  0.005  0.336
 
band    19 # energy   45.02890505 # occ.  0.00000000
 
ion      s     py     pz     px    dxy    dyz    dz2    dxz  x2-y2    tot
    1  0.001  0.010  0.010  0.094  0.006  0.000  0.001  0.006  0.003  0.131
 
band    20 # energy   51.56590056 # occ.  0.00000000
 
ion      s     py     pz     px    dxy    dyz    dz2    dxz  x2-y2    tot
    1  6.301  0.000  0.000  0.000  0.000  0.000  0.000  0.000  0.000  6.301
 
band    21 # energy   51.80188726 # occ.  0.00000000
 
ion      s     py     pz     px    dxy    dyz    dz2    dxz  x2-y2    tot
    1  0.000  0.033  0.033  0.000  0.052  0.000  0.000  0.052  0.000  0.170
 
band    22 # energy   52.44232283 # occ.  0.00000000
 
ion      s     py     pz     px    dxy    dyz    dz2    dxz  x2-y2    tot
    1  0.006  0.008  0.008  0.034  0.009  0.050  0.001  0.009  0.002  0.128
 