PROCAR lm decomposed
# of k-points:  110         # of bands:   24         # of ions:    1

 k-point     1 :    0.05000000 0.05000000 0.05000000     weight = 0.00200000

band     1 # energy  -43.11240740 # occ.  2.00000000
 
ion      s     py     pz     px    dxy    dyz    dz2    dxz  x2-y2    tot
    1  0.000  0.331  0.331  0.331  0.000  0.000  0.000  0.000  0.000  0.994
 
band     2 # energy  -43.10750764 # occ.  2.00000000
 
ion      s     py     pz     px    dxy    dyz    dz2    dxz  x2-y2    tot
    1  0.000  0.389  0.290  0.316  0.000  0.000  0.000  0.000  0.000  0.995
 
band     3 # energy  -43.10750764 # occ.  2.00000000
 
ion      s     py     pz     px    dxy    dyz    dz2    dxz  x2-y2    tot
    1  0.000  0.275  0.373  0.347  0.000  0.000  0.000  0.000  0.000  0.995
 
band     4 # energy    0.56652136 # occ.  2.00000000
 
ion      s     py     pz     px    dxy    dyz    dz2    dxz  x2-y2    tot
    1  0.344  0.000  0.000  0.000  0.000  0.000  0.000  0.000  0.000  0.345
 
band     5 # energy    6.03536495 # occ.  2.00000000
 
ion      s     py     pz     px    dxy    dyz    dz2    dxz  x2-y2    tot
    1  0.000  0.000  0.000  0.000  0.276  0.276  0.000  0.276  0.000  0.828
 
band     6 # energy    6.09933010 # occ.  2.00000000
 
ion      s     py     pz     px    dxy    dyz    dz2    dxz  x2-y2    tot
    1  0.000  0.000  0.000  0.000  0.000  0.409  0.000  0.422  0.000  0.832
 
band     7 # energy    6.09933010 # occ.  2.00000000
 
ion      s     py     pz     px    dxy    dyz    dz2    dxz  x2-y2    tot
    1  0.000  0.000  0.000  0.000  0.555  0.145  0.000  0.132  0.000  0.832
 
band     8 # energy    7.67877234 # occ.  2.00000000
 
ion      s     py     pz     px    dxy    dyz    dz2    dxz  x2-y2    tot
    1  0.000  0.000  0.000  0.000  0.000  0.000  0.000  0.000  0.895  0.896
 
band     9 # energy    7.67877234 # occ.  2.00000000
 
ion      s     py     pz     px    dxy    dyz    dz2    dxz  x2-y2    tot
    1  0.000  0.000  0.000  0.000  0.000  0.000  0.895  0.000  0.000  0.896
 
band    10 # energy   23.94588376 # occ.  0.00000000
 
ion      s     py     pz     px    dxy    dyz    dz2    dxz  x2-y2    tot
    1  0.000  0.000  0.000  0.000  0.002  0.002  0.000  0.002  0.000  0.007
 
band    11 # energy   27.29410399 # occ.  0.00000000
 
ion      s     py     pz     px    dxy    dyz    dz2    dxz  x2-y2    tot
    1  0.011  0.027  0.027  0.027  0.002  0.002  0.000  0.002  0.000  0.099
 
band    12 # energy   27.95482361 # occ.  0.00000000
 
ion      s     py     pz     px    dxy    dyz    dz2    dxz  x2-y2    tot
    1  0.000  0.003  0.053  0.031  0.001  0.001  0.002  0.000  0.000  0.092
 
band    13 # energy   27.95482361 # occ.  0.00000000
 
ion      s     py     pz     px    dxy    dyz    dz2    dxz  x2-y2    tot
    1  0.000  0.055  0.006  0.027  0.000  0.001  0.000  0.001  0.002  0.092
 
band    14 # energy   33.12111031 # occ.  0.00000000
 
ion      s     py     pz     px    dxy    dyz    dz2    dxz  x2-y2    tot
    1  0.052  0.008  0.008  0.008  0.001  0.001  0.000  0.001  0.000  0.079
 
band    15 # energy   36.16977181 # occ.  0.00000000
 
ion      s     py     pz     px    dxy    dyz    dz2    dxz  x2-y2    tot
    1  0.012  0.047  0.047  0.047  0.075  0.075  0.000  0.075  0.000  0.381
 
band    16 # energy   36.81793458 # occ.  0.00000000
 
ion      s     py     pz     px    dxy    dyz    dz2    dxz  x2-y2    tot
    1  0.000  0.053  0.001  0.042  0.002  0.134  0.000  0.170  0.002  0.403
 
band    17 # energy   36.81793458 # occ.  0.00000000
 
ion      s     py     pz     px    dxy    dyz    dz2    dxz  x2-y2    tot
    1  0.000  0.011  0.063  0.022  0.202  0.070  0.002  0.034  0.000  0.403
 
band    18 # energy   39.16590889 # occ.  0.00000000
 
ion      s     py     pz     px    dxy    dyz    dz2    dxz  x2-y2    tot
    1  0.000  0.220  0.006  0.186  0.001  0.043  0.000  0.051  0.011  0.518
 
band    19 # energy   39.16590889 # occ.  0.00000000
 
ion      s     py     pz     px    dxy    dyz    dz2    dxz  x2-y2    tot
    1  0.000  0.055  0.269  0.089  0.062  0.021  0.011  0.013  0.000  0.518
 
band    20 # energy   39.98902613 # occ.  0.00000000
 
ion      s     py     pz     px    dxy    dyz    dz2    dxz  x2-y2    tot
    1  0.025  0.110  0.110  0.110  0.057  0.057  0.000  0.057  0.000  0.526
 
band    21 # energy   46.09151011 # occ.  0.00000000
 
ion      s     py     pz     px    dxy    dyz    dz2    dxz  x2-y2    tot
    1  0.000  0.008  0.000  0.008  0.000  0.000  0.000  0.000  0.386  0.403
 
band    22 # energy   46.09151011 # occ.  0.00000000
 
ion      s     py     pz     px    dxy    dyz    dz2    dxz  x2-y2    tot
    1  0.000  0.003  0.011  0.003  0.000  0.000  0.386  0.000  0.000  0.403
 
band    23 # energy   50.22145437 # occ.  0.00000000
 
ion      s     py     pz     px    dxy    dyz    dz2    dxz  x2-y2    tot
    1  6.306  0.000  0.000  0.000  0.000  0.000  0.000  0.000  0.000  6.306
 
band    24 # energy   50.85829366 # occ.  0.00000000
 
ion      s     py     pz     px    dxy    dyz    dz2    dxz  x2-y2    tot
    1  0.463  0.013  0.013  0.013  0.000  0.000  0.000  0.000  0.000  0.503
 

 k-point     2 :    0.15000000 0.05000000 0.05000000     weight = 0.00600000

band     1 # energy  -43.14148810 # occ.  2.00000000
 
ion      s     py     pz     px    dxy    dyz    dz2    dxz  x2-y2    tot
    1  0.000  0.454  0.454  0.084  0.000  0.000  0.000  0.000  0.000  0.993
 
band     2 # energy  -43.11607703 # occ.  2.00000000
 
ion      s     py     pz     px    dxy    dyz    dz2    dxz  x2-y2    tot
    1  0.000  0.042  0.042  0.910  0.000  0.000  0.000  0.000  0.000  0.994
 
band     3 # energy  -43.11041602 # occ.  2.00000000
 
ion      s     py     pz     px    dxy    dyz    dz2    dxz  x2-y2    tot
    1  0.000  0.497  0.497  0.000  0.000  0.000  0.000  0.000  0.000  0.995
 
band     4 # energy    1.01151598 # occ.  2.00000000
 
ion      s     py     pz     px    dxy    dyz    dz2    dxz  x2-y2    tot
    1  0.335  0.003  0.003  0.000  0.000  0.002  0.000  0.000  0.000  0.343
 
band     5 # energy    5.86635266 # occ.  2.00000000
 
ion      s     py     pz     px    dxy    dyz    dz2    dxz  x2-y2    tot
    1  0.000  0.000  0.000  0.001  0.390  0.028  0.000  0.390  0.000  0.810
 
band     6 # energy    6.24033938 # occ.  2.00000000
 
ion      s     py     pz     px    dxy    dyz    dz2    dxz  x2-y2    tot
    1  0.000  0.000  0.000  0.000  0.416  0.000  0.003  0.416  0.001  0.836
 
band     7 # energy    6.27040504 # occ.  2.00000000
 
ion      s     py     pz     px    dxy    dyz    dz2    dxz  x2-y2    tot
    1  0.000  0.001  0.001  0.000  0.015  0.778  0.006  0.015  0.018  0.833
 
band     8 # energy    7.51811937 # occ.  2.00000000
 
ion      s     py     pz     px    dxy    dyz    dz2    dxz  x2-y2    tot
    1  0.000  0.000  0.000  0.000  0.002  0.000  0.660  0.002  0.220  0.884
 
band     9 # energy    7.72612218 # occ.  2.00000000
 
ion      s     py     pz     px    dxy    dyz    dz2    dxz  x2-y2    tot
    1  0.000  0.000  0.000  0.000  0.001  0.024  0.217  0.001  0.652  0.894
 
band    10 # energy   24.44006804 # occ.  0.00000000
 
ion      s     py     pz     px    dxy    dyz    dz2    dxz  x2-y2    tot
    1  0.001  0.001  0.001  0.004  0.024  0.004  0.000  0.024  0.000  0.059
 
band    11 # energy   25.58020914 # occ.  0.00000000
 
ion      s     py     pz     px    dxy    dyz    dz2    dxz  x2-y2    tot
    1  0.040  0.033  0.033  0.008  0.002  0.019  0.001  0.002  0.003  0.140
 
band    12 # energy   27.81532999 # occ.  0.00000000
 
ion      s     py     pz     px    dxy    dyz    dz2    dxz  x2-y2    tot
    1  0.000  0.004  0.004  0.109  0.012  0.004  0.001  0.012  0.003  0.150
 
band    13 # energy   28.88440415 # occ.  0.00000000
 
ion      s     py     pz     px    dxy    dyz    dz2    dxz  x2-y2    tot
    1  0.000  0.043  0.043  0.000  0.001  0.000  0.017  0.001  0.006  0.110
 
band    14 # energy   32.64485088 # occ.  0.00000000
 
ion      s     py     pz     px    dxy    dyz    dz2    dxz  x2-y2    tot
    1  0.006  0.091  0.091  0.005  0.003  0.090  0.001  0.003  0.002  0.293
 
band    15 # energy   34.87190059 # occ.  0.00000000
 
ion      s     py     pz     px    dxy    dyz    dz2    dxz  x2-y2    tot
    1  0.001  0.002  0.002  0.134  0.061  0.019  0.002  0.061  0.005  0.288
 
band    16 # energy   35.99129524 # occ.  0.00000000
 
ion      s     py     pz     px    dxy    dyz    dz2    dxz  x2-y2    tot
    1  0.000  0.097  0.097  0.000  0.090  0.000  0.020  0.090  0.007  0.400
 
band    17 # energy   36.02462848 # occ.  0.00000000
 
ion      s     py     pz     px    dxy    dyz    dz2    dxz  x2-y2    tot
    1  0.076  0.001  0.001  0.004  0.004  0.005  0.001  0.004  0.004  0.099
 
band    18 # energy   37.90215877 # occ.  0.00000000
 
ion      s     py     pz     px    dxy    dyz    dz2    dxz  x2-y2    tot
    1  0.000  0.121  0.121  0.000  0.094  0.000  0.027  0.094  0.009  0.465
 
band    19 # energy   40.51284978 # occ.  0.00000000
 
ion      s     py     pz     px    dxy    dyz    dz2    dxz  x2-y2    tot
    1  0.068  0.086  0.086  0.023  0.000  0.230  0.004  0.000  0.012  0.510
 
band    20 # energy   42.45854170 # occ.  0.00000000
 
ion      s     py     pz     px    dxy    dyz    dz2    dxz  x2-y2    tot
    1  0.028  0.002  0.002  0.281  0.112  0.003  0.003  0.112  0.009  0.552
 
band    21 # energy   45.31116840 # occ.  0.00000000
 
ion      s     py     pz     px    dxy    dyz    dz2    dxz  x2-y2    tot
    1  0.010  0.004  0.004  0.030  0.001  0.005  0.066  0.001  0.197  0.319
 
band    22 # energy   47.25482809 # occ.  0.00000000
 
ion      s     py     pz     px    dxy    dyz    dz2    dxz  x2-y2    tot
    1  0.000  0.041  0.041  0.000  0.000  0.000  0.215  0.000  0.072  0.370
 
band    23 # energy   50.23036911 # occ.  0.00000000
 
ion      s     py     pz     px    dxy    dyz    dz2    dxz  x2-y2    tot
    1  6.310  0.000  0.000  0.000  0.000  0.000  0.000  0.000  0.000  6.310
 
band    24 # energy   53.00309687 # occ.  0.00000000
 
ion      s     py     pz     px    dxy    dyz    dz2    dxz  x2-y2    tot
    1  0.306  0.088  0.088  0.012  0.002  0.001  0.001  0.002  0.002  0.501
 

 k-point     3 :    0.25000000 0.05000000 0.05000000     weight = 0.00600000

band     1 # energy  -43.20574336 # occ.  2.00000000
 
ion      s     py     pz     px    dxy    dyz    dz2    dxz  x2-y2    tot
    1  0.000  0.390  0.390  0.210  0.000  0.000  0.000  0.000  0.000  0.991
 
band     2 # energy  -43.12812471 # occ.  2.00000000
 
ion      s     py     pz     px    dxy    dyz    dz2    dxz  x2-y2    tot
    1  0.000  0.105  0.105  0.783  0.000  0.000  0.000  0.000  0.000  0.994
 
band     3 # energy  -43.11975224 # occ.  2.00000000
 
ion      s     py     pz     px    dxy    dyz    dz2    dxz  x2-y2    tot
    1  0.000  0.497  0.497  0.000  0.000  0.000  0.000  0.000  0.000  0.994
 
band     4 # energy    1.98767111 # occ.  2.00000000
 
ion      s     py     pz     px    dxy    dyz    dz2    dxz  x2-y2    tot
    1  0.304  0.006  0.006  0.002  0.009  0.018  0.000  0.009  0.001  0.357
 
band     5 # energy    5.70303461 # occ.  2.00000000
 
ion      s     py     pz     px    dxy    dyz    dz2    dxz  x2-y2    tot
    1  0.007  0.002  0.002  0.004  0.338  0.064  0.000  0.338  0.000  0.755
 
band     6 # energy    6.39148921 # occ.  2.00000000
 
ion      s     py     pz     px    dxy    dyz    dz2    dxz  x2-y2    tot
    1  0.001  0.001  0.001  0.000  0.033  0.569  0.048  0.033  0.144  0.830
 
band     7 # energy    6.42015069 # occ.  2.00000000
 
ion      s     py     pz     px    dxy    dyz    dz2    dxz  x2-y2    tot
    1  0.000  0.000  0.000  0.000  0.343  0.000  0.115  0.343  0.038  0.840
 
band     8 # energy    7.51585157 # occ.  2.00000000
 
ion      s     py     pz     px    dxy    dyz    dz2    dxz  x2-y2    tot
    1  0.000  0.000  0.000  0.000  0.081  0.000  0.537  0.081  0.179  0.877
 
band     9 # energy    7.93355881 # occ.  2.00000000
 
ion      s     py     pz     px    dxy    dyz    dz2    dxz  x2-y2    tot
    1  0.002  0.000  0.000  0.000  0.011  0.179  0.172  0.011  0.517  0.893
 
band    10 # energy   22.31203713 # occ.  0.00000000
 
ion      s     py     pz     px    dxy    dyz    dz2    dxz  x2-y2    tot
    1  0.091  0.035  0.035  0.033  0.037  0.047  0.001  0.037  0.002  0.317
 
band    11 # energy   25.10708604 # occ.  0.00000000
 
ion      s     py     pz     px    dxy    dyz    dz2    dxz  x2-y2    tot
    1  0.001  0.000  0.000  0.008  0.034  0.003  0.001  0.034  0.002  0.082
 
band    12 # energy   28.28557463 # occ.  0.00000000
 
ion      s     py     pz     px    dxy    dyz    dz2    dxz  x2-y2    tot
    1  0.003  0.026  0.026  0.127  0.014  0.038  0.003  0.014  0.008  0.259
 
band    13 # energy   30.25239135 # occ.  0.00000000
 
ion      s     py     pz     px    dxy    dyz    dz2    dxz  x2-y2    tot
    1  0.029  0.053  0.053  0.008  0.000  0.014  0.003  0.000  0.010  0.170
 
band    14 # energy   30.42926165 # occ.  0.00000000
 
ion      s     py     pz     px    dxy    dyz    dz2    dxz  x2-y2    tot
    1  0.000  0.063  0.063  0.000  0.016  0.000  0.033  0.016  0.011  0.202
 
band    15 # energy   32.78555570 # occ.  0.00000000
 
ion      s     py     pz     px    dxy    dyz    dz2    dxz  x2-y2    tot
    1  0.000  0.082  0.082  0.000  0.030  0.000  0.051  0.030  0.017  0.293
 
band    16 # energy   33.45415266 # occ.  0.00000000
 
ion      s     py     pz     px    dxy    dyz    dz2    dxz  x2-y2    tot
    1  0.003  0.000  0.000  0.079  0.010  0.008  0.009  0.010  0.026  0.146
 
band    17 # energy   38.47601611 # occ.  0.00000000
 
ion      s     py     pz     px    dxy    dyz    dz2    dxz  x2-y2    tot
    1  0.000  0.090  0.090  0.000  0.108  0.000  0.029  0.108  0.010  0.436
 
band    18 # energy   39.36508284 # occ.  0.00000000
 
ion      s     py     pz     px    dxy    dyz    dz2    dxz  x2-y2    tot
    1  0.139  0.001  0.001  0.002  0.000  0.044  0.004  0.000  0.011  0.202
 
band    19 # energy   41.43310084 # occ.  0.00000000
 
ion      s     py     pz     px    dxy    dyz    dz2    dxz  x2-y2    tot
    1  0.016  0.049  0.049  0.074  0.003  0.170  0.008  0.003  0.023  0.395
 
band    20 # energy   43.42556939 # occ.  0.00000000
 
ion      s     py     pz     px    dxy    dyz    dz2    dxz  x2-y2    tot
    1  0.100  0.002  0.002  0.050  0.102  0.003  0.016  0.102  0.049  0.425
 
band    21 # energy   46.13173765 # occ.  0.00000000
 
ion      s     py     pz     px    dxy    dyz    dz2    dxz  x2-y2    tot
    1  0.004  0.010  0.010  0.149  0.020  0.024  0.020  0.020  0.060  0.317
 
band    22 # energy   48.11753508 # occ.  0.00000000
 
ion      s     py     pz     px    dxy    dyz    dz2    dxz  x2-y2    tot
    1  0.000  0.060  0.060  0.000  0.004  0.000  0.116  0.004  0.039  0.283
 
band    23 # energy   50.22530791 # occ.  0.00000000
 
ion      s     py     pz     px    dxy    dyz    dz2    dxz  x2-y2    tot
    1  6.292  0.000  0.000  0.000  0.000  0.000  0.000  0.000  0.000  6.292
 
band    24 # energy   54.77543624 # occ.  0.00000000
 
ion      s     py     pz     px    dxy    dyz    dz2    dxz  x2-y2    tot
    1  0.000  0.000  0.000  0.000  0.000  0.000  0.040  0.000  0.013  0.053
 

 k-point     4 :    0.35000000 0.05000000 0.05000000     weight = 0.00600000

band     1 # energy  -43.27771545 # occ.  2.00000000
 
ion      s     py     pz     px    dxy    dyz    dz2    dxz  x2-y2    tot
    1  0.000  0.360  0.360  0.269  0.000  0.000  0.000  0.000  0.000  0.988
 
band     2 # energy  -43.13968190 # occ.  2.00000000
 
ion      s     py     pz     px    dxy    dyz    dz2    dxz  x2-y2    tot
    1  0.000  0.135  0.135  0.723  0.000  0.000  0.000  0.000  0.000  0.994
 
band     3 # energy  -43.13114705 # occ.  2.00000000
 
ion      s     py     pz     px    dxy    dyz    dz2    dxz  x2-y2    tot
    1  0.000  0.497  0.497  0.000  0.000  0.000  0.000  0.000  0.000  0.994
 
band     4 # energy    2.94108755 # occ.  2.00000000
 
ion      s     py     pz     px    dxy    dyz    dz2    dxz  x2-y2    tot
    1  0.220  0.006  0.006  0.001  0.071  0.085  0.000  0.071  0.001  0.461
 
band     5 # energy    6.14495763 # occ.  2.00000000
 
ion      s     py     pz     px    dxy    dyz    dz2    dxz  x2-y2    tot
    1  0.032  0.006  0.006  0.011  0.272  0.019  0.016  0.272  0.048  0.682
 
band     6 # energy    6.29484383 # occ.  2.00000000
 
ion      s     py     pz     px    dxy    dyz    dz2    dxz  x2-y2    tot
    1  0.017  0.006  0.006  0.003  0.005  0.358  0.084  0.005  0.251  0.734
 
band     7 # energy    6.30477084 # occ.  2.00000000
 
ion      s     py     pz     px    dxy    dyz    dz2    dxz  x2-y2    tot
    1  0.000  0.000  0.000  0.000  0.215  0.000  0.301  0.215  0.100  0.831
 
band     8 # energy    8.01462503 # occ.  2.00000000
 
ion      s     py     pz     px    dxy    dyz    dz2    dxz  x2-y2    tot
    1  0.000  0.000  0.000  0.000  0.217  0.000  0.344  0.217  0.115  0.893
 
band     9 # energy    8.49961555 # occ.  2.00000000
 
ion      s     py     pz     px    dxy    dyz    dz2    dxz  x2-y2    tot
    1  0.007  0.002  0.002  0.000  0.024  0.365  0.118  0.024  0.354  0.896
 
band    10 # energy   18.64665769 # occ.  0.00000000
 
ion      s     py     pz     px    dxy    dyz    dz2    dxz  x2-y2    tot
    1  0.165  0.032  0.032  0.034  0.064  0.063  0.001  0.064  0.002  0.455
 
band    11 # energy   24.46302838 # occ.  0.00000000
 
ion      s     py     pz     px    dxy    dyz    dz2    dxz  x2-y2    tot
    1  0.000  0.002  0.002  0.011  0.021  0.001  0.001  0.021  0.003  0.062
 
band    12 # energy   27.41970117 # occ.  0.00000000
 
ion      s     py     pz     px    dxy    dyz    dz2    dxz  x2-y2    tot
    1  0.010  0.046  0.046  0.131  0.021  0.027  0.000  0.021  0.001  0.304
 
band    13 # energy   29.46549186 # occ.  0.00000000
 
ion      s     py     pz     px    dxy    dyz    dz2    dxz  x2-y2    tot
    1  0.000  0.125  0.125  0.000  0.024  0.000  0.009  0.024  0.003  0.310
 
band    14 # energy   31.35436320 # occ.  0.00000000
 
ion      s     py     pz     px    dxy    dyz    dz2    dxz  x2-y2    tot
    1  0.024  0.007  0.007  0.028  0.003  0.020  0.012  0.003  0.036  0.140
 
band    15 # energy   32.69733821 # occ.  0.00000000
 
ion      s     py     pz     px    dxy    dyz    dz2    dxz  x2-y2    tot
    1  0.000  0.005  0.005  0.000  0.014  0.000  0.124  0.014  0.041  0.203
 
band    16 # energy   33.56405401 # occ.  0.00000000
 
ion      s     py     pz     px    dxy    dyz    dz2    dxz  x2-y2    tot
    1  0.024  0.004  0.004  0.024  0.006  0.000  0.017  0.006  0.051  0.135
 
band    17 # energy   39.09703224 # occ.  0.00000000
 
ion      s     py     pz     px    dxy    dyz    dz2    dxz  x2-y2    tot
    1  0.000  0.100  0.100  0.000  0.078  0.000  0.019  0.078  0.006  0.380
 
band    18 # energy   40.79262801 # occ.  0.00000000
 
ion      s     py     pz     px    dxy    dyz    dz2    dxz  x2-y2    tot
    1  0.146  0.011  0.011  0.067  0.000  0.158  0.010  0.000  0.030  0.433
 
band    19 # energy   43.06292946 # occ.  0.00000000
 
ion      s     py     pz     px    dxy    dyz    dz2    dxz  x2-y2    tot
    1  0.095  0.028  0.028  0.056  0.071  0.003  0.009  0.071  0.028  0.390
 
band    20 # energy   45.23899343 # occ.  0.00000000
 
ion      s     py     pz     px    dxy    dyz    dz2    dxz  x2-y2    tot
    1  0.005  0.019  0.019  0.020  0.016  0.000  0.005  0.016  0.015  0.116
 
band    21 # energy   47.27386331 # occ.  0.00000000
 
ion      s     py     pz     px    dxy    dyz    dz2    dxz  x2-y2    tot
    1  0.003  0.011  0.011  0.083  0.010  0.057  0.003  0.010  0.009  0.198
 
band    22 # energy   48.94101558 # occ.  0.00000000
 
ion      s     py     pz     px    dxy    dyz    dz2    dxz  x2-y2    tot
    1  0.000  0.065  0.065  0.000  0.012  0.000  0.050  0.012  0.017  0.219
 
band    23 # energy   50.23215255 # occ.  0.00000000
 
ion      s     py     pz     px    dxy    dyz    dz2    dxz  x2-y2    tot
    1  6.294  0.000  0.000  0.000  0.000  0.000  0.000  0.000  0.000  6.294
 
band    24 # energy   53.52488587 # occ.  0.00000000
 
ion      s     py     pz     px    dxy    dyz    dz2    dxz  x2-y2    tot
    1  0.000  0.002  0.002  0.000  0.048  0.000  0.064  0.048  0.021  0.185
 

 k-point     5 :    0.45000000 0.05000000 0.05000000     weight = 0.00600000

band     1 # energy  -43.33190753 # occ.  2.00000000
 
ion      s     py     pz     px    dxy    dyz    dz2    dxz  x2-y2    tot
    1  0.000  0.340  0.340  0.306  0.000  0.000  0.000  0.000  0.000  0.986
 
band     2 # energy  -43.14712378 # occ.  2.00000000
 
ion      s     py     pz     px    dxy    dyz    dz2    dxz  x2-y2    tot
    1  0.000  0.154  0.154  0.685  0.000  0.000  0.000  0.000  0.000  0.993
 
band     3 # energy  -43.14065783 # occ.  2.00000000
 
ion      s     py     pz     px    dxy    dyz    dz2    dxz  x2-y2    tot
    1  0.000  0.497  0.497  0.000  0.000  0.000  0.000  0.000  0.000  0.994
 
band     4 # energy    3.25466713 # occ.  2.00000000
 
ion      s     py     pz     px    dxy    dyz    dz2    dxz  x2-y2    tot
    1  0.137  0.001  0.001  0.000  0.145  0.151  0.000  0.145  0.000  0.581
 
band     5 # energy    6.05840597 # occ.  2.00000000
 
ion      s     py     pz     px    dxy    dyz    dz2    dxz  x2-y2    tot
    1  0.000  0.000  0.000  0.000  0.056  0.244  0.115  0.056  0.346  0.817
 
band     6 # energy    6.13309218 # occ.  2.00000000
 
ion      s     py     pz     px    dxy    dyz    dz2    dxz  x2-y2    tot
    1  0.000  0.000  0.000  0.000  0.172  0.000  0.359  0.172  0.120  0.823
 
band     7 # energy    7.66315781 # occ.  2.00000000
 
ion      s     py     pz     px    dxy    dyz    dz2    dxz  x2-y2    tot
    1  0.043  0.024  0.024  0.025  0.124  0.014  0.023  0.124  0.068  0.470
 
band     8 # energy    8.63955472 # occ.  2.00000000
 
ion      s     py     pz     px    dxy    dyz    dz2    dxz  x2-y2    tot
    1  0.000  0.000  0.000  0.000  0.271  0.000  0.284  0.271  0.095  0.921
 
band     9 # energy    9.23264872 # occ.  0.00000000
 
ion      s     py     pz     px    dxy    dyz    dz2    dxz  x2-y2    tot
    1  0.025  0.010  0.010  0.006  0.015  0.403  0.078  0.015  0.233  0.793
 
band    10 # energy   15.12239149 # occ.  0.00000000
 
ion      s     py     pz     px    dxy    dyz    dz2    dxz  x2-y2    tot
    1  0.259  0.016  0.016  0.020  0.103  0.085  0.001  0.103  0.002  0.605
 
band    11 # energy   23.67502992 # occ.  0.00000000
 
ion      s     py     pz     px    dxy    dyz    dz2    dxz  x2-y2    tot
    1  0.000  0.002  0.002  0.006  0.006  0.000  0.001  0.006  0.004  0.028
 
band    12 # energy   26.36724296 # occ.  0.00000000
 
ion      s     py     pz     px    dxy    dyz    dz2    dxz  x2-y2    tot
    1  0.007  0.039  0.039  0.138  0.013  0.003  0.001  0.013  0.002  0.254
 
band    13 # energy   27.35884407 # occ.  0.00000000
 
ion      s     py     pz     px    dxy    dyz    dz2    dxz  x2-y2    tot
    1  0.000  0.111  0.111  0.000  0.004  0.000  0.010  0.004  0.003  0.244
 
band    14 # energy   33.51844343 # occ.  0.00000000
 
ion      s     py     pz     px    dxy    dyz    dz2    dxz  x2-y2    tot
    1  0.014  0.000  0.000  0.010  0.000  0.071  0.037  0.000  0.111  0.243
 
band    15 # energy   34.10846888 # occ.  0.00000000
 
ion      s     py     pz     px    dxy    dyz    dz2    dxz  x2-y2    tot
    1  0.000  0.002  0.002  0.000  0.045  0.000  0.166  0.045  0.055  0.315
 
band    16 # energy   34.96872480 # occ.  0.00000000
 
ion      s     py     pz     px    dxy    dyz    dz2    dxz  x2-y2    tot
    1  0.091  0.004  0.004  0.012  0.052  0.010  0.009  0.052  0.027  0.260
 
band    17 # energy   40.04531717 # occ.  0.00000000
 
ion      s     py     pz     px    dxy    dyz    dz2    dxz  x2-y2    tot
    1  0.000  0.125  0.125  0.000  0.024  0.000  0.001  0.024  0.000  0.299
 
band    18 # energy   41.02484037 # occ.  0.00000000
 
ion      s     py     pz     px    dxy    dyz    dz2    dxz  x2-y2    tot
    1  0.071  0.009  0.009  0.145  0.000  0.073  0.009  0.000  0.026  0.343
 
band    19 # energy   42.67691599 # occ.  0.00000000
 
ion      s     py     pz     px    dxy    dyz    dz2    dxz  x2-y2    tot
    1  0.047  0.059  0.059  0.018  0.030  0.008  0.002  0.030  0.007  0.260
 
band    20 # energy   47.14225501 # occ.  0.00000000
 
ion      s     py     pz     px    dxy    dyz    dz2    dxz  x2-y2    tot
    1  0.004  0.019  0.019  0.039  0.011  0.058  0.001  0.011  0.004  0.167
 
band    21 # energy   49.76198679 # occ.  0.00000000
 
ion      s     py     pz     px    dxy    dyz    dz2    dxz  x2-y2    tot
    1  0.000  0.053  0.053  0.000  0.005  0.000  0.016  0.005  0.005  0.138
 
band    22 # energy   49.96620503 # occ.  0.00000000
 
ion      s     py     pz     px    dxy    dyz    dz2    dxz  x2-y2    tot
    1  0.244  0.000  0.000  0.010  0.002  0.002  0.000  0.002  0.000  0.260
 
band    23 # energy   50.23855060 # occ.  0.00000000
 
ion      s     py     pz     px    dxy    dyz    dz2    dxz  x2-y2    tot
    1  6.137  0.000  0.000  0.000  0.000  0.000  0.000  0.000  0.000  6.137
 
band    24 # energy   50.76281888 # occ.  0.00000000
 
ion      s     py     pz     px    dxy    dyz    dz2    dxz  x2-y2    tot
    1  0.000  0.004  0.004  0.000  0.097  0.000  0.012  0.097  0.004  0.219
 

 k-point     6 :   -0.45000000 0.05000000 0.05000000     weight = 0.00600000

band     1 # energy  -43.34720067 # occ.  2.00000000
 
ion      s     py     pz     px    dxy    dyz    dz2    dxz  x2-y2    tot
    1  0.000  0.325  0.325  0.336  0.000  0.000  0.000  0.000  0.000  0.986
 
band     2 # energy  -43.14722508 # occ.  2.00000000
 
ion      s     py     pz     px    dxy    dyz    dz2    dxz  x2-y2    tot
    1  0.000  0.169  0.169  0.655  0.000  0.000  0.000  0.000  0.000  0.993
 
band     3 # energy  -43.14497046 # occ.  2.00000000
 
ion      s     py     pz     px    dxy    dyz    dz2    dxz  x2-y2    tot
    1  0.000  0.497  0.497  0.000  0.000  0.000  0.000  0.000  0.000  0.993
 
band     4 # energy    3.27882335 # occ.  2.00000000
 
ion      s     py     pz     px    dxy    dyz    dz2    dxz  x2-y2    tot
    1  0.119  0.000  0.000  0.001  0.159  0.168  0.000  0.159  0.000  0.606
 
band     5 # energy    5.99054515 # occ.  2.00000000
 
ion      s     py     pz     px    dxy    dyz    dz2    dxz  x2-y2    tot
    1  0.000  0.000  0.000  0.000  0.058  0.208  0.122  0.058  0.367  0.814
 
band     6 # energy    6.09251567 # occ.  2.00000000
 
ion      s     py     pz     px    dxy    dyz    dz2    dxz  x2-y2    tot
    1  0.000  0.000  0.000  0.000  0.169  0.000  0.362  0.169  0.121  0.820
 
band     7 # energy    8.22959051 # occ.  2.00000000
 
ion      s     py     pz     px    dxy    dyz    dz2    dxz  x2-y2    tot
    1  0.002  0.020  0.020  0.019  0.043  0.266  0.048  0.043  0.144  0.605
 
band     8 # energy    8.94085581 # occ.  0.78294072
 
ion      s     py     pz     px    dxy    dyz    dz2    dxz  x2-y2    tot
    1  0.000  0.000  0.000  0.000  0.279  0.000  0.284  0.279  0.095  0.936
 
band     9 # energy    9.80020481 # occ.  0.00000000
 
ion      s     py     pz     px    dxy    dyz    dz2    dxz  x2-y2    tot
    1  0.004  0.029  0.029  0.032  0.059  0.109  0.044  0.059  0.132  0.497
 
band    10 # energy   13.61416340 # occ.  0.00000000
 
ion      s     py     pz     px    dxy    dyz    dz2    dxz  x2-y2    tot
    1  0.344  0.002  0.002  0.001  0.130  0.140  0.000  0.130  0.000  0.748
 
band    11 # energy   23.45825134 # occ.  0.00000000
 
ion      s     py     pz     px    dxy    dyz    dz2    dxz  x2-y2    tot
    1  0.000  0.002  0.002  0.005  0.000  0.004  0.001  0.000  0.004  0.019
 
band    12 # energy   26.35649453 # occ.  0.00000000
 
ion      s     py     pz     px    dxy    dyz    dz2    dxz  x2-y2    tot
    1  0.007  0.036  0.036  0.141  0.003  0.004  0.002  0.003  0.006  0.238
 
band    13 # energy   26.44488210 # occ.  0.00000000
 
ion      s     py     pz     px    dxy    dyz    dz2    dxz  x2-y2    tot
    1  0.000  0.109  0.109  0.000  0.001  0.000  0.005  0.001  0.002  0.226
 
band    14 # energy   34.30470700 # occ.  0.00000000
 
ion      s     py     pz     px    dxy    dyz    dz2    dxz  x2-y2    tot
    1  0.000  0.000  0.000  0.000  0.047  0.000  0.166  0.047  0.055  0.316
 
band    15 # energy   34.44401471 # occ.  0.00000000
 
ion      s     py     pz     px    dxy    dyz    dz2    dxz  x2-y2    tot
    1  0.001  0.000  0.000  0.000  0.011  0.077  0.057  0.011  0.171  0.328
 
band    16 # energy   35.75504551 # occ.  0.00000000
 
ion      s     py     pz     px    dxy    dyz    dz2    dxz  x2-y2    tot
    1  0.150  0.002  0.002  0.001  0.068  0.056  0.000  0.068  0.000  0.348
 
band    17 # energy   40.41485811 # occ.  0.00000000
 
ion      s     py     pz     px    dxy    dyz    dz2    dxz  x2-y2    tot
    1  0.017  0.058  0.058  0.129  0.001  0.002  0.001  0.001  0.003  0.271
 
band    18 # energy   41.27197354 # occ.  0.00000000
 
ion      s     py     pz     px    dxy    dyz    dz2    dxz  x2-y2    tot
    1  0.000  0.140  0.140  0.000  0.001  0.000  0.012  0.001  0.004  0.298
 
band    19 # energy   41.93062290 # occ.  0.00000000
 
ion      s     py     pz     px    dxy    dyz    dz2    dxz  x2-y2    tot
    1  0.002  0.014  0.014  0.075  0.005  0.001  0.001  0.005  0.002  0.118
 
band    20 # energy   48.25091860 # occ.  0.00000000
 
ion      s     py     pz     px    dxy    dyz    dz2    dxz  x2-y2    tot
    1  0.000  0.022  0.022  0.000  0.052  0.000  0.001  0.052  0.000  0.150
 
band    21 # energy   48.91899584 # occ.  0.00000000
 
ion      s     py     pz     px    dxy    dyz    dz2    dxz  x2-y2    tot
    1  0.003  0.006  0.006  0.022  0.010  0.059  0.001  0.010  0.003  0.119
 
band    22 # energy   49.67316182 # occ.  0.00000000
 
ion      s     py     pz     px    dxy    dyz    dz2    dxz  x2-y2    tot
    1  0.303  0.003  0.003  0.001  0.000  0.074  0.000  0.000  0.001  0.386
 