   1   1   1   0
  0.1079736E+02  0.2480909E-09  0.2480909E-09  0.2480909E-09  0.5000000E-15
  1.000000000000000E-004
  CAR 
 Co-fcc                                  
     53.56020116     -0.93530060  301     10.39956349      1.00000000
     -0.935  0.0000E+00  0.0000E+00  0.0000E+00  0.0000E+00
     -0.754  0.0000E+00  0.0000E+00  0.0000E+00  0.0000E+00
     -0.572  0.0000E+00  0.0000E+00  0.0000E+00  0.0000E+00
     -0.390  0.0000E+00  0.0000E+00  0.0000E+00  0.0000E+00
     -0.209  0.0000E+00  0.0000E+00  0.0000E+00  0.0000E+00
     -0.027  0.0000E+00  0.0000E+00  0.0000E+00  0.0000E+00
      0.155  0.0000E+00  0.0000E+00  0.0000E+00  0.0000E+00
      0.336  0.0000E+00  0.0000E+00  0.0000E+00  0.0000E+00
      0.518  0.0000E+00  0.0000E+00  0.0000E+00  0.0000E+00
      0.700  0.0000E+00  0.0000E+00  0.0000E+00  0.0000E+00
      0.881  0.0000E+00  0.0000E+00  0.0000E+00  0.0000E+00
      1.063  0.0000E+00  0.0000E+00  0.0000E+00  0.0000E+00
      1.245  0.0000E+00  0.0000E+00  0.0000E+00  0.0000E+00
      1.426  0.1158E-06  0.1092E-06  0.2104E-07  0.1983E-07
      1.608  0.2083E-03  0.2080E-03  0.3786E-04  0.3781E-04
      1.789  0.6638E-05  0.6891E-05  0.3906E-04  0.3906E-04
      1.971  0.4674E-03  0.4483E-03  0.1240E-03  0.1205E-03
      2.153  0.1777E-03  0.1968E-03  0.1563E-03  0.1562E-03
      2.334  0.2485E-03  0.1961E-03  0.2014E-03  0.1919E-03
      2.516  0.3967E-03  0.4490E-03  0.2734E-03  0.2734E-03
      2.698  0.1841E-03  0.9382E-04  0.3069E-03  0.2905E-03
      2.879  0.6761E-03  0.7663E-03  0.4297E-03  0.4297E-03
      3.061  0.2242E-03  0.6407E-04  0.4704E-03  0.4413E-03
      3.243  0.1066E-02  0.1226E-02  0.6641E-03  0.6640E-03
      3.424  0.3233E-03  0.5826E-04  0.7228E-03  0.6746E-03
      3.606  0.3219E-03  0.5871E-03  0.7813E-03  0.7812E-03
      3.788  0.8544E-03  0.1271E-03  0.9364E-03  0.8043E-03
      3.969  0.4674E-03  0.1163E-02  0.1021E-02  0.1016E-02
      4.151  0.1859E-02  0.7761E-03  0.1359E-02  0.1157E-02
      4.333  0.2989E-03  0.1159E-02  0.1413E-02  0.1367E-02
      4.514  0.5964E-03  0.5629E-03  0.1522E-02  0.1469E-02
      4.696  0.1047E-02  0.2069E-03  0.1712E-02  0.1507E-02
      4.878  0.2202E-02  0.1342E-02  0.2112E-02  0.1751E-02
      5.059  0.1583E-02  0.1670E-02  0.2399E-02  0.2054E-02
      5.241  0.3009E-02  0.3163E-03  0.2946E-02  0.2112E-02
      5.423  0.4615E-02  0.1795E-02  0.3784E-02  0.2438E-02
      5.604  0.7499E-02  0.7624E-03  0.5146E-02  0.2576E-02
      5.786  0.5095E-02  0.1386E-02  0.6072E-02  0.2828E-02
      5.967  0.9188E-02  0.3148E-02  0.7741E-02  0.3400E-02
      6.149  0.8842E-02  0.1611E-02  0.9347E-02  0.3692E-02
      6.331  0.9365E-02  0.4106E-02  0.1105E-01  0.4438E-02
      6.512  0.7988E-02  0.4149E-02  0.1250E-01  0.5192E-02
      6.694  0.8394E-02  0.3996E-02  0.1402E-01  0.5918E-02
      6.876  0.8834E-02  0.5073E-02  0.1563E-01  0.6839E-02
      7.057  0.7221E-02  0.4474E-02  0.1694E-01  0.7652E-02
      7.239  0.9318E-02  0.7936E-02  0.1863E-01  0.9093E-02
      7.421  0.1201E-01  0.5309E-02  0.2082E-01  0.1006E-01
      7.602  0.1181E-01  0.1019E-01  0.2296E-01  0.1191E-01
      7.784  0.1377E-01  0.5409E-02  0.2546E-01  0.1289E-01
      7.966  0.1750E-01  0.8073E-02  0.2864E-01  0.1436E-01
      8.147  0.1369E-01  0.7072E-02  0.3113E-01  0.1564E-01
      8.329  0.9136E-02  0.5718E-02  0.3279E-01  0.1668E-01
      8.511  0.9847E-02  0.9856E-02  0.3457E-01  0.1847E-01
      8.692  0.1343E-01  0.1010E-01  0.3701E-01  0.2031E-01
      8.874  0.1264E-01  0.8160E-02  0.3931E-01  0.2179E-01
      9.056  0.1194E-01  0.1123E-01  0.4148E-01  0.2383E-01
      9.237  0.9299E-02  0.8964E-02  0.4317E-01  0.2546E-01
      9.419  0.1307E-01  0.1244E-01  0.4554E-01  0.2772E-01
      9.600  0.1198E-01  0.1235E-01  0.4772E-01  0.2996E-01
      9.782  0.1868E-01  0.9983E-02  0.5111E-01  0.3177E-01
      9.964  0.8452E-02  0.7140E-02  0.5265E-01  0.3307E-01
     10.145  0.1118E-02  0.7830E-02  0.5285E-01  0.3449E-01
     10.327  0.4245E-04  0.8880E-02  0.5286E-01  0.3611E-01
     10.509  0.8652E-03  0.1134E-01  0.5301E-01  0.3817E-01
     10.690  0.3390E-02  0.8335E-02  0.5363E-01  0.3968E-01
     10.872  0.1815E-02  0.1340E-01  0.5396E-01  0.4212E-01
     11.054  0.3488E-03  0.6135E-02  0.5402E-01  0.4323E-01
     11.235  0.1401E-02  0.1314E-01  0.5428E-01  0.4562E-01
     11.417  0.1294E-02  0.1171E-01  0.5451E-01  0.4774E-01
     11.599  0.2459E-02  0.2079E-01  0.5496E-01  0.5152E-01
     11.780  0.1092E-03  0.7309E-02  0.5498E-01  0.5285E-01
     11.962  0.1390E-02  0.3807E-03  0.5523E-01  0.5292E-01
     12.144  0.1733E-02  0.3782E-02  0.5555E-01  0.5360E-01
     12.325  0.3203E-04  0.3000E-02  0.5555E-01  0.5415E-01
     12.507  0.1960E-02  0.1776E-02  0.5591E-01  0.5447E-01
     12.689  0.9899E-03  0.1723E-03  0.5609E-01  0.5450E-01
     12.870  0.1540E-02  0.1393E-02  0.5637E-01  0.5476E-01
     13.052  0.3471E-02  0.2208E-02  0.5700E-01  0.5516E-01
     13.234  0.3941E-03  0.2162E-02  0.5707E-01  0.5555E-01
     13.415  0.5284E-10  0.2365E-02  0.5707E-01  0.5598E-01
     13.597  0.4672E-03  0.7179E-03  0.5716E-01  0.5611E-01
     13.778  0.8230E-03  0.1423E-02  0.5730E-01  0.5637E-01
     13.960  0.7289E-03  0.1587E-02  0.5744E-01  0.5666E-01
     14.142  0.3141E-02  0.2269E-02  0.5801E-01  0.5707E-01
     14.323  0.8684E-03  0.5669E-05  0.5817E-01  0.5707E-01
     14.505  0.1067E-02  0.1229E-02  0.5836E-01  0.5729E-01
     14.687  0.8350E-06  0.1353E-02  0.5836E-01  0.5754E-01
     14.868  0.7547E-03  0.2321E-02  0.5850E-01  0.5796E-01
     15.050  0.2470E-02  0.2581E-03  0.5895E-01  0.5801E-01
     15.232  0.4676E-06  0.1741E-02  0.5895E-01  0.5832E-01
     15.413  0.2171E-03  0.6391E-03  0.5898E-01  0.5844E-01
     15.595  0.1073E-02  0.2104E-03  0.5918E-01  0.5848E-01
     15.777  0.1620E-05  0.2508E-02  0.5918E-01  0.5893E-01
     15.958  0.6586E-03  0.1012E-03  0.5930E-01  0.5895E-01
     16.140  0.1273E-02  0.1251E-02  0.5953E-01  0.5918E-01
     16.322  0.1053E-02  0.7316E-06  0.5972E-01  0.5918E-01
     16.503  0.2390E-03  0.2923E-04  0.5977E-01  0.5918E-01
     16.685  0.4739E-04  0.1757E-02  0.5977E-01  0.5950E-01
     16.867  0.1213E-02  0.1524E-03  0.5999E-01  0.5953E-01
     17.048  0.2185E-02  0.1275E-02  0.6039E-01  0.5976E-01
     17.230  0.1656E-02  0.1112E-04  0.6069E-01  0.5977E-01
     17.412  0.7769E-03  0.1874E-10  0.6083E-01  0.5977E-01
     17.593  0.2099E-02  0.4414E-03  0.6121E-01  0.5985E-01
     17.775  0.1440E-02  0.2312E-02  0.6148E-01  0.6027E-01
     17.956  0.1189E-02  0.1611E-02  0.6169E-01  0.6056E-01
     18.138  0.1227E-02  0.2092E-02  0.6191E-01  0.6094E-01
     18.320  0.2551E-02  0.1312E-02  0.6238E-01  0.6118E-01
     18.501  0.2582E-04  0.2408E-02  0.6238E-01  0.6161E-01
     18.683  0.8995E-04  0.4584E-03  0.6240E-01  0.6170E-01
     18.865  0.2822E-02  0.2509E-02  0.6291E-01  0.6215E-01
     19.046  0.1632E-02  0.1264E-02  0.6321E-01  0.6238E-01
     19.228  0.6163E-03  0.5541E-05  0.6332E-01  0.6238E-01
     19.410  0.2259E-02  0.2704E-02  0.6373E-01  0.6287E-01
     19.591  0.3212E-03  0.1330E-02  0.6379E-01  0.6312E-01
     19.773  0.1656E-03  0.7392E-03  0.6382E-01  0.6325E-01
     19.955  0.1278E-02  0.1620E-02  0.6405E-01  0.6354E-01
     20.136  0.1136E-02  0.1343E-02  0.6426E-01  0.6379E-01
     20.318  0.8975E-03  0.5651E-04  0.6442E-01  0.6380E-01
     20.500  0.2620E-02  0.1563E-02  0.6490E-01  0.6408E-01
     20.681  0.1645E-02  0.9502E-03  0.6520E-01  0.6426E-01
     20.863  0.1261E-02  0.1061E-02  0.6542E-01  0.6445E-01
     21.045  0.9029E-03  0.1536E-02  0.6559E-01  0.6473E-01
     21.226  0.3532E-02  0.1140E-02  0.6623E-01  0.6493E-01
     21.408  0.2650E-02  0.2605E-02  0.6671E-01  0.6541E-01
     21.590  0.1045E-02  0.1749E-02  0.6690E-01  0.6573E-01
     21.771  0.1282E-02  0.2196E-02  0.6713E-01  0.6612E-01
     21.953  0.1579E-02  0.2873E-02  0.6742E-01  0.6665E-01
     22.134  0.1239E-02  0.1566E-02  0.6765E-01  0.6693E-01
     22.316  0.2684E-03  0.1285E-02  0.6769E-01  0.6716E-01
     22.498  0.1591E-02  0.1597E-02  0.6798E-01  0.6745E-01
     22.679  0.3234E-02  0.1113E-02  0.6857E-01  0.6766E-01
     22.861  0.3437E-02  0.2235E-03  0.6920E-01  0.6770E-01
     23.043  0.7225E-03  0.3533E-02  0.6933E-01  0.6834E-01
     23.224  0.7381E-03  0.3025E-02  0.6946E-01  0.6889E-01
     23.406  0.4849E-02  0.1832E-02  0.7034E-01  0.6922E-01
     23.588  0.1510E-02  0.1171E-02  0.7062E-01  0.6943E-01
     23.769  0.7531E-03  0.1674E-02  0.7075E-01  0.6974E-01
     23.951  0.2002E-02  0.4341E-02  0.7112E-01  0.7053E-01
     24.133  0.1163E-02  0.5928E-03  0.7133E-01  0.7063E-01
     24.314  0.7547E-03  0.2587E-02  0.7147E-01  0.7110E-01
     24.496  0.3336E-02  0.1231E-02  0.7207E-01  0.7133E-01
     24.678  0.3649E-02  0.3923E-03  0.7273E-01  0.7140E-01
     24.859  0.1404E-02  0.2748E-02  0.7299E-01  0.7190E-01
     25.041  0.1337E-02  0.4581E-02  0.7323E-01  0.7273E-01
     25.223  0.2669E-02  0.8689E-03  0.7372E-01  0.7289E-01
     25.404  0.1686E-02  0.3604E-02  0.7402E-01  0.7354E-01
     25.586  0.1705E-02  0.8201E-03  0.7433E-01  0.7369E-01
     25.767  0.2161E-02  0.2078E-02  0.7473E-01  0.7407E-01
     25.949  0.1275E-02  0.2791E-02  0.7496E-01  0.7458E-01
     26.131  0.3012E-02  0.8258E-03  0.7550E-01  0.7473E-01
     26.312  0.3103E-02  0.1447E-02  0.7607E-01  0.7499E-01
     26.494  0.1658E-02  0.3906E-02  0.7637E-01  0.7570E-01
     26.676  0.1688E-02  0.2657E-02  0.7668E-01  0.7618E-01
     26.857  0.2935E-02  0.1050E-02  0.7721E-01  0.7637E-01
     27.039  0.2987E-02  0.2065E-02  0.7775E-01  0.7675E-01
     27.221  0.1408E-02  0.3078E-02  0.7801E-01  0.7731E-01
     27.402  0.1046E-02  0.2695E-02  0.7820E-01  0.7780E-01
     27.584  0.3743E-02  0.1179E-02  0.7888E-01  0.7801E-01
     27.766  0.8622E-03  0.3393E-02  0.7903E-01  0.7863E-01
     27.947  0.2093E-02  0.1746E-02  0.7941E-01  0.7894E-01
     28.129  0.1155E-03  0.1825E-02  0.7944E-01  0.7928E-01
     28.311  0.3955E-02  0.7634E-03  0.8015E-01  0.7941E-01
     28.492  0.4213E-03  0.1666E-02  0.8023E-01  0.7972E-01
     28.674  0.1542E-02  0.2419E-02  0.8051E-01  0.8016E-01
     28.856  0.2496E-02  0.1790E-02  0.8096E-01  0.8048E-01
     29.037  0.1207E-02  0.1455E-02  0.8118E-01  0.8075E-01
     29.219  0.3259E-02  0.1857E-02  0.8177E-01  0.8108E-01
     29.401  0.1659E-02  0.2595E-02  0.8208E-01  0.8155E-01
     29.582  0.1648E-02  0.2570E-02  0.8238E-01  0.8202E-01
     29.764  0.6863E-03  0.1502E-02  0.8250E-01  0.8229E-01
     29.945  0.1231E-02  0.1132E-02  0.8272E-01  0.8250E-01
     30.127  0.1688E-02  0.2407E-03  0.8303E-01  0.8254E-01
     30.309  0.2274E-02  0.2322E-02  0.8344E-01  0.8297E-01
     30.490  0.2242E-02  0.3220E-02  0.8385E-01  0.8355E-01
     30.672  0.1982E-02  0.1316E-02  0.8421E-01  0.8379E-01
     30.854  0.1366E-02  0.2166E-02  0.8446E-01  0.8418E-01
     31.035  0.8003E-03  0.5598E-03  0.8460E-01  0.8428E-01
     31.217  0.2519E-02  0.1148E-02  0.8506E-01  0.8449E-01
     31.399  0.8431E-03  0.3348E-02  0.8521E-01  0.8510E-01
     31.580  0.2479E-02  0.1174E-02  0.8566E-01  0.8531E-01
     31.762  0.1812E-02  0.2107E-02  0.8599E-01  0.8570E-01
     31.944  0.2006E-02  0.2707E-02  0.8636E-01  0.8619E-01
     32.125  0.3416E-02  0.1491E-02  0.8698E-01  0.8646E-01
     32.307  0.1495E-02  0.2464E-02  0.8725E-01  0.8691E-01
     32.489  0.3040E-02  0.1758E-02  0.8780E-01  0.8723E-01
     32.670  0.1956E-02  0.2155E-02  0.8816E-01  0.8762E-01
     32.852  0.1746E-02  0.2123E-02  0.8848E-01  0.8800E-01
     33.034  0.7740E-03  0.2333E-02  0.8862E-01  0.8843E-01
     33.215  0.3062E-02  0.2813E-02  0.8917E-01  0.8894E-01
     33.397  0.5664E-02  0.2493E-02  0.9020E-01  0.8939E-01
     33.579  0.1423E-02  0.4055E-02  0.9046E-01  0.9013E-01
     33.760  0.2356E-02  0.1608E-02  0.9089E-01  0.9042E-01
     33.942  0.1699E-02  0.2182E-02  0.9120E-01  0.9082E-01
     34.123  0.2383E-02  0.2301E-02  0.9163E-01  0.9123E-01
     34.305  0.3465E-02  0.2866E-02  0.9226E-01  0.9175E-01
     34.487  0.1161E-02  0.2307E-02  0.9247E-01  0.9217E-01
     34.668  0.4303E-02  0.3014E-02  0.9325E-01  0.9272E-01
     34.850  0.9456E-03  0.3356E-02  0.9342E-01  0.9333E-01
     35.032  0.3239E-02  0.9706E-03  0.9401E-01  0.9351E-01
     35.213  0.1323E-02  0.2193E-02  0.9425E-01  0.9391E-01
     35.395  0.2487E-02  0.1390E-02  0.9470E-01  0.9416E-01
     35.577  0.4022E-02  0.2985E-02  0.9543E-01  0.9470E-01
     35.758  0.3467E-02  0.4056E-02  0.9606E-01  0.9544E-01
     35.940  0.1247E-02  0.2911E-02  0.9629E-01  0.9597E-01
     36.122  0.2498E-02  0.1448E-02  0.9674E-01  0.9623E-01
     36.303  0.2064E-02  0.2176E-02  0.9712E-01  0.9662E-01
     36.485  0.2423E-02  0.3398E-02  0.9756E-01  0.9724E-01
     36.667  0.3962E-02  0.2770E-02  0.9828E-01  0.9774E-01
     36.848  0.1520E-02  0.2793E-02  0.9856E-01  0.9825E-01
     37.030  0.6181E-03  0.1462E-02  0.9867E-01  0.9852E-01
     37.212  0.1188E-02  0.6328E-03  0.9888E-01  0.9863E-01
     37.393  0.1921E-02  0.3524E-03  0.9923E-01  0.9870E-01
     37.575  0.1279E-02  0.2783E-02  0.9946E-01  0.9920E-01
     37.757  0.3753E-02  0.2422E-02  0.1001E+00  0.9964E-01
     37.938  0.4854E-03  0.1969E-02  0.1002E+00  0.1000E+00
     38.120  0.1752E-05  0.5475E-03  0.1002E+00  0.1001E+00
     38.301  0.9081E-03  0.7428E-03  0.1004E+00  0.1002E+00
     38.483  0.1141E-02  0.6422E-04  0.1006E+00  0.1002E+00
     38.665  0.4522E-02  0.3067E-02  0.1014E+00  0.1008E+00
     38.846  0.1461E-02  0.2338E-02  0.1017E+00  0.1012E+00
     39.028  0.1036E-02  0.1520E-02  0.1019E+00  0.1015E+00
     39.210  0.6307E-03  0.1899E-02  0.1020E+00  0.1018E+00
     39.391  0.1357E-02  0.8807E-03  0.1022E+00  0.1020E+00
     39.573  0.2735E-02  0.4996E-03  0.1027E+00  0.1021E+00
     39.755  0.2024E-02  0.3063E-02  0.1031E+00  0.1027E+00
     39.936  0.1229E-02  0.1881E-02  0.1033E+00  0.1030E+00
     40.118  0.8239E-02  0.2740E-02  0.1048E+00  0.1035E+00
     40.300  0.3679E-02  0.3035E-02  0.1055E+00  0.1040E+00
     40.481  0.3530E-02  0.8036E-02  0.1061E+00  0.1055E+00
     40.663  0.1403E-02  0.4633E-02  0.1064E+00  0.1063E+00
     40.845  0.2425E-02  0.1110E-02  0.1068E+00  0.1065E+00
     41.026  0.3008E-02  0.1575E-02  0.1074E+00  0.1068E+00
     41.208  0.1478E-02  0.1303E-02  0.1076E+00  0.1071E+00
     41.390  0.1349E-02  0.2400E-02  0.1079E+00  0.1075E+00
     41.571  0.2713E-02  0.1728E-02  0.1084E+00  0.1078E+00
     41.753  0.3280E-02  0.2402E-02  0.1090E+00  0.1083E+00
     41.934  0.1810E-02  0.4802E-02  0.1093E+00  0.1091E+00
     42.116  0.2484E-02  0.2132E-02  0.1098E+00  0.1095E+00
     42.298  0.1490E-03  0.1360E-02  0.1098E+00  0.1098E+00
     42.479  0.3172E-02  0.1597E-04  0.1104E+00  0.1098E+00
     42.661  0.5137E-02  0.3460E-02  0.1113E+00  0.1104E+00
     42.843  0.1738E-02  0.2025E-02  0.1116E+00  0.1108E+00
     43.024  0.1014E-02  0.5309E-02  0.1118E+00  0.1117E+00
     43.206  0.5069E-05  0.3734E-03  0.1118E+00  0.1118E+00
     43.388  0.3507E-02  0.1308E-02  0.1124E+00  0.1120E+00
     43.569  0.7074E-03  0.1319E-02  0.1126E+00  0.1123E+00
     43.751  0.2529E-02  0.1524E-02  0.1130E+00  0.1126E+00
     43.933  0.3019E-02  0.3908E-02  0.1136E+00  0.1133E+00
     44.114  0.3002E-02  0.1726E-02  0.1141E+00  0.1136E+00
     44.296  0.1598E-03  0.8974E-03  0.1141E+00  0.1137E+00
     44.478  0.1357E-02  0.2889E-02  0.1144E+00  0.1143E+00
     44.659  0.1894E-02  0.7794E-03  0.1147E+00  0.1144E+00
     44.841  0.1239E-02  0.4883E-03  0.1150E+00  0.1145E+00
     45.023  0.4411E-04  0.1097E-02  0.1150E+00  0.1147E+00
     45.204  0.2296E-02  0.9717E-03  0.1154E+00  0.1149E+00
     45.386  0.2805E-02  0.2639E-02  0.1159E+00  0.1153E+00
     45.568  0.2327E-02  0.1740E-02  0.1163E+00  0.1157E+00
     45.749  0.1559E-02  0.1581E-02  0.1166E+00  0.1160E+00
     45.931  0.1253E-02  0.1648E-02  0.1168E+00  0.1163E+00
     46.112  0.3752E-04  0.1662E-02  0.1168E+00  0.1166E+00
     46.294  0.1588E-02  0.1789E-02  0.1171E+00  0.1169E+00
     46.476  0.2285E-02  0.1492E-02  0.1175E+00  0.1171E+00
     46.657  0.3158E-02  0.1445E-02  0.1181E+00  0.1174E+00
     46.839  0.4683E-03  0.1350E-02  0.1182E+00  0.1177E+00
     47.021  0.3232E-02  0.7152E-05  0.1188E+00  0.1177E+00
     47.202  0.2942E-03  0.1903E-02  0.1188E+00  0.1180E+00
     47.384  0.4182E-02  0.1315E-02  0.1196E+00  0.1182E+00
     47.566  0.2191E-02  0.1030E-02  0.1200E+00  0.1184E+00
     47.747  0.1972E-04  0.9079E-03  0.1200E+00  0.1186E+00
     47.929  0.0000E+00  0.1379E-08  0.1200E+00  0.1186E+00
     48.111  0.0000E+00  0.1312E-03  0.1200E+00  0.1186E+00
     48.292  0.0000E+00  0.1159E-02  0.1200E+00  0.1188E+00
     48.474  0.0000E+00  0.7135E-07  0.1200E+00  0.1188E+00
     48.656  0.0000E+00  0.0000E+00  0.1200E+00  0.1188E+00
     48.837  0.0000E+00  0.2836E-08  0.1200E+00  0.1188E+00
     49.019  0.0000E+00  0.4981E-03  0.1200E+00  0.1189E+00
     49.201  0.0000E+00  0.1158E-02  0.1200E+00  0.1191E+00
     49.382  0.0000E+00  0.9241E-03  0.1200E+00  0.1193E+00
     49.564  0.0000E+00  0.3172E-08  0.1200E+00  0.1193E+00
     49.746  0.0000E+00  0.0000E+00  0.1200E+00  0.1193E+00
     49.927  0.0000E+00  0.2924E-14  0.1200E+00  0.1193E+00
     50.109  0.0000E+00  0.2981E-04  0.1200E+00  0.1193E+00
     50.290  0.0000E+00  0.6152E-03  0.1200E+00  0.1194E+00
     50.472  0.0000E+00  0.1137E-02  0.1200E+00  0.1196E+00
     50.654  0.0000E+00  0.1533E-03  0.1200E+00  0.1196E+00
     50.835  0.0000E+00  0.4695E-03  0.1200E+00  0.1197E+00
     51.017  0.0000E+00  0.7921E-03  0.1200E+00  0.1199E+00
     51.199  0.0000E+00  0.6734E-03  0.1200E+00  0.1200E+00
     51.380  0.0000E+00  0.3474E-06  0.1200E+00  0.1200E+00
     51.562  0.0000E+00  0.0000E+00  0.1200E+00  0.1200E+00
     51.744  0.0000E+00  0.0000E+00  0.1200E+00  0.1200E+00
     51.925  0.0000E+00  0.0000E+00  0.1200E+00  0.1200E+00
     52.107  0.0000E+00  0.0000E+00  0.1200E+00  0.1200E+00
     52.289  0.0000E+00  0.0000E+00  0.1200E+00  0.1200E+00
     52.470  0.0000E+00  0.0000E+00  0.1200E+00  0.1200E+00
     52.652  0.0000E+00  0.0000E+00  0.1200E+00  0.1200E+00
     52.834  0.0000E+00  0.0000E+00  0.1200E+00  0.1200E+00
     53.015  0.0000E+00  0.0000E+00  0.1200E+00  0.1200E+00
     53.197  0.0000E+00  0.0000E+00  0.1200E+00  0.1200E+00
     53.379  0.0000E+00  0.0000E+00  0.1200E+00  0.1200E+00
     53.560  0.0000E+00  0.0000E+00  0.1200E+00  0.1200E+00
     53.56020116     -0.93530060  301     10.39956349      1.00000000
     -0.935  0.0000E+00  0.0000E+00  0.0000E+00  0.0000E+00  0.0000E+00  0.0000E+00  0.0000E+00  0.0000E+00  0.0000E+00  0.0000E+00  0.0000E+00  0.0000E+00  0.0000E+00  0.0000E+00  0.0000E+00  0.0000E+00  0.0000E+00  0.0000E+00
     -0.754  0.0000E+00  0.0000E+00  0.0000E+00  0.0000E+00  0.0000E+00  0.0000E+00  0.0000E+00  0.0000E+00  0.0000E+00  0.0000E+00  0.0000E+00  0.0000E+00  0.0000E+00  0.0000E+00  0.0000E+00  0.0000E+00  0.0000E+00  0.0000E+00
     -0.572  0.0000E+00  0.0000E+00  0.0000E+00  0.0000E+00  0.0000E+00  0.0000E+00  0.0000E+00  0.0000E+00  0.0000E+00  0.0000E+00  0.0000E+00  0.0000E+00  0.0000E+00  0.0000E+00  0.0000E+00  0.0000E+00  0.0000E+00  0.0000E+00
     -0.390  0.0000E+00  0.0000E+00  0.0000E+00  0.0000E+00  0.0000E+00  0.0000E+00  0.0000E+00  0.0000E+00  0.0000E+00  0.0000E+00  0.0000E+00  0.0000E+00  0.0000E+00  0.0000E+00  0.0000E+00  0.0000E+00  0.0000E+00  0.0000E+00
     -0.209  0.0000E+00  0.0000E+00  0.0000E+00  0.0000E+00  0.0000E+00  0.0000E+00  0.0000E+00  0.0000E+00  0.0000E+00  0.0000E+00  0.0000E+00  0.0000E+00  0.0000E+00  0.0000E+00  0.0000E+00  0.0000E+00  0.0000E+00  0.0000E+00
     -0.027  0.0000E+00  0.0000E+00  0.0000E+00  0.0000E+00  0.0000E+00  0.0000E+00  0.0000E+00  0.0000E+00  0.0000E+00  0.0000E+00  0.0000E+00  0.0000E+00  0.0000E+00  0.0000E+00  0.0000E+00  0.0000E+00  0.0000E+00  0.0000E+00
      0.155  0.0000E+00  0.0000E+00  0.0000E+00  0.0000E+00  0.0000E+00  0.0000E+00  0.0000E+00  0.0000E+00  0.0000E+00  0.0000E+00  0.0000E+00  0.0000E+00  0.0000E+00  0.0000E+00  0.0000E+00  0.0000E+00  0.0000E+00  0.0000E+00
      0.336  0.0000E+00  0.0000E+00  0.0000E+00  0.0000E+00  0.0000E+00  0.0000E+00  0.0000E+00  0.0000E+00  0.0000E+00  0.0000E+00  0.0000E+00  0.0000E+00  0.0000E+00  0.0000E+00  0.0000E+00  0.0000E+00  0.0000E+00  0.0000E+00
      0.518  0.0000E+00  0.0000E+00  0.0000E+00  0.0000E+00  0.0000E+00  0.0000E+00  0.0000E+00  0.0000E+00  0.0000E+00  0.0000E+00  0.0000E+00  0.0000E+00  0.0000E+00  0.0000E+00  0.0000E+00  0.0000E+00  0.0000E+00  0.0000E+00
      0.700  0.0000E+00  0.0000E+00  0.0000E+00  0.0000E+00  0.0000E+00  0.0000E+00  0.0000E+00  0.0000E+00  0.0000E+00  0.0000E+00  0.0000E+00  0.0000E+00  0.0000E+00  0.0000E+00  0.0000E+00  0.0000E+00  0.0000E+00  0.0000E+00
      0.881  0.0000E+00  0.0000E+00  0.0000E+00  0.0000E+00  0.0000E+00  0.0000E+00  0.0000E+00  0.0000E+00  0.0000E+00  0.0000E+00  0.0000E+00  0.0000E+00  0.0000E+00  0.0000E+00  0.0000E+00  0.0000E+00  0.0000E+00  0.0000E+00
      1.063  0.0000E+00  0.0000E+00  0.0000E+00  0.0000E+00  0.0000E+00  0.0000E+00  0.0000E+00  0.0000E+00  0.0000E+00  0.0000E+00  0.0000E+00  0.0000E+00  0.0000E+00  0.0000E+00  0.0000E+00  0.0000E+00  0.0000E+00  0.0000E+00
      1.245  0.0000E+00  0.0000E+00  0.0000E+00  0.0000E+00  0.0000E+00  0.0000E+00  0.0000E+00  0.0000E+00  0.0000E+00  0.0000E+00  0.0000E+00  0.0000E+00  0.0000E+00  0.0000E+00  0.0000E+00  0.0000E+00  0.0000E+00  0.0000E+00
      1.426  0.8316E-05  0.7836E-05  0.4118E-07  0.3900E-07  0.4118E-07  0.3900E-07  0.4118E-07  0.3900E-07  0.6460E-09  0.4550E-09  0.6460E-09  0.4550E-09  0.8461E-24  0.5839E-22  0.6460E-09  0.4550E-09  0.8461E-24  0.5839E-22
      1.608  0.1496E-01  0.1493E-01  0.7406E-04  0.7433E-04  0.7406E-04  0.7433E-04  0.7406E-04  0.7433E-04  0.1162E-05  0.8670E-06  0.1162E-05  0.8670E-06  0.1522E-20  0.1113E-18  0.1162E-05  0.8670E-06  0.1522E-20  0.1113E-18
      1.789  0.4766E-03  0.4946E-03  0.2362E-05  0.2463E-05  0.2362E-05  0.2463E-05  0.2362E-05  0.2463E-05  0.3708E-07  0.2875E-07  0.3708E-07  0.2875E-07  0.8883E-10  0.4378E-10  0.3708E-07  0.2875E-07  0.8883E-10  0.4378E-10
      1.971  0.3223E-01  0.3090E-01  0.5934E-03  0.5728E-03  0.5934E-03  0.5728E-03  0.5934E-03  0.5728E-03  0.1724E-04  0.1209E-04  0.1724E-04  0.1209E-04  0.2306E-04  0.1647E-04  0.1724E-04  0.1209E-04  0.2306E-04  0.1647E-04
      2.153  0.1225E-01  0.1356E-01  0.2256E-03  0.2514E-03  0.2256E-03  0.2514E-03  0.2256E-03  0.2514E-03  0.6557E-05  0.5308E-05  0.6557E-05  0.5308E-05  0.8767E-05  0.7230E-05  0.6557E-05  0.5308E-05  0.8767E-05  0.7230E-05
      2.334  0.1642E-01  0.1297E-01  0.5225E-03  0.4174E-03  0.5225E-03  0.4174E-03  0.5225E-03  0.4174E-03  0.5108E-04  0.2874E-04  0.5108E-04  0.2874E-04  0.1151E-04  0.6799E-05  0.5108E-04  0.2874E-04  0.1151E-04  0.6799E-05
      2.516  0.2622E-01  0.2968E-01  0.8342E-03  0.9555E-03  0.8342E-03  0.9555E-03  0.8342E-03  0.9555E-03  0.8155E-04  0.6580E-04  0.8155E-04  0.6580E-04  0.1838E-04  0.1557E-04  0.8155E-04  0.6580E-04  0.1838E-04  0.1557E-04
      2.698  0.1160E-01  0.5928E-02  0.5328E-03  0.2761E-03  0.5328E-03  0.2761E-03  0.5328E-03  0.2761E-03  0.4936E-04  0.1692E-04  0.4936E-04  0.1692E-04  0.6870E-04  0.2478E-04  0.4936E-04  0.1692E-04  0.6870E-04  0.2478E-04
      2.879  0.4261E-01  0.4841E-01  0.1965E-02  0.2260E-02  0.1965E-02  0.2260E-02  0.1965E-02  0.2260E-02  0.1517E-03  0.1210E-03  0.1517E-03  0.1210E-03  0.2838E-03  0.2214E-03  0.1517E-03  0.1210E-03  0.2838E-03  0.2214E-03
      3.061  0.1348E-01  0.3870E-02  0.8097E-03  0.2365E-03  0.8097E-03  0.2365E-03  0.8097E-03  0.2365E-03  0.1309E-03  0.2561E-04  0.1309E-03  0.2561E-04  0.9150E-04  0.1827E-04  0.1309E-03  0.2561E-04  0.9150E-04  0.1827E-04
      3.243  0.6409E-01  0.7404E-01  0.3850E-02  0.4525E-02  0.3850E-02  0.4525E-02  0.3850E-02  0.4525E-02  0.6223E-03  0.4902E-03  0.6223E-03  0.4902E-03  0.4351E-03  0.3496E-03  0.6223E-03  0.4902E-03  0.4351E-03  0.3496E-03
      3.424  0.1841E-01  0.3359E-02  0.1292E-02  0.2448E-03  0.1292E-02  0.2448E-03  0.1292E-02  0.2448E-03  0.5134E-03  0.5882E-04  0.5134E-03  0.5882E-04  0.7805E-04  0.9784E-05  0.5134E-03  0.5882E-04  0.7805E-04  0.9784E-05
      3.606  0.1833E-01  0.3384E-01  0.1286E-02  0.2469E-02  0.1286E-02  0.2469E-02  0.1286E-02  0.2469E-02  0.5112E-03  0.5946E-03  0.5112E-03  0.5946E-03  0.7772E-04  0.9822E-04  0.5112E-03  0.5946E-03  0.7772E-04  0.9822E-04
      3.788  0.4556E-01  0.6907E-02  0.4104E-02  0.6374E-03  0.4104E-02  0.6374E-03  0.4104E-02  0.6374E-03  0.7347E-03  0.6912E-04  0.7347E-03  0.6912E-04  0.1648E-02  0.1618E-03  0.7347E-03  0.6912E-04  0.1648E-02  0.1618E-03
      3.969  0.2492E-01  0.6328E-01  0.2232E-02  0.5826E-02  0.2232E-02  0.5826E-02  0.2232E-02  0.5826E-02  0.6193E-03  0.7425E-03  0.6193E-03  0.7425E-03  0.6310E-03  0.1296E-02  0.6193E-03  0.7425E-03  0.6310E-03  0.1296E-02
      4.151  0.9293E-01  0.4011E-01  0.9343E-02  0.4112E-02  0.9343E-02  0.4112E-02  0.9343E-02  0.4112E-02  0.3915E-02  0.1281E-02  0.3915E-02  0.1281E-02  0.3364E-02  0.6439E-03  0.3915E-02  0.1281E-02  0.3364E-02  0.6439E-03
      4.333  0.1402E-01  0.5970E-01  0.1544E-02  0.6352E-02  0.1544E-02  0.6352E-02  0.1544E-02  0.6352E-02  0.9090E-03  0.1282E-02  0.9090E-03  0.1282E-02  0.6267E-03  0.1555E-02  0.9090E-03  0.1282E-02  0.6267E-03  0.1555E-02
      4.514  0.2674E-01  0.2739E-01  0.2794E-02  0.3235E-02  0.2794E-02  0.3235E-02  0.2794E-02  0.3235E-02  0.3063E-02  0.1134E-02  0.3063E-02  0.1134E-02  0.7858E-03  0.7262E-03  0.3063E-02  0.1134E-02  0.7858E-03  0.7262E-03
      4.696  0.4554E-01  0.9733E-02  0.6134E-02  0.1095E-02  0.6134E-02  0.1095E-02  0.6134E-02  0.1095E-02  0.3840E-02  0.8046E-03  0.3840E-02  0.8046E-03  0.2133E-02  0.1070E-03  0.3840E-02  0.8046E-03  0.2133E-02  0.1070E-03
      4.878  0.8474E-01  0.6162E-01  0.1087E-01  0.8564E-02  0.1087E-01  0.8564E-02  0.1087E-01  0.8564E-02  0.1171E-01  0.3334E-02  0.1171E-01  0.3334E-02  0.9710E-02  0.1507E-02  0.1171E-01  0.3334E-02  0.9710E-02  0.1507E-02
      5.059  0.5110E-01  0.7043E-01  0.7051E-02  0.1002E-01  0.7051E-02  0.1002E-01  0.7051E-02  0.1002E-01  0.1067E-01  0.5307E-02  0.1067E-01  0.5307E-02  0.1115E-01  0.5055E-02  0.1067E-01  0.5307E-02  0.1115E-01  0.5055E-02
      5.241  0.6224E-01  0.1330E-01  0.7459E-02  0.1896E-02  0.7459E-02  0.1896E-02  0.7459E-02  0.1896E-02  0.2560E-01  0.1059E-02  0.2560E-01  0.1059E-02  0.4577E-01  0.9102E-03  0.2560E-01  0.1059E-02  0.4577E-01  0.9102E-03
      5.423  0.8135E-01  0.6783E-01  0.1001E-01  0.1093E-01  0.1001E-01  0.1093E-01  0.1001E-01  0.1093E-01  0.4912E-01  0.6457E-02  0.4912E-01  0.6457E-02  0.6778E-01  0.8687E-02  0.4912E-01  0.6457E-02  0.6778E-01  0.8687E-02
      5.604  0.1221E+00  0.2750E-01  0.1997E-01  0.4792E-02  0.1997E-01  0.4792E-02  0.1997E-01  0.4792E-02  0.6163E-01  0.3424E-02  0.6163E-01  0.3424E-02  0.1352E+00  0.3268E-02  0.6163E-01  0.3424E-02  0.1352E+00  0.3268E-02
      5.786  0.5182E-01  0.4871E-01  0.8316E-02  0.8481E-02  0.8316E-02  0.8481E-02  0.8316E-02  0.8481E-02  0.6573E-01  0.1027E-01  0.6573E-01  0.1027E-01  0.8733E-01  0.1670E-02  0.6573E-01  0.1027E-01  0.8733E-01  0.1670E-02
      5.967  0.6459E-01  0.9381E-01  0.1609E-01  0.1746E-01  0.1609E-01  0.1746E-01  0.1609E-01  0.1746E-01  0.1229E+00  0.2040E-01  0.1229E+00  0.2040E-01  0.1669E+00  0.2073E-01  0.1229E+00  0.2040E-01  0.1669E+00  0.2073E-01
      6.149  0.4967E-01  0.4341E-01  0.1503E-01  0.6751E-02  0.1503E-01  0.6751E-02  0.1503E-01  0.6751E-02  0.1665E+00  0.1846E-01  0.1665E+00  0.1846E-01  0.1013E+00  0.6384E-02  0.1665E+00  0.1846E-01  0.1013E+00  0.6384E-02
      6.331  0.2129E-01  0.7469E-01  0.1523E-01  0.1018E-01  0.1523E-01  0.1018E-01  0.1523E-01  0.1018E-01  0.1662E+00  0.3926E-01  0.1662E+00  0.3926E-01  0.1429E+00  0.6071E-01  0.1662E+00  0.3926E-01  0.1429E+00  0.6071E-01
      6.512  0.1882E-01  0.7932E-01  0.1664E-01  0.1620E-01  0.1664E-01  0.1620E-01  0.1664E-01  0.1620E-01  0.1763E+00  0.4152E-01  0.1763E+00  0.4152E-01  0.6608E-01  0.4610E-01  0.1763E+00  0.4152E-01  0.6608E-01  0.4610E-01
      6.694  0.6533E-02  0.5291E-01  0.1891E-01  0.1360E-01  0.1891E-01  0.1360E-01  0.1891E-01  0.1360E-01  0.1574E+00  0.1826E-01  0.1574E+00  0.1826E-01  0.1153E+00  0.9167E-01  0.1574E+00  0.1826E-01  0.1153E+00  0.9167E-01
      6.876  0.3308E-02  0.6990E-01  0.1703E-01  0.1424E-01  0.1703E-01  0.1424E-01  0.1703E-01  0.1424E-01  0.1608E+00  0.6347E-01  0.1608E+00  0.6347E-01  0.1376E+00  0.6540E-01  0.1608E+00  0.6347E-01  0.1376E+00  0.6540E-01
      7.057  0.3577E-02  0.3371E-01  0.1284E-01  0.1186E-01  0.1284E-01  0.1186E-01  0.1284E-01  0.1186E-01  0.1485E+00  0.3986E-01  0.1485E+00  0.3986E-01  0.9020E-01  0.9770E-01  0.1485E+00  0.3986E-01  0.9020E-01  0.9770E-01
      7.239  0.8375E-02  0.5345E-01  0.1554E-01  0.1978E-01  0.1554E-01  0.1978E-01  0.1554E-01  0.1978E-01  0.1808E+00  0.1308E+00  0.1808E+00  0.1308E+00  0.1345E+00  0.9657E-01  0.1808E+00  0.1308E+00  0.1345E+00  0.9657E-01
      7.421  0.9051E-02  0.8129E-02  0.2574E-01  0.1099E-01  0.2574E-01  0.1099E-01  0.2574E-01  0.1099E-01  0.2623E+00  0.8501E-01  0.2623E+00  0.8501E-01  0.1232E+00  0.8826E-01  0.2623E+00  0.8501E-01  0.1232E+00  0.8826E-01
      7.602  0.2047E-01  0.2196E-01  0.2259E-01  0.2594E-01  0.2259E-01  0.2594E-01  0.2259E-01  0.2594E-01  0.2427E+00  0.2057E+00  0.2427E+00  0.2057E+00  0.1446E+00  0.9900E-01  0.2427E+00  0.2057E+00  0.1446E+00  0.9900E-01
      7.784  0.1449E-01  0.3441E-02  0.2353E-01  0.1532E-01  0.2353E-01  0.1532E-01  0.2353E-01  0.1532E-01  0.2562E+00  0.1090E+00  0.2562E+00  0.1090E+00  0.2231E+00  0.5502E-01  0.2562E+00  0.1090E+00  0.2231E+00  0.5502E-01
      7.966  0.1960E-01  0.4606E-02  0.2373E-01  0.1880E-01  0.2373E-01  0.1880E-01  0.2373E-01  0.1880E-01  0.3586E+00  0.1714E+00  0.3586E+00  0.1714E+00  0.2488E+00  0.7893E-01  0.3586E+00  0.1714E+00  0.2488E+00  0.7893E-01
      8.147  0.1172E-01  0.1256E-02  0.1771E-01  0.2291E-01  0.1771E-01  0.2291E-01  0.1771E-01  0.2291E-01  0.2662E+00  0.1191E+00  0.2662E+00  0.1191E+00  0.2217E+00  0.1026E+00  0.2662E+00  0.1191E+00  0.2217E+00  0.1026E+00