    1    1  100    2
  0.1079736E+02  0.2480909E-09  0.2480909E-09  0.2480909E-09  0.5000000E-15
  1.000000000000000E-004
  CAR 
 Co-fcc                                  
      9     60     12
 
  0.6250000E-01  0.6250000E-01  0.6250000E-01  0.3906250E-02
      1          1.541768        1.542357   1.000000   1.000000
      2          7.663280        9.210893   1.000000   1.000000
      3          7.744985        9.309035   1.000000   1.000000
      4          7.744985        9.309035   1.000000   1.000000
      5          8.779155       10.662708   1.000000   0.000000
      6          8.779155       10.662708   1.000000   0.000000
      7         33.160660       32.923541   0.000000   0.000000
      8         36.133056       36.228783   0.000000   0.000000
      9         37.625719       37.798104   0.000000   0.000000
     10         37.625719       37.798104   0.000000   0.000000
     11         41.542500       41.785308   0.000000   0.000000
     12         41.542535       41.785396   0.000000   0.000000
 
  0.1875000E+00  0.6250000E-01  0.6250000E-01  0.1171875E-01
      1          2.344754        2.352563   1.000000   1.000000
      2          7.448779        8.935347   1.000000   1.000000
      3          7.904372        9.486444   1.000000   1.000000
      4          7.909478        9.494706   1.000000   1.000000
      5          8.622819       10.473458   1.000000   0.018307
      6          8.869422       10.740905   1.000000   0.000000
      7         30.355419       30.541238   0.000000   0.000000
      8         32.996729       33.066245   0.000000   0.000000
      9         36.518826       36.558423   0.000000   0.000000
     10         38.647054       38.821240   0.000000   0.000000
     11         40.411462       40.383854   0.000000   0.000000
     12         41.666637       41.876004   0.000000   0.000000
 
  0.3125000E+00  0.6250000E-01  0.6250000E-01  0.1171875E-01
      1          4.028171        4.137458   1.000000   1.000000
      2          7.336745        8.611220   1.000000   1.000000
      3          7.849092        9.470539   1.000000   1.000000
      4          7.923902        9.573713   1.000000   1.000000
      5          8.837399       10.631766   1.000000   0.000000
      6          9.274847       11.095311   1.000000   0.000000
      7         24.259936       24.698328   0.000000   0.000000
      8         31.898027       31.954965   0.000000   0.000000
      9         35.466639       35.521168   0.000000   0.000000
     10         38.218111       38.532209   0.000000   0.000000
     11         39.398952       39.639893   0.000000   0.000000
     12         40.394900       40.449103   0.000000   0.000000
 
  0.4375000E+00  0.6250000E-01  0.6250000E-01  0.1171875E-01
      1          5.160771        5.825012   1.000000   1.000000
      2          7.617059        9.051515   1.000000   1.000000
      3          7.716489        9.271013   1.000000   1.000000
      4          8.407978        9.368131   1.000000   1.000000
      5          9.396059       11.222009   1.000000   0.000000
      6         10.070022       11.699041   1.000000   0.000000
      7         18.896890       19.614023   0.000000   0.000000
      8         31.397330       31.334147   0.000000   0.000000
      9         34.228925       34.371813   0.000000   0.000000
     10         36.062918       36.378580   0.000000   0.000000
     11         38.546394       38.812072   0.000000   0.000000
     12         40.123338       40.312407   0.000000   0.000000
 
 -0.4375000E+00  0.6250000E-01  0.6250000E-01  0.1171875E-01
      1          5.284059        6.180268   1.000000   1.000000
      2          7.520534        9.107922   1.000000   1.000000
      3          7.662892        9.306691   1.000000   1.000000
      4          8.984808        9.735876   1.000000   1.000000
      5          9.680264       11.542354   1.000000   0.000000
      6         10.863885       11.975080   0.000000   0.000000
      7         16.736201       17.696464   0.000000   0.000000
      8         31.498509       31.311908   0.000000   0.000000
      9         34.199309       34.503946   0.000000   0.000000
     10         34.371670       34.636088   0.000000   0.000000
     11         39.373304       39.611615   0.000000   0.000000
     12         39.403945       39.626071   0.000000   0.000000
 
 -0.3125000E+00  0.6250000E-01  0.6250000E-01  0.1171875E-01
      1          4.946824        5.391915   1.000000   1.000000
      2          7.654724        8.747207   1.000000   1.000000
      3          7.806395        9.308440   1.000000   1.000000
      4          7.876838        9.452514   1.000000   1.000000
      5          9.472372       11.219191   1.000000   0.000000
      6          9.532487       11.326807   1.000000   0.000000
      7         20.521522       21.127541   0.000000   0.000000
      8         32.223658       32.030274   0.000000   0.000000
      9         33.662190       33.990547   0.000000   0.000000
     10         36.089828       36.420968   0.000000   0.000000
     11         39.221515       39.393416   0.000000   0.000000
     12         41.093240       41.290331   0.000000   0.000000
 
 -0.1875000E+00  0.6250000E-01  0.6250000E-01  0.1171875E-01
      1          3.424246        3.471779   1.000000   1.000000
      2          7.288611        8.666727   1.000000   1.000000
      3          7.913468        9.540818   1.000000   1.000000
      4          7.972510        9.593572   1.000000   1.000000
      5          8.766399       10.547278   1.000000   0.000015
      6          9.028909       10.886609   1.000000   0.000000
      7         26.272057       26.637119   0.000000   0.000000
      8         33.303370       33.159337   0.000000   0.000000
      9         34.213233       34.542496   0.000000   0.000000
     10         38.738259       38.872274   0.000000   0.000000
     11         39.030945       39.244825   0.000000   0.000000
     12         43.346223       43.433974   0.000000   0.000000
 
 -0.6250000E-01  0.6250000E-01  0.6250000E-01  0.1171875E-01
      1          1.950045        1.953095   1.000000   1.000000
      2          7.519047        9.037196   1.000000   1.000000
      3          7.855643        9.428026   1.000000   1.000000
      4          7.860002        9.433306   1.000000   1.000000
      5          8.642732       10.498800   1.000000   0.002501
      6          8.846320       10.735276   1.000000   0.000000
      7         32.139480       32.132377   0.000000   0.000000
      8         34.571943       34.571269   0.000000   0.000000
      9         35.606832       35.881177   0.000000   0.000000
     10         37.470551       37.544396   0.000000   0.000000
     11         41.479008       41.655772   0.000000   0.000000
     12         43.312636       43.400368   0.000000   0.000000
 
  0.1875000E+00  0.1875000E+00  0.6250000E-01  0.1171875E-01
      1          2.728138        2.742911   1.000000   1.000000
      2          7.240412        8.708145   1.000000   1.000000
      3          8.052599        9.653891   1.000000   1.000000
      4          8.083348        9.676530   1.000000   1.000000
      5          8.457000       10.239378   1.000000   0.999997
      6          8.971159       10.869534   1.000000   0.000000
      7         30.663351       30.856540   0.000000   0.000000
      8         33.145787       33.122963   0.000000   0.000000
      9         33.307870       33.622589   0.000000   0.000000
     10         35.532973       35.589436   0.000000   0.000000
     11         41.158465       41.805093   0.000000   0.000000
     12         43.820666       43.919707   0.000000   0.000000
 
  0.3125000E+00  0.1875000E+00  0.6250000E-01  0.2343750E-01
      1          4.086689        4.171848   1.000000   1.000000
      2          6.936548        8.320799   1.000000   1.000000
      3          7.834852        9.463016   1.000000   1.000000
      4          8.344067        9.989831   1.000000   1.000000
      5          8.728318       10.422093   1.000000   0.261991
      6          9.354396       11.193585   1.000000   0.000000
      7         26.822186       27.171082   0.000000   0.000000
      8         29.431390       29.676275   0.000000   0.000000
      9         33.208748       33.333670   0.000000   0.000000
     10         35.212511       35.355368   0.000000   0.000000
     11         40.027140       40.552188   0.000000   0.000000
     12         43.591016       43.633181   0.000000   0.000000
 
  0.4375000E+00  0.1875000E+00  0.6250000E-01  0.2343750E-01
      1          5.458767        5.969326   1.000000   1.000000
      2          7.058841        8.225924   1.000000   1.000000
      3          7.525792        9.033384   1.000000   1.000000
      4          8.185649        9.862871   1.000000   1.000000
      5          9.439881       11.228548   1.000000   0.000000
      6         10.558796       12.053394   0.000003   0.000000
      7         21.029498       21.577507   0.000000   0.000000
      8         28.817918       29.034236   0.000000   0.000000
      9         30.815991       31.078173   0.000000   0.000000
     10         34.858906       35.051588   0.000000   0.000000
     11         41.568724       41.688218   0.000000   0.000000
     12         44.050093       44.316707   0.000000   0.000000
 
 -0.4375000E+00  0.1875000E+00  0.6250000E-01  0.2343750E-01
      1          5.760510        6.727112   1.000000   1.000000
      2          7.093564        8.415160   1.000000   1.000000
      3          7.968814        9.139385   1.000000   1.000000
      4          8.035042        9.701800   1.000000   1.000000
      5          9.643096       11.487235   1.000000   0.000000
      6         12.727175       13.615682   0.000000   0.000000
      7         16.926050       17.798735   0.000000   0.000000
      8         28.224509       28.429478   0.000000   0.000000
      9         30.101113       30.425390   0.000000   0.000000
     10         34.648998       34.752972   0.000000   0.000000
     11         40.707524       40.909716   0.000000   0.000000
     12         44.368742       44.464575   0.000000   0.000000
 
 -0.3125000E+00  0.1875000E+00  0.6250000E-01  0.2343750E-01
      1          5.694090        6.409518   1.000000   1.000000
      2          7.242864        8.464089   1.000000   1.000000
      3          7.596735        8.919962   1.000000   1.000000
      4          8.073256        9.754551   1.000000   1.000000
      5          9.320347       11.106208   1.000000   0.000000
      6         11.411602       12.747232   0.000000   0.000000
      7         19.364720       20.014154   0.000000   0.000000
      8         27.413009       27.690640   0.000000   0.000000
      9         31.663856       31.886715   0.000000   0.000000
     10         35.753461       35.867994   0.000000   0.000000
     11         40.074044       40.264818   0.000000   0.000000
     12         43.756221       43.865993   0.000000   0.000000
 
 -0.1875000E+00  0.1875000E+00  0.6250000E-01  0.2343750E-01
      1          4.669519        4.811171   1.000000   1.000000
      2          7.011681        8.350153   1.000000   1.000000
      3          7.659164        9.252609   1.000000   1.000000
      4          8.276627        9.969424   1.000000   1.000000
      5          8.659733       10.379065   1.000000   0.718975
      6          9.858318       11.608301   1.000000   0.000000
      7         24.824343       25.242461   0.000000   0.000000
      8         27.563928       27.858607   0.000000   0.000000
      9         34.195606       34.316613   0.000000   0.000000
     10         37.704794       37.798647   0.000000   0.000000
     11         39.539708       39.656794   0.000000   0.000000
     12         42.580319       42.885341   0.000000   0.000000
 
 -0.6250000E-01  0.1875000E+00  0.6250000E-01  0.2343750E-01
      1          3.094249        3.119320   1.000000   1.000000
      2          7.238382        8.677514   1.000000   1.000000
      3          7.949502        9.558225   1.000000   1.000000
      4          8.086328        9.694433   1.000000   1.000000
      5          8.535654       10.326856   1.000000   0.980131
      6          9.060285       10.922604   1.000000   0.000000
      7         28.520657       28.808988   0.000000   0.000000
      8         31.164136       31.333453   0.000000   0.000000
      9         35.593014       35.649637   0.000000   0.000000
     10         37.388748       37.421641   0.000000   0.000000
     11         40.930412       41.194221   0.000000   0.000000
     12         42.344390       42.577455   0.000000   0.000000
 
  0.3125000E+00  0.3125000E+00  0.6250000E-01  0.1171875E-01
      1          4.758135        5.020460   1.000000   1.000000
      2          6.515699        7.864174   1.000000   1.000000
      3          8.159761        9.601117   1.000000   1.000000
      4          8.773835       10.452748   1.000000   0.066253
      5          9.111540       10.707059   1.000000   0.000000
      6          9.326428       11.241301   1.000000   0.000000
      7         27.409205       27.709816   0.000000   0.000000
      8         29.100619       29.388663   0.000000   0.000000
      9         29.167151       29.397102   0.000000   0.000000
     10         31.994013       32.221771   0.000000   0.000000
     11         36.596713       37.104097   0.000000   0.000000
     12         47.307606       48.994410   0.000000   0.000000
 
  0.4375000E+00  0.3125000E+00  0.6250000E-01  0.2343750E-01
      1          5.490860        6.200280   1.000000   1.000000
      2          6.307933        7.595236   1.000000   1.000000
      3          8.101318        9.385082   1.000000   1.000000
      4          9.019791       10.768112   1.000000   0.000000
      5          9.488049       11.287928   1.000000   0.000000
      6         10.818773       12.159404   0.000000   0.000000
      7         23.995974       24.369148   0.000000   0.000000
      8         25.947615       26.302002   0.000000   0.000000
      9         26.934361       27.268208   0.000000   0.000000
     10         33.239109       33.461924   0.000000   0.000000
     11         37.738335       38.126561   0.000000   0.000000
     12         46.910538       47.552212   0.000000   0.000000
 
 -0.4375000E+00  0.3125000E+00  0.6250000E-01  0.2343750E-01
      1          5.978373        7.104463   1.000000   1.000000
      2          6.443293        7.624800   1.000000   1.000000
      3          7.797908        9.043539   1.000000   1.000000
      4          8.736666       10.512410   1.000000   0.000707
      5          9.707699       11.535428   1.000000   0.000000
      6         13.993049       14.836785   0.000000   0.000000
      7         18.893106       19.449895   0.000000   0.000000
      8         23.765942       24.237133   0.000000   0.000000
      9         27.119876       27.425587   0.000000   0.000000
     10         33.682000       33.878653   0.000000   0.000000
     11         42.636553       42.914517   0.000000   0.000000
     12         45.445526       45.778291   0.000000   0.000000
 
 -0.3125000E+00  0.3125000E+00  0.6250000E-01  0.2343750E-01
      1          6.459964        7.466848   1.000000   1.000000
      2          6.615207        7.892850   1.000000   1.000000
      3          7.340979        8.583774   1.000000   1.000000
      4          8.536464       10.321902   1.000000   0.985976
      5          9.389787       11.146055   1.000000   0.000000
      6         14.308505       15.192007   0.000000   0.000000
      7         18.735410       19.336777   0.000000   0.000000
      8         22.450473       22.946972   0.000000   0.000000
      9         28.847708       29.159569   0.000000   0.000000
     10         34.554162       34.696519   0.000000   0.000000
     11         43.302491       43.359721   0.000000   0.000000
     12         46.858669       48.155616   0.000000   0.000000
 
 -0.1875000E+00  0.3125000E+00  0.6250000E-01  0.2343750E-01
      1          5.988240        6.507097   1.000000   1.000000
      2          7.028089        8.259611   1.000000   1.000000
      3          7.183341        8.679670   1.000000   1.000000
      4          8.358288       10.101278   1.000000   1.000000
      5          9.012108       10.731406   1.000000   0.000000
      6         11.508307       12.910952   0.000000   0.000000
      7         21.562378       22.088909   0.000000   0.000000
      8         24.571521       24.957093   0.000000   0.000000
      9         31.423762       31.665974   0.000000   0.000000
     10         36.310209       36.439021   0.000000   0.000000
     11         40.546764       40.602852   0.000000   0.000000
     12         45.202465       45.342904   0.000000   0.000000
 
 -0.6250000E-01  0.3125000E+00  0.6250000E-01  0.2343750E-01
      1          4.775803        5.025123   1.000000   1.000000
      2          7.293077        8.470775   1.000000   1.000000
      3          7.674795        9.291902   1.000000   1.000000
      4          7.990146        9.650229   1.000000   1.000000
      5          9.070918       10.823681   1.000000   0.000000
      6          9.725791       11.480186   1.000000   0.000000
      7         22.514127       23.016999   0.000000   0.000000
      8         30.310685       30.470762   0.000000   0.000000
      9         33.857858       33.945894   0.000000   0.000000
     10         36.498915       36.772165   0.000000   0.000000
     11         40.171698       40.326122   0.000000   0.000000
     12         41.716300       41.861730   0.000000   0.000000
 
  0.4375000E+00  0.4375000E+00  0.6250000E-01  0.1171875E-01
      1          5.268193        6.268235   1.000000   1.000000
      2          5.939004        7.203086   1.000000   1.000000
      3          9.364566       10.721621   1.000000   0.000000
      4          9.407798       11.278730   1.000000   0.000000
      5          9.731206       11.584130   1.000000   0.000000
      6         11.476365       12.248223   0.000000   0.000000
      7         22.683769       23.270783   0.000000   0.000000
      8         25.073504       25.325787   0.000000   0.000000
      9         26.250290       26.444894   0.000000   0.000000
     10         31.128751       31.470592   0.000000   0.000000
     11         35.163439       35.583977   0.000000   0.000000
     12         47.400335       50.966259   0.000000   0.000000
 
 -0.4375000E+00  0.4375000E+00  0.6250000E-01  0.2343750E-01
      1          5.415675        6.555594   1.000000   1.000000
      2          5.963864        7.203643   1.000000   1.000000
      3          8.944714       10.291073   1.000000   0.998925
      4          9.355432       11.267290   1.000000   0.000000
      5          9.871830       11.677855   1.000000   0.000000
      6         14.022366       14.533513   0.000000   0.000000
      7         20.538434       21.291631   0.000000   0.000000
      8         22.645662       22.969018   0.000000   0.000000
      9         25.105224       25.343265   0.000000   0.000000
     10         32.600882       32.877492   0.000000   0.000000
     11         37.066934       37.447611   0.000000   0.000000
     12         47.392298       50.430373   0.000000   0.000000
 
 -0.3125000E+00  0.4375000E+00  0.6250000E-01  0.2343750E-01
      1          5.928069        7.154893   1.000000   1.000000
      2          6.348855        7.518861   1.000000   1.000000
      3          7.972691        9.218329   1.000000   1.000000
      4          8.916309       10.756495   1.000000   0.000000
      5          9.696344       11.485991   1.000000   0.000000
      6         16.033529       16.642486   0.000000   0.000000
      7         18.237140       18.783873   0.000000   0.000000
      8         21.283282       21.908268   0.000000   0.000000
      9         26.643781       26.941764   0.000000   0.000000
     10         33.518455       33.731527   0.000000   0.000000
     11         42.611803       42.958002   0.000000   0.000000
     12         46.585664       46.738293   0.000000   0.000000
 
 -0.1875000E+00  0.4375000E+00  0.6250000E-01  0.2343750E-01
      1          6.134953        7.168645   1.000000   1.000000
      2          6.789732        8.036534   1.000000   1.000000
      3          7.643701        8.870582   1.000000   1.000000
      4          8.292834       10.021432   1.000000   1.000000
      5          9.543360       11.354333   1.000000   0.000000
      6         13.973781       14.790916   0.000000   0.000000
      7         17.176058       17.968541   0.000000   0.000000
      8         25.206047       25.578575   0.000000   0.000000
      9         29.216999       29.521715   0.000000   0.000000
     10         34.566013       34.685505   0.000000   0.000000
     11         42.044486       42.185771   0.000000   0.000000
     12         46.475742       46.602285   0.000000   0.000000
 
 -0.6250000E-01  0.4375000E+00  0.6250000E-01  0.2343750E-01
      1          5.429060        6.272692   1.000000   1.000000
      2          7.407171        8.850663   1.000000   1.000000
      3          7.803853        9.279454   1.000000   1.000000
      4          8.314957        9.468594   1.000000   1.000000
      5          9.586264       11.423009   1.000000   0.000000
      6         11.179718       12.384890   0.000000   0.000000
      7         17.663384       18.480439   0.000000   0.000000
      8         30.188767       30.238730   0.000000   0.000000
      9         32.351249       32.618035   0.000000   0.000000
     10         34.943514       35.112859   0.000000   0.000000
     11         39.635530       39.875037   0.000000   0.000000
     12         41.797842       41.948109   0.000000   0.000000
 
 -0.4375000E+00 -0.4375000E+00  0.6250000E-01  0.1171875E-01
      1          5.203887        6.318030   1.000000   1.000000
      2          5.808653        7.054788   1.000000   1.000000
      3          9.526504       11.207524   1.000000   0.000000
      4          9.653587       11.479369   1.000000   0.000000
      5          9.884356       11.696046   1.000000   0.000000
      6         13.014466       13.315094   0.000000   0.000000
      7         20.451631       21.247954   0.000000   0.000000
      8         24.478597       24.693805   0.000000   0.000000
      9         25.614800       25.776158   0.000000   0.000000
     10         30.991008       31.358763   0.000000   0.000000
     11         34.984736       35.403359   0.000000   0.000000
     12         47.499490       51.083133   0.000000   0.000000
 
 -0.3125000E+00 -0.4375000E+00  0.6250000E-01  0.2343750E-01
      1          5.493763        6.523659   1.000000   1.000000
      2          6.082836        7.338869   1.000000   1.000000
      3          8.604962        9.876741   1.000000   1.000000
      4          9.278192       11.114695   1.000000   0.000000
      5          9.720848       11.538556   1.000000   0.000000
      6         12.411427       13.293601   0.000000   0.000000
      7         22.669267       23.143670   0.000000   0.000000
      8         23.373529       23.801977   0.000000   0.000000
      9         25.672862       25.937410   0.000000   0.000000
     10         32.802551       33.059649   0.000000   0.000000
     11         37.264113       37.642902   0.000000   0.000000
     12         47.278445       49.220699   0.000000   0.000000
 
 -0.1875000E+00 -0.4375000E+00  0.6250000E-01  0.2343750E-01
      1          5.874720        6.729692   1.000000   1.000000
      2          6.702976        7.901580   1.000000   1.000000
      3          7.592112        8.922145   1.000000   1.000000
      4          8.460225       10.175443   1.000000   1.000000
      5          9.647603       11.486903   1.000000   0.000000
      6         12.029250       13.169487   0.000000   0.000000
      7         19.813092       20.378445   0.000000   0.000000
      8         26.809863       27.115354   0.000000   0.000000
      9         28.180781       28.517584   0.000000   0.000000
     10         34.074006       34.252154   0.000000   0.000000
     11         42.430911       42.584444   0.000000   0.000000
     12         44.538609       44.986011   0.000000   0.000000
 
 -0.3125000E+00 -0.3125000E+00  0.6250000E-01  0.1171875E-01
      1          5.240146        5.922225   1.000000   1.000000
      2          6.184927        7.483986   1.000000   1.000000
      3          8.772032        9.946947   1.000000   1.000000
      4          9.142461       10.900625   1.000000   0.000000
      5          9.524880       11.340251   1.000000   0.000000
      6          9.964931       11.427113   1.000000   0.000000
      7         25.589527       25.948076   0.000000   0.000000
      8         26.326087       26.664207   0.000000   0.000000
      9         27.448739       27.692159   0.000000   0.000000
     10         31.432469       31.724340   0.000000   0.000000
     11         35.628081       36.068821   0.000000   0.000000
     12         47.334116       50.814014   0.000000   0.000000
 
 -0.1875000E+00 -0.3125000E+00  0.6250000E-01  0.2343750E-01
      1          5.036863        5.323981   1.000000   1.000000
      2          6.608278        7.939250   1.000000   1.000000
      3          7.771563        9.273677   1.000000   1.000000
      4          8.669385       10.357801   1.000000   0.881243
      5          9.143635       10.845265   1.000000   0.000000
      6          9.830094       11.541034   1.000000   0.000000
      7         25.300936       25.676735   0.000000   0.000000
      8         27.805736       28.084855   0.000000   0.000000
      9         29.885870       30.158874   0.000000   0.000000
     10         33.984652       34.168635   0.000000   0.000000
     11         38.618308       39.049604   0.000000   0.000000
     12         45.542447       45.688243   0.000000   0.000000
 
 -0.1875000E+00 -0.1875000E+00  0.6250000E-01  0.1171875E-01
      1          3.764217        3.829921   1.000000   1.000000
      2          6.886068        8.293506   1.000000   1.000000
      3          8.058445        9.707133   1.000000   1.000000
      4          8.399492       10.026381   1.000000   1.000000
      5          8.610681       10.249499   1.000000   0.999989
      6          9.137658       11.046683   1.000000   0.000000
      7         29.031706       29.314975   0.000000   0.000000
      8         31.091839       31.406864   0.000000   0.000000
      9         31.729374       31.768189   0.000000   0.000000
     10         33.278899       33.431751   0.000000   0.000000
     11         38.399645       39.016776   0.000000   0.000000
     12         46.308254       46.287890   0.000000   0.000000
 
  0.1875000E+00  0.1875000E+00  0.1875000E+00  0.3906250E-02
      1          2.719269        2.736845   1.000000   1.000000
      2          7.420627        8.860713   1.000000   1.000000
      3          7.912159        9.512398   1.000000   1.000000
      4          7.912159        9.512398   1.000000   1.000000
      5          8.781843       10.631903   1.000000   0.000000
      6          8.781843       10.631903   1.000000   0.000000
      7         28.235329       28.525088   0.000000   0.000000
      8         34.275391       34.043206   0.000000   0.000000
      9         36.553655       36.848085   0.000000   0.000000
     10         36.553655       36.848085   0.000000   0.000000
     11         41.975469       41.878954   0.000000   0.000000
     12         42.438069       42.540058   0.000000   0.000000
 
  0.3125000E+00  0.1875000E+00  0.1875000E+00  0.1171875E-01
      1          3.780672        3.837065   1.000000   1.000000
      2          7.172863        8.563651   1.000000   1.000000
      3          7.857945        9.456673   1.000000   1.000000
      4          8.147265        9.793517   1.000000   1.000000
      5          8.492409       10.276751   1.000000   0.999743
      6          9.378817       11.193536   1.000000   0.000000
      7         26.559323       26.919991   0.000000   0.000000
      8         29.254040       29.492180   0.000000   0.000000
      9         36.861366       36.817539   0.000000   0.000000
     10         38.818337       38.771500   0.000000   0.000000
     11         38.977395       39.151093   0.000000   0.000000
     12         40.969038       41.328253   0.000000   0.000000
 
  0.4375000E+00  0.1875000E+00  0.1875000E+00  0.1171875E-01
      1          5.370322        5.646124   1.000000   1.000000
      2          7.061479        8.341085   1.000000   1.000000
      3          7.484772        9.024972   1.000000   1.000000
      4          8.206486        9.949890   1.000000   1.000000
      5          8.741954       10.449036   1.000000   0.080865
      6         10.536587       12.168707   0.000053   0.000000
      7         23.071286       23.552627   0.000000   0.000000
      8         25.924388       26.268380   0.000000   0.000000
      9         34.903923       34.895870   0.000000   0.000000
     10         35.495193       35.821591   0.000000   0.000000
     11         40.773729       40.710779   0.000000   0.000000
     12         42.566368       42.793337   0.000000   0.000000
 
 -0.4375000E+00  0.1875000E+00  0.1875000E+00  0.1171875E-01
      1          5.908773        6.806320   1.000000   1.000000
      2          7.086249        8.395367   1.000000   1.000000
      3          7.740905        8.915450   1.000000   1.000000
      4          8.089609        9.797495   1.000000   1.000000
      5          9.383054       11.181773   1.000000   0.000000
      6         12.553458       13.624812   0.000000   0.000000
      7         18.042314       18.782923   0.000000   0.000000
      8         26.165906       26.493989   0.000000   0.000000
      9         32.397585       32.723420   0.000000   0.000000
     10         33.273737       33.322588   0.000000   0.000000