Co-fcc                                  
   1.00000000000000     
     0.000000    1.894609    1.894609
     1.894609    0.000000    1.894609
     1.894609    1.894609    0.000000
   Co
     1
Direct
  0.000000  0.000000  0.000000
 
   36   36   36
  129.70      127.04      119.42      107.76      93.363      77.648      61.909      47.202      34.303      23.715    
  15.673      10.137      6.7899      5.0727      4.2784      3.7849      3.4563      3.2731      3.2148      3.2731    
  3.4563      3.7849      4.2784      5.0727      6.7899      10.137      15.673      23.715      34.303      47.202    
  61.909      77.648      93.363      107.76      119.42      127.04      127.04      121.91      112.27      99.277    
  84.280      68.640      53.527      39.847      28.234      19.055      12.407      8.1101      5.7166      4.5817    
  3.9934      3.5880      3.3379      3.2205      3.2205      3.3379      3.5880      3.9934      4.5817      5.7166    
  8.1101      12.407      19.055      28.234      39.847      53.527      68.640      84.280      99.277      112.27    
  121.91      127.04      119.42      112.27      101.33      87.802      73.009      58.173      44.304      32.151    
  22.203      14.687      9.5559      6.4896      4.9347      4.2016      3.7264      3.4117      3.2368      3.1812    
  3.2368      3.4116      3.7264      4.2016      4.9347      6.4896      9.5559      14.687      22.203      32.151    
  44.304      58.173      73.009      87.802      101.33      112.27      119.42      121.91      107.76      99.277    
  87.802      74.523      60.636      47.196      35.040      24.764      16.709      10.957      7.3137      5.3352    
  4.3995      3.8629      3.4895      3.2608      3.1541      3.1541      3.2608      3.4895      3.8629      4.3995    
  5.3352      7.3137      10.957      16.709      24.764      35.040      47.196      60.636      74.523      87.802    
  99.277      107.76      112.27      112.27      93.363      84.280      73.009      60.636      48.199      36.574    
  26.436      18.223      12.129      8.0786      5.7439      4.5907      3.9884      3.5654      3.2891      3.1369    
  3.0887      3.1369      3.2891      3.5654      3.9884      4.5907      5.7439      8.0786      12.129      18.223    
  26.436      36.574      48.199      60.636      73.009      84.280      93.363      99.277      101.33      99.277    
  77.648      68.640      58.173      47.196      36.574      27.017      19.033      12.907      8.6690      6.1010    
  4.7664      4.0946      3.6336      3.3176      3.1267      3.0382      3.0382      3.1267      3.3176      3.6336    
  4.0946      4.7665      6.1010      8.6690      12.907      19.033      27.017      36.574      47.196      58.173    
  68.640      77.648      84.280      87.802      87.802      84.280      61.909      53.527      44.304      35.040    
  26.436      19.033      13.179      8.9906      6.3455      4.9044      4.1749      3.6890      3.3429      3.1208    
  2.9997      2.9616      2.9997      3.1208      3.3429      3.6890      4.1749      4.9044      6.3455      8.9906    
  13.179      19.033      26.436      35.040      44.304      53.527      61.909      68.640      73.009      74.523    
  73.009      68.640      47.202      39.847      32.151      24.764      18.223      12.907      8.9906      6.4324    
  4.9808      4.2252      3.7278      3.3625      3.1174      2.9712      2.9039      2.9039      2.9712      3.1174    
  3.3625      3.7278      4.2252      4.9808      6.4324      8.9906      12.907      18.223      24.764      32.151    
  39.847      47.202      53.527      58.173      60.636      60.636      58.173      53.527      34.303      28.234    
  22.203      16.709      12.129      8.6690      6.3455      4.9808      4.2424      3.7478      3.3747      3.1153    
  2.9512      2.8623      2.8345      2.8623      2.9512      3.1153      3.3747      3.7478      4.2424      4.9808    
  6.3455      8.6690      12.129      16.709      22.203      28.234      34.303      39.847      44.304      47.196    
  48.199      47.196      44.304      39.847      23.715      19.055      14.687      10.957      8.0786      6.1010    
  4.9044      4.2252      3.7478      3.3788      3.1143      2.9392      2.8353      2.7875      2.7875      2.8353    
  2.9392      3.1143      3.3788      3.7478      4.2252      4.9044      6.1010      8.0786      10.957      14.687    
  19.055      23.715      28.234      32.151      35.040      36.574      36.574      35.040      32.151      28.234    
  15.673      12.407      9.5559      7.3137      5.7439      4.7664      4.1749      3.7278      3.3747      3.1143    
  2.9352      2.8219      2.7604      2.7410      2.7604      2.8219      2.9352      3.1143      3.3747      3.7278    
  4.1749      4.7664      5.7439      7.3137      9.5559      12.407      15.673      19.055      22.203      24.764    
  26.436      27.017      26.436      24.764      22.203      19.055      10.137      8.1101      6.4896      5.3352    
  4.5907      4.0946      3.6890      3.3625      3.1153      2.9392      2.8219      2.7515      2.7188      2.7188    
  2.7515      2.8219      2.9392      3.1153      3.3625      3.6890      4.0946      4.5907      5.3352      6.4896    
  8.1101      10.137      12.407      14.687      16.709      18.223      19.033      19.033      18.223      16.709    
  14.687      12.407      6.7899      5.7166      4.9347      4.3995      3.9884      3.6336      3.3429      3.1174    
  2.9512      2.8353      2.7604      2.7188      2.7055      2.7188      2.7604      2.8353      2.9512      3.1174    
  3.3429      3.6336      3.9884      4.3995      4.9347      5.7166      6.7899      8.1101      9.5559      10.957    
  12.129      12.907      13.179      12.907      12.129      10.957      9.5559      8.1101      5.0727      4.5817    
  4.2016      3.8629      3.5654      3.3176      3.1208      2.9712      2.8623      2.7875      2.7410      2.7188    
  2.7188      2.7410      2.7875      2.8623      2.9712      3.1208      3.3176      3.5654      3.8629      4.2016    
  4.5817      5.0727      5.7166      6.4896      7.3137      8.0786      8.6690      8.9906      8.9906      8.6690    
  8.0786      7.3137      6.4896      5.7166      4.2784      3.9934      3.7264      3.4895      3.2891      3.1267    
  2.9997      2.9039      2.8345      2.7875      2.7604      2.7515      2.7604      2.7875      2.8345      2.9039    
  2.9997      3.1267      3.2891      3.4895      3.7264      3.9934      4.2784      4.5817      4.9347      5.3352    
  5.7439      6.1010      6.3455      6.4324      6.3455      6.1010      5.7439      5.3352      4.9347      4.5817    
  3.7849      3.5880      3.4117      3.2608      3.1369      3.0382      2.9616      2.9039      2.8623      2.8353    
  2.8219      2.8219      2.8353      2.8623      2.9039      2.9616      3.0382      3.1369      3.2608      3.4117    
  3.5880      3.7849      3.9934      4.2016      4.3995      4.5907      4.7664      4.9044      4.9808      4.9808    
  4.9044      4.7665      4.5907      4.3995      4.2016      3.9934      3.4563      3.3379      3.2368      3.1541    
  3.0887      3.0382      2.9997      2.9712      2.9512      2.9392      2.9352      2.9392      2.9512      2.9712    
  2.9997      3.0382      3.0887      3.1541      3.2368      3.3379      3.4563      3.5880      3.7264      3.8629    
  3.9884      4.0946      4.1749      4.2252      4.2424      4.2252      4.1749      4.0946      3.9884      3.8629    
  3.7264      3.5880      3.2731      3.2205      3.1812      3.1541      3.1369      3.1267      3.1208      3.1174    
  3.1153      3.1143      3.1143      3.1153      3.1174      3.1208      3.1267      3.1369      3.1541      3.1812    
  3.2205      3.2731      3.3379      3.4117      3.4895      3.5654      3.6336      3.6890      3.7278      3.7478    
  3.7478      3.7278      3.6890      3.6336      3.5654      3.4895      3.4116      3.3379      3.2148      3.2205    
  3.2368      3.2608      3.2891      3.3176      3.3429      3.3625      3.3747      3.3788      3.3747      3.3625    
  3.3429      3.3176      3.2891      3.2608      3.2368      3.2205      3.2148      3.2205      3.2368      3.2608    
  3.2891      3.3176      3.3429      3.3625      3.3747      3.3788      3.3747      3.3625      3.3429      3.3176    
  3.2891      3.2608      3.2368      3.2205      3.2731      3.3379      3.4116      3.4895      3.5654      3.6336    
  3.6890      3.7278      3.7478      3.7478      3.7278      3.6890      3.6336      3.5654      3.4895      3.4117    
  3.3379      3.2731      3.2205      3.1812      3.1541      3.1369      3.1267      3.1208      3.1174      3.1153    
  3.1143      3.1143      3.1153      3.1174      3.1208      3.1267      3.1369      3.1541      3.1812      3.2205    
  3.4563      3.5880      3.7264      3.8629      3.9884      4.0946      4.1749      4.2252      4.2424      4.2252    
  4.1749      4.0946      3.9884      3.8629      3.7264      3.5880      3.4563      3.3379      3.2368      3.1541    
  3.0887      3.0382      2.9997      2.9712      2.9512      2.9392      2.9352      2.9392      2.9512      2.9712    
  2.9997      3.0382      3.0887      3.1541      3.2368      3.3379      3.7849      3.9934      4.2016      4.3995    
  4.5907      4.7665      4.9044      4.9808      4.9808      4.9044      4.7664      4.5907      4.3995      4.2016    
  3.9934      3.7849      3.5880      3.4117      3.2608      3.1369      3.0382      2.9616      2.9039      2.8623    
  2.8353      2.8219      2.8219      2.8353      2.8623      2.9039      2.9616      3.0382      3.1369      3.2608    
  3.4117      3.5880      4.2784      4.5817      4.9347      5.3352      5.7439      6.1010      6.3455      6.4324    
  6.3455      6.1010      5.7439      5.3352      4.9347      4.5817      4.2784      3.9934      3.7264      3.4895    
  3.2891      3.1267      2.9997      2.9039      2.8345      2.7875      2.7604      2.7515      2.7604      2.7875    
  2.8345      2.9039      2.9997      3.1267      3.2891      3.4895      3.7264      3.9934      5.0727      5.7166    
  6.4896      7.3137      8.0786      8.6690      8.9906      8.9906      8.6690      8.0786      7.3137      6.4896    
  5.7166      5.0727      4.5817      4.2016      3.8629      3.5654      3.3176      3.1208      2.9712      2.8623    
  2.7875      2.7410      2.7188      2.7188      2.7410      2.7875      2.8623      2.9712      3.1208      3.3176    
  3.5654      3.8629      4.2016      4.5817      6.7899      8.1101      9.5559      10.957      12.129      12.907    
  13.179      12.907      12.129      10.957      9.5559      8.1101      6.7899      5.7166      4.9347      4.3995    
  3.9884      3.6336      3.3429      3.1174      2.9512      2.8353      2.7604      2.7188      2.7055      2.7188    
  2.7604      2.8353      2.9512      3.1174      3.3429      3.6336      3.9884      4.3995      4.9347      5.7166    
  10.137      12.407      14.687      16.709      18.223      19.033      19.033      18.223      16.709      14.687    
  12.407      10.137      8.1101      6.4896      5.3352      4.5907      4.0946      3.6890      3.3625      3.1153    
  2.9392      2.8219      2.7515      2.7188      2.7188      2.7515      2.8219      2.9392      3.1153      3.3625    
  3.6890      4.0946      4.5907      5.3352      6.4896      8.1101      15.673      19.055      22.203      24.764    
  26.436      27.017      26.436      24.764      22.203      19.055      15.673      12.407      9.5559      7.3137    
  5.7439      4.7664      4.1749      3.7278      3.3747      3.1143      2.9352      2.8219      2.7604      2.7410    
  2.7604      2.8219      2.9352      3.1143      3.3747      3.7278      4.1749      4.7664      5.7439      7.3137    
  9.5559      12.407      23.715      28.234      32.151      35.040      36.574      36.574      35.040      32.151    
  28.234      23.715      19.055      14.687      10.957      8.0786      6.1010      4.9044      4.2252      3.7478    
  3.3788      3.1143      2.9392      2.8353      2.7875      2.7875      2.8353      2.9392      3.1143      3.3788    
  3.7478      4.2252      4.9044      6.1010      8.0786      10.957      14.687      19.055      34.303      39.847    
  44.304      47.196      48.199      47.196      44.304      39.847      34.303      28.234      22.203      16.709    
  12.129      8.6690      6.3455      4.9808      4.2424      3.7478      3.3747      3.1153      2.9512      2.8623    
  2.8345      2.8623      2.9512      3.1153      3.3747      3.7478      4.2424      4.9808      6.3455      8.6690    
  12.129      16.709      22.203      28.234      47.202      53.527      58.173      60.636      60.636      58.173    
  53.527      47.202      39.847      32.151      24.764      18.223      12.907      8.9906      6.4324      4.9808    
  4.2252      3.7278      3.3625      3.1174      2.9712      2.9039      2.9039      2.9712      3.1174      3.3625    
  3.7278      4.2252      4.9808      6.4324      8.9906      12.907      18.223      24.764      32.151      39.847    
  61.909      68.640      73.009      74.523      73.009      68.640      61.909      53.527      44.304      35.040    
  26.436      19.033      13.179      8.9906      6.3455      4.9044      4.1749      3.6890      3.3429      3.1208    
  2.9997      2.9616      2.9997      3.1208      3.3429      3.6890      4.1749      4.9044      6.3455      8.9906    
  13.179      19.033      26.436      35.040      44.304      53.527      77.648      84.280      87.802      87.802    
  84.280      77.648      68.640      58.173      47.196      36.574      27.017      19.033      12.907      8.6690    
  6.1010      4.7665      4.0946      3.6336      3.3176      3.1267      3.0382      3.0382      3.1267      3.3176    
  3.6336      4.0946      4.7664      6.1010      8.6690      12.907      19.033      27.017      36.574      47.196    
  58.173      68.640      93.363      99.277      101.33      99.277      93.363      84.280      73.009      60.636    
  48.199      36.574      26.436      18.223      12.129      8.0786      5.7439      4.5907      3.9884      3.5654    
  3.2891      3.1369      3.0887      3.1369      3.2891      3.5654      3.9884      4.5907      5.7439      8.0786    
  12.129      18.223      26.436      36.574      48.199      60.636      73.009      84.280      107.76      112.27    
  112.27      107.76      99.277      87.802      74.523      60.636      47.196      35.040      24.764      16.709    
  10.957      7.3137      5.3352      4.3995      3.8629      3.4895      3.2608      3.1541      3.1541      3.2608    
  3.4895      3.8629      4.3995      5.3352      7.3137      10.957      16.709      24.764      35.040      47.196    
  60.636      74.523      87.802      99.277      119.42      121.91      119.42      112.27      101.33      87.802    
  73.009      58.173      44.304      32.151      22.203      14.687      9.5559      6.4896      4.9347      4.2016    
  3.7264      3.4116      3.2368      3.1812      3.2368      3.4117      3.7264      4.2016      4.9347      6.4896    
  9.5559      14.687      22.203      32.151      44.304      58.173      73.009      87.802      101.33      112.27    
  127.04      127.04      121.91      112.27      99.277      84.280      68.640      53.527      39.847      28.234    
  19.055      12.407      8.1101      5.7166      4.5817      3.9934      3.5880      3.3379      3.2205      3.2205    
  3.3379      3.5880      3.9934      4.5817      5.7166      8.1101      12.407      19.055      28.234      39.847    
  53.527      68.640      84.280      99.277      112.27      121.91      127.04      121.91      112.27      99.277    
  84.280      68.640      53.527      39.847      28.234      19.055      12.407      8.1101      5.7166      4.5817    
  3.9934      3.5880      3.3379      3.2205      3.2205      3.3379      3.5880      3.9934      4.5817      5.7166    
  8.1101      12.407      19.055      28.234      39.847      53.527      68.640      84.280      99.277      112.27    
  121.91      127.04      121.91      114.62      103.47      89.678      74.598      59.472      45.324      32.913    
  22.740      15.037      9.7624      6.5979      4.9871      4.2332      3.7510      3.4311      3.2532      3.1966    
  3.2532      3.4311      3.7510      4.2332      4.9871      6.5979      9.7624      15.037      22.740      32.913    
  45.324      59.472      74.598      89.678      103.47      114.62      121.91      124.44      112.27      103.47    
  91.553      77.763      63.336      49.360      36.698      25.965      17.520      11.457      7.5895      5.4713    
  4.4706      3.9164      3.5312      3.2948      3.1842      3.1842      3.2948      3.5312      3.9164      4.4706    
  5.4713      7.5895      11.457      17.520      25.965      36.698      49.360      63.336      77.763      91.553    
  103.47      112.27      116.96      116.96      99.277      89.678      77.763      64.677      51.503      39.163    
  28.359      19.562      12.986      8.5723      5.9966      4.7157      4.0737      3.6315      3.3415      3.1813    
  3.1305      3.1813      3.3415      3.6315      4.0737      4.7157      5.9966      8.5723      12.986      19.562    
  28.359      39.163      51.503      64.677      77.763      89.678      99.277      105.53      107.70      105.53    
  84.280      74.598      63.336      51.503      40.018      29.635      20.905      14.143      9.4079      6.4937    
  4.9595      4.2127      3.7250      3.3888      3.1848      3.0901      3.0901      3.1848      3.3888      3.7250    
  4.2127      4.9595      6.4937      9.4079      14.143      20.905      29.635      40.018      51.503      63.336    
  74.598      84.280      91.406      95.190      95.190      91.406      68.640      59.472      49.360      39.163    
  29.635      21.373      14.766      9.9690      6.8834      5.1725      4.3259      3.8051      3.4322      3.1917    
  3.0602      3.0187      3.0602      3.1917      3.4322      3.8051      4.3259      5.1725      6.8834      9.9690    
  14.766      21.373      29.635      39.163      49.360      59.472      68.640      75.991      80.758      82.411    
  80.758      75.991      53.527      45.324      36.698      28.359      20.905      14.766      10.167      7.0976    
  5.3192      4.4086      3.8661      3.4678      3.1991      3.0383      2.9642      2.9642      3.0383      3.1991    
  3.4678      3.8661      4.4086      5.3192      7.0976      10.167      14.766      20.905      28.359      36.698    
  45.324      53.527      60.557      65.711      68.440      68.440      65.711      60.557      39.847      32.913    
  25.965      19.562      14.143      9.9690      7.0976      5.3716      4.4531      3.9042      3.4930      3.2054    
  3.0227      2.9238      2.8927      2.9238      3.0227      3.2054      3.4930      3.9042      4.4531      5.3716    
  7.0976      9.9690      14.143      19.562      25.965      32.913      39.847      46.141      51.181      54.443    
  55.572      54.443      51.181      46.141      28.234      22.740      17.520      12.986      9.4079      6.8834    
  5.3192      4.4531      3.9172      3.5060      3.2094      3.0125      2.8957      2.8421      2.8421      2.8957    
  3.0125      3.2094      3.5060      3.9172      4.4531      5.3192      6.8834      9.4079      12.986      17.520    
  22.740      28.234      33.509      38.048      41.380      43.145      43.145      41.380      38.048      33.509    
  19.055      15.037      11.457      8.5723      6.4937      5.1725      4.4086      3.9042      3.5060      3.2107    
  3.0074      2.8791      2.8096      2.7878      2.8096      2.8791      3.0074      3.2107      3.5060      3.9042    
  4.4086      5.1725      6.4937      8.5723      11.457      15.037      19.055      23.154      26.926      29.969    
  31.945      32.631      31.945      29.969      26.926      23.154      12.407      9.7624      7.5895      5.9966    
  4.9595      4.3259      3.8661      3.4930      3.2094      3.0074      2.8735      2.7937      2.7568      2.7568    
  2.7937      2.8735      3.0074      3.2094      3.4930      3.8661      4.3259      4.9595      5.9966      7.5895    
  9.7624      12.407      15.306      18.166      20.671      22.530      23.520      23.520      22.530      20.671    
  18.166      15.306      8.1101      6.5979      5.4713      4.7157      4.2127      3.8051      3.4678      3.2054    
  3.0125      2.8791      2.7937      2.7468      2.7318      2.7468      2.7937      2.8791      3.0125      3.2054    
  3.4678      3.8051      4.2127      4.7157      5.4713      6.5979      8.1101      9.9191      11.853      13.693    
  15.210      16.209      16.557      16.209      15.210      13.693      11.853      9.9191      5.7166      4.9871    
  4.4706      4.0737      3.7250      3.4322      3.1991      3.0227      2.8957      2.8096      2.7568      2.7318    
  2.7318      2.7568      2.8096      2.8957      3.0227      3.1991      3.4322      3.7250      4.0737      4.4706    
  4.9871      5.7166      6.6750      7.8006      8.9727      10.040      10.852      11.291      11.291      10.852    
  10.040      8.9727      7.8006      6.6750      4.5817      4.2332      3.9164      3.6315      3.3888      3.1917    
  3.0383      2.9238      2.8421      2.7878      2.7568      2.7468      2.7568      2.7878      2.8421      2.9238    
  3.0383      3.1917      3.3888      3.6315      3.9164      4.2332      4.5817      5.0171      5.5625      6.1855    
  6.8129      7.3526      7.7176      7.8467      7.7176      7.3526      6.8129      6.1855      5.5625      5.0171    
  3.9934      3.7510      3.5312      3.3415      3.1848      3.0602      2.9642      2.8927      2.8421      2.8096    
  2.7937      2.7937      2.8096      2.8421      2.8927      2.9642      3.0602      3.1848      3.3415      3.5312    
  3.7510      3.9934      4.2460      4.5040      4.7869      5.0886      5.3756      5.6025      5.7280      5.7280    
  5.6025      5.3756      5.0886      4.7869      4.5040      4.2460      3.5880      3.4311      3.2948      3.1813    
  3.0901      3.0187      2.9642      2.9238      2.8957      2.8791      2.8735      2.8791      2.8957      2.9238    
  2.9642      3.0187      3.0901      3.1813      3.2948      3.4311      3.5880      3.7597      3.9371      4.1093    
  4.2659      4.4037      4.5178      4.5948      4.6222      4.5948      4.5178      4.4037      4.2659      4.1094    
  3.9371      3.7597      3.3379      3.2532      3.1842      3.1305      3.0901      3.0602      3.0383      3.0227    
  3.0125      3.0074      3.0074      3.0125      3.0227      3.0383      3.0602      3.0901      3.1305      3.1842    
  3.2532      3.3379      3.4363      3.5441      3.6546      3.7605      3.8542      3.9297      3.9822      4.0091    
  4.0091      3.9822      3.9297      3.8542      3.7605      3.6546      3.5441      3.4363      3.2205      3.1966    
  3.1842      3.1813      3.1848      3.1917      3.1991      3.2054      3.2094      3.2107      3.2094      3.2054    
  3.1991      3.1917      3.1848      3.1813      3.1842      3.1966      3.2205      3.2563      3.3022      3.3548    
  3.4095      3.4615      3.5061      3.5401      3.5613      3.5685      3.5613      3.5401      3.5061      3.4615    
  3.4095      3.3548      3.3021      3.2562      3.2205      3.2532      3.2948      3.3415      3.3888      3.4322    
  3.4678      3.4930      3.5060      3.5060      3.4930      3.4678      3.4322      3.3888      3.3415      3.2948    
  3.2532      3.2205      3.1990      3.1888      3.1887      3.1956      3.2065      3.2181      3.2283      3.2355    
  3.2393      3.2393      3.2355      3.2283      3.2181      3.2065      3.1956      3.1887      3.1888      3.1990    
  3.3379      3.4311      3.5312      3.6315      3.7250      3.8051      3.8661      3.9042      3.9172      3.9042    
  3.8661      3.8051      3.7250      3.6315      3.5312      3.4311      3.3379      3.2563      3.1888      3.1359    
  3.0960      3.0666      3.0450      3.0293      3.0183      3.0117      3.0095      3.0117      3.0183      3.0293    
  3.0450      3.0666      3.0960      3.1359      3.1888      3.2562      3.5880      3.7510      3.9164      4.0737    
  4.2127      4.3259      4.4086      4.4531      4.4531      4.4086      4.3259      4.2127      4.0737      3.9164    
  3.7510      3.5880      3.4363      3.3022      3.1887      3.0960      3.0223      2.9649      2.9212      2.8892    
  2.8680      2.8574      2.8574      2.8680      2.8892      2.9212      2.9649      3.0223      3.0960      3.1887    
  3.3021      3.4363      3.9934      4.2332      4.4706      4.7157      4.9595      5.1725      5.3192      5.3716    
  5.3192      5.1725      4.9595      4.7157      4.4706      4.2332      3.9934      3.7597      3.5441      3.3548    
  3.1956      3.0666      2.9649      2.8872      2.8298      2.7903      2.7670      2.7594      2.7670      2.7903    
  2.8298      2.8872      2.9649      3.0666      3.1956      3.3548      3.5441      3.7597      4.5817      4.9871    
  5.4713      5.9966      6.4937      6.8834      7.0976      7.0976      6.8834      6.4937      5.9966      5.4713    
  4.9871      4.5817      4.2460      3.9371      3.6546      3.4095      3.2065      3.0450      2.9212      2.8298    
  2.7659      2.7254      2.7058      2.7058      2.7254      2.7659      2.8298      2.9212      3.0450      3.2065    
  3.4095      3.6546      3.9371      4.2460      5.7166      6.5979      7.5895      8.5723      9.4079      9.9690    
  10.167      9.9690      9.4079      8.5723      7.5895      6.5979      5.7166      5.0171      4.5040      4.1093    
  3.7605      3.4615      3.2181      3.0293      2.8892      2.7903      2.7254      2.6888      2.6770      2.6888    
  2.7254      2.7903      2.8892      3.0293      3.2181      3.4615      3.7605      4.1094      4.5040      5.0171    
  8.1101      9.7624      11.457      12.986      14.143      14.766      14.766      14.143      12.986      11.457    
  9.7624      8.1101      6.6750      5.5625      4.7869      4.2659      3.8542      3.5061      3.2283      3.0183    
  2.8680      2.7670      2.7058      2.6770      2.6770      2.7058      2.7670      2.8680      3.0183      3.2283    
  3.5061      3.8542      4.2659      4.7869      5.5625      6.6750      12.407      15.037      17.520      19.562    
  20.905      21.373      20.905      19.562      17.520      15.037      12.407      9.9191      7.8006      6.1855    
  5.0886      4.4037      3.9297      3.5401      3.2355      3.0117      2.8574      2.7594      2.7058      2.6888    
  2.7058      2.7594      2.8574      3.0117      3.2355      3.5401      3.9297      4.4037      5.0886      6.1855    
  7.8006      9.9191      19.055      22.740      25.965      28.359      29.635      29.635      28.359      25.965    
  22.740      19.055      15.306      11.853      8.9727      6.8129      5.3756      4.5178      3.9822      3.5613    
  3.2393      3.0095      2.8574      2.7670      2.7254      2.7254      2.7670      2.8574      3.0095      3.2393    
  3.5613      3.9822      4.5178      5.3756      6.8129      8.9727      11.853      15.306      28.234      32.913    
  36.698      39.163      40.018      39.163      36.698      32.913      28.234      23.154      18.166      13.693    
  10.040      7.3526      5.6025      4.5948      4.0091      3.5685      3.2393      3.0117      2.8680      2.7903    
  2.7659      2.7903      2.8680      3.0117      3.2393      3.5685      4.0091      4.5948      5.6025      7.3526    
  10.040      13.693      18.166      23.154      39.847      45.324      49.360      51.503      51.503      49.360    
  45.324      39.847      33.509      26.926      20.671      15.210      10.852      7.7176      5.7280      4.6222    
  4.0091      3.5613      3.2355      3.0183      2.8892      2.8298      2.8298      2.8892      3.0183      3.2355    
  3.5613      4.0091      4.6222      5.7280      7.7176      10.852      15.210      20.671      26.926      33.509    
  53.527      59.472      63.336      64.677      63.336      59.472      53.527      46.141      38.048      29.969    
  22.530      16.209      11.291      7.8467      5.7280      4.5948      3.9822      3.5401      3.2283      3.0293    
  2.9212      2.8872      2.9212      3.0293      3.2283      3.5401      3.9822      4.5948      5.7280      7.8467    
  11.291      16.209      22.530      29.969      38.048      46.141      68.640      74.598      77.763      77.763    
  74.598      68.640      60.557      51.181      41.380      31.945      23.520      16.557      11.291      7.7176    
  5.6025      4.5178      3.9297      3.5061      3.2181      3.0450      2.9649      2.9649      3.0450      3.2181    
  3.5061      3.9297      4.5178      5.6025      7.7176      11.291      16.557      23.520      31.945      41.380    
  51.181      60.557      84.280      89.678      91.553      89.678      84.280      75.991      65.711      54.443    
  43.145      32.631      23.520      16.209      10.852      7.3526      5.3756      4.4037      3.8542      3.4615    
  3.2065      3.0666      3.0223      3.0666      3.2065      3.4615      3.8542      4.4037      5.3756      7.3526    
  10.852      16.209      23.520      32.631      43.145      54.443      65.711      75.991      99.277      103.47    