Co-fcc                                  
   1.00000000000000     
     0.000000    1.894609    1.894609
     1.894609    0.000000    1.894609
     1.894609    1.894609    0.000000
   Co
     1
Direct
  0.000000  0.000000  0.000000
 
   36   36   36
 0.12969637741E+03 0.12704243563E+03 0.11941923612E+03 0.10775793599E+03 0.93363417855E+02
 0.77648003583E+02 0.61909140817E+02 0.47202340290E+02 0.34303360013E+02 0.23714873554E+02
 0.15672624064E+02 0.10136899946E+02 0.67899346155E+01 0.50726646071E+01 0.42784140088E+01
 0.37849394769E+01 0.34562966990E+01 0.32731084220E+01 0.32148022573E+01 0.32731084220E+01
 0.34562966990E+01 0.37849394769E+01 0.42784140088E+01 0.50726646071E+01 0.67899346155E+01
 0.10136899946E+02 0.15672624064E+02 0.23714873554E+02 0.34303360013E+02 0.47202340290E+02
 0.61909140817E+02 0.77648003583E+02 0.93363417855E+02 0.10775793599E+03 0.11941923612E+03
 0.12704243563E+03 0.12704243563E+03 0.12190533317E+03 0.11227379272E+03 0.99276719510E+02
 0.84280414381E+02 0.68640275086E+02 0.53526692310E+02 0.39846880790E+02 0.28233933792E+02
 0.19054910581E+02 0.12407447213E+02 0.81100837157E+01 0.57165653321E+01 0.45817086340E+01
 0.39934064884E+01 0.35880377977E+01 0.33378789895E+01 0.32205310637E+01 0.32205299150E+01
 0.33378762656E+01 0.35880352656E+01 0.39934059745E+01 0.45817109693E+01 0.57165698042E+01
 0.81100883521E+01 0.12407449811E+02 0.19054909997E+02 0.28233930831E+02 0.39846878199E+02
 0.53526693754E+02 0.68640283507E+02 0.84280430435E+02 0.99276740831E+02 0.11227381440E+03
 0.12190534935E+03 0.12704244162E+03 0.11941923612E+03 0.11227379272E+03 0.10133081794E+03
 0.87802422897E+02 0.73008648548E+02 0.58173380128E+02 0.44304254025E+02 0.32151012356E+02
 0.22202911372E+02 0.14686813006E+02 0.95559134050E+01 0.64896123663E+01 0.49346863565E+01
 0.42015651663E+01 0.37264213944E+01 0.34116532037E+01 0.32367590407E+01 0.31811766721E+01
 0.32367553846E+01 0.34116481980E+01 0.37264183823E+01 0.42015666505E+01 0.49346925076E+01
 0.64896207414E+01 0.95559201065E+01 0.14686814777E+02 0.22202907604E+02 0.32151005962E+02
 0.44304250595E+02 0.58173385616E+02 0.73008666430E+02 0.87802452089E+02 0.10133085249E+03
 0.11227382359E+03 0.11941925433E+03 0.12190534935E+03 0.10775793599E+03 0.99276719510E+02
 0.87802422897E+02 0.74523330117E+02 0.60636264517E+02 0.47196261633E+02 0.35040429685E+02
 0.24763528684E+02 0.16709223569E+02 0.10957044487E+02 0.73137149804E+01 0.53351687251E+01
 0.43994879286E+01 0.38629137024E+01 0.34894733855E+01 0.32608481583E+01 0.31540799648E+01
 0.31540776573E+01 0.32608426544E+01 0.34894681738E+01 0.38629124285E+01 0.43994923307E+01
 0.53351775050E+01 0.73137242612E+01 0.10957049716E+02 0.16709221981E+02 0.24763521108E+02
 0.35040420706E+02 0.47196257890E+02 0.60636271771E+02 0.74523350381E+02 0.87802452959E+02
 0.99276751623E+02 0.10775796056E+03 0.11227382359E+03 0.11227381440E+03 0.93363417855E+02
 0.84280414381E+02 0.73008648548E+02 0.60636264517E+02 0.48198554369E+02 0.36574408435E+02
 0.26435605679E+02 0.18223176005E+02 0.12128552186E+02 0.80786395777E+01 0.57438928009E+01
 0.45906733550E+01 0.39884242816E+01 0.35654264369E+01 0.32891105333E+01 0.31368810636E+01
 0.30886986280E+01 0.31368772791E+01 0.32891052450E+01 0.35654229917E+01 0.39884252737E+01
 0.45906791303E+01 0.57439010668E+01 0.80786463737E+01 0.12128553797E+02 0.18223170911E+02
 0.26435595583E+02 0.36574397795E+02 0.48198548564E+02 0.60636267434E+02 0.73008660666E+02
 0.84280432277E+02 0.93363435400E+02 0.99276751623E+02 0.10133085249E+03 0.99276740831E+02
 0.77648003583E+02 0.68640275086E+02 0.58173380128E+02 0.47196261633E+02 0.36574408435E+02
 0.27016740395E+02 0.19033412506E+02 0.12906647830E+02 0.86690253173E+01 0.61010235058E+01
 0.47664462387E+01 0.40946303236E+01 0.36336187671E+01 0.33176157686E+01 0.31266743590E+01
 0.30381581755E+01 0.30381568422E+01 0.31266711037E+01 0.33176124468E+01 0.36336173950E+01
 0.40946320103E+01 0.47664505229E+01 0.61010284254E+01 0.86690282061E+01 0.12906646484E+02
 0.19033406187E+02 0.27016730212E+02 0.36574396916E+02 0.47196251681E+02 0.58173373841E+02
 0.68640272963E+02 0.77648004482E+02 0.84280432277E+02 0.87802452959E+02 0.87802452089E+02
 0.84280430435E+02 0.61909140817E+02 0.53526692310E+02 0.44304254025E+02 0.35040429685E+02
 0.26435605679E+02 0.19033412506E+02 0.13179269358E+02 0.89905857692E+01 0.63454587256E+01
 0.49044262200E+01 0.41749298925E+01 0.36890034685E+01 0.33429124742E+01 0.31208007055E+01
 0.29997210211E+01 0.29615914366E+01 0.29997202782E+01 0.31207995088E+01 0.33429113012E+01
 0.36890028101E+01 0.41749300509E+01 0.49044271385E+01 0.63454599073E+01 0.89905863225E+01
 0.13179268176E+02 0.19033408550E+02 0.26435598297E+02 0.35040418882E+02 0.44304240599E+02
 0.53526677795E+02 0.61909127235E+02 0.68640272963E+02 0.73008660666E+02 0.74523350381E+02
 0.73008666430E+02 0.68640283507E+02 0.47202340290E+02 0.39846880790E+02 0.32151012356E+02
 0.24763528684E+02 0.18223176005E+02 0.12906647830E+02 0.89905857692E+01 0.64323950039E+01
 0.49808278383E+01 0.42251764901E+01 0.37278476774E+01 0.33624577931E+01 0.31173576495E+01
 0.29711698609E+01 0.29038742542E+01 0.29038747592E+01 0.29711710126E+01 0.31173585781E+01
 0.33624576575E+01 0.37278462215E+01 0.42251742895E+01 0.49808260681E+01 0.64323947961E+01
 0.89905874653E+01 0.12906650523E+02 0.18223177650E+02 0.24763526835E+02 0.32151005235E+02
 0.39846868259E+02 0.47202324262E+02 0.53526677795E+02 0.58173373841E+02 0.60636267434E+02
 0.60636271771E+02 0.58173385616E+02 0.53526693754E+02 0.34303360013E+02 0.28233933792E+02
 0.22202911372E+02 0.16709223569E+02 0.12128552186E+02 0.86690253173E+01 0.63454587256E+01
 0.49808278383E+01 0.42424261993E+01 0.37478149158E+01 0.33746898893E+01 0.31153200132E+01
 0.29511701924E+01 0.28623421789E+01 0.28344573800E+01 0.28623442681E+01 0.29511731500E+01
 0.31153220729E+01 0.33746897432E+01 0.37478125248E+01 0.42424229697E+01 0.49808260310E+01
 0.63454603494E+01 0.86690310229E+01 0.12128560726E+02 0.16709232117E+02 0.22202916640E+02
 0.28233933458E+02 0.34303353830E+02 0.39846868259E+02 0.44304240599E+02 0.47196251681E+02
 0.48198548564E+02 0.47196257890E+02 0.44304250595E+02 0.39846878199E+02 0.23714873554E+02
 0.19054910581E+02 0.14686813006E+02 0.10957044487E+02 0.80786395777E+01 0.61010235058E+01
 0.49044262200E+01 0.42251764901E+01 0.37478149158E+01 0.33788405656E+01 0.31143268356E+01
 0.29391996080E+01 0.28353044285E+01 0.27875462949E+01 0.27875476511E+01 0.28353078128E+01
 0.29392033227E+01 0.31143290667E+01 0.33788403761E+01 0.37478128453E+01 0.42251744452E+01
 0.49044266776E+01 0.61010283854E+01 0.80786492951E+01 0.10957057648E+02 0.14686826887E+02
 0.19054922201E+02 0.23714880860E+02 0.28233933458E+02 0.32151005235E+02 0.35040418882E+02
 0.36574396916E+02 0.36574397795E+02 0.35040420706E+02 0.32151005962E+02 0.28233930831E+02
 0.15672624064E+02 0.12407447213E+02 0.95559134050E+01 0.73137149804E+01 0.57438928009E+01
 0.47664462387E+01 0.41749298925E+01 0.37278476774E+01 0.33746898893E+01 0.31143268356E+01
 0.29351986777E+01 0.28219303033E+01 0.27604132263E+01 0.27410365845E+01 0.27604154251E+01
 0.28219337764E+01 0.29352020242E+01 0.31143288679E+01 0.33746902506E+01 0.37278470966E+01
 0.41749299611E+01 0.47664487892E+01 0.57438991702E+01 0.73137254498E+01 0.95559270688E+01
 0.12407462297E+02 0.15672638537E+02 0.19054922201E+02 0.22202916640E+02 0.24763526835E+02
 0.26435598297E+02 0.27016730212E+02 0.26435595583E+02 0.24763521108E+02 0.22202907604E+02
 0.19054909997E+02 0.10136899946E+02 0.81100837157E+01 0.64896123663E+01 0.53351687251E+01
 0.45906733550E+01 0.40946303236E+01 0.36890034685E+01 0.33624577931E+01 0.31153200132E+01
 0.29391996080E+01 0.28219303033E+01 0.27515296580E+01 0.27187974662E+01 0.27187980898E+01
 0.27515313435E+01 0.28219325629E+01 0.29392018348E+01 0.31153217141E+01 0.33624587981E+01
 0.36890040365E+01 0.40946311177E+01 0.45906752724E+01 0.53351726490E+01 0.64896188917E+01
 0.81100929303E+01 0.10136911337E+02 0.12407462297E+02 0.14686826887E+02 0.16709232117E+02
 0.18223177650E+02 0.19033408550E+02 0.19033406187E+02 0.18223170911E+02 0.16709221981E+02
 0.14686814777E+02 0.12407449811E+02 0.67899346155E+01 0.57165653321E+01 0.49346863565E+01
 0.43994879286E+01 0.39884242816E+01 0.36336187671E+01 0.33429124742E+01 0.31173576495E+01
 0.29511701924E+01 0.28353044285E+01 0.27604132263E+01 0.27187974662E+01 0.27054939933E+01
 0.27187972899E+01 0.27604131077E+01 0.28353046680E+01 0.29511709219E+01 0.31173586698E+01
 0.33429132854E+01 0.36336187964E+01 0.39884232288E+01 0.43994860425E+01 0.49346844889E+01
 0.57165647062E+01 0.67899363446E+01 0.81100929303E+01 0.95559270688E+01 0.10957057648E+02
 0.12128560726E+02 0.12906650523E+02 0.13179268176E+02 0.12906646484E+02 0.12128553797E+02
 0.10957049716E+02 0.95559201065E+01 0.81100883521E+01 0.50726646071E+01 0.45817086340E+01
 0.42015651663E+01 0.38629137024E+01 0.35654264369E+01 0.33176157686E+01 0.31208007055E+01
 0.29711698609E+01 0.28623421789E+01 0.27875462949E+01 0.27410365845E+01 0.27187980898E+01
 0.27187972899E+01 0.27410345530E+01 0.27875439386E+01 0.28623404457E+01 0.29711692013E+01
 0.31208007658E+01 0.33176154964E+01 0.35654245620E+01 0.38629093819E+01 0.42015584910E+01
 0.45817007192E+01 0.50726572315E+01 0.57165647062E+01 0.64896188917E+01 0.73137254498E+01
 0.80786492951E+01 0.86690310229E+01 0.89905874653E+01 0.89905863225E+01 0.86690282061E+01
 0.80786463737E+01 0.73137242612E+01 0.64896207414E+01 0.57165698042E+01 0.42784140088E+01
 0.39934064884E+01 0.37264213944E+01 0.34894733855E+01 0.32891105333E+01 0.31266743590E+01
 0.29997210211E+01 0.29038742542E+01 0.28344573800E+01 0.27875476511E+01 0.27604154251E+01
 0.27515313435E+01 0.27604131077E+01 0.27875439386E+01 0.28344536603E+01 0.29038716834E+01
 0.29997199269E+01 0.31266740302E+01 0.32891095123E+01 0.34894701374E+01 0.37264150409E+01
 0.39933972823E+01 0.42784033069E+01 0.45817007192E+01 0.49346844889E+01 0.53351726490E+01
 0.57438991702E+01 0.61010283854E+01 0.63454603494E+01 0.64323947961E+01 0.63454599073E+01
 0.61010284254E+01 0.57439010668E+01 0.53351775050E+01 0.49346925076E+01 0.45817109693E+01
 0.37849394769E+01 0.35880377977E+01 0.34116532037E+01 0.32608481583E+01 0.31368810636E+01
 0.30381581755E+01 0.29615914366E+01 0.29038747592E+01 0.28623442681E+01 0.28353078128E+01
 0.28219337764E+01 0.28219325629E+01 0.28353046680E+01 0.28623404457E+01 0.29038716834E+01
 0.29615900270E+01 0.30381584029E+01 0.31368819364E+01 0.32608481517E+01 0.34116509405E+01
 0.35880326637E+01 0.37849319062E+01 0.39933972823E+01 0.42015584910E+01 0.43994860425E+01
 0.45906752724E+01 0.47664487892E+01 0.49044266776E+01 0.49808260310E+01 0.49808260681E+01
 0.49044271385E+01 0.47664505229E+01 0.45906791303E+01 0.43994923307E+01 0.42015666505E+01
 0.39934059745E+01 0.34562966990E+01 0.33378789895E+01 0.32367590407E+01 0.31540799648E+01
 0.30886986280E+01 0.30381568422E+01 0.29997202782E+01 0.29711710126E+01 0.29511731500E+01
 0.29392033227E+01 0.29352020242E+01 0.29392018348E+01 0.29511709219E+01 0.29711692013E+01
 0.29997199269E+01 0.30381584029E+01 0.30887017452E+01 0.31540836128E+01 0.32367619446E+01
 0.33378801483E+01 0.34562957721E+01 0.35880326637E+01 0.37264150409E+01 0.38629093819E+01
 0.39884232288E+01 0.40946311177E+01 0.41749299611E+01 0.42251744452E+01 0.42424229697E+01
 0.42251742895E+01 0.41749300509E+01 0.40946320103E+01 0.39884252737E+01 0.38629124285E+01
 0.37264183823E+01 0.35880352656E+01 0.32731084220E+01 0.32205310637E+01 0.31811766721E+01
 0.31540776573E+01 0.31368772791E+01 0.31266711037E+01 0.31207995088E+01 0.31173585781E+01
 0.31153220729E+01 0.31143290667E+01 0.31143288679E+01 0.31153217141E+01 0.31173586698E+01
 0.31208007658E+01 0.31266740302E+01 0.31368819364E+01 0.31540836128E+01 0.31811831454E+01
 0.32205371973E+01 0.32731135646E+01 0.33378801483E+01 0.34116509405E+01 0.34894701374E+01
 0.35654245620E+01 0.36336187964E+01 0.36890040365E+01 0.37278470966E+01 0.37478128453E+01
 0.37478125248E+01 0.37278462215E+01 0.36890028101E+01 0.36336173950E+01 0.35654229917E+01
 0.34894681738E+01 0.34116481980E+01 0.33378762656E+01 0.32148022573E+01 0.32205299150E+01
 0.32367553846E+01 0.32608426544E+01 0.32891052450E+01 0.33176124468E+01 0.33429113012E+01
 0.33624576575E+01 0.33746897432E+01 0.33788403761E+01 0.33746902506E+01 0.33624587981E+01
 0.33429132854E+01 0.33176154964E+01 0.32891095123E+01 0.32608481517E+01 0.32367619446E+01
 0.32205371973E+01 0.32148097958E+01 0.32205371973E+01 0.32367619446E+01 0.32608481517E+01
 0.32891095123E+01 0.33176154964E+01 0.33429132854E+01 0.33624587981E+01 0.33746902506E+01
 0.33788403761E+01 0.33746897432E+01 0.33624576575E+01 0.33429113012E+01 0.33176124468E+01
 0.32891052450E+01 0.32608426544E+01 0.32367553846E+01 0.32205299150E+01 0.32731084220E+01
 0.33378762656E+01 0.34116481980E+01 0.34894681738E+01 0.35654229917E+01 0.36336173950E+01
 0.36890028101E+01 0.37278462215E+01 0.37478125248E+01 0.37478128453E+01 0.37278470966E+01
 0.36890040365E+01 0.36336187964E+01 0.35654245620E+01 0.34894701374E+01 0.34116509405E+01
 0.33378801483E+01 0.32731135646E+01 0.32205371973E+01 0.31811831454E+01 0.31540836128E+01
 0.31368819364E+01 0.31266740302E+01 0.31208007658E+01 0.31173586698E+01 0.31153217141E+01
 0.31143288679E+01 0.31143290667E+01 0.31153220729E+01 0.31173585781E+01 0.31207995088E+01
 0.31266711037E+01 0.31368772791E+01 0.31540776573E+01 0.31811766721E+01 0.32205310637E+01
 0.34562966990E+01 0.35880352656E+01 0.37264183823E+01 0.38629124285E+01 0.39884252737E+01
 0.40946320103E+01 0.41749300509E+01 0.42251742895E+01 0.42424229697E+01 0.42251744452E+01
 0.41749299611E+01 0.40946311177E+01 0.39884232288E+01 0.38629093819E+01 0.37264150409E+01
 0.35880326637E+01 0.34562957721E+01 0.33378801483E+01 0.32367619446E+01 0.31540836128E+01
 0.30887017452E+01 0.30381584029E+01 0.29997199269E+01 0.29711692013E+01 0.29511709219E+01
 0.29392018348E+01 0.29352020242E+01 0.29392033227E+01 0.29511731500E+01 0.29711710126E+01
 0.29997202782E+01 0.30381568422E+01 0.30886986280E+01 0.31540799648E+01 0.32367590407E+01
 0.33378789895E+01 0.37849394769E+01 0.39934059745E+01 0.42015666505E+01 0.43994923307E+01
 0.45906791303E+01 0.47664505229E+01 0.49044271385E+01 0.49808260681E+01 0.49808260310E+01
 0.49044266776E+01 0.47664487892E+01 0.45906752724E+01 0.43994860425E+01 0.42015584910E+01
 0.39933972823E+01 0.37849319062E+01 0.35880326637E+01 0.34116509405E+01 0.32608481517E+01
 0.31368819364E+01 0.30381584029E+01 0.29615900270E+01 0.29038716834E+01 0.28623404457E+01
 0.28353046680E+01 0.28219325629E+01 0.28219337764E+01 0.28353078128E+01 0.28623442681E+01
 0.29038747592E+01 0.29615914366E+01 0.30381581755E+01 0.31368810636E+01 0.32608481583E+01
 0.34116532037E+01 0.35880377977E+01 0.42784140088E+01 0.45817109693E+01 0.49346925076E+01
 0.53351775050E+01 0.57439010668E+01 0.61010284254E+01 0.63454599073E+01 0.64323947961E+01
 0.63454603494E+01 0.61010283854E+01 0.57438991702E+01 0.53351726490E+01 0.49346844889E+01
 0.45817007192E+01 0.42784033069E+01 0.39933972823E+01 0.37264150409E+01 0.34894701374E+01
 0.32891095123E+01 0.31266740302E+01 0.29997199269E+01 0.29038716834E+01 0.28344536603E+01
 0.27875439386E+01 0.27604131077E+01 0.27515313435E+01 0.27604154251E+01 0.27875476511E+01
 0.28344573800E+01 0.29038742542E+01 0.29997210211E+01 0.31266743590E+01 0.32891105333E+01
 0.34894733855E+01 0.37264213944E+01 0.39934064884E+01 0.50726646071E+01 0.57165698042E+01
 0.64896207414E+01 0.73137242612E+01 0.80786463737E+01 0.86690282061E+01 0.89905863225E+01
 0.89905874653E+01 0.86690310229E+01 0.80786492951E+01 0.73137254498E+01 0.64896188917E+01
 0.57165647062E+01 0.50726572315E+01 0.45817007192E+01 0.42015584910E+01 0.38629093819E+01
 0.35654245620E+01 0.33176154964E+01 0.31208007658E+01 0.29711692013E+01 0.28623404457E+01
 0.27875439386E+01 0.27410345530E+01 0.27187972899E+01 0.27187980898E+01 0.27410365845E+01
 0.27875462949E+01 0.28623421789E+01 0.29711698609E+01 0.31208007055E+01 0.33176157686E+01
 0.35654264369E+01 0.38629137024E+01 0.42015651663E+01 0.45817086340E+01 0.67899346155E+01
 0.81100883521E+01 0.95559201065E+01 0.10957049716E+02 0.12128553797E+02 0.12906646484E+02
 0.13179268176E+02 0.12906650523E+02 0.12128560726E+02 0.10957057648E+02 0.95559270688E+01
 0.81100929303E+01 0.67899363446E+01 0.57165647062E+01 0.49346844889E+01 0.43994860425E+01
 0.39884232288E+01 0.36336187964E+01 0.33429132854E+01 0.31173586698E+01 0.29511709219E+01
 0.28353046680E+01 0.27604131077E+01 0.27187972899E+01 0.27054939933E+01 0.27187974662E+01
 0.27604132263E+01 0.28353044285E+01 0.29511701924E+01 0.31173576495E+01 0.33429124742E+01
 0.36336187671E+01 0.39884242816E+01 0.43994879286E+01 0.49346863565E+01 0.57165653321E+01
 0.10136899946E+02 0.12407449811E+02 0.14686814777E+02 0.16709221981E+02 0.18223170911E+02
 0.19033406187E+02 0.19033408550E+02 0.18223177650E+02 0.16709232117E+02 0.14686826887E+02
 0.12407462297E+02 0.10136911337E+02 0.81100929303E+01 0.64896188917E+01 0.53351726490E+01
 0.45906752724E+01 0.40946311177E+01 0.36890040365E+01 0.33624587981E+01 0.31153217141E+01
 0.29392018348E+01 0.28219325629E+01 0.27515313435E+01 0.27187980898E+01 0.27187974662E+01
 0.27515296580E+01 0.28219303033E+01 0.29391996080E+01 0.31153200132E+01 0.33624577931E+01
 0.36890034685E+01 0.40946303236E+01 0.45906733550E+01 0.53351687251E+01 0.64896123663E+01
 0.81100837157E+01 0.15672624064E+02 0.19054909997E+02 0.22202907604E+02 0.24763521108E+02
 0.26435595583E+02 0.27016730212E+02 0.26435598297E+02 0.24763526835E+02 0.22202916640E+02
 0.19054922201E+02 0.15672638537E+02 0.12407462297E+02 0.95559270688E+01 0.73137254498E+01
 0.57438991702E+01 0.47664487892E+01 0.41749299611E+01 0.37278470966E+01 0.33746902506E+01
 0.31143288679E+01 0.29352020242E+01 0.28219337764E+01 0.27604154251E+01 0.27410365845E+01
 0.27604132263E+01 0.28219303033E+01 0.29351986777E+01 0.31143268356E+01 0.33746898893E+01
 0.37278476774E+01 0.41749298925E+01 0.47664462387E+01 0.57438928009E+01 0.73137149804E+01
 0.95559134050E+01 0.12407447213E+02 0.23714873554E+02 0.28233930831E+02 0.32151005962E+02
 0.35040420706E+02 0.36574397795E+02 0.36574396916E+02 0.35040418882E+02 0.32151005235E+02
 0.28233933458E+02 0.23714880860E+02 0.19054922201E+02 0.14686826887E+02 0.10957057648E+02
 0.80786492951E+01 0.61010283854E+01 0.49044266776E+01 0.42251744452E+01 0.37478128453E+01
 0.33788403761E+01 0.31143290667E+01 0.29392033227E+01 0.28353078128E+01 0.27875476511E+01
 0.27875462949E+01 0.28353044285E+01 0.29391996080E+01 0.31143268356E+01 0.33788405656E+01
 0.37478149158E+01 0.42251764901E+01 0.49044262200E+01 0.61010235058E+01 0.80786395777E+01
 0.10957044487E+02 0.14686813006E+02 0.19054910581E+02 0.34303360013E+02 0.39846878199E+02
 0.44304250595E+02 0.47196257890E+02 0.48198548564E+02 0.47196251681E+02 0.44304240599E+02
 0.39846868259E+02 0.34303353830E+02 0.28233933458E+02 0.22202916640E+02 0.16709232117E+02
 0.12128560726E+02 0.86690310229E+01 0.63454603494E+01 0.49808260310E+01 0.42424229697E+01
 0.37478125248E+01 0.33746897432E+01 0.31153220729E+01 0.29511731500E+01 0.28623442681E+01
 0.28344573800E+01 0.28623421789E+01 0.29511701924E+01 0.31153200132E+01 0.33746898893E+01
 0.37478149158E+01 0.42424261993E+01 0.49808278383E+01 0.63454587256E+01 0.86690253173E+01
 0.12128552186E+02 0.16709223569E+02 0.22202911372E+02 0.28233933792E+02 0.47202340290E+02
 0.53526693754E+02 0.58173385616E+02 0.60636271771E+02 0.60636267434E+02 0.58173373841E+02
 0.53526677795E+02 0.47202324262E+02 0.39846868259E+02 0.32151005235E+02 0.24763526835E+02
 0.18223177650E+02 0.12906650523E+02 0.89905874653E+01 0.64323947961E+01 0.49808260681E+01
 0.42251742895E+01 0.37278462215E+01 0.33624576575E+01 0.31173585781E+01 0.29711710126E+01
 0.29038747592E+01 0.29038742542E+01 0.29711698609E+01 0.31173576495E+01 0.33624577931E+01
 0.37278476774E+01 0.42251764901E+01 0.49808278383E+01 0.64323950039E+01 0.89905857692E+01
 0.12906647830E+02 0.18223176005E+02 0.24763528684E+02 0.32151012356E+02 0.39846880790E+02
 0.61909140817E+02 0.68640283507E+02 0.73008666430E+02 0.74523350381E+02 0.73008660666E+02
 0.68640272963E+02 0.61909127235E+02 0.53526677795E+02 0.44304240599E+02 0.35040418882E+02
 0.26435598297E+02 0.19033408550E+02 0.13179268176E+02 0.89905863225E+01 0.63454599073E+01
 0.49044271385E+01 0.41749300509E+01 0.36890028101E+01 0.33429113012E+01 0.31207995088E+01
 0.29997202782E+01 0.29615914366E+01 0.29997210211E+01 0.31208007055E+01 0.33429124742E+01
 0.36890034685E+01 0.41749298925E+01 0.49044262200E+01 0.63454587256E+01 0.89905857692E+01
 0.13179269358E+02 0.19033412506E+02 0.26435605679E+02 0.35040429685E+02 0.44304254025E+02
 0.53526692310E+02 0.77648003583E+02 0.84280430435E+02 0.87802452089E+02 0.87802452959E+02
 0.84280432277E+02 0.77648004482E+02 0.68640272963E+02 0.58173373841E+02 0.47196251681E+02
 0.36574396916E+02 0.27016730212E+02 0.19033406187E+02 0.12906646484E+02 0.86690282061E+01
 0.61010284254E+01 0.47664505229E+01 0.40946320103E+01 0.36336173950E+01 0.33176124468E+01
 0.31266711037E+01 0.30381568422E+01 0.30381581755E+01 0.31266743590E+01 0.33176157686E+01
 0.36336187671E+01 0.40946303236E+01 0.47664462387E+01 0.61010235058E+01 0.86690253173E+01
 0.12906647830E+02 0.19033412506E+02 0.27016740395E+02 0.36574408435E+02 0.47196261633E+02
 0.58173380128E+02 0.68640275086E+02 0.93363417855E+02 0.99276740831E+02 0.10133085249E+03
 0.99276751623E+02 0.93363435400E+02 0.84280432277E+02 0.73008660666E+02 0.60636267434E+02
 0.48198548564E+02 0.36574397795E+02 0.26435595583E+02 0.18223170911E+02 0.12128553797E+02
 0.80786463737E+01 0.57439010668E+01 0.45906791303E+01 0.39884252737E+01 0.35654229917E+01
 0.32891052450E+01 0.31368772791E+01 0.30886986280E+01 0.31368810636E+01 0.32891105333E+01
 0.35654264369E+01 0.39884242816E+01 0.45906733550E+01 0.57438928009E+01 0.80786395777E+01
 0.12128552186E+02 0.18223176005E+02 0.26435605679E+02 0.36574408435E+02 0.48198554369E+02
 0.60636264517E+02 0.73008648548E+02 0.84280414381E+02 0.10775793599E+03 0.11227381440E+03
 0.11227382359E+03 0.10775796056E+03 0.99276751623E+02 0.87802452959E+02 0.74523350381E+02
 0.60636271771E+02 0.47196257890E+02 0.35040420706E+02 0.24763521108E+02 0.16709221981E+02
 0.10957049716E+02 0.73137242612E+01 0.53351775050E+01 0.43994923307E+01 0.38629124285E+01
 0.34894681738E+01 0.32608426544E+01 0.31540776573E+01 0.31540799648E+01 0.32608481583E+01
 0.34894733855E+01 0.38629137024E+01 0.43994879286E+01 0.53351687251E+01 0.73137149804E+01
 0.10957044487E+02 0.16709223569E+02 0.24763528684E+02 0.35040429685E+02 0.47196261633E+02
 0.60636264517E+02 0.74523330117E+02 0.87802422897E+02 0.99276719510E+02 0.11941923612E+03
 0.12190534935E+03 0.11941925433E+03 0.11227382359E+03 0.10133085249E+03 0.87802452089E+02
 0.73008666430E+02 0.58173385616E+02 0.44304250595E+02 0.32151005962E+02 0.22202907604E+02
 0.14686814777E+02 0.95559201065E+01 0.64896207414E+01 0.49346925076E+01 0.42015666505E+01
 0.37264183823E+01 0.34116481980E+01 0.32367553846E+01 0.31811766721E+01 0.32367590407E+01
 0.34116532037E+01 0.37264213944E+01 0.42015651663E+01 0.49346863565E+01 0.64896123663E+01
 0.95559134050E+01 0.14686813006E+02 0.22202911372E+02 0.32151012356E+02 0.44304254025E+02
 0.58173380128E+02 0.73008648548E+02 0.87802422897E+02 0.10133081794E+03 0.11227379272E+03
 0.12704243563E+03 0.12704244162E+03 0.12190534935E+03 0.11227381440E+03 0.99276740831E+02
 0.84280430435E+02 0.68640283507E+02 0.53526693754E+02 0.39846878199E+02 0.28233930831E+02
 0.19054909997E+02 0.12407449811E+02 0.81100883521E+01 0.57165698042E+01 0.45817109693E+01
 0.39934059745E+01 0.35880352656E+01 0.33378762656E+01 0.32205299150E+01 0.32205310637E+01
 0.33378789895E+01 0.35880377977E+01 0.39934064884E+01 0.45817086340E+01 0.57165653321E+01
 0.81100837157E+01 0.12407447213E+02 0.19054910581E+02 0.28233933792E+02 0.39846880790E+02
 0.53526692310E+02 0.68640275086E+02 0.84280414381E+02 0.99276719510E+02 0.11227379272E+03
 0.12190533317E+03 0.12704243563E+03 0.12190533317E+03 0.11227379272E+03 0.99276719510E+02
 0.84280414381E+02 0.68640275086E+02 0.53526692310E+02 0.39846880790E+02 0.28233933792E+02
 0.19054910581E+02 0.12407447213E+02 0.81100837157E+01 0.57165653321E+01 0.45817086340E+01
 0.39934064884E+01 0.35880377977E+01 0.33378789895E+01 0.32205310637E+01 0.32205299150E+01
 0.33378762656E+01 0.35880352656E+01 0.39934059745E+01 0.45817109693E+01 0.57165698042E+01
 0.81100883521E+01 0.12407449811E+02 0.19054909997E+02 0.28233930831E+02 0.39846878199E+02
 0.53526693754E+02 0.68640283507E+02 0.84280430435E+02 0.99276740831E+02 0.11227381440E+03
 0.12190534935E+03 0.12704244162E+03 0.12190533317E+03 0.11462139638E+03 0.10346704899E+03
 0.89677894463E+02 0.74598107503E+02 0.59472238433E+02 0.45323609328E+02 0.32913428445E+02
 0.22739793766E+02 0.15036707585E+02 0.97623942664E+01 0.65978815797E+01 0.49870990404E+01
 0.42331775258E+01 0.37510422676E+01 0.34311319823E+01 0.32532087734E+01 0.31966374015E+01
 0.32532047618E+01 0.34311264779E+01 0.37510389248E+01 0.42331790913E+01 0.49871057313E+01
 0.65978907838E+01 0.97624018094E+01 0.15036710012E+02 0.22739790518E+02 0.32913422780E+02
 0.45323607376E+02 0.59472246640E+02 0.74598129514E+02 0.89677928858E+02 0.10346708899E+03
 0.11462143180E+03 0.12190535397E+03 0.12443974388E+03 0.11227379272E+03 0.10346704899E+03
 0.91552884654E+02 0.77763272537E+02 0.63336142981E+02 0.49360145673E+02 0.36698100555E+02
 0.25964827747E+02 0.17520475695E+02 0.11457421693E+02 0.75894606353E+01 0.54713059799E+01
 0.44706374197E+01 0.39163832348E+01 0.35311646312E+01 0.32947706981E+01 0.31842276493E+01
 0.31842248276E+01 0.32947639498E+01 0.35311581817E+01 0.39163815174E+01 0.44706425956E+01
 0.54713165938E+01 0.75894721824E+01 0.11457428918E+02 0.17520475542E+02 0.25964821485E+02
 0.36698093895E+02 0.49360146619E+02 0.63336158225E+02 0.77763303982E+02 0.91552927675E+02
 0.10346709339E+03 0.11227382613E+03 0.11696336443E+03 0.11696335202E+03 0.99276719510E+02
 0.89677894463E+02 0.77763272537E+02 0.64676722194E+02 0.51503280063E+02 0.39162535189E+02
 0.28359262803E+02 0.19562231092E+02 0.12985762563E+02 0.85722813006E+01 0.59965560826E+01
 0.47157098232E+01 0.40736935663E+01 0.36315067708E+01 0.33414732448E+01 0.31812912706E+01
 0.31305311383E+01 0.31812859059E+01 0.33414656871E+01 0.36315016878E+01 0.40736946198E+01
 0.47157176257E+01 0.59965676918E+01 0.85722915881E+01 0.12985766852E+02 0.19562227799E+02
 0.28359254728E+02 0.39162528713E+02 0.51503282445E+02 0.64676738138E+02 0.77763301562E+02
 0.89677930365E+02 0.99276752287E+02 0.10552570410E+03 0.10769644164E+03 0.10552568456E+03
 0.84280414381E+02 0.74598107503E+02 0.63336142981E+02 0.51503280063E+02 0.40018111298E+02
 0.29635208117E+02 0.20904528347E+02 0.14142578069E+02 0.94078924871E+01 0.64937059971E+01
 0.49594776157E+01 0.42126997384E+01 0.37250495427E+01 0.33887777020E+01 0.31848322578E+01
 0.30900913625E+01 0.30900889536E+01 0.31848263487E+01 0.33887715789E+01 0.37250467882E+01
 0.42127023773E+01 0.49594850039E+01 0.64937150263E+01 0.94078990474E+01 0.14142579088E+02
 0.20904523427E+02 0.29635199954E+02 0.40018104608E+02 0.51503279470E+02 0.63336150800E+02
 0.74598122468E+02 0.84280431915E+02 0.91406262641E+02 0.95189632469E+02 0.95189627141E+02
 0.91406248646E+02 0.68640275086E+02 0.59472238433E+02 0.49360145673E+02 0.39162535189E+02
 0.29635208117E+02 0.21372586443E+02 0.14765690779E+02 0.99689939750E+01 0.68833680367E+01
 0.51725205399E+01 0.43258714596E+01 0.38050894275E+01 0.34321722347E+01 0.31916735340E+01
 0.30601965380E+01 0.30187367223E+01 0.30601937625E+01 0.31916692738E+01 0.34321684842E+01
 0.38050879764E+01 0.43258730705E+01 0.51725245806E+01 0.68833727268E+01 0.99689971329E+01
 0.14765690730E+02 0.21372582688E+02 0.29635201485E+02 0.39162527422E+02 0.49360138663E+02
 0.59472233477E+02 0.68640272480E+02 0.75991410258E+02 0.80758456942E+02 0.82410838633E+02
 0.80758457016E+02 0.75991411111E+02 0.53526692310E+02 0.45323609328E+02 0.36698100555E+02
 0.28359262803E+02 0.20904528347E+02 0.14765690779E+02 0.10166649714E+02 0.70976269049E+01
 0.53192368777E+01 0.44086276592E+01 0.38661242737E+01 0.34678392986E+01 0.31991284276E+01
 0.30383335024E+01 0.29641908270E+01 0.29641904820E+01 0.30383324645E+01 0.31991267463E+01
 0.34678372014E+01 0.38661222497E+01 0.44086263887E+01 0.53192369782E+01 0.70976285676E+01
 0.10166652405E+02 0.14765693182E+02 0.20904528658E+02 0.28359259327E+02 0.36698092408E+02
 0.45323596972E+02 0.53526677674E+02 0.60556602330E+02 0.65711247242E+02 0.68440430733E+02
 0.68440434378E+02 0.65711257259E+02 0.60556616262E+02 0.39846880790E+02 0.32913428445E+02
 0.25964827747E+02 0.19562231092E+02 0.14142578069E+02 0.99689939750E+01 0.70976269049E+01
 0.53716464599E+01 0.44530685713E+01 0.39042491090E+01 0.34930069240E+01 0.32053551182E+01
 0.30227341152E+01 0.29237815517E+01 0.28927056272E+01 0.29237828195E+01 0.30227356327E+01
 0.32053554725E+01 0.34930052172E+01 0.39042456506E+01 0.44530649395E+01 0.53716448340E+01
 0.70976289410E+01 0.99689997699E+01 0.14142585755E+02 0.19562237345E+02 0.25964829080E+02
 0.32913422748E+02 0.39846868454E+02 0.46140995753E+02 0.51181068449E+02 0.54442911344E+02
 0.55572041479E+02 0.54442920195E+02 0.51181083211E+02 0.46141011680E+02 0.28233933792E+02
 0.22739793766E+02 0.17520475695E+02 0.12985762563E+02 0.94078924871E+01 0.68833680367E+01
 0.53192368777E+01 0.44530685713E+01 0.39172014504E+01 0.35059785493E+01 0.32093535935E+01
 0.30125012061E+01 0.28957085223E+01 0.28420620834E+01 0.28420635149E+01 0.28957119830E+01
 0.30125046502E+01 0.32093549068E+01 0.35059767885E+01 0.39171975369E+01 0.44530650398E+01
 0.53192367518E+01 0.68833733330E+01 0.94079030654E+01 0.12985775910E+02 0.17520487801E+02
 0.22739800767E+02 0.28233933640E+02 0.33508788296E+02 0.38048096343E+02 0.41380362055E+02
 0.43144567957E+02 0.43144571249E+02 0.41380370458E+02 0.38048106072E+02 0.33508794873E+02
 0.19054910581E+02 0.15036707585E+02 0.11457421693E+02 0.85722813006E+01 0.64937059971E+01
 0.51725205399E+01 0.44086276592E+01 0.39042491090E+01 0.35059785493E+01 0.32107180365E+01