   1   1   1   0
  0.1360156E+02  0.2679382E-09  0.2679382E-09  0.2679382E-09  0.5000000E-15
  1.000000000000000E-004
  CAR 
 Co-fcc                                  
     47.80942869     -2.43218669  301      7.53529151      1.00000000
     -2.432  0.0000E+00  0.0000E+00  0.0000E+00  0.0000E+00
     -2.265  0.0000E+00  0.0000E+00  0.0000E+00  0.0000E+00
     -2.097  0.0000E+00  0.0000E+00  0.0000E+00  0.0000E+00
     -1.930  0.0000E+00  0.0000E+00  0.0000E+00  0.0000E+00
     -1.762  0.0000E+00  0.0000E+00  0.0000E+00  0.0000E+00
     -1.595  0.0000E+00  0.0000E+00  0.0000E+00  0.0000E+00
     -1.427  0.0000E+00  0.0000E+00  0.0000E+00  0.0000E+00
     -1.260  0.0000E+00  0.0000E+00  0.0000E+00  0.0000E+00
     -1.092  0.0000E+00  0.0000E+00  0.0000E+00  0.0000E+00
     -0.925  0.0000E+00  0.0000E+00  0.0000E+00  0.0000E+00
     -0.757  0.0000E+00  0.0000E+00  0.0000E+00  0.0000E+00
     -0.590  0.0000E+00  0.0000E+00  0.0000E+00  0.0000E+00
     -0.423  0.0000E+00  0.1062E-17  0.0000E+00  0.1778E-18
     -0.255  0.1078E-07  0.3003E-06  0.1805E-08  0.5030E-07
     -0.088  0.1856E-03  0.2230E-03  0.3109E-04  0.3740E-04
      0.080  0.4761E-04  0.1020E-04  0.3906E-04  0.3911E-04
      0.247  0.4957E-03  0.6423E-03  0.1221E-03  0.1467E-03
      0.415  0.2041E-03  0.5735E-04  0.1563E-03  0.1563E-03
      0.582  0.4923E-03  0.6281E-03  0.2387E-03  0.2615E-03
      0.750  0.2075E-03  0.7179E-04  0.2734E-03  0.2735E-03
      0.917  0.7252E-03  0.8440E-03  0.3949E-03  0.4148E-03
      1.085  0.2082E-03  0.8987E-04  0.4298E-03  0.4299E-03
      1.252  0.1261E-02  0.1319E-02  0.6409E-03  0.6508E-03
      1.420  0.1482E-03  0.8395E-04  0.6657E-03  0.6649E-03
      1.587  0.6860E-03  0.6870E-03  0.7806E-03  0.7800E-03
      1.755  0.1489E-03  0.4587E-04  0.8055E-03  0.7876E-03
      1.922  0.1255E-02  0.1358E-02  0.1016E-02  0.1015E-02
      2.090  0.1569E-02  0.5090E-03  0.1278E-02  0.1100E-02
      2.257  0.5810E-03  0.1594E-02  0.1376E-02  0.1367E-02
      2.425  0.7324E-03  0.5320E-03  0.1498E-02  0.1456E-02
      2.592  0.9534E-03  0.2150E-03  0.1658E-02  0.1492E-02
      2.759  0.2543E-02  0.1546E-02  0.2084E-02  0.1751E-02
      2.927  0.1188E-02  0.1215E-02  0.2283E-02  0.1955E-02
      3.094  0.1706E-02  0.9258E-03  0.2569E-02  0.2110E-02
      3.262  0.4686E-02  0.1397E-02  0.3353E-02  0.2344E-02
      3.429  0.8969E-02  0.1212E-02  0.4855E-02  0.2547E-02
      3.597  0.5462E-02  0.1318E-02  0.5770E-02  0.2767E-02
      3.764  0.1088E-01  0.1863E-02  0.7593E-02  0.3079E-02
      3.932  0.1109E-01  0.2359E-02  0.9450E-02  0.3474E-02
      4.099  0.1313E-01  0.1241E-02  0.1165E-01  0.3682E-02
      4.267  0.1097E-01  0.3510E-02  0.1349E-01  0.4270E-02
      4.434  0.1285E-01  0.3908E-02  0.1564E-01  0.4925E-02
      4.602  0.1131E-01  0.3446E-02  0.1753E-01  0.5502E-02
      4.769  0.1432E-01  0.6210E-02  0.1993E-01  0.6542E-02
      4.937  0.1876E-01  0.3744E-02  0.2307E-01  0.7169E-02
      5.104  0.2217E-01  0.6818E-02  0.2678E-01  0.8311E-02
      5.272  0.2193E-01  0.6292E-02  0.3046E-01  0.9364E-02
      5.439  0.1570E-01  0.1071E-01  0.3309E-01  0.1116E-01
      5.606  0.1712E-01  0.9236E-02  0.3595E-01  0.1270E-01
      5.774  0.2048E-01  0.9498E-02  0.3938E-01  0.1429E-01
      5.941  0.1567E-01  0.9400E-02  0.4201E-01  0.1587E-01
      6.109  0.1406E-01  0.1110E-01  0.4436E-01  0.1773E-01
      6.276  0.1808E-01  0.1339E-01  0.4739E-01  0.1997E-01
      6.444  0.2244E-01  0.1179E-01  0.5115E-01  0.2194E-01
      6.611  0.8105E-02  0.1422E-01  0.5250E-01  0.2433E-01
      6.779  0.1678E-02  0.1381E-01  0.5279E-01  0.2664E-01
      6.946  0.8081E-03  0.1632E-01  0.5292E-01  0.2937E-01
      7.114  0.2719E-02  0.1396E-01  0.5338E-01  0.3171E-01
      7.281  0.1298E-02  0.1005E-01  0.5359E-01  0.3339E-01
      7.449  0.1854E-02  0.9326E-02  0.5390E-01  0.3495E-01
      7.616  0.1009E-04  0.1507E-01  0.5391E-01  0.3748E-01
      7.784  0.1458E-02  0.1372E-01  0.5415E-01  0.3978E-01
      7.951  0.4133E-02  0.1591E-01  0.5484E-01  0.4244E-01
      8.119  0.2943E-03  0.1259E-01  0.5489E-01  0.4455E-01
      8.286  0.1812E-02  0.1923E-01  0.5520E-01  0.4777E-01
      8.453  0.1344E-02  0.2590E-01  0.5542E-01  0.5211E-01
      8.621  0.5189E-03  0.4456E-02  0.5551E-01  0.5285E-01
      8.788  0.8352E-03  0.3829E-02  0.5565E-01  0.5349E-01
      8.956  0.2827E-02  0.3838E-02  0.5612E-01  0.5414E-01
      9.123  0.4527E-03  0.2098E-02  0.5620E-01  0.5449E-01
      9.291  0.3780E-02  0.1058E-02  0.5683E-01  0.5466E-01
      9.458  0.7379E-03  0.2008E-02  0.5695E-01  0.5500E-01
      9.626  0.2880E-03  0.2949E-02  0.5700E-01  0.5549E-01
      9.793  0.1374E-02  0.1883E-02  0.5723E-01  0.5581E-01
      9.961  0.4369E-03  0.1449E-02  0.5730E-01  0.5605E-01
     10.128  0.7728E-03  0.2363E-02  0.5743E-01  0.5645E-01
     10.296  0.2167E-02  0.3156E-02  0.5780E-01  0.5698E-01
     10.463  0.2653E-02  0.5571E-03  0.5824E-01  0.5707E-01
     10.631  0.6698E-03  0.4051E-03  0.5835E-01  0.5714E-01
     10.798  0.4232E-04  0.1641E-02  0.5836E-01  0.5741E-01
     10.966  0.1806E-02  0.1822E-02  0.5866E-01  0.5772E-01
     11.133  0.1686E-02  0.1739E-02  0.5895E-01  0.5801E-01
     11.301  0.1704E-06  0.1645E-02  0.5895E-01  0.5828E-01
     11.468  0.3621E-03  0.6254E-03  0.5901E-01  0.5839E-01
     11.635  0.1037E-02  0.7860E-03  0.5918E-01  0.5852E-01
     11.803  0.4309E-03  0.2518E-02  0.5925E-01  0.5894E-01
     11.970  0.1142E-02  0.2135E-03  0.5944E-01  0.5898E-01
     12.138  0.2510E-02  0.1201E-02  0.5986E-01  0.5918E-01
     12.305  0.2184E-02  0.2259E-06  0.6023E-01  0.5918E-01
     12.473  0.7914E-04  0.7071E-03  0.6024E-01  0.5930E-01
     12.640  0.1383E-02  0.1392E-02  0.6047E-01  0.5953E-01
     12.808  0.1596E-02  0.1203E-02  0.6074E-01  0.5973E-01
     12.975  0.3290E-02  0.5249E-03  0.6129E-01  0.5982E-01
     13.143  0.9109E-03  0.2143E-02  0.6145E-01  0.6018E-01
     13.310  0.4502E-03  0.1269E-02  0.6152E-01  0.6039E-01
     13.478  0.2362E-02  0.2539E-02  0.6192E-01  0.6082E-01
     13.645  0.1376E-02  0.2086E-02  0.6215E-01  0.6117E-01
     13.813  0.9191E-03  0.1652E-02  0.6230E-01  0.6144E-01
     13.980  0.4943E-03  0.1537E-02  0.6238E-01  0.6170E-01
     14.148  0.1358E-02  0.1308E-02  0.6261E-01  0.6192E-01
     14.315  0.3347E-02  0.2313E-02  0.6317E-01  0.6231E-01
     14.482  0.9148E-03  0.4530E-03  0.6332E-01  0.6238E-01
     14.650  0.1377E-02  0.1213E-03  0.6355E-01  0.6240E-01
     14.817  0.1378E-02  0.4389E-02  0.6379E-01  0.6314E-01
     14.985  0.2093E-03  0.1025E-02  0.6382E-01  0.6331E-01
     15.152  0.1213E-02  0.6125E-03  0.6402E-01  0.6341E-01
     15.320  0.8956E-03  0.2244E-02  0.6417E-01  0.6379E-01
     15.487  0.2051E-02  0.7875E-04  0.6452E-01  0.6380E-01
     15.655  0.2694E-02  0.1325E-02  0.6497E-01  0.6402E-01
     15.822  0.1674E-02  0.6409E-03  0.6525E-01  0.6413E-01
     15.990  0.1311E-02  0.1131E-02  0.6547E-01  0.6432E-01
     16.157  0.4574E-02  0.2101E-02  0.6623E-01  0.6467E-01
     16.325  0.9140E-03  0.3165E-02  0.6639E-01  0.6520E-01
     16.492  0.1882E-02  0.1917E-02  0.6670E-01  0.6552E-01
     16.660  0.2166E-02  0.3036E-02  0.6707E-01  0.6603E-01
     16.827  0.1906E-02  0.2702E-02  0.6738E-01  0.6648E-01
     16.995  0.2275E-03  0.6974E-03  0.6742E-01  0.6660E-01
     17.162  0.1546E-02  0.2805E-02  0.6768E-01  0.6707E-01
     17.330  0.1428E-02  0.2064E-02  0.6792E-01  0.6742E-01
     17.497  0.3133E-02  0.6023E-03  0.6845E-01  0.6752E-01
     17.664  0.1970E-02  0.1058E-02  0.6878E-01  0.6769E-01
     17.832  0.2688E-02  0.2362E-02  0.6923E-01  0.6809E-01
     17.999  0.1718E-02  0.3242E-02  0.6951E-01  0.6863E-01
     18.167  0.3174E-02  0.2335E-02  0.7004E-01  0.6902E-01
     18.334  0.2936E-02  0.1930E-02  0.7054E-01  0.6935E-01
     18.502  0.1303E-02  0.2561E-02  0.7075E-01  0.6978E-01
     18.669  0.2014E-02  0.2974E-02  0.7109E-01  0.7027E-01
     18.837  0.4891E-03  0.2153E-02  0.7117E-01  0.7063E-01
     19.004  0.3180E-02  0.2684E-02  0.7171E-01  0.7108E-01
     19.172  0.1994E-02  0.6196E-03  0.7204E-01  0.7119E-01
     19.339  0.3560E-02  0.2106E-02  0.7264E-01  0.7154E-01
     19.507  0.1390E-02  0.2973E-02  0.7287E-01  0.7204E-01
     19.674  0.1673E-02  0.3721E-02  0.7315E-01  0.7266E-01
     19.842  0.1633E-02  0.6622E-03  0.7342E-01  0.7277E-01
     20.009  0.3937E-02  0.2587E-02  0.7408E-01  0.7321E-01
     20.177  0.1048E-02  0.2315E-02  0.7426E-01  0.7359E-01
     20.344  0.1795E-02  0.2871E-02  0.7456E-01  0.7407E-01
     20.511  0.2933E-02  0.1519E-02  0.7505E-01  0.7433E-01
     20.679  0.1947E-02  0.2172E-02  0.7538E-01  0.7469E-01
     20.846  0.3034E-02  0.2197E-02  0.7588E-01  0.7506E-01
     21.014  0.2840E-02  0.2432E-02  0.7636E-01  0.7547E-01
     21.181  0.2517E-02  0.3250E-02  0.7678E-01  0.7601E-01
     21.349  0.3652E-02  0.2332E-02  0.7739E-01  0.7640E-01
     21.516  0.3096E-02  0.2820E-02  0.7791E-01  0.7687E-01
     21.684  0.5785E-03  0.3937E-02  0.7801E-01  0.7753E-01
     21.851  0.4951E-03  0.2799E-02  0.7809E-01  0.7800E-01
     22.019  0.4905E-02  0.4834E-04  0.7891E-01  0.7801E-01
     22.186  0.1626E-02  0.2949E-02  0.7918E-01  0.7850E-01
     22.354  0.3552E-02  0.3251E-02  0.7978E-01  0.7905E-01
     22.521  0.6184E-03  0.1542E-02  0.7988E-01  0.7931E-01
     22.689  0.2317E-03  0.3206E-02  0.7992E-01  0.7984E-01
     22.856  0.2424E-02  0.2679E-03  0.8033E-01  0.7989E-01
     23.024  0.2061E-02  0.1533E-02  0.8067E-01  0.8015E-01
     23.191  0.1355E-02  0.2025E-02  0.8090E-01  0.8048E-01
     23.359  0.4400E-02  0.1915E-02  0.8164E-01  0.8081E-01
     23.526  0.5979E-03  0.2639E-02  0.8174E-01  0.8125E-01
     23.693  0.3223E-02  0.2587E-02  0.8228E-01  0.8168E-01
     23.861  0.6349E-03  0.1870E-02  0.8238E-01  0.8199E-01
     24.028  0.2177E-02  0.2319E-02  0.8275E-01  0.8238E-01
     24.196  0.1997E-02  0.5490E-04  0.8308E-01  0.8239E-01
     24.363  0.5328E-04  0.3789E-02  0.8309E-01  0.8303E-01
     24.531  0.1188E-02  0.3576E-03  0.8329E-01  0.8309E-01
     24.698  0.3604E-02  0.3641E-03  0.8389E-01  0.8315E-01
     24.866  0.2324E-02  0.4987E-02  0.8428E-01  0.8398E-01
     25.033  0.1385E-02  0.9950E-03  0.8451E-01  0.8415E-01
     25.201  0.1425E-02  0.2093E-02  0.8475E-01  0.8450E-01
     25.368  0.3011E-02  0.9780E-03  0.8526E-01  0.8466E-01
     25.536  0.7670E-03  0.2440E-02  0.8539E-01  0.8507E-01
     25.703  0.2976E-02  0.1457E-02  0.8588E-01  0.8532E-01
     25.871  0.1821E-02  0.2353E-02  0.8619E-01  0.8571E-01
     26.038  0.1796E-02  0.2347E-02  0.8649E-01  0.8610E-01
     26.206  0.2854E-02  0.1792E-02  0.8697E-01  0.8640E-01
     26.373  0.1605E-02  0.4558E-02  0.8724E-01  0.8717E-01
     26.540  0.3235E-02  0.1605E-02  0.8778E-01  0.8744E-01
     26.708  0.2708E-02  0.2267E-02  0.8823E-01  0.8781E-01
     26.875  0.2394E-02  0.2000E-02  0.8863E-01  0.8815E-01
     27.043  0.8773E-03  0.3074E-02  0.8878E-01  0.8866E-01
     27.210  0.3022E-02  0.1672E-02  0.8929E-01  0.8894E-01
     27.378  0.5250E-02  0.3318E-02  0.9017E-01  0.8950E-01
     27.545  0.3328E-02  0.5970E-02  0.9072E-01  0.9050E-01
     27.713  0.2137E-02  0.1530E-02  0.9108E-01  0.9076E-01
     27.880  0.4273E-02  0.1853E-02  0.9180E-01  0.9107E-01
     28.048  0.3384E-02  0.5886E-02  0.9236E-01  0.9205E-01
     28.215  0.1456E-02  0.2922E-02  0.9261E-01  0.9254E-01
     28.383  0.3305E-02  0.9394E-03  0.9316E-01  0.9270E-01
     28.550  0.3844E-02  0.4531E-02  0.9380E-01  0.9346E-01
     28.718  0.2812E-02  0.3729E-02  0.9428E-01  0.9408E-01
     28.885  0.2490E-02  0.1970E-02  0.9469E-01  0.9441E-01
     29.053  0.5375E-02  0.1867E-02  0.9559E-01  0.9473E-01
     29.220  0.1273E-02  0.2524E-02  0.9581E-01  0.9515E-01
     29.388  0.1288E-02  0.4316E-02  0.9602E-01  0.9587E-01
     29.555  0.3245E-02  0.4101E-02  0.9656E-01  0.9656E-01
     29.722  0.4708E-02  0.5949E-03  0.9735E-01  0.9666E-01
     29.890  0.3956E-02  0.3270E-02  0.9802E-01  0.9720E-01
     30.057  0.3255E-02  0.4384E-02  0.9856E-01  0.9794E-01
     30.225  0.1201E-02  0.4049E-02  0.9876E-01  0.9862E-01
     30.392  0.2751E-02  0.1004E-02  0.9922E-01  0.9879E-01
     30.560  0.6789E-03  0.1532E-02  0.9934E-01  0.9904E-01
     30.727  0.4165E-04  0.2000E-02  0.9934E-01  0.9938E-01
     30.895  0.7702E-03  0.4561E-03  0.9947E-01  0.9945E-01
     31.062  0.4039E-02  0.3390E-03  0.1001E+00  0.9951E-01
     31.230  0.3311E-02  0.4612E-02  0.1007E+00  0.1003E+00
     31.397  0.2738E-05  0.2464E-02  0.1007E+00  0.1007E+00
     31.565  0.1049E-02  0.4937E-04  0.1009E+00  0.1007E+00
     31.732  0.4607E-03  0.2138E-03  0.1010E+00  0.1007E+00
     31.900  0.2433E-02  0.1153E-02  0.1014E+00  0.1009E+00
     32.067  0.3565E-02  0.3602E-02  0.1020E+00  0.1015E+00
     32.235  0.1097E-02  0.4685E-03  0.1021E+00  0.1016E+00
     32.402  0.9878E-03  0.1951E-02  0.1023E+00  0.1019E+00
     32.569  0.5231E-02  0.2629E-02  0.1032E+00  0.1024E+00
     32.737  0.5986E-02  0.4208E-02  0.1042E+00  0.1031E+00
     32.904  0.2048E-02  0.5939E-02  0.1045E+00  0.1041E+00
     33.072  0.1292E-02  0.1995E-02  0.1047E+00  0.1044E+00
     33.239  0.3839E-02  0.1049E-02  0.1054E+00  0.1046E+00
     33.407  0.4696E-02  0.3830E-02  0.1062E+00  0.1052E+00
     33.574  0.2069E-02  0.5927E-02  0.1065E+00  0.1062E+00
     33.742  0.1947E-02  0.2857E-02  0.1068E+00  0.1067E+00
     33.909  0.2744E-02  0.2778E-02  0.1073E+00  0.1072E+00
     34.077  0.2068E-02  0.1502E-02  0.1077E+00  0.1074E+00
     34.244  0.1088E-03  0.1811E-02  0.1077E+00  0.1077E+00
     34.412  0.3149E-02  0.1111E-02  0.1082E+00  0.1079E+00
     34.579  0.3218E-02  0.2781E-02  0.1087E+00  0.1084E+00
     34.747  0.1858E-02  0.2973E-02  0.1091E+00  0.1089E+00
     34.914  0.4222E-02  0.3379E-02  0.1098E+00  0.1094E+00
     35.082  0.6251E-02  0.2117E-02  0.1108E+00  0.1098E+00
     35.249  0.2037E-02  0.6472E-02  0.1111E+00  0.1109E+00
     35.416  0.2022E-03  0.1352E-02  0.1112E+00  0.1111E+00
     35.584  0.8906E-03  0.6106E-03  0.1113E+00  0.1112E+00
     35.751  0.2894E-02  0.2461E-02  0.1118E+00  0.1116E+00
     35.919  0.1744E-02  0.1002E-02  0.1121E+00  0.1118E+00
     36.086  0.1361E-02  0.2334E-02  0.1123E+00  0.1122E+00
     36.254  0.1229E-02  0.1471E-02  0.1125E+00  0.1124E+00
     36.421  0.2522E-02  0.1864E-02  0.1130E+00  0.1127E+00
     36.589  0.2373E-02  0.1978E-02  0.1134E+00  0.1131E+00
     36.756  0.3924E-02  0.4412E-02  0.1140E+00  0.1138E+00
     36.924  0.1903E-02  0.1998E-02  0.1143E+00  0.1141E+00
     37.091  0.1689E-02  0.7369E-03  0.1146E+00  0.1143E+00
     37.259  0.2056E-02  0.3476E-02  0.1150E+00  0.1148E+00
     37.426  0.1600E-02  0.6933E-03  0.1152E+00  0.1150E+00
     37.594  0.1219E-02  0.1931E-04  0.1154E+00  0.1150E+00
     37.761  0.8933E-03  0.3075E-02  0.1156E+00  0.1155E+00
     37.929  0.2875E-02  0.1087E-02  0.1161E+00  0.1157E+00
     38.096  0.1692E-02  0.2805E-02  0.1163E+00  0.1161E+00
     38.264  0.1722E-02  0.2439E-02  0.1166E+00  0.1165E+00
     38.431  0.1188E-02  0.1771E-02  0.1168E+00  0.1168E+00
     38.598  0.3711E-03  0.6794E-06  0.1169E+00  0.1168E+00
     38.766  0.1028E-02  0.1887E-05  0.1171E+00  0.1168E+00
     38.933  0.2150E-06  0.1340E-02  0.1171E+00  0.1171E+00
     39.101  0.2660E-02  0.2258E-02  0.1175E+00  0.1174E+00
     39.268  0.2306E-02  0.1366E-02  0.1179E+00  0.1177E+00
     39.436  0.1330E-02  0.2696E-02  0.1181E+00  0.1181E+00
     39.603  0.4273E-03  0.1579E-03  0.1182E+00  0.1181E+00
     39.771  0.3582E-03  0.5777E-03  0.1183E+00  0.1182E+00
     39.938  0.1942E-02  0.1413E-02  0.1186E+00  0.1185E+00
     40.106  0.7288E-04  0.6859E-03  0.1186E+00  0.1186E+00
     40.273  0.4110E-03  0.4684E-09  0.1187E+00  0.1186E+00
     40.441  0.9884E-03  0.4396E-05  0.1188E+00  0.1186E+00
     40.608  0.1916E-07  0.1364E-02  0.1188E+00  0.1188E+00
     40.776  0.0000E+00  0.3153E-04  0.1188E+00  0.1188E+00
     40.943  0.0000E+00  0.0000E+00  0.1188E+00  0.1188E+00
     41.111  0.1085E-08  0.1872E-13  0.1188E+00  0.1188E+00
     41.278  0.3702E-03  0.2384E-04  0.1189E+00  0.1188E+00
     41.445  0.1047E-02  0.7791E-03  0.1191E+00  0.1190E+00
     41.613  0.7416E-03  0.1989E-02  0.1192E+00  0.1193E+00
     41.780  0.6402E-03  0.6589E-05  0.1193E+00  0.1193E+00
     41.948  0.2704E-06  0.0000E+00  0.1193E+00  0.1193E+00
     42.115  0.0000E+00  0.0000E+00  0.1193E+00  0.1193E+00
     42.283  0.3305E-10  0.6681E-11  0.1193E+00  0.1193E+00
     42.450  0.1918E-03  0.1320E-03  0.1193E+00  0.1193E+00
     42.618  0.5091E-03  0.5689E-03  0.1194E+00  0.1194E+00
     42.785  0.1321E-02  0.1320E-02  0.1196E+00  0.1196E+00
     42.953  0.7695E-04  0.7844E-04  0.1196E+00  0.1196E+00
     43.120  0.1659E-12  0.1764E-12  0.1196E+00  0.1196E+00
     43.288  0.4859E-11  0.2239E-10  0.1196E+00  0.1196E+00
     43.455  0.1219E-03  0.1758E-03  0.1197E+00  0.1197E+00
     43.623  0.5778E-03  0.5239E-03  0.1198E+00  0.1198E+00
     43.790  0.5085E-07  0.1671E-07  0.1198E+00  0.1198E+00
     43.958  0.0000E+00  0.0000E+00  0.1198E+00  0.1198E+00
     44.125  0.3884E-19  0.0000E+00  0.1198E+00  0.1198E+00
     44.293  0.1439E-06  0.0000E+00  0.1198E+00  0.1198E+00
     44.460  0.8056E-03  0.0000E+00  0.1199E+00  0.1198E+00
     44.627  0.5937E-03  0.6324E-09  0.1200E+00  0.1198E+00
     44.795  0.1377E-07  0.3395E-03  0.1200E+00  0.1198E+00
     44.962  0.0000E+00  0.3602E-03  0.1200E+00  0.1199E+00
     45.130  0.0000E+00  0.9110E-09  0.1200E+00  0.1199E+00
     45.297  0.0000E+00  0.3680E-13  0.1200E+00  0.1199E+00
     45.465  0.0000E+00  0.2973E-04  0.1200E+00  0.1199E+00
     45.632  0.0000E+00  0.6691E-03  0.1200E+00  0.1200E+00
     45.800  0.0000E+00  0.9010E-06  0.1200E+00  0.1200E+00
     45.967  0.0000E+00  0.0000E+00  0.1200E+00  0.1200E+00
     46.135  0.0000E+00  0.0000E+00  0.1200E+00  0.1200E+00
     46.302  0.0000E+00  0.0000E+00  0.1200E+00  0.1200E+00
     46.470  0.0000E+00  0.0000E+00  0.1200E+00  0.1200E+00
     46.637  0.0000E+00  0.0000E+00  0.1200E+00  0.1200E+00
     46.805  0.0000E+00  0.0000E+00  0.1200E+00  0.1200E+00
     46.972  0.0000E+00  0.0000E+00  0.1200E+00  0.1200E+00
     47.140  0.0000E+00  0.0000E+00  0.1200E+00  0.1200E+00
     47.307  0.0000E+00  0.0000E+00  0.1200E+00  0.1200E+00
     47.474  0.0000E+00  0.0000E+00  0.1200E+00  0.1200E+00
     47.642  0.0000E+00  0.0000E+00  0.1200E+00  0.1200E+00
     47.809  0.0000E+00  0.0000E+00  0.1200E+00  0.1200E+00
     47.80942869     -2.43218669  301      7.53529151      1.00000000
     -2.432  0.0000E+00  0.0000E+00  0.0000E+00  0.0000E+00  0.0000E+00  0.0000E+00  0.0000E+00  0.0000E+00  0.0000E+00  0.0000E+00  0.0000E+00  0.0000E+00  0.0000E+00  0.0000E+00  0.0000E+00  0.0000E+00  0.0000E+00  0.0000E+00
     -2.265  0.0000E+00  0.0000E+00  0.0000E+00  0.0000E+00  0.0000E+00  0.0000E+00  0.0000E+00  0.0000E+00  0.0000E+00  0.0000E+00  0.0000E+00  0.0000E+00  0.0000E+00  0.0000E+00  0.0000E+00  0.0000E+00  0.0000E+00  0.0000E+00
     -2.097  0.0000E+00  0.0000E+00  0.0000E+00  0.0000E+00  0.0000E+00  0.0000E+00  0.0000E+00  0.0000E+00  0.0000E+00  0.0000E+00  0.0000E+00  0.0000E+00  0.0000E+00  0.0000E+00  0.0000E+00  0.0000E+00  0.0000E+00  0.0000E+00
     -1.930  0.0000E+00  0.0000E+00  0.0000E+00  0.0000E+00  0.0000E+00  0.0000E+00  0.0000E+00  0.0000E+00  0.0000E+00  0.0000E+00  0.0000E+00  0.0000E+00  0.0000E+00  0.0000E+00  0.0000E+00  0.0000E+00  0.0000E+00  0.0000E+00
     -1.762  0.0000E+00  0.0000E+00  0.0000E+00  0.0000E+00  0.0000E+00  0.0000E+00  0.0000E+00  0.0000E+00  0.0000E+00  0.0000E+00  0.0000E+00  0.0000E+00  0.0000E+00  0.0000E+00  0.0000E+00  0.0000E+00  0.0000E+00  0.0000E+00
     -1.595  0.0000E+00  0.0000E+00  0.0000E+00  0.0000E+00  0.0000E+00  0.0000E+00  0.0000E+00  0.0000E+00  0.0000E+00  0.0000E+00  0.0000E+00  0.0000E+00  0.0000E+00  0.0000E+00  0.0000E+00  0.0000E+00  0.0000E+00  0.0000E+00
     -1.427  0.0000E+00  0.0000E+00  0.0000E+00  0.0000E+00  0.0000E+00  0.0000E+00  0.0000E+00  0.0000E+00  0.0000E+00  0.0000E+00  0.0000E+00  0.0000E+00  0.0000E+00  0.0000E+00  0.0000E+00  0.0000E+00  0.0000E+00  0.0000E+00
     -1.260  0.0000E+00  0.0000E+00  0.0000E+00  0.0000E+00  0.0000E+00  0.0000E+00  0.0000E+00  0.0000E+00  0.0000E+00  0.0000E+00  0.0000E+00  0.0000E+00  0.0000E+00  0.0000E+00  0.0000E+00  0.0000E+00  0.0000E+00  0.0000E+00
     -1.092  0.0000E+00  0.0000E+00  0.0000E+00  0.0000E+00  0.0000E+00  0.0000E+00  0.0000E+00  0.0000E+00  0.0000E+00  0.0000E+00  0.0000E+00  0.0000E+00  0.0000E+00  0.0000E+00  0.0000E+00  0.0000E+00  0.0000E+00  0.0000E+00
     -0.925  0.0000E+00  0.0000E+00  0.0000E+00  0.0000E+00  0.0000E+00  0.0000E+00  0.0000E+00  0.0000E+00  0.0000E+00  0.0000E+00  0.0000E+00  0.0000E+00  0.0000E+00  0.0000E+00  0.0000E+00  0.0000E+00  0.0000E+00  0.0000E+00
     -0.757  0.0000E+00  0.0000E+00  0.0000E+00  0.0000E+00  0.0000E+00  0.0000E+00  0.0000E+00  0.0000E+00  0.0000E+00  0.0000E+00  0.0000E+00  0.0000E+00  0.0000E+00  0.0000E+00  0.0000E+00  0.0000E+00  0.0000E+00  0.0000E+00
     -0.590  0.0000E+00  0.0000E+00  0.0000E+00  0.0000E+00  0.0000E+00  0.0000E+00  0.0000E+00  0.0000E+00  0.0000E+00  0.0000E+00  0.0000E+00  0.0000E+00  0.0000E+00  0.0000E+00  0.0000E+00  0.0000E+00  0.0000E+00  0.0000E+00
     -0.423  0.0000E+00  0.5877E-16  0.0000E+00  0.2509E-18  0.0000E+00  0.2509E-18  0.0000E+00  0.2509E-18  0.0000E+00  0.2911E-20  0.0000E+00  0.2911E-20  0.0000E+00  0.1267E-35  0.0000E+00  0.2911E-20  0.0000E+00  0.1267E-35
     -0.255  0.6042E-06  0.1663E-04  0.2544E-08  0.7097E-07  0.2544E-08  0.7097E-07  0.2544E-08  0.7097E-07  0.4488E-10  0.8234E-09  0.4488E-10  0.8234E-09  0.5593E-24  0.3584E-24  0.4488E-10  0.8234E-09  0.5593E-24  0.3584E-24
     -0.088  0.1041E-01  0.1235E-01  0.4382E-04  0.5270E-04  0.4382E-04  0.5270E-04  0.4382E-04  0.5270E-04  0.7732E-06  0.6114E-06  0.7732E-06  0.6114E-06  0.9635E-20  0.5835E-20  0.7732E-06  0.6114E-06  0.9635E-20  0.5835E-20
      0.080  0.2669E-02  0.5641E-03  0.1125E-04  0.2588E-05  0.1125E-04  0.2588E-05  0.1125E-04  0.2588E-05  0.1986E-06  0.3238E-07  0.1986E-06  0.3238E-07  0.3705E-09  0.6926E-08  0.1986E-06  0.3238E-07  0.3705E-09  0.6926E-08
      0.247  0.2684E-01  0.3433E-01  0.4198E-03  0.5454E-03  0.4198E-03  0.5454E-03  0.4198E-03  0.5454E-03  0.1391E-04  0.1155E-04  0.1391E-04  0.1155E-04  0.1866E-04  0.1535E-04  0.1391E-04  0.1155E-04  0.1866E-04  0.1535E-04
      0.415  0.1105E-01  0.3065E-02  0.1728E-03  0.4880E-04  0.1728E-03  0.4880E-04  0.1728E-03  0.4880E-04  0.5729E-05  0.1046E-05  0.5729E-05  0.1046E-05  0.7682E-05  0.1370E-05  0.5729E-05  0.1046E-05  0.7682E-05  0.1370E-05
      0.582  0.2571E-01  0.3238E-01  0.6948E-03  0.8942E-03  0.6948E-03  0.8942E-03  0.6948E-03  0.8942E-03  0.7818E-04  0.6171E-04  0.7818E-04  0.6171E-04  0.1801E-04  0.1456E-04  0.7818E-04  0.6171E-04  0.1801E-04  0.1456E-04
      0.750  0.1083E-01  0.3701E-02  0.2928E-03  0.1024E-03  0.2928E-03  0.1024E-03  0.2928E-03  0.1024E-03  0.3295E-04  0.7063E-05  0.3295E-04  0.7063E-05  0.7597E-05  0.1705E-05  0.3295E-04  0.7063E-05  0.7597E-05  0.1705E-05
      0.917  0.3635E-01  0.4187E-01  0.1420E-02  0.1674E-02  0.1420E-02  0.1674E-02  0.1420E-02  0.1674E-02  0.1354E-03  0.9115E-04  0.1354E-03  0.9115E-04  0.2283E-03  0.1559E-03  0.1354E-03  0.9115E-04  0.2283E-03  0.1559E-03
      1.085  0.1043E-01  0.4456E-02  0.4089E-03  0.1791E-03  0.4089E-03  0.1791E-03  0.4089E-03  0.1791E-03  0.3432E-04  0.9008E-05  0.3432E-04  0.9008E-05  0.7064E-04  0.1759E-04  0.3432E-04  0.9008E-05  0.7064E-04  0.1759E-04
      1.252  0.6063E-01  0.6295E-01  0.3087E-02  0.3296E-02  0.3087E-02  0.3296E-02  0.3087E-02  0.3296E-02  0.5945E-03  0.3632E-03  0.5945E-03  0.3632E-03  0.4151E-03  0.2499E-03  0.5945E-03  0.3632E-03  0.4151E-03  0.2499E-03
      1.420  0.7106E-02  0.3996E-02  0.3659E-03  0.2117E-03  0.3659E-03  0.2117E-03  0.3659E-03  0.2117E-03  0.7778E-04  0.2512E-04  0.7778E-04  0.2512E-04  0.4751E-04  0.1551E-04  0.7778E-04  0.2512E-04  0.4751E-04  0.1551E-04
      1.587  0.3145E-01  0.3149E-01  0.1886E-02  0.1988E-02  0.1886E-02  0.1988E-02  0.1886E-02  0.1988E-02  0.8669E-03  0.4636E-03  0.8669E-03  0.4636E-03  0.1372E-03  0.7722E-04  0.8669E-03  0.4636E-03  0.1372E-03  0.7722E-04
      1.755  0.6451E-02  0.2020E-02  0.4888E-03  0.1536E-03  0.4888E-03  0.1536E-03  0.4888E-03  0.1536E-03  0.1089E-03  0.2299E-04  0.1089E-03  0.2299E-04  0.2346E-03  0.2792E-04  0.1089E-03  0.2299E-04  0.2346E-03  0.2792E-04
      1.922  0.5435E-01  0.5929E-01  0.4130E-02  0.4676E-02  0.4130E-02  0.4676E-02  0.4130E-02  0.4676E-02  0.1028E-02  0.6035E-03  0.1028E-02  0.6035E-03  0.1802E-02  0.1008E-02  0.1028E-02  0.6035E-03  0.1802E-02  0.1008E-02
      2.090  0.6400E-01  0.2127E-01  0.5400E-02  0.1891E-02  0.5400E-02  0.1891E-02  0.5400E-02  0.1891E-02  0.3100E-02  0.5657E-03  0.3100E-02  0.5657E-03  0.2124E-02  0.2888E-03  0.3100E-02  0.5657E-03  0.2124E-02  0.2888E-03
      2.257  0.2355E-01  0.6645E-01  0.2092E-02  0.6036E-02  0.2092E-02  0.6036E-02  0.2092E-02  0.6036E-02  0.7960E-03  0.1366E-02  0.7960E-03  0.1366E-02  0.1175E-02  0.1297E-02  0.7960E-03  0.1366E-02  0.1175E-02  0.1297E-02
      2.425  0.2757E-01  0.2112E-01  0.2570E-02  0.2163E-02  0.2570E-02  0.2163E-02  0.2570E-02  0.2163E-02  0.2476E-02  0.7436E-03  0.2476E-02  0.7436E-03  0.1146E-02  0.4658E-03  0.2476E-02  0.7436E-03  0.1146E-02  0.4658E-03
      2.592  0.3406E-01  0.8450E-02  0.3696E-02  0.8620E-03  0.3696E-02  0.8620E-03  0.3696E-02  0.8620E-03  0.3760E-02  0.3932E-03  0.3760E-02  0.3932E-03  0.1326E-02  0.1497E-03  0.3760E-02  0.3932E-03  0.1326E-02  0.1497E-03
      2.759  0.8220E-01  0.5829E-01  0.9099E-02  0.6877E-02  0.9099E-02  0.6877E-02  0.9099E-02  0.6877E-02  0.1140E-01  0.2963E-02  0.1140E-01  0.2963E-02  0.9716E-02  0.1154E-02  0.1140E-01  0.2963E-02  0.9716E-02  0.1154E-02
      2.927  0.3205E-01  0.4303E-01  0.3529E-02  0.5339E-02  0.3529E-02  0.5339E-02  0.3529E-02  0.5339E-02  0.8854E-02  0.3036E-02  0.8854E-02  0.3036E-02  0.6001E-02  0.2032E-02  0.8854E-02  0.3036E-02  0.6001E-02  0.2032E-02
      3.094  0.4311E-01  0.3249E-01  0.5413E-02  0.4122E-02  0.5413E-02  0.4122E-02  0.5413E-02  0.4122E-02  0.1068E-01  0.1811E-02  0.1068E-01  0.1811E-02  0.1287E-01  0.2306E-02  0.1068E-01  0.1811E-02  0.1287E-01  0.2306E-02
      3.262  0.7710E-01  0.4534E-01  0.8348E-02  0.6840E-02  0.8348E-02  0.6840E-02  0.8348E-02  0.6840E-02  0.4344E-01  0.1694E-02  0.4344E-01  0.1694E-02  0.6210E-01  0.6083E-02  0.4344E-01  0.1694E-02  0.6210E-01  0.6083E-02
      3.429  0.1182E+00  0.3786E-01  0.1511E-01  0.5178E-02  0.1511E-01  0.5178E-02  0.1511E-01  0.5178E-02  0.7965E-01  0.5971E-02  0.7965E-01  0.5971E-02  0.1489E+00  0.1973E-02  0.7965E-01  0.5971E-02  0.1489E+00  0.1973E-02
      3.597  0.4694E-01  0.4011E-01  0.6027E-02  0.6370E-02  0.6027E-02  0.6370E-02  0.6027E-02  0.6370E-02  0.5817E-01  0.5871E-02  0.5817E-01  0.5871E-02  0.1042E+00  0.2106E-02  0.5817E-01  0.5871E-02  0.1042E+00  0.2106E-02
      3.764  0.7157E-01  0.5278E-01  0.1397E-01  0.9196E-02  0.1397E-01  0.9196E-02  0.1397E-01  0.9196E-02  0.1278E+00  0.8294E-02  0.1278E+00  0.8294E-02  0.2044E+00  0.5336E-02  0.1278E+00  0.8294E-02  0.2044E+00  0.5336E-02
      3.932  0.3558E-01  0.5968E-01  0.9030E-02  0.9387E-02  0.9030E-02  0.9387E-02  0.9030E-02  0.9387E-02  0.2073E+00  0.1500E-01  0.2073E+00  0.1500E-01  0.1396E+00  0.1082E-01  0.2073E+00  0.1500E-01  0.1396E+00  0.1082E-01
      4.099  0.2400E-01  0.2717E-01  0.1433E-01  0.3632E-02  0.1433E-01  0.3632E-02  0.1433E-01  0.3632E-02  0.2419E+00  0.1190E-01  0.2419E+00  0.1190E-01  0.1779E+00  0.6232E-02  0.2419E+00  0.1190E-01  0.1779E+00  0.6232E-02
      4.267  0.9312E-02  0.6827E-01  0.1331E-01  0.1081E-01  0.1331E-01  0.1081E-01  0.1331E-01  0.1081E-01  0.2242E+00  0.3463E-01  0.2242E+00  0.3463E-01  0.1240E+00  0.2146E-01  0.2242E+00  0.3463E-01  0.1240E+00  0.2146E-01
      4.434  0.4922E-02  0.7417E-01  0.1502E-01  0.1348E-01  0.1502E-01  0.1348E-01  0.1502E-01  0.1348E-01  0.2312E+00  0.3685E-01  0.2312E+00  0.3685E-01  0.2011E+00  0.2445E-01  0.2312E+00  0.3685E-01  0.2011E+00  0.2445E-01
      4.602  0.4541E-02  0.4507E-01  0.1121E-01  0.9090E-02  0.1121E-01  0.9090E-02  0.1121E-01  0.9090E-02  0.2107E+00  0.2131E-01  0.2107E+00  0.2131E-01  0.1753E+00  0.5806E-01  0.2107E+00  0.2131E-01  0.1753E+00  0.5806E-01
      4.769  0.8709E-02  0.7084E-01  0.1352E-01  0.1174E-01  0.1352E-01  0.1174E-01  0.1352E-01  0.1174E-01  0.2958E+00  0.6374E-01  0.2958E+00  0.6374E-01  0.1848E+00  0.8905E-01  0.2958E+00  0.6374E-01  0.1848E+00  0.8905E-01
      4.937  0.1691E-01  0.3679E-01  0.1885E-01  0.9357E-02  0.1885E-01  0.9357E-02  0.1885E-01  0.9357E-02  0.3860E+00  0.3528E-01  0.3860E+00  0.3528E-01  0.2449E+00  0.5744E-01  0.3860E+00  0.3528E-01  0.2449E+00  0.5744E-01
      5.104  0.1926E-01  0.4800E-01  0.2135E-01  0.1523E-01  0.2135E-01  0.1523E-01  0.2135E-01  0.1523E-01  0.4130E+00  0.6463E-01  0.4130E+00  0.6463E-01  0.3638E+00  0.1229E+00  0.4130E+00  0.6463E-01  0.3638E+00  0.1229E+00
      5.272  0.1692E-01  0.1829E-01  0.1810E-01  0.7233E-02  0.1810E-01  0.7233E-02  0.1810E-01  0.7233E-02  0.4251E+00  0.1177E+00  0.4251E+00  0.1177E+00  0.3504E+00  0.6774E-01  0.4251E+00  0.1177E+00  0.3504E+00  0.6774E-01
      5.439  0.1055E-01  0.2082E-01  0.1050E-01  0.1811E-01  0.1050E-01  0.1811E-01  0.1050E-01  0.1811E-01  0.2180E+00  0.1980E+00  0.2180E+00  0.1980E+00  0.3920E+00  0.1140E+00  0.2180E+00  0.1980E+00  0.3920E+00  0.1140E+00
      5.606  0.6108E-02  0.3768E-02  0.1247E-01  0.1543E-01  0.1247E-01  0.1543E-01  0.1247E-01  0.1543E-01  0.1746E+00  0.1778E+00  0.1746E+00  0.1778E+00  0.5267E+00  0.1008E+00  0.1746E+00  0.1778E+00  0.5267E+00  0.1008E+00
      5.774  0.1159E-01  0.3132E-02  0.1079E-01  0.1754E-01  0.1079E-01  0.1754E-01  0.1079E-01  0.1754E-01  0.2312E+00  0.1914E+00  0.2312E+00  0.1914E+00  0.6098E+00  0.9083E-01  0.2312E+00  0.1914E+00  0.6098E+00  0.9083E-01
      5.941  0.5685E-02  0.1145E-02  0.5760E-02  0.2280E-01  0.5760E-02  0.2280E-01  0.5760E-02  0.2280E-01  0.2000E+00  0.1524E+00  0.2000E+00  0.1524E+00  0.4455E+00  0.1315E+00  0.2000E+00  0.1524E+00  0.4455E+00  0.1315E+00