    1    1  100    2
  0.1360156E+02  0.2679382E-09  0.2679382E-09  0.2679382E-09  0.5000000E-15
  1.000000000000000E-004
  CAR 
 Co-fcc                                  
      9     60     12
 
  0.6250000E-01  0.6250000E-01  0.6250000E-01  0.3906250E-02
      1         -0.116820       -0.148477   1.000000   1.000000
      2          4.972888        6.685555   1.000000   1.000000
      3          5.027791        6.755848   1.000000   1.000000
      4          5.027791        6.755848   1.000000   1.000000
      5          5.662783        7.793166   1.000000   0.000000
      6          5.662783        7.793166   1.000000   0.000000
      7         28.000573       27.757973   0.000000   0.000000
      8         29.863290       29.926054   0.000000   0.000000
      9         30.930795       31.165165   0.000000   0.000000
     10         30.930795       31.165165   0.000000   0.000000
     11         34.326185       34.519923   0.000000   0.000000
     12         34.326185       34.519923   0.000000   0.000000
 
  0.1875000E+00  0.6250000E-01  0.6250000E-01  0.1171875E-01
      1          0.563408        0.537436   1.000000   1.000000
      2          4.832714        6.488973   1.000000   1.000000
      3          5.134192        6.888534   1.000000   1.000000
      4          5.141335        6.892137   1.000000   1.000000
      5          5.562558        7.660881   1.000000   0.000191
      6          5.735480        7.847117   1.000000   0.000000
      7         24.637079       24.828355   0.000000   0.000000
      8         27.042559       27.169521   0.000000   0.000000
      9         30.445096       30.374599   0.000000   0.000000
     10         31.820043       32.067447   0.000000   0.000000
     11         33.824609       33.677432   0.000000   0.000000
     12         34.598893       34.723846   0.000000   0.000000
 
  0.3125000E+00  0.6250000E-01  0.6250000E-01  0.1171875E-01
      1          2.034392        2.100356   1.000000   1.000000
      2          4.779609        6.236486   1.000000   1.000000
      3          5.075788        6.899257   1.000000   1.000000
      4          5.122438        6.973555   1.000000   1.000000
      5          5.748456        7.756318   1.000000   0.000000
      6          6.051149        8.082578   1.000000   0.000000
      7         18.972387       19.372166   0.000000   0.000000
      8         26.086629       26.226089   0.000000   0.000000
      9         29.519223       29.397176   0.000000   0.000000
     10         30.963759       31.340855   0.000000   0.000000
     11         32.514666       32.678353   0.000000   0.000000
     12         33.594967       33.617114   0.000000   0.000000
 
  0.4375000E+00  0.6250000E-01  0.6250000E-01  0.1171875E-01
      1          3.110466        3.791265   1.000000   1.000000
      2          4.907031        6.496304   1.000000   1.000000
      3          4.970421        6.755877   1.000000   1.000000
      4          5.640439        6.840879   1.000000   1.000000
      5          6.143021        8.162574   1.000000   0.000000
      6          6.765900        8.504204   1.000000   0.000000
      7         14.081321       14.761093   0.000000   0.000000
      8         25.871640       25.926768   0.000000   0.000000
      9         28.215638       28.151953   0.000000   0.000000
     10         29.064438       29.392464   0.000000   0.000000
     11         31.733476       31.951738   0.000000   0.000000
     12         33.185105       33.330968   0.000000   0.000000
 
 -0.4375000E+00  0.6250000E-01  0.6250000E-01  0.1171875E-01
      1          3.239955        4.235887   1.000000   1.000000
      2          4.838316        6.654526   1.000000   1.000000
      3          4.933386        6.796873   1.000000   1.000000
      4          5.987388        7.015025   1.000000   1.000000
      5          6.335852        8.388184   1.000000   0.000000
      6          7.766461        8.735663   0.000000   0.000000
      7         11.991479       12.979961   0.000000   0.000000
      8         26.405920       26.241111   0.000000   0.000000
      9         27.544792       27.843936   0.000000   0.000000
     10         27.817317       27.995235   0.000000   0.000000
     11         32.405805       32.626837   0.000000   0.000000
     12         32.605486       32.741115   0.000000   0.000000
 
 -0.3125000E+00  0.6250000E-01  0.6250000E-01  0.1171875E-01
      1          2.898167        3.312471   1.000000   1.000000
      2          4.934276        6.287047   1.000000   1.000000
      3          5.037406        6.794652   1.000000   1.000000
      4          5.218261        6.894604   1.000000   1.000000
      5          6.187509        8.158934   1.000000   0.000000
      6          6.299081        8.242134   1.000000   0.000000
      7         15.576359       16.137778   0.000000   0.000000
      8         27.094209       26.913436   0.000000   0.000000
      9         27.168546       27.408471   0.000000   0.000000
     10         29.002991       29.347935   0.000000   0.000000
     11         32.577134       32.670183   0.000000   0.000000
     12         33.987529       34.164998   0.000000   0.000000
 
 -0.1875000E+00  0.6250000E-01  0.6250000E-01  0.1171875E-01
      1          1.497138        1.506194   1.000000   1.000000
      2          4.734045        6.288776   1.000000   1.000000
      3          5.121648        6.944425   1.000000   1.000000
      4          5.168259        6.975750   1.000000   1.000000
      5          5.696301        7.697997   1.000000   0.000002
      6          5.861811        7.945269   1.000000   0.000000
      7         20.806275       21.140979   0.000000   0.000000
      8         27.614554       27.765394   0.000000   0.000000
      9         27.932044       27.936075   0.000000   0.000000
     10         31.518319       31.795296   0.000000   0.000000
     11         32.543771       32.560447   0.000000   0.000000
     12         35.854052       35.986469   0.000000   0.000000
 
 -0.6250000E-01  0.6250000E-01  0.6250000E-01  0.1171875E-01
      1          0.227966        0.198091   1.000000   1.000000
      2          4.877003        6.562667   1.000000   1.000000
      3          5.105244        6.842423   1.000000   1.000000
      4          5.107798        6.846014   1.000000   1.000000
      5          5.573655        7.678080   1.000000   0.000027
      6          5.710361        7.845133   1.000000   0.000000
      7         26.528787       26.578423   0.000000   0.000000
      8         28.758451       28.687767   0.000000   0.000000
      9         28.951114       29.243393   0.000000   0.000000
     10         31.062865       31.148862   0.000000   0.000000
     11         34.333250       34.444182   0.000000   0.000000
     12         35.939255       36.111873   0.000000   0.000000
 
  0.1875000E+00  0.1875000E+00  0.6250000E-01  0.1171875E-01
      1          0.891826        0.871992   1.000000   1.000000
      2          4.689487        6.328068   1.000000   1.000000
      3          5.232939        7.010696   1.000000   1.000000
      4          5.263182        7.023563   1.000000   1.000000
      5          5.466047        7.490082   1.000000   0.899501
      6          5.799179        7.941154   1.000000   0.000000
      7         24.886114       25.087326   0.000000   0.000000
      8         26.874955       27.183007   0.000000   0.000000
      9         27.562880       27.504361   0.000000   0.000000
     10         29.536792       29.512988   0.000000   0.000000
     11         32.583699       33.197321   0.000000   0.000000
     12         36.714752       36.717750   0.000000   0.000000
 
  0.3125000E+00  0.1875000E+00  0.6250000E-01  0.2343750E-01
      1          2.075859        2.123121   1.000000   1.000000
      2          4.485672        6.043980   1.000000   1.000000
      3          5.058847        6.909773   1.000000   1.000000
      4          5.428554        7.259028   1.000000   1.000000
      5          5.684849        7.591097   1.000000   0.057233
      6          6.103040        8.156651   1.000000   0.000000
      7         21.310973       21.627728   0.000000   0.000000
      8         23.679983       23.927205   0.000000   0.000000
      9         27.314217       27.380086   0.000000   0.000000
     10         28.883891       29.026145   0.000000   0.000000
     11         31.994932       32.425417   0.000000   0.000000
     12         36.635020       36.599631   0.000000   0.000000
 
  0.4375000E+00  0.1875000E+00  0.6250000E-01  0.2343750E-01
      1          3.322947        3.826195   1.000000   1.000000
      2          4.575020        5.942788   1.000000   1.000000
      3          4.871080        6.592959   1.000000   1.000000
      4          5.301050        7.192130   1.000000   1.000000
      5          6.177309        8.167264   1.000000   0.000000
      6          7.113087        8.749218   1.000000   0.000000
      7         16.076534       16.578365   0.000000   0.000000
      8         23.236271       23.461649   0.000000   0.000000
      9         24.803476       25.033024   0.000000   0.000000
     10         28.431778       28.576226   0.000000   0.000000
     11         34.509749       34.588581   0.000000   0.000000
     12         36.355227       36.576859   0.000000   0.000000
 
 -0.4375000E+00  0.1875000E+00  0.6250000E-01  0.2343750E-01
      1          3.607234        4.688913   1.000000   1.000000
      2          4.563326        6.118971   1.000000   1.000000
      3          5.171140        6.605414   1.000000   1.000000
      4          5.274285        7.085884   1.000000   1.000000
      5          6.315997        8.346033   1.000000   0.000000
      6          9.204620       10.047001   0.000000   0.000000
      7         12.234243       13.116920   0.000000   0.000000
      8         22.790773       23.001378   0.000000   0.000000
      9         23.982796       24.273140   0.000000   0.000000
     10         28.447884       28.499203   0.000000   0.000000
     11         33.642617       33.803283   0.000000   0.000000
     12         37.155117       37.180255   0.000000   0.000000
 
 -0.3125000E+00  0.1875000E+00  0.6250000E-01  0.2343750E-01
      1          3.532872        4.285498   1.000000   1.000000
      2          4.668281        6.109393   1.000000   1.000000
      3          4.976449        6.499520   1.000000   1.000000
      4          5.221591        7.124366   1.000000   1.000000
      5          6.101238        8.075750   1.000000   0.000000
      6          7.845697        9.269918   0.000000   0.000000
      7         14.557754       15.163829   0.000000   0.000000
      8         21.896822       22.166625   0.000000   0.000000
      9         25.574720       25.786848   0.000000   0.000000
     10         29.400542       29.450969   0.000000   0.000000
     11         33.110836       33.269292   0.000000   0.000000
     12         36.539420       36.597760   0.000000   0.000000
 
 -0.1875000E+00  0.1875000E+00  0.6250000E-01  0.2343750E-01
      1          2.585432        2.692025   1.000000   1.000000
      2          4.542284        6.056160   1.000000   1.000000
      3          4.943751        6.758797   1.000000   1.000000
      4          5.358407        7.261523   1.000000   1.000000
      5          5.645555        7.567309   1.000000   0.182576
      6          6.488450        8.433744   1.000000   0.000000
      7         19.499997       19.876403   0.000000   0.000000
      8         21.982924       22.265948   0.000000   0.000000
      9         28.022470       28.129161   0.000000   0.000000
     10         31.109088       31.210098   0.000000   0.000000
     11         32.734630       32.799633   0.000000   0.000000
     12         34.954174       35.223520   0.000000   0.000000
 
 -0.6250000E-01  0.1875000E+00  0.6250000E-01  0.2343750E-01
      1          1.206646        1.196130   1.000000   1.000000
      2          4.691716        6.303110   1.000000   1.000000
      3          5.152569        6.952145   1.000000   1.000000
      4          5.259782        7.039411   1.000000   1.000000
      5          5.521513        7.550611   1.000000   0.332395
      6          5.879699        7.971456   1.000000   0.000000
      7         22.877226       23.145749   0.000000   0.000000
      8         25.285116       25.485033   0.000000   0.000000
      9         29.557352       29.535843   0.000000   0.000000
     10         31.124040       31.107051   0.000000   0.000000
     11         33.053229       33.539467   0.000000   0.000000
     12         35.069450       35.133134   0.000000   0.000000
 
  0.3125000E+00  0.3125000E+00  0.6250000E-01  0.1171875E-01
      1          2.707722        2.933454   1.000000   1.000000
      2          4.192892        5.715643   1.000000   1.000000
      3          5.301097        6.990418   1.000000   1.000000
      4          5.730945        7.588940   1.000000   0.064582
      5          5.992046        7.765020   1.000000   0.000000
      6          6.059044        8.203859   1.000000   0.000000
      7         21.879168       22.152848   0.000000   0.000000
      8         23.271735       23.532968   0.000000   0.000000
      9         23.634551       23.841631   0.000000   0.000000
     10         26.101399       26.277455   0.000000   0.000000
     11         28.890481       29.314329   0.000000   0.000000
     12         41.661558       41.528274   0.000000   0.000000
 
  0.4375000E+00  0.3125000E+00  0.6250000E-01  0.2343750E-01
      1          3.386051        4.150832   1.000000   1.000000
      2          4.048568        5.509503   1.000000   1.000000
      3          5.294025        6.789370   1.000000   1.000000
      4          5.876026        7.834987   1.000000   0.000000
      5          6.211939        8.212699   1.000000   0.000000
      6          7.361784        8.817087   1.000000   0.000000
      7         18.851254       19.180564   0.000000   0.000000
      8         20.651515       20.985069   0.000000   0.000000
      9         21.200280       21.501867   0.000000   0.000000
     10         27.130413       27.307074   0.000000   0.000000
     11         30.273326       30.584729   0.000000   0.000000
     12         39.880756       39.929938   0.000000   0.000000
 
 -0.4375000E+00  0.3125000E+00  0.6250000E-01  0.2343750E-01
      1          3.782381        5.087777   1.000000   1.000000
      2          4.140905        5.510857   1.000000   1.000000
      3          5.100387        6.526805   1.000000   1.000000
      4          5.667435        7.675478   1.000000   0.000037
      5          6.370783        8.373710   1.000000   0.000000
      6         10.124338       10.963360   0.000000   0.000000
      7         14.263416       14.778470   0.000000   0.000000
      8         18.498002       18.942399   0.000000   0.000000
      9         21.506222       21.779277   0.000000   0.000000
     10         27.446701       27.604573   0.000000   0.000000
     11         34.972408       35.181229   0.000000   0.000000
     12         38.105748       38.208785   0.000000   0.000000
 
 -0.3125000E+00  0.3125000E+00  0.6250000E-01  0.2343750E-01
      1          4.128450        5.264901   1.000000   1.000000
      2          4.252688        5.776297   1.000000   1.000000
      3          4.784917        6.199552   1.000000   1.000000
      4          5.519183        7.553582   1.000000   0.302462
      5          6.165412        8.084600   1.000000   0.000000
      6         10.343031       11.221077   0.000000   0.000000
      7         14.148765       14.698265   0.000000   0.000000
      8         17.279248       17.751046   0.000000   0.000000
      9         23.004822       23.289371   0.000000   0.000000
     10         28.289320       28.393297   0.000000   0.000000
     11         36.288265       36.299809   0.000000   0.000000
     12         40.292370       40.537273   0.000000   0.000000
 
 -0.1875000E+00  0.3125000E+00  0.6250000E-01  0.2343750E-01
      1          3.743142        4.286106   1.000000   1.000000
      2          4.557929        5.973500   1.000000   1.000000
      3          4.627009        6.352404   1.000000   1.000000
      4          5.402193        7.387373   1.000000   0.999986
      5          5.903333        7.795453   1.000000   0.000000
      6          7.854076        9.370471   0.000000   0.000000
      7         16.594443       17.068353   0.000000   0.000000
      8         19.258315       19.618575   0.000000   0.000000
      9         25.341454       25.574273   0.000000   0.000000
     10         29.843643       29.920241   0.000000   0.000000
     11         33.839167       33.861664   0.000000   0.000000
     12         37.463066       37.713403   0.000000   0.000000
 
 -0.6250000E-01  0.3125000E+00  0.6250000E-01  0.2343750E-01
      1          2.708022        2.915503   1.000000   1.000000
      2          4.756572        6.122599   1.000000   1.000000
      3          4.950174        6.785100   1.000000   1.000000
      4          5.166394        7.035191   1.000000   1.000000
      5          5.925032        7.880551   1.000000   0.000000
      6          6.401477        8.346551   1.000000   0.000000
      7         17.395582       17.854295   0.000000   0.000000
      8         24.563553       24.762500   0.000000   0.000000
      9         27.936567       27.938657   0.000000   0.000000
     10         29.561220       29.837224   0.000000   0.000000
     11         33.377531       33.464399   0.000000   0.000000
     12         34.562356       34.672136   0.000000   0.000000
 
  0.4375000E+00  0.4375000E+00  0.6250000E-01  0.1171875E-01
      1          3.256815        4.428889   1.000000   1.000000
      2          3.789339        5.226246   1.000000   1.000000
      3          6.112664        7.749745   1.000000   0.000000
      4          6.185009        8.202000   1.000000   0.000000
      5          6.389691        8.426761   1.000000   0.000000
      6          8.136219        8.904338   0.000000   0.000000
      7         17.503717       18.064429   0.000000   0.000000
      8         19.832578       20.051065   0.000000   0.000000
      9         20.932824       21.098448   0.000000   0.000000
     10         25.229016       25.502735   0.000000   0.000000
     11         27.828058       28.192055   0.000000   0.000000
     12         44.417421       44.796240   0.000000   0.000000
 
 -0.4375000E+00  0.4375000E+00  0.6250000E-01  0.2343750E-01
      1          3.379970        4.750199   1.000000   1.000000
      2          3.806115        5.216699   1.000000   1.000000
      3          5.903785        7.446906   1.000000   0.993789
      4          6.075360        8.229604   1.000000   0.000000
      5          6.497217        8.458678   1.000000   0.000000
      6         10.368704       10.801490   0.000000   0.000000
      7         15.491731       16.243200   0.000000   0.000000
      8         17.643013       17.926389   0.000000   0.000000
      9         19.854970       20.066204   0.000000   0.000000
     10         26.518344       26.740516   0.000000   0.000000
     11         29.675029       29.989605   0.000000   0.000000
     12         42.728757       42.729093   0.000000   0.000000
 
 -0.3125000E+00  0.4375000E+00  0.6250000E-01  0.2343750E-01
      1          3.751534        5.216900   1.000000   1.000000
      2          4.076525        5.414609   1.000000   1.000000
      3          5.233235        6.652597   1.000000   1.000000
      4          5.776112        7.865308   1.000000   0.000000
      5          6.376019        8.324373   1.000000   0.000000
      6         11.971669       12.519964   0.000000   0.000000
      7         13.799186       14.298592   0.000000   0.000000
      8         16.100771       16.720880   0.000000   0.000000
      9         21.118710       21.385083   0.000000   0.000000
     10         27.282941       27.456832   0.000000   0.000000
     11         34.870225       35.106203   0.000000   0.000000
     12         39.326014       39.328094   0.000000   0.000000
 
 -0.1875000E+00  0.4375000E+00  0.6250000E-01  0.2343750E-01
      1          3.891942        5.052375   1.000000   1.000000
      2          4.363405        5.850844   1.000000   1.000000
      3          5.009391        6.413377   1.000000   1.000000
      4          5.361929        7.323452   1.000000   1.000000
      5          6.256810        8.245854   1.000000   0.000000
      6         10.212588       10.990728   0.000000   0.000000
      7         12.537163       13.322591   0.000000   0.000000
      8         19.861773       20.210853   0.000000   0.000000
      9         23.319907       23.596833   0.000000   0.000000
     10         28.342269       28.421708   0.000000   0.000000
     11         34.953451       35.053877   0.000000   0.000000
     12         39.108226       39.115234   0.000000   0.000000
 
 -0.6250000E-01  0.4375000E+00  0.6250000E-01  0.2343750E-01
      1          3.343379        4.262558   1.000000   1.000000
      2          4.767495        6.425560   1.000000   1.000000
      3          5.031195        6.705598   1.000000   1.000000
      4          5.526341        6.913749   1.000000   1.000000
      5          6.275464        8.303861   1.000000   0.000000
      6          7.816270        9.031679   0.000000   0.000000
      7         12.934356       13.732832   0.000000   0.000000
      8         24.701429       24.812708   0.000000   0.000000
      9         26.078137       26.297879   0.000000   0.000000
     10         28.587273       28.668700   0.000000   0.000000
     11         32.655446       32.853781   0.000000   0.000000
     12         34.771870       34.858992   0.000000   0.000000
 
 -0.4375000E+00 -0.4375000E+00  0.6250000E-01  0.1171875E-01
      1          3.224178        4.562924   1.000000   1.000000
      2          3.696890        5.115020   1.000000   1.000000
      3          6.180997        8.126397   1.000000   0.000000
      4          6.372329        8.373874   1.000000   0.000000
      5          6.505319        8.476315   1.000000   0.000000
      6          9.633709        9.846777   0.000000   0.000000
      7         15.337798       16.134054   0.000000   0.000000
      8         19.364340       19.551376   0.000000   0.000000
      9         20.422582       20.556500   0.000000   0.000000
     10         25.074011       25.371889   0.000000   0.000000
     11         27.672400       28.040672   0.000000   0.000000
     12         44.482103       45.525719   0.000000   0.000000
 
 -0.3125000E+00 -0.4375000E+00  0.6250000E-01  0.2343750E-01
      1          3.425226        4.634840   1.000000   1.000000
      2          3.890234        5.318224   1.000000   1.000000
      3          5.661541        7.126424   1.000000   1.000000
      4          6.038906        8.101391   1.000000   0.000000
      5          6.386179        8.379018   1.000000   0.000000
      6          8.820310        9.710587   0.000000   0.000000
      7         17.706651       18.196928   0.000000   0.000000
      8         18.095800       18.440087   0.000000   0.000000
      9         20.300770       20.535190   0.000000   0.000000
     10         26.715380       26.920655   0.000000   0.000000
     11         29.861313       30.171140   0.000000   0.000000
     12         41.444389       41.497703   0.000000   0.000000
 
 -0.1875000E+00 -0.4375000E+00  0.6250000E-01  0.2343750E-01
      1          3.688653        4.622880   1.000000   1.000000
      2          4.319210        5.716693   1.000000   1.000000
      3          4.939742        6.473000   1.000000   1.000000
      4          5.487226        7.423068   1.000000   0.999249
      5          6.319743        8.348812   1.000000   0.000000
      6          8.391287        9.599722   0.000000   0.000000
      7         15.023953       15.544599   0.000000   0.000000
      8         21.447179       21.736233   0.000000   0.000000
      9         22.294741       22.598801   0.000000   0.000000
     10         27.806098       27.943430   0.000000   0.000000
     11         35.021208       35.159333   0.000000   0.000000
     12         36.953069       37.157924   0.000000   0.000000
 
 -0.3125000E+00 -0.3125000E+00  0.6250000E-01  0.1171875E-01
      1          3.190839        3.918473   1.000000   1.000000
      2          3.962342        5.435242   1.000000   1.000000
      3          5.785956        7.177028   1.000000   1.000000
      4          5.961660        7.916817   1.000000   0.000000
      5          6.218851        8.214355   1.000000   0.000000
      6          6.713731        8.330492   1.000000   0.000000
      7         20.373146       20.710613   0.000000   0.000000
      8         20.760476       21.062284   0.000000   0.000000
      9         21.906571       22.120519   0.000000   0.000000
     10         25.554922       25.783606   0.000000   0.000000
     11         28.195080       28.565824   0.000000   0.000000
     12         43.488316       43.478859   0.000000   0.000000
 
 -0.1875000E+00 -0.3125000E+00  0.6250000E-01  0.2343750E-01
      1          2.941099        3.199235   1.000000   1.000000
      2          4.258557        5.764123   1.000000   1.000000
      3          5.026649        6.763629   1.000000   1.000000
      4          5.644966        7.530850   1.000000   0.549985
      5          5.974349        7.885581   1.000000   0.000000
      6          6.494207        8.388814   1.000000   0.000000
      7         19.958166       20.294907   0.000000   0.000000
      8         22.259366       22.518404   0.000000   0.000000
      9         24.017337       24.267825   0.000000   0.000000
     10         27.809492       27.958263   0.000000   0.000000
     11         30.970477       31.311121   0.000000   0.000000
     12         38.300006       38.314339   0.000000   0.000000
 
 -0.1875000E+00 -0.1875000E+00  0.6250000E-01  0.1171875E-01
      1          1.796371        1.823574   1.000000   1.000000
      2          4.448174        6.028964   1.000000   1.000000
      3          5.204989        7.087472   1.000000   1.000000
      4          5.480330        7.278340   1.000000   1.000000
      5          5.622442        7.452992   1.000000   0.990038
      6          5.918933        8.067193   1.000000   0.000000
      7         23.309904       23.575108   0.000000   0.000000
      8         24.952451       25.247626   0.000000   0.000000
      9         26.338370       26.312989   0.000000   0.000000
     10         27.307898       27.420761   0.000000   0.000000
     11         30.175138       30.740182   0.000000   0.000000
     12         39.179346       39.075709   0.000000   0.000000
 
  0.1875000E+00  0.1875000E+00  0.1875000E+00  0.3906250E-02
      1          0.885280        0.867511   1.000000   1.000000
      2          4.819840        6.433058   1.000000   1.000000
      3          5.134399        6.910685   1.000000   1.000000
      4          5.134399        6.910685   1.000000   1.000000
      5          5.682377        7.769464   1.000000   0.000000
      6          5.682377        7.769464   1.000000   0.000000
      7         22.619080       22.891004   0.000000   0.000000
      8         29.008101       28.707655   0.000000   0.000000
      9         29.718131       30.030603   0.000000   0.000000
     10         29.718131       30.030603   0.000000   0.000000
     11         35.163376       34.975554   0.000000   0.000000
     12         35.516414       35.557839   0.000000   0.000000
 
  0.3125000E+00  0.1875000E+00  0.1875000E+00  0.1171875E-01
      1          1.802332        1.821656   1.000000   1.000000
      2          4.651327        6.216271   1.000000   1.000000
      3          5.087061        6.889061   1.000000   1.000000
      4          5.284206        7.118223   1.000000   1.000000
      5          5.503824        7.516085   1.000000   0.706518
      6          6.122991        8.150187   1.000000   0.000000
      7         21.072816       21.400831   0.000000   0.000000
      8         23.527366       23.770199   0.000000   0.000000
      9         30.782566       30.644063   0.000000   0.000000
     10         32.100464       32.349322   0.000000   0.000000
     11         32.507379       32.407224   0.000000   0.000000
     12         33.388067       33.710518   0.000000   0.000000
 
  0.4375000E+00  0.1875000E+00  0.1875000E+00  0.1171875E-01
      1          3.203669        3.457929   1.000000   1.000000
      2          4.581960        6.038853   1.000000   1.000000
      3          4.830862        6.599270   1.000000   1.000000
      4          5.294059        7.273132   1.000000   1.000000
      5          5.713470        7.600773   1.000000   0.032007
      6          7.025204        8.826177   1.000000   0.000000
      7         17.925239       18.357628   0.000000   0.000000
      8         20.486173       20.810158   0.000000   0.000000
      9         28.699761       28.839934   0.000000   0.000000
     10         28.909046       29.026713   0.000000   0.000000
     11         34.288685       34.181156   0.000000   0.000000
     12         35.221342       35.424132   0.000000   0.000000
 
 -0.4375000E+00  0.1875000E+00  0.1875000E+00  0.1171875E-01
      1          3.713349        4.701628   1.000000   1.000000
      2          4.561657        6.101535   1.000000   1.000000
      3          5.091376        6.453852   1.000000   1.000000
      4          5.222358        7.160673   1.000000   1.000000
      5          6.144982        8.125924   1.000000   0.000000
      6          8.888785        9.979024   0.000000   0.000000
      7         13.347754       14.056915   0.000000   0.000000
      8         20.739729       21.050390   0.000000   0.000000
      9         26.022132       26.330035   0.000000   0.000000
     10         27.366504       27.364825   0.000000   0.000000