PROCAR lm decomposed
# of k-points:   60         # of bands:   12         # of ions:    1

 k-point     1 :    0.06250000 0.06250000 0.06250000     weight = 0.00390625

band     1 # energy   -0.11682017 # occ.  1.00000000
 
ion      s     py     pz     px    dxy    dyz    dz2    dxz  x2-y2    tot
    1  0.561  0.002  0.002  0.002  0.000  0.000  0.000  0.000  0.000  0.568
 
band     2 # energy    4.97288824 # occ.  1.00000000
 
ion      s     py     pz     px    dxy    dyz    dz2    dxz  x2-y2    tot
    1  0.000  0.000  0.000  0.000  0.318  0.318  0.000  0.318  0.000  0.955
 
band     3 # energy    5.02779113 # occ.  1.00000000
 
ion      s     py     pz     px    dxy    dyz    dz2    dxz  x2-y2    tot
    1  0.000  0.000  0.000  0.000  0.056  0.587  0.000  0.313  0.001  0.958
 
band     4 # energy    5.02779113 # occ.  1.00000000
 
ion      s     py     pz     px    dxy    dyz    dz2    dxz  x2-y2    tot
    1  0.000  0.000  0.000  0.000  0.581  0.051  0.001  0.324  0.000  0.958
 
band     5 # energy    5.66278290 # occ.  1.00000000
 
ion      s     py     pz     px    dxy    dyz    dz2    dxz  x2-y2    tot
    1  0.000  0.000  0.000  0.000  0.000  0.001  0.011  0.001  0.965  0.977
 
band     6 # energy    5.66278290 # occ.  1.00000000
 
ion      s     py     pz     px    dxy    dyz    dz2    dxz  x2-y2    tot
    1  0.000  0.000  0.000  0.000  0.001  0.000  0.965  0.000  0.011  0.977
 
band     7 # energy   28.00057342 # occ.  0.00000000
 
ion      s     py     pz     px    dxy    dyz    dz2    dxz  x2-y2    tot
    1  0.003  0.022  0.022  0.022  0.057  0.057  0.000  0.057  0.000  0.239
 
band     8 # energy   29.86329049 # occ.  0.00000000
 
ion      s     py     pz     px    dxy    dyz    dz2    dxz  x2-y2    tot
    1  0.017  0.090  0.090  0.090  0.016  0.016  0.000  0.016  0.000  0.337
 
band     9 # energy   30.93079510 # occ.  0.00000000
 
ion      s     py     pz     px    dxy    dyz    dz2    dxz  x2-y2    tot
    1  0.000  0.175  0.001  0.192  0.000  0.067  0.000  0.061  0.008  0.503
 
band    10 # energy   30.93079510 # occ.  0.00000000
 
ion      s     py     pz     px    dxy    dyz    dz2    dxz  x2-y2    tot
    1  0.000  0.070  0.244  0.053  0.085  0.019  0.008  0.024  0.000  0.503
 
band    11 # energy   34.32618489 # occ.  0.00000000
 
ion      s     py     pz     px    dxy    dyz    dz2    dxz  x2-y2    tot
    1  0.000  0.012  0.000  0.014  0.005  0.448  0.000  0.366  0.004  0.848
 
band    12 # energy   34.32618506 # occ.  0.00000000
 
ion      s     py     pz     px    dxy    dyz    dz2    dxz  x2-y2    tot
    1  0.000  0.006  0.017  0.003  0.540  0.098  0.004  0.180  0.000  0.848
 

 k-point     2 :    0.18750000 0.06250000 0.06250000     weight = 0.01171875

band     1 # energy    0.56340810 # occ.  1.00000000
 
ion      s     py     pz     px    dxy    dyz    dz2    dxz  x2-y2    tot
    1  0.522  0.020  0.020  0.002  0.000  0.004  0.000  0.000  0.001  0.570
 
band     2 # energy    4.83271449 # occ.  1.00000000
 
ion      s     py     pz     px    dxy    dyz    dz2    dxz  x2-y2    tot
    1  0.000  0.001  0.001  0.004  0.453  0.032  0.000  0.453  0.000  0.944
 
band     3 # energy    5.13419158 # occ.  1.00000000
 
ion      s     py     pz     px    dxy    dyz    dz2    dxz  x2-y2    tot
    1  0.000  0.001  0.001  0.000  0.015  0.815  0.027  0.015  0.082  0.957
 
band     4 # energy    5.14133511 # occ.  1.00000000
 
ion      s     py     pz     px    dxy    dyz    dz2    dxz  x2-y2    tot
    1  0.000  0.000  0.000  0.000  0.465  0.000  0.022  0.465  0.007  0.960
 
band     5 # energy    5.56255844 # occ.  1.00000000
 
ion      s     py     pz     px    dxy    dyz    dz2    dxz  x2-y2    tot
    1  0.000  0.000  0.000  0.000  0.015  0.000  0.707  0.015  0.236  0.972
 
band     6 # energy    5.73547972 # occ.  1.00000000
 
ion      s     py     pz     px    dxy    dyz    dz2    dxz  x2-y2    tot
    1  0.001  0.000  0.000  0.000  0.002  0.105  0.217  0.002  0.650  0.976
 
band     7 # energy   24.63707891 # occ.  0.00000000
 
ion      s     py     pz     px    dxy    dyz    dz2    dxz  x2-y2    tot
    1  0.032  0.058  0.058  0.128  0.117  0.067  0.000  0.117  0.001  0.578
 
band     8 # energy   27.04255899 # occ.  0.00000000
 
ion      s     py     pz     px    dxy    dyz    dz2    dxz  x2-y2    tot
    1  0.035  0.089  0.089  0.070  0.059  0.104  0.004  0.059  0.011  0.519
 
band     9 # energy   30.44509595 # occ.  0.00000000
 
ion      s     py     pz     px    dxy    dyz    dz2    dxz  x2-y2    tot
    1  0.003  0.003  0.003  0.199  0.000  0.037  0.000  0.000  0.000  0.247
 
band    10 # energy   31.82004346 # occ.  0.00000000
 
ion      s     py     pz     px    dxy    dyz    dz2    dxz  x2-y2    tot
    1  0.000  0.162  0.162  0.000  0.086  0.000  0.050  0.086  0.017  0.565
 
band    11 # energy   33.82460919 # occ.  0.00000000
 
ion      s     py     pz     px    dxy    dyz    dz2    dxz  x2-y2    tot
    1  0.000  0.051  0.051  0.013  0.000  0.148  0.013  0.000  0.038  0.315
 
band    12 # energy   34.59889312 # occ.  0.00000000
 
ion      s     py     pz     px    dxy    dyz    dz2    dxz  x2-y2    tot
    1  0.000  0.000  0.000  0.000  0.313  0.000  0.078  0.313  0.026  0.730
 

 k-point     3 :    0.31250000 0.06250000 0.06250000     weight = 0.01171875

band     1 # energy    2.03439227 # occ.  1.00000000
 
ion      s     py     pz     px    dxy    dyz    dz2    dxz  x2-y2    tot
    1  0.408  0.041  0.041  0.012  0.025  0.047  0.001  0.025  0.003  0.604
 
band     2 # energy    4.77960898 # occ.  1.00000000
 
ion      s     py     pz     px    dxy    dyz    dz2    dxz  x2-y2    tot
    1  0.018  0.013  0.013  0.019  0.389  0.051  0.000  0.389  0.001  0.894
 
band     3 # energy    5.07578775 # occ.  1.00000000
 
ion      s     py     pz     px    dxy    dyz    dz2    dxz  x2-y2    tot
    1  0.000  0.002  0.002  0.000  0.027  0.442  0.113  0.027  0.340  0.953
 
band     4 # energy    5.12243812 # occ.  1.00000000
 
ion      s     py     pz     px    dxy    dyz    dz2    dxz  x2-y2    tot
    1  0.000  0.000  0.000  0.000  0.238  0.000  0.361  0.238  0.120  0.958
 
band     5 # energy    5.74845556 # occ.  1.00000000
 
ion      s     py     pz     px    dxy    dyz    dz2    dxz  x2-y2    tot
    1  0.000  0.000  0.000  0.000  0.244  0.000  0.363  0.244  0.121  0.973
 
band     6 # energy    6.05114946 # occ.  1.00000000
 
ion      s     py     pz     px    dxy    dyz    dz2    dxz  x2-y2    tot
    1  0.008  0.004  0.004  0.000  0.017  0.411  0.128  0.017  0.384  0.972
 
band     7 # energy   18.97238682 # occ.  0.00000000
 
ion      s     py     pz     px    dxy    dyz    dz2    dxz  x2-y2    tot
    1  0.119  0.076  0.076  0.124  0.093  0.072  0.001  0.093  0.002  0.657
 
band     8 # energy   26.08662938 # occ.  0.00000000
 
ion      s     py     pz     px    dxy    dyz    dz2    dxz  x2-y2    tot
    1  0.030  0.051  0.051  0.161  0.075  0.061  0.011  0.075  0.032  0.547
 
band     9 # energy   29.51922280 # occ.  0.00000000
 
ion      s     py     pz     px    dxy    dyz    dz2    dxz  x2-y2    tot
    1  0.000  0.047  0.047  0.092  0.000  0.055  0.000  0.000  0.001  0.244
 
band    10 # energy   30.96375902 # occ.  0.00000000
 
ion      s     py     pz     px    dxy    dyz    dz2    dxz  x2-y2    tot
    1  0.000  0.235  0.235  0.000  0.127  0.000  0.004  0.127  0.001  0.729
 
band    11 # energy   32.51466619 # occ.  0.00000000
 
ion      s     py     pz     px    dxy    dyz    dz2    dxz  x2-y2    tot
    1  0.000  0.039  0.039  0.000  0.027  0.000  0.402  0.027  0.134  0.668
 
band    12 # energy   33.59496710 # occ.  0.00000000
 
ion      s     py     pz     px    dxy    dyz    dz2    dxz  x2-y2    tot
    1  0.053  0.052  0.052  0.013  0.011  0.040  0.053  0.011  0.158  0.441
 

 k-point     4 :    0.43750000 0.06250000 0.06250000     weight = 0.01171875

band     1 # energy    3.11046585 # occ.  1.00000000
 
ion      s     py     pz     px    dxy    dyz    dz2    dxz  x2-y2    tot
    1  0.184  0.015  0.015  0.002  0.180  0.203  0.000  0.180  0.001  0.779
 
band     2 # energy    4.90703075 # occ.  1.00000000
 
ion      s     py     pz     px    dxy    dyz    dz2    dxz  x2-y2    tot
    1  0.000  0.001  0.001  0.000  0.045  0.264  0.148  0.045  0.444  0.948
 
band     3 # energy    4.97042119 # occ.  1.00000000
 
ion      s     py     pz     px    dxy    dyz    dz2    dxz  x2-y2    tot
    1  0.000  0.000  0.000  0.000  0.169  0.000  0.461  0.169  0.154  0.953
 
band     4 # energy    5.64043930 # occ.  1.00000000
 
ion      s     py     pz     px    dxy    dyz    dz2    dxz  x2-y2    tot
    1  0.043  0.053  0.053  0.053  0.205  0.057  0.033  0.205  0.100  0.802
 
band     5 # energy    6.14302146 # occ.  1.00000000
 
ion      s     py     pz     px    dxy    dyz    dz2    dxz  x2-y2    tot
    1  0.000  0.000  0.000  0.000  0.317  0.000  0.261  0.317  0.087  0.982
 
band     6 # energy    6.76589956 # occ.  1.00000000
 
ion      s     py     pz     px    dxy    dyz    dz2    dxz  x2-y2    tot
    1  0.058  0.050  0.050  0.033  0.001  0.412  0.059  0.001  0.178  0.842
 
band     7 # energy   14.08132078 # occ.  0.00000000
 
ion      s     py     pz     px    dxy    dyz    dz2    dxz  x2-y2    tot
    1  0.261  0.046  0.046  0.088  0.100  0.077  0.001  0.100  0.002  0.720
 
band     8 # energy   25.87164016 # occ.  0.00000000
 
ion      s     py     pz     px    dxy    dyz    dz2    dxz  x2-y2    tot
    1  0.022  0.029  0.029  0.198  0.047  0.034  0.021  0.047  0.062  0.489
 
band     9 # energy   28.21563767 # occ.  0.00000000
 
ion      s     py     pz     px    dxy    dyz    dz2    dxz  x2-y2    tot
    1  0.007  0.080  0.080  0.103  0.001  0.002  0.001  0.001  0.002  0.275
 
band    10 # energy   29.06443834 # occ.  0.00000000
 
ion      s     py     pz     px    dxy    dyz    dz2    dxz  x2-y2    tot
    1  0.000  0.279  0.279  0.000  0.002  0.000  0.067  0.002  0.022  0.650
 
band    11 # energy   31.73347615 # occ.  0.00000000
 
ion      s     py     pz     px    dxy    dyz    dz2    dxz  x2-y2    tot
    1  0.000  0.018  0.018  0.000  0.146  0.000  0.336  0.146  0.112  0.774
 
band    12 # energy   33.18510509 # occ.  0.00000000
 
ion      s     py     pz     px    dxy    dyz    dz2    dxz  x2-y2    tot
    1  0.046  0.012  0.012  0.010  0.000  0.192  0.097  0.000  0.291  0.660
 

 k-point     5 :   -0.43750000 0.06250000 0.06250000     weight = 0.01171875

band     1 # energy    3.23995503 # occ.  1.00000000
 
ion      s     py     pz     px    dxy    dyz    dz2    dxz  x2-y2    tot
    1  0.126  0.000  0.000  0.004  0.227  0.246  0.000  0.227  0.000  0.832
 
band     2 # energy    4.83831565 # occ.  1.00000000
 
ion      s     py     pz     px    dxy    dyz    dz2    dxz  x2-y2    tot
    1  0.000  0.001  0.001  0.000  0.059  0.186  0.160  0.059  0.479  0.945
 
band     3 # energy    4.93338577 # occ.  1.00000000
 
ion      s     py     pz     px    dxy    dyz    dz2    dxz  x2-y2    tot
    1  0.000  0.000  0.000  0.000  0.169  0.000  0.460  0.169  0.153  0.951
 
band     4 # energy    5.98738762 # occ.  1.00000000
 
ion      s     py     pz     px    dxy    dyz    dz2    dxz  x2-y2    tot
    1  0.001  0.028  0.028  0.027  0.082  0.416  0.059  0.082  0.178  0.902
 
band     5 # energy    6.33585179 # occ.  1.00000000
 
ion      s     py     pz     px    dxy    dyz    dz2    dxz  x2-y2    tot
    1  0.000  0.000  0.000  0.000  0.319  0.000  0.263  0.319  0.088  0.988
 
band     6 # energy    7.76646095 # occ.  0.00000000
 
ion      s     py     pz     px    dxy    dyz    dz2    dxz  x2-y2    tot
    1  0.011  0.133  0.133  0.147  0.038  0.031  0.021  0.038  0.064  0.616
 
band     7 # energy   11.99147913 # occ.  0.00000000
 
ion      s     py     pz     px    dxy    dyz    dz2    dxz  x2-y2    tot
    1  0.406  0.011  0.011  0.000  0.118  0.133  0.000  0.118  0.000  0.797
 
band     8 # energy   26.40591953 # occ.  0.00000000
 
ion      s     py     pz     px    dxy    dyz    dz2    dxz  x2-y2    tot
    1  0.005  0.003  0.003  0.123  0.013  0.027  0.030  0.013  0.089  0.306
 
band     9 # energy   27.54479238 # occ.  0.00000000
 
ion      s     py     pz     px    dxy    dyz    dz2    dxz  x2-y2    tot
    1  0.000  0.257  0.257  0.000  0.022  0.000  0.066  0.022  0.022  0.645
 
band    10 # energy   27.81731694 # occ.  0.00000000
 
ion      s     py     pz     px    dxy    dyz    dz2    dxz  x2-y2    tot
    1  0.034  0.090  0.090  0.235  0.005  0.017  0.001  0.005  0.003  0.479
 
band    11 # energy   32.40580533 # occ.  0.00000000
 
ion      s     py     pz     px    dxy    dyz    dz2    dxz  x2-y2    tot
    1  0.000  0.046  0.046  0.000  0.111  0.000  0.332  0.111  0.111  0.757
 
band    12 # energy   32.60548618 # occ.  0.00000000
 
ion      s     py     pz     px    dxy    dyz    dz2    dxz  x2-y2    tot
    1  0.009  0.002  0.002  0.023  0.018  0.192  0.103  0.018  0.308  0.673
 

 k-point     6 :   -0.31250000 0.06250000 0.06250000     weight = 0.01171875

band     1 # energy    2.89816699 # occ.  1.00000000
 
ion      s     py     pz     px    dxy    dyz    dz2    dxz  x2-y2    tot
    1  0.253  0.012  0.012  0.038  0.134  0.129  0.002  0.134  0.005  0.718
 
band     2 # energy    4.93427567 # occ.  1.00000000
 
ion      s     py     pz     px    dxy    dyz    dz2    dxz  x2-y2    tot
    1  0.000  0.002  0.002  0.001  0.098  0.119  0.157  0.098  0.471  0.946
 
band     3 # energy    5.03740594 # occ.  1.00000000
 
ion      s     py     pz     px    dxy    dyz    dz2    dxz  x2-y2    tot
    1  0.000  0.001  0.001  0.000  0.207  0.000  0.404  0.207  0.135  0.955
 
band     4 # energy    5.21826110 # occ.  1.00000000
 
ion      s     py     pz     px    dxy    dyz    dz2    dxz  x2-y2    tot
    1  0.055  0.044  0.044  0.045  0.014  0.565  0.007  0.014  0.021  0.809
 
band     5 # energy    6.18750941 # occ.  1.00000000
 
ion      s     py     pz     px    dxy    dyz    dz2    dxz  x2-y2    tot
    1  0.000  0.000  0.000  0.000  0.277  0.000  0.322  0.277  0.107  0.984
 
band     6 # energy    6.29908063 # occ.  1.00000000
 
ion      s     py     pz     px    dxy    dyz    dz2    dxz  x2-y2    tot
    1  0.036  0.014  0.014  0.028  0.209  0.108  0.074  0.209  0.223  0.916
 
band     7 # energy   15.57635852 # occ.  0.00000000
 
ion      s     py     pz     px    dxy    dyz    dz2    dxz  x2-y2    tot
    1  0.205  0.090  0.090  0.050  0.078  0.102  0.001  0.078  0.002  0.694
 
band     8 # energy   27.09420923 # occ.  0.00000000
 
ion      s     py     pz     px    dxy    dyz    dz2    dxz  x2-y2    tot
    1  0.000  0.232  0.232  0.000  0.076  0.000  0.044  0.076  0.015  0.673
 
band     9 # energy   27.16854572 # occ.  0.00000000
 
ion      s     py     pz     px    dxy    dyz    dz2    dxz  x2-y2    tot
    1  0.009  0.007  0.007  0.000  0.000  0.093  0.021  0.000  0.061  0.197
 
band    10 # energy   29.00299124 # occ.  0.00000000
 
ion      s     py     pz     px    dxy    dyz    dz2    dxz  x2-y2    tot
    1  0.043  0.051  0.051  0.404  0.001  0.051  0.016  0.001  0.049  0.666
 
band    11 # energy   32.57713402 # occ.  0.00000000
 
ion      s     py     pz     px    dxy    dyz    dz2    dxz  x2-y2    tot
    1  0.001  0.002  0.002  0.011  0.054  0.105  0.096  0.054  0.288  0.613
 
band    12 # energy   33.98752928 # occ.  0.00000000
 
ion      s     py     pz     px    dxy    dyz    dz2    dxz  x2-y2    tot
    1  0.000  0.061  0.061  0.000  0.046  0.000  0.348  0.046  0.116  0.679
 

 k-point     7 :   -0.18750000 0.06250000 0.06250000     weight = 0.01171875

band     1 # energy    1.49713830 # occ.  1.00000000
 
ion      s     py     pz     px    dxy    dyz    dz2    dxz  x2-y2    tot
    1  0.458  0.017  0.017  0.049  0.015  0.008  0.001  0.015  0.003  0.583
 
band     2 # energy    4.73404492 # occ.  1.00000000
 
ion      s     py     pz     px    dxy    dyz    dz2    dxz  x2-y2    tot
    1  0.007  0.008  0.008  0.005  0.131  0.628  0.000  0.131  0.001  0.920
 
band     3 # energy    5.12164849 # occ.  1.00000000
 
ion      s     py     pz     px    dxy    dyz    dz2    dxz  x2-y2    tot
    1  0.000  0.000  0.000  0.000  0.177  0.186  0.104  0.177  0.311  0.957
 
band     4 # energy    5.16825942 # occ.  1.00000000
 
ion      s     py     pz     px    dxy    dyz    dz2    dxz  x2-y2    tot
    1  0.000  0.001  0.001  0.000  0.330  0.000  0.222  0.330  0.074  0.959
 
band     5 # energy    5.69630067 # occ.  1.00000000
 
ion      s     py     pz     px    dxy    dyz    dz2    dxz  x2-y2    tot
    1  0.005  0.001  0.001  0.004  0.147  0.119  0.136  0.147  0.409  0.967
 
band     6 # energy    5.86181102 # occ.  1.00000000
 
ion      s     py     pz     px    dxy    dyz    dz2    dxz  x2-y2    tot
    1  0.000  0.000  0.000  0.000  0.150  0.000  0.508  0.150  0.169  0.978
 
band     7 # energy   20.80627531 # occ.  0.00000000
 
ion      s     py     pz     px    dxy    dyz    dz2    dxz  x2-y2    tot
    1  0.086  0.109  0.109  0.064  0.082  0.105  0.001  0.082  0.002  0.638
 
band     8 # energy   27.61455403 # occ.  0.00000000
 
ion      s     py     pz     px    dxy    dyz    dz2    dxz  x2-y2    tot
    1  0.000  0.205  0.205  0.000  0.123  0.000  0.021  0.123  0.007  0.684
 
band     9 # energy   27.93204448 # occ.  0.00000000
 
ion      s     py     pz     px    dxy    dyz    dz2    dxz  x2-y2    tot
    1  0.033  0.002  0.002  0.035  0.000  0.166  0.010  0.000  0.031  0.279
 
band    10 # energy   31.51831902 # occ.  0.00000000
 
ion      s     py     pz     px    dxy    dyz    dz2    dxz  x2-y2    tot
    1  0.018  0.019  0.019  0.382  0.020  0.089  0.016  0.020  0.049  0.632
 
band    11 # energy   32.54377073 # occ.  0.00000000
 
ion      s     py     pz     px    dxy    dyz    dz2    dxz  x2-y2    tot
    1  0.007  0.043  0.043  0.001  0.021  0.006  0.067  0.021  0.202  0.410
 
band    12 # energy   35.85405200 # occ.  0.00000000
 
ion      s     py     pz     px    dxy    dyz    dz2    dxz  x2-y2    tot
    1  0.002  0.109  0.110  0.050  0.038  0.121  0.032  0.039  0.092  0.592
 

 k-point     8 :   -0.06250000 0.06250000 0.06250000     weight = 0.01171875

band     1 # energy    0.22796561 # occ.  1.00000000
 
ion      s     py     pz     px    dxy    dyz    dz2    dxz  x2-y2    tot
    1  0.542  0.002  0.002  0.021  0.000  0.000  0.000  0.000  0.001  0.569
 
band     2 # energy    4.87700302 # occ.  1.00000000
 
ion      s     py     pz     px    dxy    dyz    dz2    dxz  x2-y2    tot
    1  0.000  0.001  0.001  0.000  0.056  0.837  0.000  0.056  0.000  0.950
 
band     3 # energy    5.10524425 # occ.  1.00000000
 
ion      s     py     pz     px    dxy    dyz    dz2    dxz  x2-y2    tot
    1  0.000  0.001  0.001  0.000  0.416  0.113  0.003  0.416  0.009  0.958
 
band     4 # energy    5.10779839 # occ.  1.00000000
 
ion      s     py     pz     px    dxy    dyz    dz2    dxz  x2-y2    tot
    1  0.000  0.001  0.001  0.000  0.471  0.000  0.011  0.471  0.004  0.958
 
band     5 # energy    5.57365472 # occ.  1.00000000
 
ion      s     py     pz     px    dxy    dyz    dz2    dxz  x2-y2    tot
    1  0.001  0.000  0.000  0.000  0.005  0.002  0.240  0.005  0.720  0.973
 
band     6 # energy    5.71036103 # occ.  1.00000000
 
ion      s     py     pz     px    dxy    dyz    dz2    dxz  x2-y2    tot
    1  0.000  0.000  0.000  0.000  0.007  0.000  0.722  0.007  0.241  0.978
 
band     7 # energy   26.52878697 # occ.  0.00000000
 
ion      s     py     pz     px    dxy    dyz    dz2    dxz  x2-y2    tot
    1  0.013  0.078  0.078  0.029  0.074  0.146  0.000  0.074  0.001  0.492
 
band     8 # energy   28.75845100 # occ.  0.00000000
 
ion      s     py     pz     px    dxy    dyz    dz2    dxz  x2-y2    tot
    1  0.029  0.031  0.031  0.081  0.018  0.083  0.003  0.018  0.008  0.301
 
band     9 # energy   28.95111355 # occ.  0.00000000
 
ion      s     py     pz     px    dxy    dyz    dz2    dxz  x2-y2    tot
    1  0.000  0.185  0.185  0.000  0.133  0.000  0.003  0.133  0.001  0.640
 
band    10 # energy   31.06286534 # occ.  0.00000000
 
ion      s     py     pz     px    dxy    dyz    dz2    dxz  x2-y2    tot
    1  0.013  0.084  0.084  0.112  0.014  0.000  0.013  0.014  0.040  0.374
 
band    11 # energy   34.33324998 # occ.  0.00000000
 
ion      s     py     pz     px    dxy    dyz    dz2    dxz  x2-y2    tot
    1  0.000  0.003  0.003  0.081  0.148  0.292  0.004  0.148  0.013  0.693
 
band    12 # energy   35.93925521 # occ.  0.00000000
 
ion      s     py     pz     px    dxy    dyz    dz2    dxz  x2-y2    tot
    1  0.006  0.001  0.001  0.277  0.001  0.315  0.017  0.001  0.051  0.670
 

 k-point     9 :    0.18750000 0.18750000 0.06250000     weight = 0.01171875

band     1 # energy    0.89182603 # occ.  1.00000000
 
ion      s     py     pz     px    dxy    dyz    dz2    dxz  x2-y2    tot
    1  0.501  0.002  0.055  0.002  0.000  0.001  0.009  0.001  0.000  0.571
 
band     2 # energy    4.68948736 # occ.  1.00000000
 
ion      s     py     pz     px    dxy    dyz    dz2    dxz  x2-y2    tot
    1  0.000  0.001  0.000  0.001  0.903  0.018  0.000  0.018  0.000  0.941
 
band     3 # energy    5.23293930 # occ.  1.00000000
 
ion      s     py     pz     px    dxy    dyz    dz2    dxz  x2-y2    tot
    1  0.000  0.001  0.000  0.001  0.031  0.354  0.217  0.354  0.000  0.959
 
band     4 # energy    5.26318240 # occ.  1.00000000
 
ion      s     py     pz     px    dxy    dyz    dz2    dxz  x2-y2    tot
    1  0.000  0.002  0.000  0.002  0.000  0.455  0.000  0.455  0.045  0.960
 
band     5 # energy    5.46604740 # occ.  1.00000000
 
ion      s     py     pz     px    dxy    dyz    dz2    dxz  x2-y2    tot
    1  0.005  0.000  0.002  0.000  0.008  0.103  0.739  0.103  0.000  0.963
 
band     6 # energy    5.79917911 # occ.  1.00000000
 
ion      s     py     pz     px    dxy    dyz    dz2    dxz  x2-y2    tot
    1  0.000  0.000  0.000  0.000  0.000  0.023  0.000  0.023  0.934  0.980
 
band     7 # energy   24.88611410 # occ.  0.00000000
 
ion      s     py     pz     px    dxy    dyz    dz2    dxz  x2-y2    tot
    1  0.024  0.120  0.023  0.120  0.141  0.079  0.006  0.079  0.000  0.591
 
band     8 # energy   26.87495517 # occ.  0.00000000
 
ion      s     py     pz     px    dxy    dyz    dz2    dxz  x2-y2    tot
    1  0.000  0.205  0.000  0.205  0.000  0.125  0.000  0.125  0.004  0.664
 
band     9 # energy   27.56288028 # occ.  0.00000000
 
ion      s     py     pz     px    dxy    dyz    dz2    dxz  x2-y2    tot
    1  0.031  0.015  0.031  0.015  0.228  0.010  0.041  0.010  0.000  0.380
 
band    10 # energy   29.53679159 # occ.  0.00000000
 
ion      s     py     pz     px    dxy    dyz    dz2    dxz  x2-y2    tot
    1  0.010  0.059  0.002  0.059  0.038  0.026  0.162  0.026  0.000  0.382
 
band    11 # energy   32.58369862 # occ.  0.00000000
 
ion      s     py     pz     px    dxy    dyz    dz2    dxz  x2-y2    tot
    1  0.107  0.019  0.557  0.019  0.000  0.001  0.118  0.001  0.000  0.822
 
band    12 # energy   36.71475244 # occ.  0.00000000
 
ion      s     py     pz     px    dxy    dyz    dz2    dxz  x2-y2    tot
    1  0.007  0.001  0.000  0.001  0.293  0.109  0.036  0.109  0.000  0.557
 

 k-point    10 :    0.31250000 0.18750000 0.06250000     weight = 0.02343750

band     1 # energy    2.07585883 # occ.  1.00000000
 
ion      s     py     pz     px    dxy    dyz    dz2    dxz  x2-y2    tot
    1  0.408  0.016  0.092  0.002  0.002  0.026  0.044  0.004  0.000  0.593
 
band     2 # energy    4.48567235 # occ.  1.00000000
 
ion      s     py     pz     px    dxy    dyz    dz2    dxz  x2-y2    tot
    1  0.001  0.001  0.001  0.007  0.834  0.006  0.003  0.073  0.000  0.925
 
band     3 # energy    5.05884658 # occ.  1.00000000
 
ion      s     py     pz     px    dxy    dyz    dz2    dxz  x2-y2    tot
    1  0.005  0.002  0.001  0.000  0.016  0.304  0.570  0.014  0.034  0.947
 
band     4 # energy    5.42855371 # occ.  1.00000000
 
ion      s     py     pz     px    dxy    dyz    dz2    dxz  x2-y2    tot
    1  0.002  0.001  0.001  0.002  0.035  0.134  0.059  0.476  0.251  0.961
 
band     5 # energy    5.68484883 # occ.  1.00000000
 
ion      s     py     pz     px    dxy    dyz    dz2    dxz  x2-y2    tot
    1  0.010  0.002  0.007  0.002  0.041  0.085  0.198  0.383  0.230  0.958
 
band     6 # energy    6.10304008 # occ.  1.00000000
 
ion      s     py     pz     px    dxy    dyz    dz2    dxz  x2-y2    tot
    1  0.013  0.004  0.006  0.000  0.001  0.403  0.079  0.002  0.463  0.970
 
band     7 # energy   21.31097342 # occ.  0.00000000
 
ion      s     py     pz     px    dxy    dyz    dz2    dxz  x2-y2    tot
    1  0.060  0.101  0.026  0.181  0.124  0.053  0.010  0.082  0.002  0.639
 
band     8 # energy   23.67998349 # occ.  0.00000000
 
ion      s     py     pz     px    dxy    dyz    dz2    dxz  x2-y2    tot
    1  0.045  0.157  0.020  0.143  0.068  0.081  0.022  0.057  0.013  0.606
 
band     9 # energy   27.31421749 # occ.  0.00000000
 
ion      s     py     pz     px    dxy    dyz    dz2    dxz  x2-y2    tot
    1  0.014  0.023  0.128  0.014  0.016  0.005  0.285  0.006  0.001  0.491
 
band    10 # energy   28.88389135 # occ.  0.00000000
 
ion      s     py     pz     px    dxy    dyz    dz2    dxz  x2-y2    tot
    1  0.040  0.019  0.100  0.084  0.261  0.005  0.018  0.036  0.001  0.563
 
band    11 # energy   31.99493172 # occ.  0.00000000
 
ion      s     py     pz     px    dxy    dyz    dz2    dxz  x2-y2    tot
    1  0.100  0.185  0.247  0.037  0.037  0.034  0.003  0.007  0.000  0.650
 
band    12 # energy   36.63501975 # occ.  0.00000000
 
ion      s     py     pz     px    dxy    dyz    dz2    dxz  x2-y2    tot
    1  0.010  0.028  0.015  0.002  0.037  0.002  0.136  0.023  0.145  0.399
 

 k-point    11 :    0.43750000 0.18750000 0.06250000     weight = 0.02343750

band     1 # energy    3.32294674 # occ.  1.00000000
 
ion      s     py     pz     px    dxy    dyz    dz2    dxz  x2-y2    tot
    1  0.198  0.014  0.065  0.001  0.142  0.144  0.091  0.082  0.001  0.737
 
band     2 # energy    4.57502012 # occ.  1.00000000
 
ion      s     py     pz     px    dxy    dyz    dz2    dxz  x2-y2    tot
    1  0.008  0.022  0.011  0.021  0.303  0.035  0.401  0.064  0.014  0.878
 
band     3 # energy    4.87107984 # occ.  1.00000000
 
ion      s     py     pz     px    dxy    dyz    dz2    dxz  x2-y2    tot
    1  0.022  0.001  0.016  0.006  0.377  0.257  0.195  0.003  0.042  0.919
 
band     4 # energy    5.30104985 # occ.  1.00000000
 
ion      s     py     pz     px    dxy    dyz    dz2    dxz  x2-y2    tot
    1  0.002  0.002  0.004  0.000  0.042  0.063  0.049  0.268  0.524  0.955
 
band     5 # energy    6.17730922 # occ.  1.00000000
 
ion      s     py     pz     px    dxy    dyz    dz2    dxz  x2-y2    tot
    1  0.002  0.000  0.004  0.002  0.033  0.082  0.040  0.485  0.330  0.978
 
band     6 # energy    7.11308723 # occ.  1.00000000
 
ion      s     py     pz     px    dxy    dyz    dz2    dxz  x2-y2    tot
    1  0.090  0.025  0.067  0.013  0.011  0.380  0.171  0.046  0.059  0.861
 
band     7 # energy   16.07653432 # occ.  0.00000000
 
ion      s     py     pz     px    dxy    dyz    dz2    dxz  x2-y2    tot
    1  0.174  0.092  0.024  0.150  0.117  0.048  0.010  0.064  0.003  0.681
 
band     8 # energy   23.23627072 # occ.  0.00000000
 
ion      s     py     pz     px    dxy    dyz    dz2    dxz  x2-y2    tot
    1  0.030  0.124  0.002  0.198  0.064  0.045  0.046  0.038  0.045  0.593
 
band     9 # energy   24.80347559 # occ.  0.00000000
 
ion      s     py     pz     px    dxy    dyz    dz2    dxz  x2-y2    tot
    1  0.069  0.000  0.249  0.035  0.000  0.004  0.216  0.015  0.004  0.592
 
band    10 # energy   28.43177800 # occ.  0.00000000
 
ion      s     py     pz     px    dxy    dyz    dz2    dxz  x2-y2    tot
    1  0.055  0.150  0.082  0.024  0.182  0.012  0.003  0.010  0.004  0.521
 
band    11 # energy   34.50974902 # occ.  0.00000000
 
ion      s     py     pz     px    dxy    dyz    dz2    dxz  x2-y2    tot
    1  0.009  0.131  0.006  0.005  0.153  0.023  0.039  0.028  0.165  0.559
 
band    12 # energy   36.35522703 # occ.  0.00000000
 
ion      s     py     pz     px    dxy    dyz    dz2    dxz  x2-y2    tot
    1  0.049  0.070  0.086  0.074  0.021  0.008  0.199  0.005  0.031  0.543
 

 k-point    12 :   -0.43750000 0.18750000 0.06250000     weight = 0.02343750

band     1 # energy    3.60723420 # occ.  1.00000000
 
ion      s     py     pz     px    dxy    dyz    dz2    dxz  x2-y2    tot
    1  0.091  0.000  0.015  0.006  0.326  0.234  0.011  0.165  0.000  0.847
 
band     2 # energy    4.56332609 # occ.  1.00000000
 
ion      s     py     pz     px    dxy    dyz    dz2    dxz  x2-y2    tot
    1  0.000  0.015  0.001  0.006  0.034  0.080  0.684  0.012  0.076  0.907
 
band     3 # energy    5.17113990 # occ.  1.00000000
 
ion      s     py     pz     px    dxy    dyz    dz2    dxz  x2-y2    tot
    1  0.000  0.000  0.000  0.006  0.004  0.119  0.090  0.181  0.551  0.952
 
band     4 # energy    5.27428475 # occ.  1.00000000
 
ion      s     py     pz     px    dxy    dyz    dz2    dxz  x2-y2    tot
    1  0.002  0.026  0.038  0.025  0.436  0.212  0.026  0.059  0.058  0.882
 
band     5 # energy    6.31599672 # occ.  1.00000000
 
ion      s     py     pz     px    dxy    dyz    dz2    dxz  x2-y2    tot
    1  0.000  0.000  0.000  0.000  0.037  0.178  0.027  0.481  0.263  0.986
 
band     6 # energy    9.20461982 # occ.  0.00000000
 
ion      s     py     pz     px    dxy    dyz    dz2    dxz  x2-y2    tot
    1  0.018  0.109  0.156  0.105  0.036  0.094  0.121  0.016  0.015  0.670
 
band     7 # energy   12.23424267 # occ.  0.00000000
 
ion      s     py     pz     px    dxy    dyz    dz2    dxz  x2-y2    tot
    1  0.380  0.015  0.004  0.049  0.139  0.091  0.001  0.091  0.001  0.772
 
band     8 # energy   22.79077298 # occ.  0.00000000
 
ion      s     py     pz     px    dxy    dyz    dz2    dxz  x2-y2    tot