<?xml version="1.0" encoding="ISO-8859-1"?>
<modeling>
 <generator>
  <i name="program" type="string">vasp </i>
  <i name="version" type="string">6.3.2  </i>
  <i name="subversion" type="string">27Jun22 (build Aug 12 2022 00:53:59) complex                          parallel </i>
  <i name="platform" type="string">tv2STD </i>
  <i name="date" type="string">2024 12 03 </i>
  <i name="time" type="string">01:41:37 </i>
 </generator>
 <incar>
  <i type="string" name="SYSTEM">Co-fcc</i>
  <i type="int" name="ISTART">     0</i>
  <i type="string" name="PREC">Accurate      normal | accurate</i>
  <i type="string" name="ALGO">Normal     Normal, Fast, Very_Fast</i>
  <i type="logical" name="ADDGRID"> F  </i>
  <i type="int" name="ISPIN">     2</i>
  <i type="int" name="ICHARG">     2</i>
  <i type="int" name="INIWAV">     1</i>
  <i type="int" name="NELM">   100</i>
  <i type="int" name="IBRION">     2</i>
  <i name="EDIFF">      0.00000100</i>
  <i name="EDIFFG">     -0.02000000</i>
  <i type="int" name="NSW">   100</i>
  <i type="int" name="ISIF">     2</i>
  <i type="int" name="ISYM">     1</i>
  <i name="ENCUT">    400.00000000</i>
  <v name="MAGMOM">      3.00000000</v>
  <i type="logical" name="LREAL"> F  </i>
  <i type="int" name="ISMEAR">     0</i>
  <i name="SIGMA">      0.05000000</i>
  <i type="int" name="NWRITE">     2</i>
  <i type="logical" name="LWAVE"> T  </i>
  <i type="logical" name="LCHARG"> T  </i>
  <i type="int" name="LORBIT">    11</i>
 </incar>
 <primitive_cell>
  <structure name="primitive_cell" >
   <crystal>
    <varray name="basis" >
     <v>       0.00000000       1.89460896       1.89460896 </v>
     <v>       1.89460896       0.00000000       1.89460896 </v>
     <v>       1.89460896       1.89460896       0.00000000 </v>
    </varray>
    <i name="volume">     13.60156111 </i>
    <varray name="rec_basis" >
     <v>      -0.26390670       0.26390670       0.26390670 </v>
     <v>       0.26390670      -0.26390670       0.26390670 </v>
     <v>       0.26390670       0.26390670      -0.26390670 </v>
    </varray>
   </crystal>
   <varray name="positions" >
    <v>       0.00000000       0.00000000       0.00000000 </v>
   </varray>
  </structure>
  <varray name="primitive_index" >
   <v type="int" >        1 </v>
  </varray>
 </primitive_cell>
 <kpoints>
  <generation param="Monkhorst-Pack">
   <v type="int" name="divisions">       8        8        8 </v>
   <v name="usershift">      0.00000000       0.00000000       0.00000000 </v>
   <v name="genvec1">      0.12500000       0.00000000       0.00000000 </v>
   <v name="genvec2">      0.00000000       0.12500000       0.00000000 </v>
   <v name="genvec3">      0.00000000       0.00000000       0.12500000 </v>
   <v name="shift">      0.50000000       0.50000000       0.50000000 </v>
  </generation>
  <varray name="kpointlist" >
   <v>       0.06250000       0.06250000       0.06250000 </v>
   <v>       0.18750000       0.06250000       0.06250000 </v>
   <v>       0.31250000       0.06250000       0.06250000 </v>
   <v>       0.43750000       0.06250000       0.06250000 </v>
   <v>      -0.43750000       0.06250000       0.06250000 </v>
   <v>      -0.31250000       0.06250000       0.06250000 </v>
   <v>      -0.18750000       0.06250000       0.06250000 </v>
   <v>      -0.06250000       0.06250000       0.06250000 </v>
   <v>       0.18750000       0.18750000       0.06250000 </v>
   <v>       0.31250000       0.18750000       0.06250000 </v>
   <v>       0.43750000       0.18750000       0.06250000 </v>
   <v>      -0.43750000       0.18750000       0.06250000 </v>
   <v>      -0.31250000       0.18750000       0.06250000 </v>
   <v>      -0.18750000       0.18750000       0.06250000 </v>
   <v>      -0.06250000       0.18750000       0.06250000 </v>
   <v>       0.31250000       0.31250000       0.06250000 </v>
   <v>       0.43750000       0.31250000       0.06250000 </v>
   <v>      -0.43750000       0.31250000       0.06250000 </v>
   <v>      -0.31250000       0.31250000       0.06250000 </v>
   <v>      -0.18750000       0.31250000       0.06250000 </v>
   <v>      -0.06250000       0.31250000       0.06250000 </v>
   <v>       0.43750000       0.43750000       0.06250000 </v>
   <v>      -0.43750000       0.43750000       0.06250000 </v>
   <v>      -0.31250000       0.43750000       0.06250000 </v>
   <v>      -0.18750000       0.43750000       0.06250000 </v>
   <v>      -0.06250000       0.43750000       0.06250000 </v>
   <v>      -0.43750000      -0.43750000       0.06250000 </v>
   <v>      -0.31250000      -0.43750000       0.06250000 </v>
   <v>      -0.18750000      -0.43750000       0.06250000 </v>
   <v>      -0.31250000      -0.31250000       0.06250000 </v>
   <v>      -0.18750000      -0.31250000       0.06250000 </v>
   <v>      -0.18750000      -0.18750000       0.06250000 </v>
   <v>       0.18750000       0.18750000       0.18750000 </v>
   <v>       0.31250000       0.18750000       0.18750000 </v>
   <v>       0.43750000       0.18750000       0.18750000 </v>
   <v>      -0.43750000       0.18750000       0.18750000 </v>
   <v>      -0.31250000       0.18750000       0.18750000 </v>
   <v>      -0.18750000       0.18750000       0.18750000 </v>
   <v>       0.31250000       0.31250000       0.18750000 </v>
   <v>       0.43750000       0.31250000       0.18750000 </v>
   <v>      -0.43750000       0.31250000       0.18750000 </v>
   <v>      -0.31250000       0.31250000       0.18750000 </v>
   <v>      -0.18750000       0.31250000       0.18750000 </v>
   <v>       0.43750000       0.43750000       0.18750000 </v>
   <v>      -0.43750000       0.43750000       0.18750000 </v>
   <v>      -0.31250000       0.43750000       0.18750000 </v>
   <v>      -0.18750000       0.43750000       0.18750000 </v>
   <v>      -0.43750000      -0.43750000       0.18750000 </v>
   <v>      -0.31250000      -0.43750000       0.18750000 </v>
   <v>      -0.31250000      -0.31250000       0.18750000 </v>
   <v>       0.31250000       0.31250000       0.31250000 </v>
   <v>       0.43750000       0.31250000       0.31250000 </v>
   <v>      -0.43750000       0.31250000       0.31250000 </v>
   <v>      -0.31250000       0.31250000       0.31250000 </v>
   <v>       0.43750000       0.43750000       0.31250000 </v>
   <v>      -0.43750000       0.43750000       0.31250000 </v>
   <v>      -0.31250000       0.43750000       0.31250000 </v>
   <v>      -0.43750000      -0.43750000       0.31250000 </v>
   <v>       0.43750000       0.43750000       0.43750000 </v>
   <v>      -0.43750000       0.43750000       0.43750000 </v>
  </varray>
  <varray name="weights" >
   <v>       0.00390625 </v>
   <v>       0.01171875 </v>
   <v>       0.01171875 </v>
   <v>       0.01171875 </v>
   <v>       0.01171875 </v>
   <v>       0.01171875 </v>
   <v>       0.01171875 </v>
   <v>       0.01171875 </v>
   <v>       0.01171875 </v>
   <v>       0.02343750 </v>
   <v>       0.02343750 </v>
   <v>       0.02343750 </v>
   <v>       0.02343750 </v>
   <v>       0.02343750 </v>
   <v>       0.02343750 </v>
   <v>       0.01171875 </v>
   <v>       0.02343750 </v>
   <v>       0.02343750 </v>
   <v>       0.02343750 </v>
   <v>       0.02343750 </v>
   <v>       0.02343750 </v>
   <v>       0.01171875 </v>
   <v>       0.02343750 </v>
   <v>       0.02343750 </v>
   <v>       0.02343750 </v>
   <v>       0.02343750 </v>
   <v>       0.01171875 </v>
   <v>       0.02343750 </v>
   <v>       0.02343750 </v>
   <v>       0.01171875 </v>
   <v>       0.02343750 </v>
   <v>       0.01171875 </v>
   <v>       0.00390625 </v>
   <v>       0.01171875 </v>
   <v>       0.01171875 </v>
   <v>       0.01171875 </v>
   <v>       0.01171875 </v>
   <v>       0.01171875 </v>
   <v>       0.01171875 </v>
   <v>       0.02343750 </v>
   <v>       0.02343750 </v>
   <v>       0.02343750 </v>
   <v>       0.02343750 </v>
   <v>       0.01171875 </v>
   <v>       0.02343750 </v>
   <v>       0.02343750 </v>
   <v>       0.02343750 </v>
   <v>       0.01171875 </v>
   <v>       0.02343750 </v>
   <v>       0.01171875 </v>
   <v>       0.00390625 </v>
   <v>       0.01171875 </v>
   <v>       0.01171875 </v>
   <v>       0.01171875 </v>
   <v>       0.01171875 </v>
   <v>       0.02343750 </v>
   <v>       0.02343750 </v>
   <v>       0.01171875 </v>
   <v>       0.00390625 </v>
   <v>       0.01171875 </v>
  </varray>
 </kpoints>
 <parameters>
  <separator name="general" >
   <i type="string" name="SYSTEM">Co-fcc</i>
   <i type="logical" name="LCOMPAT"> F  </i>
  </separator>
  <separator name="electronic" >
   <i type="string" name="PREC">accura</i>
   <i name="ENMAX">    400.00000000</i>
   <i name="ENAUG">    477.81800000</i>
   <i name="EDIFF">      0.00000100</i>
   <i type="int" name="IALGO">    38</i>
   <i type="int" name="IWAVPR">    11</i>
   <i type="int" name="NBANDS">    12</i>
   <i type="int" name="NBANDSLOW">    -1</i>
   <i type="int" name="NBANDSHIGH">    -1</i>
   <i name="NELECT">      9.00000000</i>
   <i type="int" name="TURBO">     0</i>
   <i type="int" name="IRESTART">     0</i>
   <i type="int" name="NREBOOT">     0</i>
   <i type="int" name="NMIN">     0</i>
   <i name="EREF">      0.00000000</i>
   <separator name="electronic smearing" >
    <i type="int" name="ISMEAR">     0</i>
    <i name="SIGMA">      0.05000000</i>
    <i name="KSPACING">      0.50000000</i>
    <i type="logical" name="KGAMMA"> T  </i>
    <i type="logical" name="KBLOWUP"> T  </i>
   </separator>
   <separator name="electronic projectors" >
    <i type="logical" name="LREAL"> F  </i>
    <v name="ROPT">      0.00000000</v>
    <i type="int" name="LMAXPAW">  -100</i>
    <i type="int" name="LMAXMIX">     2</i>
    <i type="logical" name="NLSPLINE"> F  </i>
   </separator>
   <separator name="electronic startup" >
    <i type="int" name="ISTART">     0</i>
    <i type="int" name="ICHARG">     2</i>
    <i type="int" name="INIWAV">     1</i>
   </separator>
   <separator name="electronic spin" >
    <i type="int" name="ISPIN">     2</i>
    <i type="logical" name="LNONCOLLINEAR"> F  </i>
    <v name="MAGMOM">      3.00000000</v>
    <i name="NUPDOWN">     -1.00000000</i>
    <i type="logical" name="LSORBIT"> F  </i>
    <v name="SAXIS">      0.00000000      0.00000000      1.00000000</v>
    <i type="logical" name="LSPIRAL"> F  </i>
    <v name="QSPIRAL">      0.00000000      0.00000000      0.00000000</v>
    <i type="logical" name="LZEROZ"> F  </i>
   </separator>
   <separator name="electronic exchange-correlation" >
    <i type="logical" name="LASPH"> F  </i>
    <i type="logical" name="LMETAGGA"> F  </i>
   </separator>
   <separator name="electronic convergence" >
    <i type="int" name="NELM">   100</i>
    <i type="int" name="NELMDL">    -5</i>
    <i type="int" name="NELMIN">     2</i>
    <i name="ENINI">    400.00000000</i>
    <separator name="electronic convergence detail" >
     <i type="logical" name="LDIAG"> T  </i>
     <i type="logical" name="LSUBROT"> F  </i>
     <i name="WEIMIN">      0.00100000</i>
     <i name="EBREAK">      0.00000002</i>
     <i name="DEPER">      0.30000000</i>
     <i type="int" name="NRMM">     4</i>
     <i name="TIME">      0.40000000</i>
    </separator>
   </separator>
   <separator name="electronic mixer" >
    <i name="AMIX">      0.40000000</i>
    <i name="BMIX">      1.00000000</i>
    <i name="AMIN">      0.10000000</i>
    <i name="AMIX_MAG">      1.60000000</i>
    <i name="BMIX_MAG">      1.00000000</i>
    <separator name="electronic mixer details" >
     <i type="int" name="IMIX">     4</i>
     <i type="logical" name="MIXFIRST"> F  </i>
     <i type="int" name="MAXMIX">   -45</i>
     <i name="WC">    100.00000000</i>
     <i type="int" name="INIMIX">     1</i>
     <i type="int" name="MIXPRE">     1</i>
     <i type="int" name="MREMOVE">     5</i>
    </separator>
   </separator>
   <separator name="electronic dipolcorrection" >
    <i type="logical" name="LDIPOL"> F  </i>
    <i type="logical" name="LMONO"> F  </i>
    <i type="int" name="IDIPOL">     0</i>
    <i name="EPSILON">      1.00000000</i>
    <v name="DIPOL">   -100.00000000   -100.00000000   -100.00000000</v>
    <i name="EFIELD">      0.00000000</i>
   </separator>
  </separator>
  <separator name="grids" >
   <i type="int" name="NGX">    18</i>
   <i type="int" name="NGY">    18</i>
   <i type="int" name="NGZ">    18</i>
   <i type="int" name="NGXF">    36</i>
   <i type="int" name="NGYF">    36</i>
   <i type="int" name="NGZF">    36</i>
   <i type="logical" name="ADDGRID"> F  </i>
  </separator>
  <separator name="ionic" >
   <i type="int" name="NSW">   100</i>
   <i type="int" name="IBRION">     2</i>
   <i type="int" name="MDALGO">     0</i>
   <i type="int" name="ISIF">     2</i>
   <i name="PSTRESS">      0.00000000</i>
   <i name="EDIFFG">     -0.02000000</i>
   <i type="int" name="NFREE">     1</i>
   <i name="POTIM">      0.50000000</i>
   <i name="SMASS">     -3.00000000</i>
   <i name="SCALEE">      1.00000000</i>
  </separator>
  <separator name="ionic md" >
   <i name="TEBEG">      0.00010000</i>
   <i name="TEEND">      0.00010000</i>
   <i type="int" name="NBLOCK">     1</i>
   <i type="int" name="KBLOCK">   100</i>
   <i type="int" name="NPACO">   256</i>
   <i name="APACO">     10.00000000</i>
  </separator>
  <separator name="symmetry" >
   <i type="int" name="ISYM">     1</i>
   <i name="SYMPREC">      0.00001000</i>
  </separator>
  <separator name="dos" >
   <i type="int" name="LORBIT">    11</i>
   <v name="RWIGS">     -1.00000000</v>
   <i type="int" name="NEDOS">   301</i>
   <i name="EMIN">     10.00000000</i>
   <i name="EMAX">    -10.00000000</i>
   <i name="EFERMI">      0.00000000</i>
  </separator>
  <separator name="writing" >
   <i type="int" name="NWRITE">     2</i>
   <i type="logical" name="LWAVE"> T  </i>
   <i type="logical" name="LDOWNSAMPLE"> F  </i>
   <i type="logical" name="LCHARG"> T  </i>
   <i type="logical" name="LPARD"> F  </i>
   <i type="logical" name="LVTOT"> F  </i>
   <i type="logical" name="LVHAR"> F  </i>
   <i type="logical" name="LELF"> F  </i>
   <i type="logical" name="LOPTICS"> F  </i>
   <v name="STM">      0.00000000      0.00000000      0.00000000      0.00000000      0.00000000      0.00000000      0.00000000</v>
  </separator>
  <separator name="performance" >
   <i type="int" name="NPAR">     4</i>
   <i type="int" name="NSIM">     4</i>
   <i type="int" name="NBLK">    -1</i>
   <i type="logical" name="LPLANE"> T  </i>
   <i type="logical" name="LSCALAPACK"> T  </i>
   <i type="logical" name="LSCAAWARE"> T  </i>
   <i type="logical" name="LSCALU"> F  </i>
   <i type="logical" name="LASYNC"> F  </i>
   <i type="logical" name="LORBITALREAL"> F  </i>
  </separator>
  <separator name="miscellaneous" >
   <i type="int" name="IDIOT">     3</i>
   <i type="int" name="PHON_NSTRUCT">    -1</i>
   <i type="logical" name="LMUSIC"> F  </i>
   <v name="POMASS">     58.93300000</v>
   <v name="DARWINR">      0.00000000</v>
   <v name="DARWINV">      1.00000000</v>
   <i type="logical" name="LCORR"> T  </i>
  </separator>
  <i type="logical" name="GGA_COMPAT"> T  </i>
  <i type="logical" name="LBERRY"> F  </i>
  <i type="int" name="ICORELEVEL">     0</i>
  <i type="logical" name="LDAU"> F  </i>
  <i type="int" name="I_CONSTRAINED_M">     0</i>
  <separator name="electronic exchange-correlation" >
   <i type="string" name="GGA">--</i>
   <i type="int" name="VOSKOWN">     0</i>
   <i type="logical" name="LHFCALC"> F  </i>
   <i type="string" name="PRECFOCK"></i>
   <i type="logical" name="LSYMGRAD"> F  </i>
   <i type="logical" name="LHFONE"> F  </i>
   <i type="logical" name="LRHFCALC"> F  </i>
   <i type="logical" name="LTHOMAS"> F  </i>
   <i type="logical" name="LMODELHF"> F  </i>
   <i type="logical" name="LFOCKACE"> F  </i>
   <i name="ENCUT4O">     -1.00000000</i>
   <i type="int" name="EXXOEP">     0</i>
   <i type="int" name="FOURORBIT">     0</i>
   <i name="AEXX">      0.00000000</i>
   <i name="HFALPHA">      0.00000000</i>
   <i name="MCALPHA">      0.00000000</i>
   <i name="ALDAX">      1.00000000</i>
   <i name="AGGAX">      1.00000000</i>
   <i name="ALDAC">      1.00000000</i>
   <i name="AGGAC">      1.00000000</i>
   <i type="int" name="NKREDX">     1</i>
   <i type="int" name="NKREDY">     1</i>
   <i type="int" name="NKREDZ">     1</i>
   <i type="logical" name="SHIFTRED"> F  </i>
   <i type="logical" name="ODDONLY"> F  </i>
   <i type="logical" name="EVENONLY"> F  </i>
   <i type="int" name="LMAXFOCK">     0</i>
   <i type="int" name="NMAXFOCKAE">     0</i>
   <i type="logical" name="LFOCKAEDFT"> F  </i>
   <i name="HFSCREEN">      0.00000000</i>
   <i name="HFSCREENC">      0.00000000</i>
   <i type="int" name="NBANDSGWLOW">     0</i>
  </separator>
  <separator name="vdW DFT" >
   <i type="logical" name="LUSE_VDW"> F  </i>
   <i name="Zab_VDW">     -0.84910000</i>
   <i name="PARAM1">      0.12340000</i>
   <i name="PARAM2">      1.00000000</i>
   <i name="PARAM3">      0.00000000</i>
  </separator>
  <separator name="model GW" >
   <i type="int" name="MODEL_GW">     0</i>
   <i name="MODEL_EPS0">      8.16093667</i>
   <i name="MODEL_ALPHA">      1.00000000</i>
  </separator>
  <separator name="linear response parameters" >
   <i type="logical" name="LEPSILON"> F  </i>
   <i type="logical" name="LRPA"> F  </i>
   <i type="logical" name="LNABLA"> F  </i>
   <i type="logical" name="LVEL"> F  </i>
   <i name="CSHIFT">      0.10000000</i>
   <i name="OMEGAMAX">     -1.00000000</i>
   <i name="DEG_THRESHOLD">      0.00200000</i>
   <i name="RTIME">     -0.10000000</i>
   <i name="WPLASMAI">      0.00000000</i>
   <v name="DFIELD">      0.00000000      0.00000000      0.00000000</v>
   <v name="WPLASMA">      0.00000000      0.00000000      0.00000000      0.00000000      0.00000000      0.00000000      0.00000000      0.00000000      0.00000000</v>
  </separator>
  <separator name="orbital magnetization" >
   <i type="logical" name="NUCIND"> F  </i>
   <v name="MAGPOS">      0.00000000      0.00000000      0.00000000</v>
   <i type="logical" name="LNICSALL"> T  </i>
   <i type="logical" name="ORBITALMAG"> F  </i>
   <i type="logical" name="LMAGBLOCH"> F  </i>
   <i type="logical" name="LCHIMAG"> F  </i>
   <i type="logical" name="LGAUGE"> T  </i>
   <i type="int" name="MAGATOM">     0</i>
   <v name="MAGDIPOL">      0.00000000      0.00000000      0.00000000</v>
   <v name="AVECCONST">      0.00000000      0.00000000      0.00000000</v>
  </separator>
  <separator name="response functions" >
   <i type="logical" name="LFINITE_TEMPERATURE"> F  </i>
   <i type="logical" name="LADDER"> F  </i>
   <i type="logical" name="LRPAFORCE"> F  </i>
   <i type="logical" name="LFXC"> F  </i>
   <i type="logical" name="LHARTREE"> T  </i>
   <i type="int" name="IBSE">     0</i>
   <v type="int" name="KPOINT">    -1     0     0     0</v>
   <i type="logical" name="LTCTC"> F  </i>
   <i type="logical" name="LTCTE"> F  </i>
   <i type="logical" name="LTETE"> F  </i>
   <i type="logical" name="LTRIPLET"> F  </i>
   <i type="logical" name="LFXCEPS"> F  </i>
   <i type="logical" name="LFXHEG"> F  </i>
   <i type="int" name="NATURALO">     2</i>
   <i type="logical" name="LHOLEGF"> F  </i>
   <i type="logical" name="L2ORDER"> F  </i>
   <i type="logical" name="LDMP1"> F  </i>
   <i type="logical" name="LMP2LT"> F  </i>
   <i type="logical" name="LSMP2LT"> F  </i>
   <i type="logical" name="LGWLF"> F  </i>
   <i name="ENCUTGW">     -2.00000000</i>
   <i name="ENCUTGWSOFT">     -2.00000000</i>
   <i name="ENCUTLF">     -1.00000000</i>
   <i type="logical" name="LESF_SPLINES"> F  </i>
   <i type="int" name="LMAXMP2">    -1</i>
   <i name="SCISSOR">      0.00000000</i>
   <i type="int" name="NOMEGA">     0</i>
   <i type="int" name="NOMEGAR">     0</i>
   <i type="int" name="NBANDSGW">    -1</i>
   <i type="int" name="NBANDSO">    -1</i>
   <i type="int" name="NBANDSV">    -1</i>
   <i type="int" name="NELMGW">     1</i>
   <i type="int" name="NELMHF">     1</i>
   <i type="int" name="DIM">     3</i>
   <i type="int" name="IESPILON">     4</i>
   <i type="int" name="ANTIRES">     0</i>
   <i name="OMEGAMAX">    -30.00000000</i>
   <i name="OMEGAMIN">    -30.00000000</i>
   <i name="OMEGATL">   -200.00000000</i>
   <i type="int" name="OMEGAGRID">     0</i>
   <i name="CSHIFT">     -0.10000000</i>
   <i type="logical" name="LSELFENERGY"> F  </i>
   <i type="logical" name="LSPECTRAL"> F  </i>
   <i type="logical" name="LSPECTRALGW"> F  </i>
   <i type="logical" name="LSINGLES"> F  </i>
   <i type="logical" name="LFERMIGW"> F  </i>
   <i type="logical" name="ODDONLYGW"> F  </i>
   <i type="logical" name="EVENONLYGW"> F  </i>
   <i type="int" name="NKREDLFX">     1</i>
   <i type="int" name="NKREDLFY">     1</i>
   <i type="int" name="NKREDLFZ">     1</i>
   <i type="int" name="MAXMEM">  2800</i>
   <i type="int" name="TELESCOPE">     0</i>
   <i type="int" name="NTAUPAR">    -1</i>
   <i type="int" name="NOMEGAPAR">    -1</i>
   <i name="DAMP_NEWTON">      0.80000001</i>
   <i name="LAMBDA">      1.00000000</i>
  </separator>
  <separator name="External order field" >
   <i name="OFIELD_KAPPA">      0.00000000</i>
   <v name="OFIELD_K">      0.00000000      0.00000000      0.00000000</v>
   <i name="OFIELD_Q6_NEAR">      0.00000000</i>
   <i name="OFIELD_Q6_FAR">      0.00000000</i>
   <i name="OFIELD_A">      0.00000000</i>
  </separator>
  <separator name="optional k-points parameters" >
   <i type="int" name="KPOINTS_OPT_MODE">     1</i>
   <i type="logical" name="LKPOINTS_OPT"> F  </i>
  </separator>
 </parameters>
 <atominfo>
  <atoms>       1 </atoms>
  <types>       1 </types>
  <array name="atoms" >
   <dimension dim="1">ion</dimension>
   <field type="string">element</field>
   <field type="int">atomtype</field>
   <set>
    <rc><c>Co</c><c>   1</c></rc>
   </set>
  </array>
  <array name="atomtypes" >
   <dimension dim="1">type</dimension>
   <field type="int">atomspertype</field>
   <field type="string">element</field>
   <field>mass</field>
   <field>valence</field>
   <field type="string">pseudopotential</field>
   <set>
    <rc><c>   1</c><c>Co</c><c>     58.93300000</c><c>      9.00000000</c><c>  PAW_PBE Co 02Aug2007                  </c></rc>
   </set>
  </array>
 </atominfo>
 <structure name="initialpos" >
  <crystal>
   <varray name="basis" >
    <v>       0.00000000       1.89460896       1.89460896 </v>
    <v>       1.89460896       0.00000000       1.89460896 </v>
    <v>       1.89460896       1.89460896       0.00000000 </v>
   </varray>
   <i name="volume">     13.60156111 </i>
   <varray name="rec_basis" >
    <v>      -0.26390670       0.26390670       0.26390670 </v>
    <v>       0.26390670      -0.26390670       0.26390670 </v>
    <v>       0.26390670       0.26390670      -0.26390670 </v>
   </varray>
  </crystal>
  <varray name="positions" >
   <v>       0.00000000       0.00000000       0.00000000 </v>
  </varray>
 </structure>
 <calculation>
  <scstep>
   <time name="dav">    0.27    0.28</time>
   <time name="total">    0.28    0.29</time>
   <energy>
    <i name="alphaZ">     31.14178627 </i>
    <i name="ewald">   -705.64747017 </i>
    <i name="hartreedc">   -174.47685649 </i>
    <i name="XCdc">     17.15452624 </i>
    <i name="pawpsdc">    719.99081943 </i>
    <i name="pawaedc">   -772.94345096 </i>
    <i name="eentropy">     -0.00206506 </i>
    <i name="bandstr">     93.98925552 </i>
    <i name="atom">    813.35773410 </i>
    <i name="e_fr_energy">     22.56427888 </i>
    <i name="e_wo_entrp">     22.56634394 </i>
    <i name="e_0_energy">     22.56531141 </i>
   </energy>
  </scstep>
  <scstep>
   <time name="dav">    0.27    0.27</time>
   <time name="total">    0.27    0.27</time>
   <energy>
    <i name="e_fr_energy">     -6.85129018 </i>
    <i name="e_wo_entrp">     -6.84994163 </i>
    <i name="e_0_energy">     -6.85061590 </i>
   </energy>
  </scstep>
  <scstep>
   <time name="dav">    0.28    0.28</time>
   <time name="total">    0.28    0.28</time>
   <energy>
    <i name="e_fr_energy">     -7.64622553 </i>
    <i name="e_wo_entrp">     -7.64452620 </i>
    <i name="e_0_energy">     -7.64537587 </i>
   </energy>
  </scstep>
  <scstep>
   <time name="dav">    0.29    0.29</time>
   <time name="total">    0.29    0.29</time>
   <energy>
    <i name="e_fr_energy">     -7.65509914 </i>
    <i name="e_wo_entrp">     -7.65339105 </i>
    <i name="e_0_energy">     -7.65424509 </i>
   </energy>
  </scstep>
  <scstep>
   <time name="dav">    0.31    0.31</time>
   <time name="total">    0.32    0.33</time>
   <energy>
    <i name="e_fr_energy">     -7.65533552 </i>
    <i name="e_wo_entrp">     -7.65362697 </i>
    <i name="e_0_energy">     -7.65448125 </i>
   </energy>
  </scstep>
  <scstep>
   <time name="dav">    0.30    0.30</time>
   <time name="total">    0.32    0.32</time>
   <energy>
    <i name="e_fr_energy">     -7.16214926 </i>
    <i name="e_wo_entrp">     -7.15966238 </i>
    <i name="e_0_energy">     -7.16090582 </i>
   </energy>
  </scstep>
  <scstep>
   <time name="dav">    0.29    0.30</time>
   <time name="total">    0.31    0.32</time>
   <energy>
    <i name="e_fr_energy">     -6.74252190 </i>
    <i name="e_wo_entrp">     -6.74036147 </i>
    <i name="e_0_energy">     -6.74144168 </i>
   </energy>
  </scstep>
  <scstep>
   <time name="dav">    0.29    0.30</time>
   <time name="total">    0.31    0.32</time>
   <energy>
    <i name="e_fr_energy">     -6.73709919 </i>
    <i name="e_wo_entrp">     -6.73493008 </i>
    <i name="e_0_energy">     -6.73601463 </i>
   </energy>
  </scstep>
  <scstep>
   <time name="dav">    0.33    0.33</time>
   <time name="total">    0.35    0.36</time>
   <energy>
    <i name="e_fr_energy">     -6.73202408 </i>
    <i name="e_wo_entrp">     -6.72983986 </i>
    <i name="e_0_energy">     -6.73093197 </i>
   </energy>
  </scstep>
  <scstep>
   <time name="dav">    0.34    0.35</time>
   <time name="total">    0.37    0.37</time>
   <energy>
    <i name="e_fr_energy">     -6.73120523 </i>
    <i name="e_wo_entrp">     -6.72901119 </i>
    <i name="e_0_energy">     -6.73010821 </i>
   </energy>
  </scstep>
  <scstep>
   <time name="dav">    0.27    0.27</time>
   <time name="total">    0.29    0.29</time>
   <energy>
    <i name="e_fr_energy">     -6.73122074 </i>
    <i name="e_wo_entrp">     -6.72902619 </i>
    <i name="e_0_energy">     -6.73012346 </i>
   </energy>
  </scstep>
  <scstep>
   <time name="dav">    0.29    0.29</time>
   <time name="total">    0.31    0.31</time>
   <energy>
    <i name="e_fr_energy">     -6.73122360 </i>
    <i name="e_wo_entrp">     -6.72902925 </i>
    <i name="e_0_energy">     -6.73012642 </i>
   </energy>
  </scstep>
  <scstep>
   <time name="dav">    0.20    0.20</time>
   <time name="total">    0.21    0.21</time>
   <energy>
    <i name="alphaZ">     31.14178627 </i>
    <i name="ewald">   -705.64747017 </i>
    <i name="hartreedc">   -156.86470726 </i>
    <i name="XCdc">     15.92466564 </i>
    <i name="pawpsdc">    807.83615877 </i>
    <i name="pawaedc">   -860.25713020 </i>
    <i name="eentropy">     -0.00219382 </i>
    <i name="bandstr">     47.77993359 </i>
    <i name="atom">    813.35773410 </i>
    <i name="e_fr_energy">     -6.73122308 </i>
    <i name="e_wo_entrp">     -6.72902926 </i>
    <i name="e_0_energy">     -6.73012617 </i>
   </energy>
  </scstep>
  <structure>
   <crystal>
    <varray name="basis" >
     <v>       0.00000000       1.89460896       1.89460896 </v>
     <v>       1.89460896       0.00000000       1.89460896 </v>
     <v>       1.89460896       1.89460896       0.00000000 </v>
    </varray>
    <i name="volume">     13.60156111 </i>
    <varray name="rec_basis" >
     <v>      -0.26390670       0.26390670       0.26390670 </v>
     <v>       0.26390670      -0.26390670       0.26390670 </v>
     <v>       0.26390670       0.26390670      -0.26390670 </v>
    </varray>
   </crystal>
   <varray name="positions" >
    <v>       0.00000000       0.00000000       0.00000000 </v>
   </varray>
  </structure>
  <varray name="forces" >
   <v>      -0.00000000       0.00000000       0.00000000 </v>
  </varray>
  <varray name="stress" >
   <v>    -277.62588944       0.00000000       0.00000000 </v>
   <v>      -0.00000000    -277.62588944      -0.00000000 </v>
   <v>      -0.00000000       0.00000000    -277.62588944 </v>
  </varray>
  <energy>
   <i name="e_fr_energy">     -6.73122308 </i>
   <i name="e_wo_entrp">     -6.72902926 </i>
   <i name="e_0_energy">     -6.73012617 </i>
  </energy>
  <time name="totalsc">    4.07    4.12</time>
  <eigenvalues>
   <array>
    <dimension dim="1">band</dimension>
    <dimension dim="2">kpoint</dimension>
    <dimension dim="3">spin</dimension>
    <field>eigene</field>
    <field>occ</field>
    <set>
     <set comment="spin 1">
      <set comment="kpoint 1">
       <r>   -0.1168    1.0000 </r>
       <r>    4.9729    1.0000 </r>
       <r>    5.0278    1.0000 </r>
       <r>    5.0278    1.0000 </r>
       <r>    5.6628    1.0000 </r>
       <r>    5.6628    1.0000 </r>
       <r>   28.0006    0.0000 </r>
       <r>   29.8633    0.0000 </r>
       <r>   30.9308    0.0000 </r>
       <r>   30.9308    0.0000 </r>
       <r>   34.3262    0.0000 </r>
       <r>   34.3262    0.0000 </r>
      </set>
      <set comment="kpoint 2">
       <r>    0.5634    1.0000 </r>
       <r>    4.8327    1.0000 </r>
       <r>    5.1342    1.0000 </r>
       <r>    5.1413    1.0000 </r>
       <r>    5.5626    1.0000 </r>
       <r>    5.7355    1.0000 </r>
       <r>   24.6371    0.0000 </r>
       <r>   27.0426    0.0000 </r>
       <r>   30.4451    0.0000 </r>
       <r>   31.8200    0.0000 </r>
       <r>   33.8246    0.0000 </r>
       <r>   34.5989    0.0000 </r>
      </set>
      <set comment="kpoint 3">
       <r>    2.0344    1.0000 </r>
       <r>    4.7796    1.0000 </r>
       <r>    5.0758    1.0000 </r>
       <r>    5.1224    1.0000 </r>
       <r>    5.7485    1.0000 </r>
       <r>    6.0511    1.0000 </r>
       <r>   18.9724    0.0000 </r>
       <r>   26.0866    0.0000 </r>
       <r>   29.5192    0.0000 </r>
       <r>   30.9638    0.0000 </r>
       <r>   32.5147    0.0000 </r>
       <r>   33.5950    0.0000 </r>
      </set>
      <set comment="kpoint 4">
       <r>    3.1105    1.0000 </r>
       <r>    4.9070    1.0000 </r>
       <r>    4.9704    1.0000 </r>
       <r>    5.6404    1.0000 </r>
       <r>    6.1430    1.0000 </r>
       <r>    6.7659    1.0000 </r>
       <r>   14.0813    0.0000 </r>
       <r>   25.8716    0.0000 </r>
       <r>   28.2156    0.0000 </r>
       <r>   29.0644    0.0000 </r>
       <r>   31.7335    0.0000 </r>
       <r>   33.1851    0.0000 </r>
      </set>
      <set comment="kpoint 5">
       <r>    3.2400    1.0000 </r>
       <r>    4.8383    1.0000 </r>
       <r>    4.9334    1.0000 </r>
       <r>    5.9874    1.0000 </r>
       <r>    6.3359    1.0000 </r>
       <r>    7.7665    0.0000 </r>
       <r>   11.9915    0.0000 </r>
       <r>   26.4059    0.0000 </r>
       <r>   27.5448    0.0000 </r>
       <r>   27.8173    0.0000 </r>
       <r>   32.4058    0.0000 </r>
       <r>   32.6055    0.0000 </r>
      </set>
      <set comment="kpoint 6">
       <r>    2.8982    1.0000 </r>
       <r>    4.9343    1.0000 </r>
       <r>    5.0374    1.0000 </r>
       <r>    5.2183    1.0000 </r>
       <r>    6.1875    1.0000 </r>
       <r>    6.2991    1.0000 </r>
       <r>   15.5764    0.0000 </r>
       <r>   27.0942    0.0000 </r>
       <r>   27.1685    0.0000 </r>
       <r>   29.0030    0.0000 </r>
       <r>   32.5771    0.0000 </r>
       <r>   33.9875    0.0000 </r>
      </set>
      <set comment="kpoint 7">
       <r>    1.4971    1.0000 </r>
       <r>    4.7340    1.0000 </r>
       <r>    5.1216    1.0000 </r>
       <r>    5.1683    1.0000 </r>
       <r>    5.6963    1.0000 </r>
       <r>    5.8618    1.0000 </r>
       <r>   20.8063    0.0000 </r>
       <r>   27.6146    0.0000 </r>
       <r>   27.9320    0.0000 </r>
       <r>   31.5183    0.0000 </r>
       <r>   32.5438    0.0000 </r>
       <r>   35.8541    0.0000 </r>
      </set>
      <set comment="kpoint 8">
       <r>    0.2280    1.0000 </r>
       <r>    4.8770    1.0000 </r>
       <r>    5.1052    1.0000 </r>
       <r>    5.1078    1.0000 </r>
       <r>    5.5737    1.0000 </r>
       <r>    5.7104    1.0000 </r>
       <r>   26.5288    0.0000 </r>
       <r>   28.7585    0.0000 </r>
       <r>   28.9511    0.0000 </r>
       <r>   31.0629    0.0000 </r>
       <r>   34.3332    0.0000 </r>
       <r>   35.9393    0.0000 </r>
      </set>
      <set comment="kpoint 9">
       <r>    0.8918    1.0000 </r>
       <r>    4.6895    1.0000 </r>
       <r>    5.2329    1.0000 </r>
       <r>    5.2632    1.0000 </r>
       <r>    5.4660    1.0000 </r>
       <r>    5.7992    1.0000 </r>
       <r>   24.8861    0.0000 </r>
       <r>   26.8750    0.0000 </r>
       <r>   27.5629    0.0000 </r>
       <r>   29.5368    0.0000 </r>
       <r>   32.5837    0.0000 </r>
       <r>   36.7148    0.0000 </r>
      </set>
      <set comment="kpoint 10">
       <r>    2.0759    1.0000 </r>
       <r>    4.4857    1.0000 </r>
       <r>    5.0588    1.0000 </r>
       <r>    5.4286    1.0000 </r>
       <r>    5.6848    1.0000 </r>
       <r>    6.1030    1.0000 </r>
       <r>   21.3110    0.0000 </r>
       <r>   23.6800    0.0000 </r>
       <r>   27.3142    0.0000 </r>
       <r>   28.8839    0.0000 </r>
       <r>   31.9949    0.0000 </r>
       <r>   36.6350    0.0000 </r>
      </set>
      <set comment="kpoint 11">
       <r>    3.3229    1.0000 </r>
       <r>    4.5750    1.0000 </r>
       <r>    4.8711    1.0000 </r>
       <r>    5.3010    1.0000 </r>
       <r>    6.1773    1.0000 </r>
       <r>    7.1131    1.0000 </r>
       <r>   16.0765    0.0000 </r>
       <r>   23.2363    0.0000 </r>
       <r>   24.8035    0.0000 </r>
       <r>   28.4318    0.0000 </r>
       <r>   34.5097    0.0000 </r>
       <r>   36.3552    0.0000 </r>
      </set>
      <set comment="kpoint 12">
       <r>    3.6072    1.0000 </r>
       <r>    4.5633    1.0000 </r>
       <r>    5.1711    1.0000 </r>
       <r>    5.2743    1.0000 </r>
       <r>    6.3160    1.0000 </r>
       <r>    9.2046    0.0000 </r>
       <r>   12.2342    0.0000 </r>
       <r>   22.7908    0.0000 </r>
       <r>   23.9828    0.0000 </r>
       <r>   28.4479    0.0000 </r>
       <r>   33.6426    0.0000 </r>
       <r>   37.1551    0.0000 </r>
      </set>
      <set comment="kpoint 13">
       <r>    3.5329    1.0000 </r>
       <r>    4.6683    1.0000 </r>
       <r>    4.9764    1.0000 </r>
       <r>    5.2216    1.0000 </r>
       <r>    6.1012    1.0000 </r>
       <r>    7.8457    0.0000 </r>
       <r>   14.5578    0.0000 </r>
       <r>   21.8968    0.0000 </r>
       <r>   25.5747    0.0000 </r>
       <r>   29.4005    0.0000 </r>
       <r>   33.1108    0.0000 </r>
       <r>   36.5394    0.0000 </r>
      </set>
      <set comment="kpoint 14">
       <r>    2.5854    1.0000 </r>
       <r>    4.5423    1.0000 </r>
       <r>    4.9438    1.0000 </r>
       <r>    5.3584    1.0000 </r>
       <r>    5.6456    1.0000 </r>
       <r>    6.4885    1.0000 </r>
       <r>   19.5000    0.0000 </r>
       <r>   21.9829    0.0000 </r>
       <r>   28.0225    0.0000 </r>
       <r>   31.1091    0.0000 </r>
       <r>   32.7346    0.0000 </r>
       <r>   34.9542    0.0000 </r>
      </set>
      <set comment="kpoint 15">
       <r>    1.2066    1.0000 </r>
       <r>    4.6917    1.0000 </r>
       <r>    5.1526    1.0000 </r>
       <r>    5.2598    1.0000 </r>
       <r>    5.5215    1.0000 </r>
       <r>    5.8797    1.0000 </r>
       <r>   22.8772    0.0000 </r>
       <r>   25.2851    0.0000 </r>
       <r>   29.5574    0.0000 </r>
       <r>   31.1240    0.0000 </r>
       <r>   33.0532    0.0000 </r>
       <r>   35.0694    0.0000 </r>
      </set>
      <set comment="kpoint 16">
       <r>    2.7077    1.0000 </r>
       <r>    4.1929    1.0000 </r>
       <r>    5.3011    1.0000 </r>
       <r>    5.7309    1.0000 </r>
       <r>    5.9920    1.0000 </r>
       <r>    6.0590    1.0000 </r>
       <r>   21.8792    0.0000 </r>
       <r>   23.2717    0.0000 </r>
       <r>   23.6346    0.0000 </r>
       <r>   26.1014    0.0000 </r>
       <r>   28.8905    0.0000 </r>
       <r>   41.6616    0.0000 </r>
      </set>
      <set comment="kpoint 17">
       <r>    3.3861    1.0000 </r>
       <r>    4.0486    1.0000 </r>
       <r>    5.2940    1.0000 </r>
       <r>    5.8760    1.0000 </r>
       <r>    6.2119    1.0000 </r>
       <r>    7.3618    1.0000 </r>
       <r>   18.8513    0.0000 </r>
       <r>   20.6515    0.0000 </r>
       <r>   21.2003    0.0000 </r>
       <r>   27.1304    0.0000 </r>
       <r>   30.2733    0.0000 </r>
       <r>   39.8808    0.0000 </r>
      </set>
      <set comment="kpoint 18">
       <r>    3.7824    1.0000 </r>
       <r>    4.1409    1.0000 </r>
       <r>    5.1004    1.0000 </r>
       <r>    5.6674    1.0000 </r>
       <r>    6.3708    1.0000 </r>
       <r>   10.1243    0.0000 </r>
       <r>   14.2634    0.0000 </r>
       <r>   18.4980    0.0000 </r>
       <r>   21.5062    0.0000 </r>
       <r>   27.4467    0.0000 </r>
       <r>   34.9724    0.0000 </r>
       <r>   38.1057    0.0000 </r>
      </set>
      <set comment="kpoint 19">
       <r>    4.1285    1.0000 </r>
       <r>    4.2527    1.0000 </r>
       <r>    4.7849    1.0000 </r>
       <r>    5.5192    1.0000 </r>
       <r>    6.1654    1.0000 </r>
       <r>   10.3430    0.0000 </r>
       <r>   14.1488    0.0000 </r>
       <r>   17.2792    0.0000 </r>
       <r>   23.0048    0.0000 </r>
       <r>   28.2893    0.0000 </r>
       <r>   36.2883    0.0000 </r>
       <r>   40.2924    0.0000 </r>
      </set>
      <set comment="kpoint 20">
       <r>    3.7431    1.0000 </r>
       <r>    4.5579    1.0000 </r>
       <r>    4.6270    1.0000 </r>
       <r>    5.4022    1.0000 </r>
       <r>    5.9033    1.0000 </r>
       <r>    7.8541    0.0000 </r>
       <r>   16.5944    0.0000 </r>
       <r>   19.2583    0.0000 </r>
       <r>   25.3415    0.0000 </r>
       <r>   29.8436    0.0000 </r>
       <r>   33.8392    0.0000 </r>
       <r>   37.4631    0.0000 </r>
      </set>
      <set comment="kpoint 21">
       <r>    2.7080    1.0000 </r>
       <r>    4.7566    1.0000 </r>
       <r>    4.9502    1.0000 </r>
       <r>    5.1664    1.0000 </r>
       <r>    5.9250    1.0000 </r>
       <r>    6.4015    1.0000 </r>
       <r>   17.3956    0.0000 </r>
       <r>   24.5636    0.0000 </r>
       <r>   27.9366    0.0000 </r>
       <r>   29.5612    0.0000 </r>
       <r>   33.3775    0.0000 </r>
       <r>   34.5624    0.0000 </r>
      </set>
      <set comment="kpoint 22">
       <r>    3.2568    1.0000 </r>
       <r>    3.7893    1.0000 </r>
       <r>    6.1127    1.0000 </r>
       <r>    6.1850    1.0000 </r>
       <r>    6.3897    1.0000 </r>
       <r>    8.1362    0.0000 </r>
       <r>   17.5037    0.0000 </r>
       <r>   19.8326    0.0000 </r>
       <r>   20.9328    0.0000 </r>
       <r>   25.2290    0.0000 </r>
       <r>   27.8281    0.0000 </r>
       <r>   44.4174    0.0000 </r>
      </set>
      <set comment="kpoint 23">
       <r>    3.3800    1.0000 </r>
       <r>    3.8061    1.0000 </r>
       <r>    5.9038    1.0000 </r>
       <r>    6.0754    1.0000 </r>
       <r>    6.4972    1.0000 </r>
       <r>   10.3687    0.0000 </r>
       <r>   15.4917    0.0000 </r>
       <r>   17.6430    0.0000 </r>
       <r>   19.8550    0.0000 </r>
       <r>   26.5183    0.0000 </r>
       <r>   29.6750    0.0000 </r>
       <r>   42.7288    0.0000 </r>
      </set>
      <set comment="kpoint 24">
       <r>    3.7515    1.0000 </r>
       <r>    4.0765    1.0000 </r>
       <r>    5.2332    1.0000 </r>
       <r>    5.7761    1.0000 </r>
       <r>    6.3760    1.0000 </r>
       <r>   11.9717    0.0000 </r>
       <r>   13.7992    0.0000 </r>
       <r>   16.1008    0.0000 </r>
       <r>   21.1187    0.0000 </r>
       <r>   27.2829    0.0000 </r>
       <r>   34.8702    0.0000 </r>
       <r>   39.3260    0.0000 </r>
      </set>
      <set comment="kpoint 25">
       <r>    3.8919    1.0000 </r>
       <r>    4.3634    1.0000 </r>
       <r>    5.0094    1.0000 </r>
       <r>    5.3619    1.0000 </r>
       <r>    6.2568    1.0000 </r>
       <r>   10.2126    0.0000 </r>
       <r>   12.5372    0.0000 </r>
       <r>   19.8618    0.0000 </r>
       <r>   23.3199    0.0000 </r>
       <r>   28.3423    0.0000 </r>
       <r>   34.9535    0.0000 </r>
       <r>   39.1082    0.0000 </r>
      </set>
      <set comment="kpoint 26">
       <r>    3.3434    1.0000 </r>
       <r>    4.7675    1.0000 </r>
       <r>    5.0312    1.0000 </r>
       <r>    5.5263    1.0000 </r>
       <r>    6.2755    1.0000 </r>
       <r>    7.8163    0.0000 </r>
       <r>   12.9344    0.0000 </r>
       <r>   24.7014    0.0000 </r>
       <r>   26.0781    0.0000 </r>
       <r>   28.5873    0.0000 </r>
       <r>   32.6554    0.0000 </r>
       <r>   34.7719    0.0000 </r>
      </set>
      <set comment="kpoint 27">
       <r>    3.2242    1.0000 </r>
       <r>    3.6969    1.0000 </r>
       <r>    6.1810    1.0000 </r>
       <r>    6.3723    1.0000 </r>
       <r>    6.5053    1.0000 </r>
       <r>    9.6337    0.0000 </r>
       <r>   15.3378    0.0000 </r>
       <r>   19.3643    0.0000 </r>
       <r>   20.4226    0.0000 </r>
       <r>   25.0740    0.0000 </r>
       <r>   27.6724    0.0000 </r>
       <r>   44.4821    0.0000 </r>
      </set>
      <set comment="kpoint 28">
       <r>    3.4252    1.0000 </r>
       <r>    3.8902    1.0000 </r>
       <r>    5.6615    1.0000 </r>
       <r>    6.0389    1.0000 </r>
       <r>    6.3862    1.0000 </r>
       <r>    8.8203    0.0000 </r>
       <r>   17.7067    0.0000 </r>
       <r>   18.0958    0.0000 </r>
       <r>   20.3008    0.0000 </r>
       <r>   26.7154    0.0000 </r>
       <r>   29.8613    0.0000 </r>
       <r>   41.4444    0.0000 </r>
      </set>
      <set comment="kpoint 29">
       <r>    3.6887    1.0000 </r>
       <r>    4.3192    1.0000 </r>
       <r>    4.9397    1.0000 </r>
       <r>    5.4872    1.0000 </r>
       <r>    6.3197    1.0000 </r>
       <r>    8.3913    0.0000 </r>
       <r>   15.0240    0.0000 </r>
       <r>   21.4472    0.0000 </r>
       <r>   22.2947    0.0000 </r>
       <r>   27.8061    0.0000 </r>
       <r>   35.0212    0.0000 </r>
       <r>   36.9531    0.0000 </r>
      </set>
      <set comment="kpoint 30">
       <r>    3.1908    1.0000 </r>
       <r>    3.9623    1.0000 </r>
       <r>    5.7860    1.0000 </r>
       <r>    5.9617    1.0000 </r>
       <r>    6.2189    1.0000 </r>
       <r>    6.7137    1.0000 </r>
       <r>   20.3731    0.0000 </r>
       <r>   20.7605    0.0000 </r>
       <r>   21.9066    0.0000 </r>
       <r>   25.5549    0.0000 </r>
       <r>   28.1951    0.0000 </r>
       <r>   43.4883    0.0000 </r>
      </set>
      <set comment="kpoint 31">
       <r>    2.9411    1.0000 </r>
       <r>    4.2586    1.0000 </r>
       <r>    5.0266    1.0000 </r>
       <r>    5.6450    1.0000 </r>
       <r>    5.9743    1.0000 </r>
       <r>    6.4942    1.0000 </r>
       <r>   19.9582    0.0000 </r>
       <r>   22.2594    0.0000 </r>
       <r>   24.0173    0.0000 </r>
       <r>   27.8095    0.0000 </r>
       <r>   30.9705    0.0000 </r>
       <r>   38.3000    0.0000 </r>
      </set>
      <set comment="kpoint 32">
       <r>    1.7964    1.0000 </r>
       <r>    4.4482    1.0000 </r>
       <r>    5.2050    1.0000 </r>
       <r>    5.4803    1.0000 </r>
       <r>    5.6224    1.0000 </r>
       <r>    5.9189    1.0000 </r>
       <r>   23.3099    0.0000 </r>
       <r>   24.9525    0.0000 </r>
       <r>   26.3384    0.0000 </r>
       <r>   27.3079    0.0000 </r>
       <r>   30.1751    0.0000 </r>
       <r>   39.1793    0.0000 </r>
      </set>
      <set comment="kpoint 33">
       <r>    0.8853    1.0000 </r>
       <r>    4.8198    1.0000 </r>
       <r>    5.1344    1.0000 </r>
       <r>    5.1344    1.0000 </r>
       <r>    5.6824    1.0000 </r>
       <r>    5.6824    1.0000 </r>
       <r>   22.6191    0.0000 </r>
       <r>   29.0081    0.0000 </r>
       <r>   29.7181    0.0000 </r>
       <r>   29.7181    0.0000 </r>
       <r>   35.1634    0.0000 </r>
       <r>   35.5164    0.0000 </r>
      </set>
      <set comment="kpoint 34">
       <r>    1.8023    1.0000 </r>
       <r>    4.6513    1.0000 </r>
       <r>    5.0871    1.0000 </r>
       <r>    5.2842    1.0000 </r>
       <r>    5.5038    1.0000 </r>
       <r>    6.1230    1.0000 </r>
       <r>   21.0728    0.0000 </r>
       <r>   23.5274    0.0000 </r>
       <r>   30.7826    0.0000 </r>
       <r>   32.1005    0.0000 </r>
       <r>   32.5074    0.0000 </r>
       <r>   33.3881    0.0000 </r>
      </set>
      <set comment="kpoint 35">
       <r>    3.2037    1.0000 </r>
       <r>    4.5820    1.0000 </r>
       <r>    4.8309    1.0000 </r>
       <r>    5.2941    1.0000 </r>
       <r>    5.7135    1.0000 </r>
       <r>    7.0252    1.0000 </r>
       <r>   17.9252    0.0000 </r>
       <r>   20.4862    0.0000 </r>
       <r>   28.6998    0.0000 </r>
       <r>   28.9090    0.0000 </r>
       <r>   34.2887    0.0000 </r>
       <r>   35.2213    0.0000 </r>
      </set>
      <set comment="kpoint 36">
       <r>    3.7133    1.0000 </r>
       <r>    4.5617    1.0000 </r>
       <r>    5.0914    1.0000 </r>
       <r>    5.2224    1.0000 </r>
       <r>    6.1450    1.0000 </r>
       <r>    8.8888    0.0000 </r>
       <r>   13.3478    0.0000 </r>
       <r>   20.7397    0.0000 </r>
       <r>   26.0221    0.0000 </r>
       <r>   27.3665    0.0000 </r>
       <r>   35.4701    0.0000 </r>
       <r>   35.9293    0.0000 </r>
      </set>
      <set comment="kpoint 37">
       <r>    3.6416    1.0000 </r>
       <r>    4.4721    1.0000 </r>
       <r>    5.1003    1.0000 </r>
       <r>    5.2813    1.0000 </r>
       <r>    6.3614    1.0000 </r>
       <r>    8.7896    0.0000 </r>
       <r>   13.3216    0.0000 </r>
       <r>   22.0117    0.0000 </r>
       <r>   24.4244    0.0000 </r>
       <r>   26.7355    0.0000 </r>
       <r>   36.5668    0.0000 </r>
       <r>   36.7155    0.0000 </r>
      </set>
      <set comment="kpoint 38">
       <r>    3.0956    1.0000 </r>
       <r>    4.3652    1.0000 </r>
       <r>    4.9539    1.0000 </r>
       <r>    5.4229    1.0000 </r>
       <r>    6.2253    1.0000 </r>
       <r>    6.6222    1.0000 </r>
       <r>   17.8894    0.0000 </r>
       <r>   24.0831    0.0000 </r>
       <r>   24.1311    0.0000 </r>
       <r>   26.8415    0.0000 </r>
       <r>   33.3371    0.0000 </r>
       <r>   38.0103    0.0000 </r>
      </set>
      <set comment="kpoint 39">
       <r>    2.3085    1.0000 </r>
       <r>    4.5740    1.0000 </r>
       <r>    5.0118    1.0000 </r>
       <r>    5.2656    1.0000 </r>
       <r>    5.9824    1.0000 </r>
       <r>    6.0540    1.0000 </r>
       <r>   19.2279    0.0000 </r>
       <r>   25.7126    0.0000 </r>
       <r>   26.6607    0.0000 </r>
       <r>   28.5154    0.0000 </r>
       <r>   33.9653    0.0000 </r>
       <r>   35.7655    0.0000 </r>
      </set>
      <set comment="kpoint 40">
       <r>    3.3383    1.0000 </r>
       <r>    4.3871    1.0000 </r>
       <r>    4.7821    1.0000 </r>
       <r>    5.5392    1.0000 </r>
       <r>    5.9053    1.0000 </r>
       <r>    7.0914    1.0000 </r>
       <r>   18.1671    0.0000 </r>
       <r>   20.6823    0.0000 </r>
       <r>   24.5615    0.0000 </r>
       <r>   30.3189    0.0000 </r>
       <r>   32.7950    0.0000 </r>
       <r>   35.7044    0.0000 </r>
      </set>
      <set comment="kpoint 41">
       <r>    4.0473    1.0000 </r>
       <r>    4.3640    1.0000 </r>
       <r>    4.5895    1.0000 </r>
       <r>    5.5731    1.0000 </r>
       <r>    6.1412    1.0000 </r>
       <r>    9.1461    0.0000 </r>
       <r>   15.5203    0.0000 </r>
       <r>   18.3234    0.0000 </r>
       <r>   22.0454    0.0000 </r>
       <r>   31.0373    0.0000 </r>
       <r>   33.2425    0.0000 </r>
       <r>   37.3145    0.0000 </r>
      </set>
      <set comment="kpoint 42">
       <r>    4.0338    1.0000 </r>
       <r>    4.2158    1.0000 </r>
       <r>    4.8523    1.0000 </r>
       <r>    5.5384    1.0000 </r>
       <r>    6.3313    1.0000 </r>
       <r>   11.0030    0.0000 </r>
       <r>   12.9151    0.0000 </r>
       <r>   19.2705    0.0000 </r>
       <r>   20.3642    0.0000 </r>
       <r>   30.0199    0.0000 </r>
       <r>   34.3215    0.0000 </r>
       <r>   38.6207    0.0000 </r>
      </set>
      <set comment="kpoint 43">
       <r>    3.7150    1.0000 </r>
       <r>    4.2174    1.0000 </r>
       <r>    4.8449    1.0000 </r>
       <r>    5.7429    1.0000 </r>
       <r>    6.1610    1.0000 </r>
       <r>    8.1762    0.0000 </r>
       <r>   17.0931    0.0000 </r>
       <r>   19.6480    0.0000 </r>
       <r>   21.2676    0.0000 </r>
       <r>   29.6658    0.0000 </r>
       <r>   32.6660    0.0000 </r>
       <r>   36.6090    0.0000 </r>
      </set>
      <set comment="kpoint 44">
       <r>    3.5107    1.0000 </r>
       <r>    4.1457    1.0000 </r>
       <r>    5.1498    1.0000 </r>
       <r>    5.6188    1.0000 </r>
       <r>    6.3493    1.0000 </r>
       <r>    7.7346    0.0000 </r>
       <r>   16.8092    0.0000 </r>
       <r>   20.9549    0.0000 </r>
       <r>   22.7853    0.0000 </r>
       <r>   26.2453    0.0000 </r>
       <r>   32.6608    0.0000 </r>
       <r>   39.8125    0.0000 </r>
      </set>
      <set comment="kpoint 45">
       <r>    3.7076    1.0000 </r>
       <r>    4.0888    1.0000 </r>
       <r>    5.1111    1.0000 </r>
       <r>    5.8567    1.0000 </r>
       <r>    6.3677    1.0000 </r>
       <r>    9.7760    0.0000 </r>
       <r>   16.3170    0.0000 </r>
       <r>   18.2158    0.0000 </r>
       <r>   18.9781    0.0000 </r>
       <r>   29.2257    0.0000 </r>
       <r>   32.5091    0.0000 </r>
       <r>   37.8566    0.0000 </r>
      </set>
      <set comment="kpoint 46">
       <r>    3.8646    1.0000 </r>
       <r>    4.3458    1.0000 </r>
       <r>    4.7894    1.0000 </r>
       <r>    5.6760    1.0000 </r>
       <r>    6.4944    1.0000 </r>
       <r>   12.8071    0.0000 </r>
       <r>   14.3044    0.0000 </r>
       <r>   16.4469    0.0000 </r>
       <r>   17.4149    0.0000 </r>
       <r>   31.9246    0.0000 </r>
       <r>   34.7575    0.0000 </r>
       <r>   36.1060    0.0000 </r>
      </set>
      <set comment="kpoint 47">
       <r>    3.9783    1.0000 </r>
       <r>    4.3455    1.0000 </r>
       <r>    4.6729    1.0000 </r>
       <r>    5.6649    1.0000 </r>
       <r>    6.3581    1.0000 </r>
       <r>   10.8887    0.0000 </r>
       <r>   14.7406    0.0000 </r>
       <r>   17.6869    0.0000 </r>
       <r>   19.0183    0.0000 </r>
       <r>   31.8761    0.0000 </r>
       <r>   33.4591    0.0000 </r>
       <r>   36.8034    0.0000 </r>
      </set>
      <set comment="kpoint 48">
       <r>    3.5176    1.0000 </r>
       <r>    3.9007    1.0000 </r>
       <r>    5.6660    1.0000 </r>
       <r>    5.9468    1.0000 </r>
       <r>    6.4221    1.0000 </r>
       <r>   10.9811    0.0000 </r>
       <r>   15.4269    0.0000 </r>
       <r>   15.8612    0.0000 </r>
       <r>   21.4072    0.0000 </r>
       <r>   25.8043    0.0000 </r>
       <r>   32.0145    0.0000 </r>
       <r>   42.4715    0.0000 </r>
      </set>
      <set comment="kpoint 49">
       <r>    3.6369    1.0000 </r>
       <r>    4.0240    1.0000 </r>
       <r>    5.3242    1.0000 </r>
       <r>    5.8645    1.0000 </r>
       <r>    6.4951    1.0000 </r>
       <r>   11.4909    0.0000 </r>
       <r>   15.7174    0.0000 </r>
       <r>   16.0409    0.0000 </r>
       <r>   18.5848    0.0000 </r>
       <r>   29.0071    0.0000 </r>
       <r>   32.4216    0.0000 </r>
       <r>   39.0626    0.0000 </r>
      </set>
      <set comment="kpoint 50">
       <r>    3.5598    1.0000 </r>
       <r>    3.9813    1.0000 </r>
       <r>    5.4666    1.0000 </r>
       <r>    5.8138    1.0000 </r>
       <r>    6.4112    1.0000 </r>
       <r>    9.3245    0.0000 </r>
       <r>   16.0241    0.0000 </r>
       <r>   17.9973    0.0000 </r>
       <r>   21.8767    0.0000 </r>
       <r>   25.9398    0.0000 </r>
       <r>   32.2228    0.0000 </r>
       <r>   41.2754    0.0000 </r>
      </set>
      <set comment="kpoint 51">
       <r>    2.4373    1.0000 </r>
       <r>    5.0363    1.0000 </r>
       <r>    5.0363    1.0000 </r>
       <r>    5.0374    1.0000 </r>
       <r>    5.9876    1.0000 </r>
       <r>    5.9876    1.0000 </r>
       <r>   17.1330    0.0000 </r>
       <r>   28.1259    0.0000 </r>
       <r>   28.9034    0.0000 </r>
       <r>   28.9034    0.0000 </r>
       <r>   33.0951    0.0000 </r>
       <r>   33.0951    0.0000 </r>
      </set>
      <set comment="kpoint 52">
       <r>    3.1507    1.0000 </r>
       <r>    4.8675    1.0000 </r>
       <r>    4.9566    1.0000 </r>
       <r>    5.1150    1.0000 </r>
       <r>    5.9310    1.0000 </r>
       <r>    6.9389    1.0000 </r>
       <r>   15.8385    0.0000 </r>
       <r>   23.1154    0.0000 </r>
       <r>   28.6216    0.0000 </r>
       <r>   28.8920    0.0000 </r>
       <r>   33.2113    0.0000 </r>
       <r>   33.9809    0.0000 </r>
      </set>
      <set comment="kpoint 53">
       <r>    4.0012    1.0000 </r>
       <r>    4.4629    1.0000 </r>
       <r>    4.7179    1.0000 </r>
       <r>    5.3905    1.0000 </r>
       <r>    5.9949    1.0000 </r>
       <r>    8.9049    0.0000 </r>
       <r>   15.2503    0.0000 </r>
       <r>   18.1148    0.0000 </r>
       <r>   25.7044    0.0000 </r>
       <r>   27.3564    0.0000 </r>
       <r>   36.9475    0.0000 </r>
       <r>   37.2138    0.0000 </r>
      </set>
      <set comment="kpoint 54">
       <r>    3.9319    1.0000 </r>
       <r>    4.1829    1.0000 </r>
       <r>    5.0365    1.0000 </r>
       <r>    5.6329    1.0000 </r>
       <r>    6.2451    1.0000 </r>
       <r>   11.7925    0.0000 </r>
       <r>   13.0402    0.0000 </r>
       <r>   16.5476    0.0000 </r>
       <r>   23.2279    0.0000 </r>
       <r>   26.3811    0.0000 </r>
       <r>   37.7788    0.0000 </r>
       <r>   39.5935    0.0000 </r>
      </set>
      <set comment="kpoint 55">
       <r>    3.3134    1.0000 </r>
       <r>    4.7318    1.0000 </r>
       <r>    5.1240    1.0000 </r>
       <r>    5.1707    1.0000 </r>
       <r>    6.3181    1.0000 </r>
       <r>    7.2983    1.0000 </r>
       <r>   14.3029    0.0000 </r>
       <r>   25.0834    0.0000 </r>
       <r>   25.5890    0.0000 </r>
       <r>   27.2997    0.0000 </r>
       <r>   34.8762    0.0000 </r>
       <r>   35.1551    0.0000 </r>
      </set>
      <set comment="kpoint 56">
       <r>    3.8359    1.0000 </r>
       <r>    4.4050    1.0000 </r>
       <r>    4.9203    1.0000 </r>
       <r>    5.3847    1.0000 </r>
       <r>    6.2558    1.0000 </r>
       <r>    9.2466    0.0000 </r>
       <r>   13.5614    0.0000 </r>
       <r>   20.9469    0.0000 </r>
       <r>   22.3438    0.0000 </r>
       <r>   29.8706    0.0000 </r>
       <r>   33.3323    0.0000 </r>
       <r>   39.0904    0.0000 </r>
      </set>
      <set comment="kpoint 57">
       <r>    3.9930    1.0000 </r>
       <r>    4.2747    1.0000 </r>
       <r>    4.7992    1.0000 </r>
       <r>    5.6292    1.0000 </r>
       <r>    6.3591    1.0000 </r>
       <r>   12.1365    0.0000 </r>
       <r>   13.3645    0.0000 </r>
       <r>   16.7402    0.0000 </r>
       <r>   20.0250    0.0000 </r>
       <r>   30.0229    0.0000 </r>
       <r>   35.6705    0.0000 </r>
       <r>   37.9072    0.0000 </r>
      </set>
      <set comment="kpoint 58">
       <r>    3.8600    1.0000 </r>
       <r>    4.2605    1.0000 </r>
       <r>    5.0552    1.0000 </r>
       <r>    5.4748    1.0000 </r>
       <r>    6.3209    1.0000 </r>
       <r>   10.5725    0.0000 </r>
       <r>   12.6987    0.0000 </r>
       <r>   19.0367    0.0000 </r>
       <r>   23.6303    0.0000 </r>
       <r>   26.4838    0.0000 </r>
       <r>   37.6568    0.0000 </r>
       <r>   38.1498    0.0000 </r>
      </set>
      <set comment="kpoint 59">
       <r>    3.1323    1.0000 </r>
       <r>    4.9061    1.0000 </r>
       <r>    4.9061    1.0000 </r>
       <r>    6.2877    1.0000 </r>
       <r>    6.2877    1.0000 </r>
       <r>    6.7795    1.0000 </r>
       <r>   12.7548    0.0000 </r>
       <r>   27.3997    0.0000 </r>
       <r>   28.5527    0.0000 </r>
       <r>   28.5527    0.0000 </r>
       <r>   31.5209    0.0000 </r>
       <r>   31.5209    0.0000 </r>
      </set>
      <set comment="kpoint 60">
       <r>    3.4385    1.0000 </r>
       <r>    4.7091    1.0000 </r>
       <r>    5.0474    1.0000 </r>
       <r>    5.5416    1.0000 </r>
       <r>    6.2815    1.0000 </r>
       <r>    8.6061    0.0000 </r>
       <r>   12.1085    0.0000 </r>
       <r>   23.6516    0.0000 </r>
       <r>   26.6481    0.0000 </r>
       <r>   27.4425    0.0000 </r>
       <r>   33.7863    0.0000 </r>
       <r>   34.5103    0.0000 </r>
      </set>
     </set>
     <set comment="spin 2">
      <set comment="kpoint 1">
       <r>   -0.1485    1.0000 </r>
       <r>    6.6856    1.0000 </r>
       <r>    6.7558    1.0000 </r>
       <r>    6.7558    1.0000 </r>
       <r>    7.7932    0.0000 </r>
       <r>    7.7932    0.0000 </r>
       <r>   27.7580    0.0000 </r>
       <r>   29.9261    0.0000 </r>
       <r>   31.1652    0.0000 </r>
       <r>   31.1652    0.0000 </r>
       <r>   34.5199    0.0000 </r>
       <r>   34.5199    0.0000 </r>
      </set>
      <set comment="kpoint 2">
       <r>    0.5374    1.0000 </r>
       <r>    6.4890    1.0000 </r>
       <r>    6.8885    1.0000 </r>
       <r>    6.8921    1.0000 </r>
       <r>    7.6609    0.0002 </r>
       <r>    7.8471    0.0000 </r>
       <r>   24.8284    0.0000 </r>
       <r>   27.1695    0.0000 </r>
       <r>   30.3746    0.0000 </r>
       <r>   32.0674    0.0000 </r>
       <r>   33.6774    0.0000 </r>
       <r>   34.7238    0.0000 </r>
      </set>
      <set comment="kpoint 3">
       <r>    2.1004    1.0000 </r>
       <r>    6.2365    1.0000 </r>
       <r>    6.8993    1.0000 </r>
       <r>    6.9736    1.0000 </r>
       <r>    7.7563    0.0000 </r>
       <r>    8.0826    0.0000 </r>
       <r>   19.3722    0.0000 </r>
       <r>   26.2261    0.0000 </r>
       <r>   29.3972    0.0000 </r>
       <r>   31.3409    0.0000 </r>
       <r>   32.6784    0.0000 </r>
       <r>   33.6171    0.0000 </r>
      </set>
      <set comment="kpoint 4">
       <r>    3.7913    1.0000 </r>
       <r>    6.4963    1.0000 </r>
       <r>    6.7559    1.0000 </r>
       <r>    6.8409    1.0000 </r>
       <r>    8.1626    0.0000 </r>
       <r>    8.5042    0.0000 </r>
       <r>   14.7611    0.0000 </r>
       <r>   25.9268    0.0000 </r>
       <r>   28.1520    0.0000 </r>
       <r>   29.3925    0.0000 </r>
       <r>   31.9517    0.0000 </r>
       <r>   33.3310    0.0000 </r>
      </set>
      <set comment="kpoint 5">
       <r>    4.2359    1.0000 </r>
       <r>    6.6545    1.0000 </r>
       <r>    6.7969    1.0000 </r>
       <r>    7.0150    1.0000 </r>
       <r>    8.3882    0.0000 </r>
       <r>    8.7357    0.0000 </r>
       <r>   12.9800    0.0000 </r>
       <r>   26.2411    0.0000 </r>
       <r>   27.8439    0.0000 </r>
       <r>   27.9952    0.0000 </r>
       <r>   32.6268    0.0000 </r>
       <r>   32.7411    0.0000 </r>
      </set>
      <set comment="kpoint 6">
       <r>    3.3125    1.0000 </r>
       <r>    6.2870    1.0000 </r>
       <r>    6.7947    1.0000 </r>
       <r>    6.8946    1.0000 </r>
       <r>    8.1589    0.0000 </r>
       <r>    8.2421    0.0000 </r>
       <r>   16.1378    0.0000 </r>
       <r>   26.9134    0.0000 </r>
       <r>   27.4085    0.0000 </r>
       <r>   29.3479    0.0000 </r>
       <r>   32.6702    0.0000 </r>
       <r>   34.1650    0.0000 </r>
      </set>
      <set comment="kpoint 7">
       <r>    1.5062    1.0000 </r>
       <r>    6.2888    1.0000 </r>
       <r>    6.9444    1.0000 </r>
       <r>    6.9757    1.0000 </r>
       <r>    7.6980    0.0000 </r>
       <r>    7.9453    0.0000 </r>
       <r>   21.1410    0.0000 </r>
       <r>   27.7654    0.0000 </r>
       <r>   27.9361    0.0000 </r>
       <r>   31.7953    0.0000 </r>
       <r>   32.5604    0.0000 </r>
       <r>   35.9865    0.0000 </r>
      </set>
      <set comment="kpoint 8">
       <r>    0.1981    1.0000 </r>
       <r>    6.5627    1.0000 </r>
       <r>    6.8424    1.0000 </r>
       <r>    6.8460    1.0000 </r>
       <r>    7.6781    0.0000 </r>
       <r>    7.8451    0.0000 </r>
       <r>   26.5784    0.0000 </r>
       <r>   28.6878    0.0000 </r>
       <r>   29.2434    0.0000 </r>
       <r>   31.1489    0.0000 </r>
       <r>   34.4442    0.0000 </r>
       <r>   36.1119    0.0000 </r>
      </set>
      <set comment="kpoint 9">
       <r>    0.8720    1.0000 </r>
       <r>    6.3281    1.0000 </r>
       <r>    7.0107    1.0000 </r>
       <r>    7.0236    1.0000 </r>
       <r>    7.4901    0.8995 </r>
       <r>    7.9412    0.0000 </r>
       <r>   25.0873    0.0000 </r>
       <r>   27.1830    0.0000 </r>
       <r>   27.5044    0.0000 </r>
       <r>   29.5130    0.0000 </r>
       <r>   33.1973    0.0000 </r>
       <r>   36.7177    0.0000 </r>
      </set>
      <set comment="kpoint 10">
       <r>    2.1231    1.0000 </r>
       <r>    6.0440    1.0000 </r>
       <r>    6.9098    1.0000 </r>
       <r>    7.2590    1.0000 </r>
       <r>    7.5911    0.0572 </r>
       <r>    8.1567    0.0000 </r>
       <r>   21.6277    0.0000 </r>
       <r>   23.9272    0.0000 </r>
       <r>   27.3801    0.0000 </r>
       <r>   29.0261    0.0000 </r>
       <r>   32.4254    0.0000 </r>
       <r>   36.5996    0.0000 </r>
      </set>
      <set comment="kpoint 11">
       <r>    3.8262    1.0000 </r>
       <r>    5.9428    1.0000 </r>
       <r>    6.5930    1.0000 </r>
       <r>    7.1921    1.0000 </r>
       <r>    8.1673    0.0000 </r>
       <r>    8.7492    0.0000 </r>
       <r>   16.5784    0.0000 </r>
       <r>   23.4616    0.0000 </r>
       <r>   25.0330    0.0000 </r>
       <r>   28.5762    0.0000 </r>
       <r>   34.5886    0.0000 </r>
       <r>   36.5769    0.0000 </r>
      </set>
      <set comment="kpoint 12">
       <r>    4.6889    1.0000 </r>
       <r>    6.1190    1.0000 </r>
       <r>    6.6054    1.0000 </r>
       <r>    7.0859    1.0000 </r>
       <r>    8.3460    0.0000 </r>
       <r>   10.0470    0.0000 </r>
       <r>   13.1169    0.0000 </r>
       <r>   23.0014    0.0000 </r>
       <r>   24.2731    0.0000 </r>
       <r>   28.4992    0.0000 </r>
       <r>   33.8033    0.0000 </r>
       <r>   37.1803    0.0000 </r>
      </set>
      <set comment="kpoint 13">
       <r>    4.2855    1.0000 </r>
       <r>    6.1094    1.0000 </r>
       <r>    6.4995    1.0000 </r>
       <r>    7.1244    1.0000 </r>
       <r>    8.0758    0.0000 </r>
       <r>    9.2699    0.0000 </r>
       <r>   15.1638    0.0000 </r>
       <r>   22.1666    0.0000 </r>
       <r>   25.7868    0.0000 </r>
       <r>   29.4510    0.0000 </r>
       <r>   33.2693    0.0000 </r>
       <r>   36.5978    0.0000 </r>
      </set>
      <set comment="kpoint 14">
       <r>    2.6920    1.0000 </r>
       <r>    6.0562    1.0000 </r>
       <r>    6.7588    1.0000 </r>
       <r>    7.2615    1.0000 </r>
       <r>    7.5673    0.1826 </r>
       <r>    8.4337    0.0000 </r>
       <r>   19.8764    0.0000 </r>
       <r>   22.2659    0.0000 </r>
       <r>   28.1292    0.0000 </r>
       <r>   31.2101    0.0000 </r>
       <r>   32.7996    0.0000 </r>
       <r>   35.2235    0.0000 </r>
      </set>
      <set comment="kpoint 15">
       <r>    1.1961    1.0000 </r>
       <r>    6.3031    1.0000 </r>
       <r>    6.9521    1.0000 </r>
       <r>    7.0394    1.0000 </r>
       <r>    7.5506    0.3324 </r>
       <r>    7.9715    0.0000 </r>
       <r>   23.1457    0.0000 </r>
       <r>   25.4850    0.0000 </r>
       <r>   29.5358    0.0000 </r>
       <r>   31.1071    0.0000 </r>
       <r>   33.5395    0.0000 </r>
       <r>   35.1331    0.0000 </r>
      </set>
      <set comment="kpoint 16">
       <r>    2.9335    1.0000 </r>
       <r>    5.7156    1.0000 </r>
       <r>    6.9904    1.0000 </r>
       <r>    7.5889    0.0646 </r>
       <r>    7.7650    0.0000 </r>
       <r>    8.2039    0.0000 </r>
       <r>   22.1528    0.0000 </r>
       <r>   23.5330    0.0000 </r>
       <r>   23.8416    0.0000 </r>
       <r>   26.2775    0.0000 </r>
       <r>   29.3143    0.0000 </r>
       <r>   41.5283    0.0000 </r>
      </set>
      <set comment="kpoint 17">
       <r>    4.1508    1.0000 </r>
       <r>    5.5095    1.0000 </r>
       <r>    6.7894    1.0000 </r>
       <r>    7.8350    0.0000 </r>
       <r>    8.2127    0.0000 </r>
       <r>    8.8171    0.0000 </r>
       <r>   19.1806    0.0000 </r>
       <r>   20.9851    0.0000 </r>
       <r>   21.5019    0.0000 </r>
       <r>   27.3071    0.0000 </r>
       <r>   30.5847    0.0000 </r>
       <r>   39.9299    0.0000 </r>
      </set>
      <set comment="kpoint 18">
       <r>    5.0878    1.0000 </r>
       <r>    5.5109    1.0000 </r>
       <r>    6.5268    1.0000 </r>
       <r>    7.6755    0.0000 </r>
       <r>    8.3737    0.0000 </r>
       <r>   10.9634    0.0000 </r>
       <r>   14.7785    0.0000 </r>
       <r>   18.9424    0.0000 </r>
       <r>   21.7793    0.0000 </r>
       <r>   27.6046    0.0000 </r>
       <r>   35.1812    0.0000 </r>
       <r>   38.2088    0.0000 </r>
      </set>
      <set comment="kpoint 19">
       <r>    5.2649    1.0000 </r>
       <r>    5.7763    1.0000 </r>
       <r>    6.1996    1.0000 </r>
       <r>    7.5536    0.3025 </r>
       <r>    8.0846    0.0000 </r>
       <r>   11.2211    0.0000 </r>
       <r>   14.6983    0.0000 </r>
       <r>   17.7510    0.0000 </r>
       <r>   23.2894    0.0000 </r>
       <r>   28.3933    0.0000 </r>
       <r>   36.2998    0.0000 </r>
       <r>   40.5373    0.0000 </r>
      </set>
      <set comment="kpoint 20">
       <r>    4.2861    1.0000 </r>
       <r>    5.9735    1.0000 </r>
       <r>    6.3524    1.0000 </r>
       <r>    7.3874    1.0000 </r>
       <r>    7.7955    0.0000 </r>
       <r>    9.3705    0.0000 </r>
       <r>   17.0684    0.0000 </r>
       <r>   19.6186    0.0000 </r>
       <r>   25.5743    0.0000 </r>
       <r>   29.9202    0.0000 </r>
       <r>   33.8617    0.0000 </r>
       <r>   37.7134    0.0000 </r>
      </set>
      <set comment="kpoint 21">
       <r>    2.9155    1.0000 </r>
       <r>    6.1226    1.0000 </r>
       <r>    6.7851    1.0000 </r>
       <r>    7.0352    1.0000 </r>
       <r>    7.8806    0.0000 </r>
       <r>    8.3466    0.0000 </r>
       <r>   17.8543    0.0000 </r>
       <r>   24.7625    0.0000 </r>
       <r>   27.9387    0.0000 </r>
       <r>   29.8372    0.0000 </r>
       <r>   33.4644    0.0000 </r>
       <r>   34.6721    0.0000 </r>
      </set>
      <set comment="kpoint 22">
       <r>    4.4289    1.0000 </r>
       <r>    5.2262    1.0000 </r>
       <r>    7.7497    0.0000 </r>
       <r>    8.2020    0.0000 </r>
       <r>    8.4268    0.0000 </r>
       <r>    8.9043    0.0000 </r>
       <r>   18.0644    0.0000 </r>
       <r>   20.0511    0.0000 </r>
       <r>   21.0984    0.0000 </r>
       <r>   25.5027    0.0000 </r>
       <r>   28.1921    0.0000 </r>
       <r>   44.7962    0.0000 </r>
      </set>
      <set comment="kpoint 23">
       <r>    4.7502    1.0000 </r>
       <r>    5.2167    1.0000 </r>
       <r>    7.4469    0.9938 </r>
       <r>    8.2296    0.0000 </r>
       <r>    8.4587    0.0000 </r>
       <r>   10.8015    0.0000 </r>
       <r>   16.2432    0.0000 </r>
       <r>   17.9264    0.0000 </r>
       <r>   20.0662    0.0000 </r>
       <r>   26.7405    0.0000 </r>
       <r>   29.9896    0.0000 </r>
       <r>   42.7291    0.0000 </r>
      </set>
      <set comment="kpoint 24">
       <r>    5.2169    1.0000 </r>
       <r>    5.4146    1.0000 </r>
       <r>    6.6526    1.0000 </r>
       <r>    7.8653    0.0000 </r>
       <r>    8.3244    0.0000 </r>
       <r>   12.5200    0.0000 </r>
       <r>   14.2986    0.0000 </r>
       <r>   16.7209    0.0000 </r>
       <r>   21.3851    0.0000 </r>
       <r>   27.4568    0.0000 </r>
       <r>   35.1062    0.0000 </r>
       <r>   39.3281    0.0000 </r>
      </set>
      <set comment="kpoint 25">
       <r>    5.0524    1.0000 </r>
       <r>    5.8508    1.0000 </r>
       <r>    6.4134    1.0000 </r>
       <r>    7.3235    1.0000 </r>
       <r>    8.2459    0.0000 </r>
       <r>   10.9907    0.0000 </r>
       <r>   13.3226    0.0000 </r>
       <r>   20.2109    0.0000 </r>
       <r>   23.5968    0.0000 </r>
       <r>   28.4217    0.0000 </r>
       <r>   35.0539    0.0000 </r>
       <r>   39.1152    0.0000 </r>
      </set>
      <set comment="kpoint 26">
       <r>    4.2626    1.0000 </r>
       <r>    6.4256    1.0000 </r>
       <r>    6.7056    1.0000 </r>
       <r>    6.9137    1.0000 </r>
       <r>    8.3039    0.0000 </r>
       <r>    9.0317    0.0000 </r>
       <r>   13.7328    0.0000 </r>
       <r>   24.8127    0.0000 </r>
       <r>   26.2979    0.0000 </r>
       <r>   28.6687    0.0000 </r>
       <r>   32.8538    0.0000 </r>
       <r>   34.8590    0.0000 </r>
      </set>
      <set comment="kpoint 27">
       <r>    4.5629    1.0000 </r>
       <r>    5.1150    1.0000 </r>
       <r>    8.1264    0.0000 </r>
       <r>    8.3739    0.0000 </r>
       <r>    8.4763    0.0000 </r>
       <r>    9.8468    0.0000 </r>
       <r>   16.1341    0.0000 </r>
       <r>   19.5514    0.0000 </r>
       <r>   20.5565    0.0000 </r>
       <r>   25.3719    0.0000 </r>
       <r>   28.0407    0.0000 </r>
       <r>   45.5257    0.0000 </r>
      </set>
      <set comment="kpoint 28">
       <r>    4.6348    1.0000 </r>
       <r>    5.3182    1.0000 </r>
       <r>    7.1264    1.0000 </r>
       <r>    8.1014    0.0000 </r>
       <r>    8.3790    0.0000 </r>
       <r>    9.7106    0.0000 </r>
       <r>   18.1969    0.0000 </r>
       <r>   18.4401    0.0000 </r>
       <r>   20.5352    0.0000 </r>
       <r>   26.9207    0.0000 </r>
       <r>   30.1711    0.0000 </r>
       <r>   41.4977    0.0000 </r>
      </set>
      <set comment="kpoint 29">
       <r>    4.6229    1.0000 </r>
       <r>    5.7167    1.0000 </r>
       <r>    6.4730    1.0000 </r>
       <r>    7.4231    0.9992 </r>
       <r>    8.3488    0.0000 </r>
       <r>    9.5997    0.0000 </r>
       <r>   15.5446    0.0000 </r>
       <r>   21.7362    0.0000 </r>
       <r>   22.5988    0.0000 </r>
       <r>   27.9434    0.0000 </r>
       <r>   35.1593    0.0000 </r>
       <r>   37.1579    0.0000 </r>
      </set>
      <set comment="kpoint 30">
       <r>    3.9185    1.0000 </r>
       <r>    5.4352    1.0000 </r>
       <r>    7.1770    1.0000 </r>
       <r>    7.9168    0.0000 </r>
       <r>    8.2144    0.0000 </r>
       <r>    8.3305    0.0000 </r>
       <r>   20.7106    0.0000 </r>
       <r>   21.0623    0.0000 </r>
       <r>   22.1205    0.0000 </r>
       <r>   25.7836    0.0000 </r>
       <r>   28.5658    0.0000 </r>
       <r>   43.4789    0.0000 </r>
      </set>
      <set comment="kpoint 31">
       <r>    3.1992    1.0000 </r>
       <r>    5.7641    1.0000 </r>
       <r>    6.7636    1.0000 </r>
       <r>    7.5309    0.5500 </r>
       <r>    7.8856    0.0000 </r>
       <r>    8.3888    0.0000 </r>
       <r>   20.2949    0.0000 </r>
       <r>   22.5184    0.0000 </r>
       <r>   24.2678    0.0000 </r>
       <r>   27.9583    0.0000 </r>
       <r>   31.3111    0.0000 </r>
       <r>   38.3143    0.0000 </r>
      </set>
      <set comment="kpoint 32">
       <r>    1.8236    1.0000 </r>
       <r>    6.0290    1.0000 </r>
       <r>    7.0875    1.0000 </r>
       <r>    7.2783    1.0000 </r>
       <r>    7.4530    0.9900 </r>
       <r>    8.0672    0.0000 </r>
       <r>   23.5751    0.0000 </r>
       <r>   25.2476    0.0000 </r>
       <r>   26.3130    0.0000 </r>
       <r>   27.4208    0.0000 </r>
       <r>   30.7402    0.0000 </r>
       <r>   39.0757    0.0000 </r>
      </set>
      <set comment="kpoint 33">
       <r>    0.8675    1.0000 </r>
       <r>    6.4331    1.0000 </r>
       <r>    6.9107    1.0000 </r>
       <r>    6.9107    1.0000 </r>
       <r>    7.7695    0.0000 </r>
       <r>    7.7695    0.0000 </r>
       <r>   22.8910    0.0000 </r>
       <r>   28.7077    0.0000 </r>
       <r>   30.0306    0.0000 </r>
       <r>   30.0306    0.0000 </r>
       <r>   34.9756    0.0000 </r>
       <r>   35.5578    0.0000 </r>
      </set>
      <set comment="kpoint 34">
       <r>    1.8217    1.0000 </r>
       <r>    6.2163    1.0000 </r>
       <r>    6.8891    1.0000 </r>
       <r>    7.1182    1.0000 </r>
       <r>    7.5161    0.7065 </r>
       <r>    8.1502    0.0000 </r>
       <r>   21.4008    0.0000 </r>
       <r>   23.7702    0.0000 </r>
       <r>   30.6441    0.0000 </r>
       <r>   32.3493    0.0000 </r>
       <r>   32.4072    0.0000 </r>
       <r>   33.7105    0.0000 </r>
      </set>
      <set comment="kpoint 35">
       <r>    3.4579    1.0000 </r>
       <r>    6.0389    1.0000 </r>
       <r>    6.5993    1.0000 </r>
       <r>    7.2731    1.0000 </r>
       <r>    7.6008    0.0320 </r>
       <r>    8.8262    0.0000 </r>
       <r>   18.3576    0.0000 </r>
       <r>   20.8102    0.0000 </r>
       <r>   28.8399    0.0000 </r>
       <r>   29.0267    0.0000 </r>
       <r>   34.1812    0.0000 </r>
       <r>   35.4241    0.0000 </r>
      </set>
      <set comment="kpoint 36">
       <r>    4.7016    1.0000 </r>
       <r>    6.1015    1.0000 </r>
       <r>    6.4539    1.0000 </r>
       <r>    7.1607    1.0000 </r>
       <r>    8.1259    0.0000 </r>
       <r>    9.9790    0.0000 </r>
       <r>   14.0569    0.0000 </r>
       <r>   21.0504    0.0000 </r>
       <r>   26.3300    0.0000 </r>
       <r>   27.3648    0.0000 </r>
       <r>   35.6539    0.0000 </r>
       <r>   35.9088    0.0000 </r>
      </set>
      <set comment="kpoint 37">
       <r>    4.6774    1.0000 </r>
       <r>    5.9059    1.0000 </r>
       <r>    6.5504    1.0000 </r>
       <r>    7.2009    1.0000 </r>
       <r>    8.4111    0.0000 </r>
       <r>    9.8231    0.0000 </r>
       <r>   14.0086    0.0000 </r>
       <r>   22.2815    0.0000 </r>
       <r>   24.7031    0.0000 </r>
       <r>   26.8384    0.0000 </r>
       <r>   36.6866    0.0000 </r>
       <r>   36.7204    0.0000 </r>
      </set>
      <set comment="kpoint 38">
       <r>    3.4273    1.0000 </r>
       <r>    5.8184    1.0000 </r>
       <r>    6.6948    1.0000 </r>
       <r>    7.3148    1.0000 </r>
       <r>    8.2861    0.0000 </r>
       <r>    8.3105    0.0000 </r>
       <r>   18.2998    0.0000 </r>
       <r>   24.2914    0.0000 </r>
       <r>   24.3609    0.0000 </r>
       <r>   27.0604    0.0000 </r>
       <r>   33.6086    0.0000 </r>
       <r>   37.9326    0.0000 </r>
      </set>
      <set comment="kpoint 39">
       <r>    2.3995    1.0000 </r>
       <r>    6.0705    1.0000 </r>
       <r>    6.8635    1.0000 </r>
       <r>    7.1099    1.0000 </r>
       <r>    7.8375    0.0000 </r>
       <r>    8.1398    0.0000 </r>
       <r>   19.6111    0.0000 </r>
       <r>   26.0190    0.0000 </r>
       <r>   26.5552    0.0000 </r>
       <r>   28.8295    0.0000 </r>
       <r>   34.2339    0.0000 </r>
       <r>   35.7442    0.0000 </r>
      </set>
      <set comment="kpoint 40">
       <r>    3.6852    1.0000 </r>
       <r>    5.8560    1.0000 </r>
       <r>    6.5385    1.0000 </r>
       <r>    7.4722    0.9629 </r>
       <r>    7.8158    0.0000 </r>
       <r>    8.8227    0.0000 </r>
       <r>   18.5733    0.0000 </r>
       <r>   20.9905    0.0000 </r>
       <r>   24.8017    0.0000 </r>
       <r>   30.4105    0.0000 </r>
       <r>   32.9377    0.0000 </r>
       <r>   35.9590    0.0000 </r>
      </set>
      <set comment="kpoint 41">
       <r>    4.9852    1.0000 </r>
       <r>    5.8497    1.0000 </r>
       <r>    6.1254    1.0000 </r>
       <r>    7.5828    0.0896 </r>
       <r>    8.0553    0.0000 </r>
       <r>   10.2677    0.0000 </r>
       <r>   16.0115    0.0000 </r>
       <r>   18.7133    0.0000 </r>
       <r>   22.3572    0.0000 </r>
       <r>   31.1011    0.0000 </r>
       <r>   33.2962    0.0000 </r>
       <r>   37.6727    0.0000 </r>
      </set>
      <set comment="kpoint 42">
       <r>    5.3281    1.0000 </r>
       <r>    5.6250    1.0000 </r>
       <r>    6.2814    1.0000 </r>
       <r>    7.5396    0.4517 </r>
       <r>    8.3023    0.0000 </r>
       <r>   11.7215    0.0000 </r>
       <r>   13.5911    0.0000 </r>
       <r>   19.6484    0.0000 </r>
       <r>   20.7015    0.0000 </r>
       <r>   30.0991    0.0000 </r>
       <r>   34.4129    0.0000 </r>
       <r>   38.8720    0.0000 </r>
      </set>
      <set comment="kpoint 43">
       <r>    4.5538    1.0000 </r>
       <r>    5.6575    1.0000 </r>
       <r>    6.4031    1.0000 </r>
       <r>    7.7309    0.0000 </r>
       <r>    8.1016    0.0000 </r>
       <r>    9.4957    0.0000 </r>
       <r>   17.5054    0.0000 </r>
       <r>   19.9639    0.0000 </r>
       <r>   21.6189    0.0000 </r>
       <r>   29.7746    0.0000 </r>
       <r>   32.8730    0.0000 </r>
       <r>   36.7834    0.0000 </r>
      </set>
      <set comment="kpoint 44">
       <r>    4.3350    1.0000 </r>
       <r>    5.5739    1.0000 </r>
       <r>    6.6553    1.0000 </r>
       <r>    7.5732    0.1418 </r>
       <r>    8.4209    0.0000 </r>
       <r>    9.0576    0.0000 </r>
       <r>   17.2206    0.0000 </r>
       <r>   21.2977    0.0000 </r>
       <r>   23.0288    0.0000 </r>
       <r>   26.4499    0.0000 </r>
       <r>   32.9196    0.0000 </r>
       <r>   39.9039    0.0000 </r>
      </set>
      <set comment="kpoint 45">
       <r>    4.9850    1.0000 </r>
       <r>    5.5018    1.0000 </r>
       <r>    6.5359    1.0000 </r>
       <r>    7.9204    0.0000 </r>
       <r>    8.3153    0.0000 </r>
       <r>   10.6503    0.0000 </r>
       <r>   16.7166    0.0000 </r>
       <r>   18.6784    0.0000 </r>
       <r>   19.3083    0.0000 </r>
       <r>   29.3530    0.0000 </r>
       <r>   32.7617    0.0000 </r>
       <r>   37.9533    0.0000 </r>
      </set>
      <set comment="kpoint 46">
       <r>    5.3365    1.0000 </r>
       <r>    5.7329    1.0000 </r>
       <r>    6.1913    1.0000 </r>
       <r>    7.7358    0.0000 </r>
       <r>    8.4492    0.0000 </r>
       <r>   13.3279    0.0000 </r>
       <r>   14.7748    0.0000 </r>
       <r>   16.9966    0.0000 </r>
       <r>   17.8385    0.0000 </r>
       <r>   32.0006    0.0000 </r>
       <r>   34.8688    0.0000 </r>
       <r>   36.2476    0.0000 </r>
      </set>
      <set comment="kpoint 47">
       <r>    5.3376    1.0000 </r>
       <r>    5.7376    1.0000 </r>
       <r>    6.0855    1.0000 </r>
       <r>    7.7110    0.0000 </r>
       <r>    8.2931    0.0000 </r>
       <r>   11.6675    0.0000 </r>
       <r>   15.2250    0.0000 </r>
       <r>   18.0997    0.0000 </r>
       <r>   19.4245    0.0000 </r>
       <r>   31.9435    0.0000 </r>
       <r>   33.5262    0.0000 </r>
       <r>   37.0926    0.0000 </r>
      </set>
      <set comment="kpoint 48">
[...]
       </set>
       <set comment="band 5">
        <r>  0.0001  0.0000  0.0002  0.0004  0.0025  0.0309  0.0002  0.9476  0.0081 </r>
       </set>
       <set comment="band 6">
        <r>  0.0293  0.0051  0.3641  0.0006  0.0001  0.2694  0.0330  0.0131  0.0014 </r>
       </set>
       <set comment="band 7">
        <r>  0.0022  0.1092  0.0082  0.2405  0.1310  0.0056  0.1417  0.0036  0.0129 </r>
       </set>
       <set comment="band 8">
        <r>  0.3740  0.0056  0.0387  0.0464  0.0418  0.0047  0.2057  0.0001  0.0004 </r>
       </set>
       <set comment="band 9">
        <r>  0.1660  0.1683  0.0011  0.1495  0.0508  0.0013  0.0265  0.0010  0.0610 </r>
       </set>
       <set comment="band 10">
        <r>  0.0296  0.0405  0.0005  0.0650  0.4192  0.0000  0.0220  0.0006  0.0036 </r>
       </set>
       <set comment="band 11">
        <r>  0.1385  0.2273  0.0033  0.0200  0.0760  0.0000  0.1357  0.0002  0.0055 </r>
       </set>
       <set comment="band 12">
        <r>  0.0135  0.0048  0.0325  0.0002  0.0001  0.2936  0.0126  0.0014  0.0284 </r>
       </set>
      </set>
      <set comment="kpoint 50">
       <set comment="band 1">
        <r>  0.0785  0.0064  0.0448  0.0064  0.0513  0.0128  0.5496  0.0128  0.0000 </r>
       </set>
       <set comment="band 2">
        <r>  0.0003  0.0166  0.0003  0.0166  0.7700  0.0072  0.0521  0.0072  0.0000 </r>
       </set>
       <set comment="band 3">
        <r>  0.0262  0.0000  0.1091  0.0000  0.0363  0.2820  0.1181  0.2820  0.0000 </r>
       </set>
       <set comment="band 4">
        <r>  0.0000  0.0031  0.0000  0.0031  0.0000  0.1922  0.0000  0.1922  0.5771 </r>
       </set>
       <set comment="band 5">
        <r>  0.0000  0.0000  0.0000  0.0000  0.0000  0.2981  0.0000  0.2981  0.3938 </r>
       </set>
       <set comment="band 6">
        <r>  0.0728  0.0095  0.1981  0.0095  0.0033  0.1854  0.1374  0.1854  0.0000 </r>
       </set>
       <set comment="band 7">
        <r>  0.1280  0.1577  0.0003  0.1577  0.1391  0.0200  0.0336  0.0200  0.0000 </r>
       </set>
       <set comment="band 8">
        <r>  0.2105  0.0042  0.1636  0.0042  0.0036  0.0066  0.2761  0.0066  0.0000 </r>
       </set>
       <set comment="band 9">
        <r>  0.0000  0.2568  0.0000  0.2568  0.0000  0.0136  0.0000  0.0136  0.0521 </r>
       </set>
       <set comment="band 10">
        <r>  0.1373  0.0023  0.0159  0.0023  0.4002  0.0000  0.0530  0.0000  0.0000 </r>
       </set>
       <set comment="band 11">
        <r>  0.1297  0.0945  0.0208  0.0945  0.1665  0.0034  0.0959  0.0034  0.0000 </r>
       </set>
       <set comment="band 12">
        <r>  0.0000  0.0246  0.0000  0.0246  0.0000  0.0906  0.0000  0.0905  0.1936 </r>
       </set>
      </set>
      <set comment="kpoint 51">
       <set comment="band 1">
        <r>  0.3792  0.0376  0.0376  0.0376  0.0349  0.0349  0.0000  0.0349  0.0000 </r>
       </set>
       <set comment="band 2">
        <r>  0.0099  0.0310  0.0310  0.0310  0.2472  0.2472  0.0000  0.2472  0.0000 </r>
       </set>
       <set comment="band 3">
        <r>  0.0000  0.0001  0.0004  0.0002  0.3497  0.1416  0.3572  0.0741  0.0278 </r>
       </set>
       <set comment="band 4">
        <r>  0.0000  0.0004  0.0000  0.0003  0.0272  0.2353  0.0278  0.3028  0.3572 </r>
       </set>
       <set comment="band 5">
        <r>  0.0000  0.0006  0.0004  0.0000  0.1575  0.0116  0.3434  0.2289  0.2351 </r>
       </set>
       <set comment="band 6">
        <r>  0.0000  0.0001  0.0003  0.0007  0.1078  0.2538  0.2351  0.0364  0.3434 </r>
       </set>
       <set comment="band 7">
        <r>  0.1632  0.0769  0.0769  0.0769  0.0976  0.0976  0.0000  0.0976  0.0000 </r>
       </set>
       <set comment="band 8">
        <r>  0.0132  0.0020  0.0020  0.0020  0.0157  0.0157  0.0000  0.0157  0.0000 </r>
       </set>
       <set comment="band 9">
        <r>  0.0000  0.1782  0.0123  0.2369  0.0063  0.1212  0.0017  0.0912  0.0366 </r>
       </set>
       <set comment="band 10">
        <r>  0.0000  0.1068  0.2726  0.0480  0.1395  0.0246  0.0366  0.0546  0.0017 </r>
       </set>
       <set comment="band 11">
        <r>  0.0000  0.0510  0.0017  0.0655  0.0007  0.0261  0.0102  0.0204  0.4661 </r>
       </set>
       <set comment="band 12">
        <r>  0.0000  0.0278  0.0771  0.0133  0.0308  0.0053  0.4661  0.0111  0.0102 </r>
       </set>
      </set>
      <set comment="kpoint 52">
       <set comment="band 1">
        <r>  0.2919  0.0614  0.0614  0.0047  0.0441  0.1175  0.0028  0.0441  0.0084 </r>
       </set>
       <set comment="band 2">
        <r>  0.0083  0.0316  0.0316  0.0508  0.3192  0.0189  0.0111  0.3192  0.0332 </r>
       </set>
       <set comment="band 3">
        <r>  0.0003  0.0024  0.0024  0.0008  0.0505  0.3519  0.1183  0.0505  0.3549 </r>
       </set>
       <set comment="band 4">
        <r>  0.0000  0.0003  0.0003  0.0000  0.2072  0.0000  0.4022  0.2072  0.1341 </r>
       </set>
       <set comment="band 5">
        <r>  0.0000  0.0007  0.0007  0.0000  0.2773  0.0000  0.3134  0.2773  0.1045 </r>
       </set>
       <set comment="band 6">
        <r>  0.0270  0.0146  0.0146  0.0038  0.0059  0.4555  0.1066  0.0059  0.3198 </r>
       </set>
       <set comment="band 7">
        <r>  0.1863  0.0442  0.0442  0.1321  0.1112  0.0653  0.0031  0.1112  0.0093 </r>
       </set>
       <set comment="band 8">
        <r>  0.0574  0.0411  0.0411  0.1846  0.0619  0.0425  0.0200  0.0619  0.0599 </r>
       </set>
       <set comment="band 9">
        <r>  0.0285  0.0795  0.0795  0.0484  0.0001  0.0031  0.0084  0.0001  0.0253 </r>
       </set>
       <set comment="band 10">
        <r>  0.0000  0.2073  0.2073  0.0000  0.0002  0.0000  0.1987  0.0002  0.0662 </r>
       </set>
       <set comment="band 11">
        <r>  0.0000  0.0669  0.0669  0.0000  0.1730  0.0000  0.1732  0.1730  0.0577 </r>
       </set>
       <set comment="band 12">
        <r>  0.0612  0.0059  0.0059  0.0299  0.0174  0.1262  0.0414  0.0174  0.1243 </r>
       </set>
      </set>
      <set comment="kpoint 53">
       <set comment="band 1">
        <r>  0.1433  0.0717  0.0717  0.0004  0.0187  0.3529  0.0089  0.0187  0.0267 </r>
       </set>
       <set comment="band 2">
        <r>  0.0001  0.0186  0.0186  0.0376  0.1746  0.0498  0.0921  0.1746  0.2764 </r>
       </set>
       <set comment="band 3">
        <r>  0.0022  0.0007  0.0007  0.0302  0.2081  0.1638  0.0698  0.2081  0.2094 </r>
       </set>
       <set comment="band 4">
        <r>  0.0000  0.0024  0.0024  0.0000  0.0580  0.0000  0.6246  0.0580  0.2082 </r>
       </set>
       <set comment="band 5">
        <r>  0.0000  0.0003  0.0003  0.0000  0.4297  0.0000  0.0868  0.4297  0.0289 </r>
       </set>
       <set comment="band 6">
        <r>  0.1074  0.0547  0.0547  0.0032  0.0001  0.4054  0.0576  0.0001  0.1728 </r>
       </set>
       <set comment="band 7">
        <r>  0.1066  0.0126  0.0126  0.2731  0.1308  0.0182  0.0069  0.1308  0.0206 </r>
       </set>
       <set comment="band 8">
        <r>  0.2117  0.0479  0.0479  0.1091  0.0308  0.0336  0.0336  0.0308  0.1009 </r>
       </set>
       <set comment="band 9">
        <r>  0.0000  0.2196  0.2196  0.0000  0.0005  0.0000  0.1699  0.0005  0.0566 </r>
       </set>
       <set comment="band 10">
        <r>  0.0947  0.0523  0.0523  0.0033  0.0000  0.1215  0.0224  0.0000  0.0672 </r>
       </set>
       <set comment="band 11">
        <r>  0.0102  0.0004  0.0004  0.0870  0.0475  0.0270  0.0047  0.0475  0.0140 </r>
       </set>
       <set comment="band 12">
        <r>  0.0000  0.0200  0.0200  0.0000  0.2453  0.0000  0.0509  0.2453  0.0170 </r>
       </set>
      </set>
      <set comment="kpoint 54">
       <set comment="band 1">
        <r>  0.0425  0.0214  0.0214  0.0027  0.0143  0.7170  0.0039  0.0143  0.0117 </r>
       </set>
       <set comment="band 2">
        <r>  0.0024  0.0345  0.0345  0.0030  0.0005  0.0023  0.1805  0.0005  0.5416 </r>
       </set>
       <set comment="band 3">
        <r>  0.0009  0.0007  0.0007  0.0981  0.3595  0.0336  0.0023  0.3595  0.0070 </r>
       </set>
       <set comment="band 4">
        <r>  0.0000  0.0034  0.0034  0.0000  0.0471  0.0000  0.6443  0.0471  0.2148 </r>
       </set>
       <set comment="band 5">
        <r>  0.0000  0.0001  0.0001  0.0000  0.4441  0.0000  0.0710  0.4441  0.0237 </r>
       </set>
       <set comment="band 6">
        <r>  0.0860  0.1176  0.1176  0.0429  0.0084  0.2068  0.0326  0.0084  0.0979 </r>
       </set>
       <set comment="band 7">
        <r>  0.1191  0.0023  0.0023  0.2917  0.1386  0.0340  0.0014  0.1386  0.0043 </r>
       </set>
       <set comment="band 8">
        <r>  0.3041  0.0244  0.0244  0.0661  0.0107  0.0147  0.0581  0.0107  0.1742 </r>
       </set>
       <set comment="band 9">
        <r>  0.0000  0.2439  0.2439  0.0000  0.0011  0.0000  0.1012  0.0011  0.0337 </r>
       </set>
       <set comment="band 10">
        <r>  0.1319  0.0227  0.0227  0.0023  0.0000  0.2637  0.0210  0.0000  0.0630 </r>
       </set>
       <set comment="band 11">
        <r>  0.0591  0.1000  0.1000  0.0049  0.0001  0.2603  0.0198  0.0001  0.0594 </r>
       </set>
       <set comment="band 12">
        <r>  0.0000  0.0092  0.0092  0.0000  0.1957  0.0000  0.0365  0.1957  0.0122 </r>
       </set>
      </set>
      <set comment="kpoint 55">
       <set comment="band 1">
        <r>  0.2285  0.0096  0.0704  0.0096  0.1147  0.1193  0.0260  0.1193  0.0000 </r>
       </set>
       <set comment="band 2">
        <r>  0.0087  0.0583  0.0431  0.0583  0.3053  0.0441  0.2136  0.0441  0.0000 </r>
       </set>
       <set comment="band 3">
        <r>  0.0054  0.0018  0.0097  0.0018  0.3622  0.0822  0.3831  0.0822  0.0000 </r>
       </set>
       <set comment="band 4">
        <r>  0.0000  0.0017  0.0000  0.0017  0.0000  0.2331  0.0000  0.2331  0.4802 </r>
       </set>
       <set comment="band 5">
        <r>  0.0000  0.0001  0.0000  0.0001  0.0000  0.2519  0.0000  0.2519  0.4841 </r>
       </set>
       <set comment="band 6">
        <r>  0.0293  0.0192  0.0462  0.0192  0.0867  0.1926  0.3198  0.1926  0.0000 </r>
       </set>
       <set comment="band 7">
        <r>  0.2411  0.0776  0.0163  0.0776  0.1449  0.0857  0.0074  0.0857  0.0000 </r>
       </set>
       <set comment="band 8">
        <r>  0.0121  0.0019  0.1318  0.0019  0.0353  0.0088  0.2181  0.0088  0.0000 </r>
       </set>
       <set comment="band 9">
        <r>  0.0000  0.2322  0.0000  0.2322  0.0000  0.0491  0.0000  0.0491  0.0822 </r>
       </set>
       <set comment="band 10">
        <r>  0.1053  0.0417  0.1975  0.0417  0.1349  0.0031  0.0022  0.0031  0.0000 </r>
       </set>
       <set comment="band 11">
        <r>  0.0136  0.0009  0.0108  0.0009  0.1805  0.0120  0.2826  0.0120  0.0000 </r>
       </set>
       <set comment="band 12">
        <r>  0.0000  0.0575  0.0000  0.0575  0.0000  0.0643  0.0000  0.0643  0.3891 </r>
       </set>
      </set>
      <set comment="kpoint 56">
       <set comment="band 1">
        <r>  0.1217  0.0146  0.0624  0.0024  0.1822  0.2435  0.0557  0.0861  0.0019 </r>
       </set>
       <set comment="band 2">
        <r>  0.0003  0.0516  0.0222  0.0434  0.1642  0.0117  0.3784  0.0306  0.0916 </r>
       </set>
       <set comment="band 3">
        <r>  0.0058  0.0013  0.0205  0.0187  0.3609  0.3104  0.1245  0.0033  0.0537 </r>
       </set>
       <set comment="band 4">
        <r>  0.0000  0.0008  0.0066  0.0015  0.0351  0.0139  0.1401  0.2653  0.4876 </r>
       </set>
       <set comment="band 5">
        <r>  0.0004  0.0002  0.0016  0.0009  0.0824  0.0613  0.0699  0.5184  0.2465 </r>
       </set>
       <set comment="band 6">
        <r>  0.0667  0.0466  0.1085  0.0294  0.0157  0.3092  0.1599  0.0155  0.0649 </r>
       </set>
       <set comment="band 7">
        <r>  0.2426  0.0349  0.0015  0.1395  0.1671  0.0520  0.0119  0.0824  0.0118 </r>
       </set>
       <set comment="band 8">
        <r>  0.0646  0.0904  0.0012  0.1893  0.0623  0.0254  0.0646  0.0187  0.0835 </r>
       </set>
       <set comment="band 9">
        <r>  0.1252  0.0150  0.2525  0.0301  0.0001  0.0263  0.1599  0.0134  0.0048 </r>
       </set>
       <set comment="band 10">
        <r>  0.0042  0.2455  0.0339  0.0296  0.0761  0.0056  0.0024  0.0018  0.0009 </r>
       </set>
       <set comment="band 11">
        <r>  0.0530  0.0194  0.0007  0.0051  0.1825  0.1210  0.0503  0.0219  0.1747 </r>
       </set>
       <set comment="band 12">
        <r>  0.0541  0.1282  0.0441  0.0509  0.0538  0.0152  0.2175  0.0023  0.0236 </r>
       </set>
      </set>
      <set comment="kpoint 57">
       <set comment="band 1">
        <r>  0.0008  0.0524  0.0323  0.0012  0.0002  0.0681  0.3871  0.0004  0.2509 </r>
       </set>
       <set comment="band 2">
        <r>  0.0312  0.0000  0.0319  0.0067  0.0413  0.6285  0.0402  0.0131  0.0685 </r>
       </set>
       <set comment="band 3">
        <r>  0.0005  0.0004  0.0032  0.0797  0.6550  0.0559  0.0081  0.0613  0.0030 </r>
       </set>
       <set comment="band 4">
        <r>  0.0059  0.0006  0.0043  0.0009  0.0007  0.0035  0.3842  0.0333  0.5223 </r>
       </set>
       <set comment="band 5">
        <r>  0.0006  0.0000  0.0000  0.0015  0.1093  0.0062  0.0136  0.8359  0.0179 </r>
       </set>
       <set comment="band 6">
        <r>  0.0802  0.0748  0.1834  0.0325  0.0129  0.2081  0.0865  0.0000  0.0398 </r>
       </set>
       <set comment="band 7">
        <r>  0.1131  0.0010  0.0072  0.3023  0.2049  0.0266  0.0019  0.0559  0.0093 </r>
       </set>
       <set comment="band 8">
        <r>  0.2733  0.0663  0.0040  0.0745  0.0214  0.0116  0.0677  0.0043  0.1532 </r>
       </set>
       <set comment="band 9">
        <r>  0.1314  0.0844  0.2184  0.0012  0.0005  0.0543  0.1451  0.0012  0.0001 </r>
       </set>
       <set comment="band 10">
        <r>  0.0349  0.1582  0.0324  0.0018  0.0002  0.2120  0.0001  0.0002  0.0650 </r>
       </set>
       <set comment="band 11">
        <r>  0.0045  0.0297  0.0007  0.0474  0.3056  0.0341  0.0164  0.0088  0.0119 </r>
       </set>
       <set comment="band 12">
        <r>  0.0223  0.2222  0.0272  0.0018  0.0451  0.2011  0.0322  0.0001  0.0441 </r>
       </set>
      </set>
      <set comment="kpoint 58">
       <set comment="band 1">
        <r>  0.0759  0.0026  0.0290  0.0026  0.4496  0.0927  0.0858  0.0927  0.0000 </r>
       </set>
       <set comment="band 2">
        <r>  0.0003  0.0501  0.0123  0.0501  0.0993  0.0017  0.5682  0.0017  0.0000 </r>
       </set>
       <set comment="band 3">
        <r>  0.0057  0.0041  0.0695  0.0041  0.2238  0.2474  0.0747  0.2474  0.0000 </r>
       </set>
       <set comment="band 4">
        <r>  0.0000  0.0029  0.0000  0.0029  0.0000  0.1540  0.0000  0.1540  0.6425 </r>
       </set>
       <set comment="band 5">
        <r>  0.0000  0.0001  0.0000  0.0001  0.0000  0.3358  0.0000  0.3358  0.3144 </r>
       </set>
       <set comment="band 6">
        <r>  0.0132  0.0655  0.1717  0.0655  0.0524  0.0945  0.1883  0.0945  0.0000 </r>
       </set>
       <set comment="band 7">
        <r>  0.2989  0.0540  0.0189  0.0540  0.1780  0.0752  0.0065  0.0752  0.0000 </r>
       </set>
       <set comment="band 8">
        <r>  0.1578  0.0194  0.1849  0.0194  0.0085  0.0220  0.2084  0.0220  0.0000 </r>
       </set>
       <set comment="band 9">
        <r>  0.0000  0.2421  0.0000  0.2421  0.0000  0.0096  0.0000  0.0096  0.1238 </r>
       </set>
       <set comment="band 10">
        <r>  0.1253  0.0251  0.0216  0.0251  0.2429  0.0001  0.0630  0.0001  0.0000 </r>
       </set>
       <set comment="band 11">
        <r>  0.0054  0.0830  0.0300  0.0830  0.2995  0.0017  0.0012  0.0017  0.0000 </r>
       </set>
       <set comment="band 12">
        <r>  0.0000  0.0370  0.0000  0.0370  0.0000  0.1370  0.0000  0.1370  0.2110 </r>
       </set>
      </set>
      <set comment="kpoint 59">
       <set comment="band 1">
        <r>  0.2069  0.0094  0.0094  0.0094  0.1725  0.1725  0.0000  0.1725  0.0000 </r>
       </set>
       <set comment="band 2">
        <r>  0.0000  0.0001  0.0000  0.0000  0.0879  0.0596  0.1591  0.2811  0.3580 </r>
       </set>
       <set comment="band 3">
        <r>  0.0000  0.0000  0.0000  0.0000  0.1978  0.2261  0.3580  0.0046  0.1591 </r>
       </set>
       <set comment="band 4">
        <r>  0.0207  0.1328  0.1328  0.1328  0.0561  0.0561  0.0000  0.0561  0.0000 </r>
       </set>
       <set comment="band 5">
        <r>  0.0000  0.0001  0.0000  0.0001  0.0337  0.2309  0.0411  0.2792  0.4013 </r>
       </set>
       <set comment="band 6">
        <r>  0.0000  0.0000  0.0001  0.0001  0.3288  0.1316  0.4013  0.0834  0.0411 </r>
       </set>
       <set comment="band 7">
        <r>  0.3189  0.0237  0.0237  0.0237  0.1358  0.1358  0.0000  0.1358  0.0000 </r>
       </set>
       <set comment="band 8">
        <r>  0.0014  0.0078  0.0078  0.0078  0.0020  0.0020  0.0000  0.0020  0.0000 </r>
       </set>
       <set comment="band 9">
        <r>  0.0000  0.0206  0.2562  0.2867  0.0181  0.0202  0.0053  0.0014  0.0025 </r>
       </set>
       <set comment="band 10">
        <r>  0.0000  0.3551  0.1195  0.0889  0.0084  0.0063  0.0025  0.0250  0.0053 </r>
       </set>
       <set comment="band 11">
        <r>  0.0000  0.0004  0.0118  0.0110  0.1115  0.1038  0.3919  0.0041  0.1223 </r>
       </set>
       <set comment="band 12">
        <r>  0.0000  0.0150  0.0037  0.0045  0.0348  0.0425  0.1223  0.1421  0.3919 </r>
       </set>
      </set>
      <set comment="kpoint 60">
       <set comment="band 1">
        <r>  0.1496  0.0082  0.0082  0.0057  0.1837  0.2557  0.0000  0.1837  0.0000 </r>
       </set>
       <set comment="band 2">
        <r>  0.0002  0.0518  0.0518  0.0314  0.0007  0.0278  0.1571  0.0007  0.4712 </r>
       </set>
       <set comment="band 3">
        <r>  0.0006  0.0409  0.0409  0.0619  0.1578  0.3405  0.0075  0.1578  0.0225 </r>
       </set>
       <set comment="band 4">
        <r>  0.0000  0.0009  0.0009  0.0000  0.1915  0.0000  0.4220  0.1915  0.1407 </r>
       </set>
       <set comment="band 5">
        <r>  0.0000  0.0002  0.0002  0.0000  0.2961  0.0000  0.2949  0.2961  0.0983 </r>
       </set>
       <set comment="band 6">
        <r>  0.0077  0.0686  0.0686  0.0661  0.0280  0.2544  0.0736  0.0280  0.2208 </r>
       </set>
       <set comment="band 7">
        <r>  0.3526  0.0001  0.0001  0.0340  0.1502  0.1301  0.0007  0.1502  0.0020 </r>
       </set>
       <set comment="band 8">
        <r>  0.0434  0.0200  0.0200  0.2012  0.0336  0.0228  0.0373  0.0336  0.1120 </r>
       </set>
       <set comment="band 9">
        <r>  0.0000  0.2321  0.2321  0.0000  0.0128  0.0000  0.1182  0.0128  0.0394 </r>
       </set>
       <set comment="band 10">
        <r>  0.0601  0.0675  0.0675  0.0887  0.0014  0.0544  0.0034  0.0014  0.0101 </r>
       </set>
       <set comment="band 11">
        <r>  0.0000  0.0584  0.0584  0.0000  0.1277  0.0000  0.2441  0.1277  0.0814 </r>
       </set>
       <set comment="band 12">
        <r>  0.0501  0.0000  0.0000  0.0002  0.0007  0.2177  0.0687  0.0007  0.2062 </r>
       </set>
      </set>
     </set>
    </set>
   </array>
  </projected>
 </calculation>
 <structure name="finalpos" >
  <crystal>
   <varray name="basis" >
    <v>       0.00000000       1.89460896       1.89460896 </v>
    <v>       1.89460896       0.00000000       1.89460896 </v>
    <v>       1.89460896       1.89460896       0.00000000 </v>
   </varray>
   <i name="volume">     13.60156111 </i>
   <varray name="rec_basis" >
    <v>      -0.26390670       0.26390670       0.26390670 </v>
    <v>       0.26390670      -0.26390670       0.26390670 </v>
    <v>       0.26390670       0.26390670      -0.26390670 </v>
   </varray>
  </crystal>
  <varray name="positions" >
   <v>       0.00000000       0.00000000       0.00000000 </v>
  </varray>
 </structure>
</modeling>
