Pt-fcc                                  
   1.00000000000000     
     0.000000    1.945302    1.945302
     1.945302    0.000000    1.945302
     1.945302    1.945302    0.000000
   Pt
     1
Direct
  0.000000  0.000000  0.000000
 
   36   36   36
  128.85      128.71      127.86      125.18      119.38      109.63      96.013      79.668      62.462      46.412    
  33.074      23.154      16.471      12.203      9.3927      7.5960      6.5283      5.9735      5.8027      5.9735    
  6.5283      7.5960      9.3927      12.203      16.471      23.154      33.074      46.412      62.462      79.668    
  96.013      109.63      119.38      125.18      127.86      128.71      128.71      128.22      126.43      122.11    
  114.20      102.32      87.125      70.174      53.463      38.805      27.318      19.223      13.964      10.562    
  8.3259      6.9440      6.1644      5.8166      5.8166      6.1644      6.9440      8.3259      10.562      13.964    
  19.223      27.318      38.805      53.463      70.174      87.125      102.32      114.20      122.11      126.43    
  128.22      128.71      127.86      126.43      122.95      116.35      106.02      92.183      76.017      59.317    
  43.961      31.340      22.033      15.787      11.771      9.1036      7.3988      6.3846      5.8568      5.6941    
  5.8568      6.3846      7.3988      9.1036      11.771      15.787      22.033      31.340      43.961      59.317    
  76.017      92.183      106.02      116.35      122.95      126.43      127.86      128.22      125.18      122.11    
  116.35      107.23      94.720      79.633      63.480      48.035      34.809      24.637      17.554      12.940    
  9.8836      7.8704      6.6242      5.9189      5.6033      5.6033      5.9189      6.6242      7.8704      9.8836    
  12.940      17.554      24.637      34.809      48.035      63.480      79.633      94.720      107.23      116.35    
  122.11      125.18      126.43      126.43      119.38      114.20      106.02      94.720      80.854      65.636    
  50.640      37.352      26.753      19.101      13.992      10.610      8.3282      6.8684      5.9960      5.5395    
  5.3983      5.5395      5.9960      6.8684      8.3282      10.610      13.992      19.101      26.753      37.352    
  50.640      65.636      80.854      94.720      106.02      114.20      119.38      122.11      122.95      122.11    
  109.63      102.32      92.183      79.633      65.636      51.534      38.697      28.133      20.253      14.839    
  11.222      8.7370      7.0989      6.0791      5.4972      5.2349      5.2349      5.4972      6.0791      7.0989    
  8.7370      11.222      14.839      20.253      28.133      38.697      51.534      65.636      79.633      92.183    
  102.32      109.63      114.20      116.35      116.35      114.20      96.013      87.125      76.017      63.480    
  50.640      38.697      28.612      20.868      15.392      11.666      9.0608      7.2954      6.1584      5.4710    
  5.1071      4.9936      5.1071      5.4710      6.1584      7.2954      9.0608      11.666      15.392      20.868    
  28.612      38.697      50.640      63.480      76.017      87.125      96.013      102.32      106.02      107.23    
  106.02      102.32      79.668      70.174      59.317      48.035      37.352      28.133      20.868      15.585    
  11.899      9.2691      7.4391      6.2238      5.4561      5.0105      4.8069      4.8069      5.0105      5.4561    
  6.2238      7.4391      9.2691      11.899      15.585      20.868      28.133      37.352      48.035      59.317    
  70.174      79.668      87.125      92.183      94.720      94.720      92.183      87.125      62.462      53.463    
  43.961      34.809      26.753      20.253      15.392      11.899      9.3409      7.5150      6.2668      5.4485    
  4.9426      4.6690      4.5827      4.6690      4.9426      5.4485      6.2668      7.5150      9.3409      11.899    
  15.392      20.253      26.753      34.809      43.961      53.463      62.462      70.174      76.017      79.633    
  80.854      79.633      76.017      70.174      46.412      38.805      31.340      24.637      19.101      14.839    
  11.666      9.2691      7.5150      6.2819      5.4454      4.9021      4.5776      4.4262      4.4262      4.5776    
  4.9021      5.4454      6.2819      7.5150      9.2691      11.666      14.839      19.101      24.637      31.340    
  38.805      46.412      53.463      59.317      63.480      65.636      65.636      63.480      59.317      53.463    
  33.074      27.318      22.033      17.554      13.992      11.222      9.0608      7.4391      6.2668      5.4454    
  4.8886      4.5319      4.3332      4.2693      4.3332      4.5319      4.8886      5.4454      6.2668      7.4391    
  9.0609      11.222      13.992      17.554      22.033      27.318      33.074      38.805      43.961      48.035    
  50.640      51.534      50.640      48.035      43.961      38.805      23.154      19.223      15.787      12.940    
  10.610      8.7370      7.2954      6.2238      5.4485      4.9021      4.5319      4.3023      4.1921      4.1921    
  4.3023      4.5319      4.9021      5.4485      6.2238      7.2955      8.7370      10.610      12.940      15.787    
  19.223      23.154      27.318      31.340      34.809      37.352      38.697      38.697      37.352      34.809    
  31.340      27.318      16.471      13.964      11.771      9.8836      8.3282      7.0989      6.1584      5.4561    
  4.9426      4.5776      4.3332      4.1921      4.1460      4.1921      4.3332      4.5776      4.9426      5.4561    
  6.1584      7.0989      8.3283      9.8836      11.771      13.964      16.471      19.223      22.033      24.637    
  26.753      28.133      28.612      28.133      26.753      24.637      22.033      19.223      12.203      10.562    
  9.1036      7.8704      6.8684      6.0791      5.4710      5.0105      4.6690      4.4262      4.2693      4.1921    
  4.1921      4.2693      4.4262      4.6690      5.0105      5.4710      6.0791      6.8684      7.8704      9.1036    
  10.562      12.203      13.964      15.787      17.554      19.101      20.253      20.868      20.868      20.253    
  19.101      17.554      15.787      13.964      9.3927      8.3259      7.3988      6.6242      5.9960      5.4972    
  5.1071      4.8069      4.5827      4.4262      4.3332      4.3023      4.3332      4.4262      4.5827      4.8069    
  5.1071      5.4972      5.9960      6.6242      7.3988      8.3260      9.3927      10.562      11.771      12.940    
  13.992      14.839      15.392      15.585      15.392      14.839      13.992      12.940      11.771      10.562    
  7.5960      6.9440      6.3846      5.9189      5.5395      5.2349      4.9936      4.8069      4.6690      4.5776    
  4.5319      4.5319      4.5776      4.6690      4.8069      4.9936      5.2349      5.5395      5.9189      6.3846    
  6.9440      7.5960      8.3260      9.1036      9.8836      10.610      11.222      11.666      11.899      11.899    
  11.666      11.222      10.610      9.8836      9.1036      8.3259      6.5283      6.1644      5.8568      5.6033    
  5.3983      5.2349      5.1071      5.0105      4.9426      4.9021      4.8886      4.9021      4.9426      5.0105    
  5.1071      5.2349      5.3983      5.6033      5.8568      6.1644      6.5283      6.9440      7.3988      7.8704    
  8.3283      8.7370      9.0609      9.2691      9.3409      9.2691      9.0608      8.7370      8.3282      7.8704    
  7.3988      6.9440      5.9735      5.8166      5.6941      5.6033      5.5395      5.4972      5.4710      5.4561    
  5.4485      5.4454      5.4454      5.4485      5.4561      5.4710      5.4972      5.5395      5.6033      5.6941    
  5.8166      5.9735      6.1644      6.3846      6.6242      6.8684      7.0989      7.2955      7.4391      7.5150    
  7.5150      7.4391      7.2954      7.0989      6.8684      6.6242      6.3846      6.1644      5.8027      5.8166    
  5.8568      5.9189      5.9960      6.0791      6.1584      6.2238      6.2668      6.2819      6.2668      6.2238    
  6.1584      6.0791      5.9960      5.9189      5.8568      5.8166      5.8027      5.8166      5.8568      5.9189    
  5.9960      6.0791      6.1584      6.2238      6.2668      6.2819      6.2668      6.2238      6.1584      6.0791    
  5.9960      5.9189      5.8568      5.8166      5.9735      6.1644      6.3846      6.6242      6.8684      7.0989    
  7.2954      7.4391      7.5150      7.5150      7.4391      7.2955      7.0989      6.8684      6.6242      6.3846    
  6.1644      5.9735      5.8166      5.6941      5.6033      5.5395      5.4972      5.4710      5.4561      5.4485    
  5.4454      5.4454      5.4485      5.4561      5.4710      5.4972      5.5395      5.6033      5.6941      5.8166    
  6.5283      6.9440      7.3988      7.8704      8.3282      8.7370      9.0608      9.2691      9.3409      9.2691    
  9.0609      8.7370      8.3283      7.8704      7.3988      6.9440      6.5283      6.1644      5.8568      5.6033    
  5.3983      5.2349      5.1071      5.0105      4.9426      4.9021      4.8886      4.9021      4.9426      5.0105    
  5.1071      5.2349      5.3983      5.6033      5.8568      6.1644      7.5960      8.3259      9.1036      9.8836    
  10.610      11.222      11.666      11.899      11.899      11.666      11.222      10.610      9.8836      9.1036    
  8.3260      7.5960      6.9440      6.3846      5.9189      5.5395      5.2349      4.9936      4.8069      4.6690    
  4.5776      4.5319      4.5319      4.5776      4.6690      4.8069      4.9936      5.2349      5.5395      5.9189    
  6.3846      6.9440      9.3927      10.562      11.771      12.940      13.992      14.839      15.392      15.585    
  15.392      14.839      13.992      12.940      11.771      10.562      9.3927      8.3260      7.3988      6.6242    
  5.9960      5.4972      5.1071      4.8069      4.5827      4.4262      4.3332      4.3023      4.3332      4.4262    
  4.5827      4.8069      5.1071      5.4972      5.9960      6.6242      7.3988      8.3259      12.203      13.964    
  15.787      17.554      19.101      20.253      20.868      20.868      20.253      19.101      17.554      15.787    
  13.964      12.203      10.562      9.1036      7.8704      6.8684      6.0791      5.4710      5.0105      4.6690    
  4.4262      4.2693      4.1921      4.1921      4.2693      4.4262      4.6690      5.0105      5.4710      6.0791    
  6.8684      7.8704      9.1036      10.562      16.471      19.223      22.033      24.637      26.753      28.133    
  28.612      28.133      26.753      24.637      22.033      19.223      16.471      13.964      11.771      9.8836    
  8.3283      7.0989      6.1584      5.4561      4.9426      4.5776      4.3332      4.1921      4.1460      4.1921    
  4.3332      4.5776      4.9426      5.4561      6.1584      7.0989      8.3282      9.8836      11.771      13.964    
  23.154      27.318      31.340      34.809      37.352      38.697      38.697      37.352      34.809      31.340    
  27.318      23.154      19.223      15.787      12.940      10.610      8.7370      7.2955      6.2238      5.4485    
  4.9021      4.5319      4.3023      4.1921      4.1921      4.3023      4.5319      4.9021      5.4485      6.2238    
  7.2954      8.7370      10.610      12.940      15.787      19.223      33.074      38.805      43.961      48.035    
  50.640      51.534      50.640      48.035      43.961      38.805      33.074      27.318      22.033      17.554    
  13.992      11.222      9.0609      7.4391      6.2668      5.4454      4.8886      4.5319      4.3332      4.2693    
  4.3332      4.5319      4.8886      5.4454      6.2668      7.4391      9.0608      11.222      13.992      17.554    
  22.033      27.318      46.412      53.463      59.317      63.480      65.636      65.636      63.480      59.317    
  53.463      46.412      38.805      31.340      24.637      19.101      14.839      11.666      9.2691      7.5150    
  6.2819      5.4454      4.9021      4.5776      4.4262      4.4262      4.5776      4.9021      5.4454      6.2819    
  7.5150      9.2691      11.666      14.839      19.101      24.637      31.340      38.805      62.462      70.174    
  76.017      79.633      80.854      79.633      76.017      70.174      62.462      53.463      43.961      34.809    
  26.753      20.253      15.392      11.899      9.3409      7.5150      6.2668      5.4485      4.9426      4.6690    
  4.5827      4.6690      4.9426      5.4485      6.2668      7.5150      9.3409      11.899      15.392      20.253    
  26.753      34.809      43.961      53.463      79.668      87.125      92.183      94.720      94.720      92.183    
  87.125      79.668      70.174      59.317      48.035      37.352      28.133      20.868      15.585      11.899    
  9.2691      7.4391      6.2238      5.4561      5.0105      4.8069      4.8069      5.0105      5.4561      6.2238    
  7.4391      9.2691      11.899      15.585      20.868      28.133      37.352      48.035      59.317      70.174    
  96.013      102.32      106.02      107.23      106.02      102.32      96.013      87.125      76.017      63.480    
  50.640      38.697      28.612      20.868      15.392      11.666      9.0608      7.2954      6.1584      5.4710    
  5.1071      4.9936      5.1071      5.4710      6.1584      7.2954      9.0608      11.666      15.392      20.868    
  28.612      38.697      50.640      63.480      76.017      87.125      109.63      114.20      116.35      116.35    
  114.20      109.63      102.32      92.183      79.633      65.636      51.534      38.697      28.133      20.253    
  14.839      11.222      8.7370      7.0989      6.0791      5.4972      5.2349      5.2349      5.4972      6.0791    
  7.0989      8.7370      11.222      14.839      20.253      28.133      38.697      51.534      65.636      79.633    
  92.183      102.32      119.38      122.11      122.95      122.11      119.38      114.20      106.02      94.720    
  80.854      65.636      50.640      37.352      26.753      19.101      13.992      10.610      8.3282      6.8684    
  5.9960      5.5395      5.3983      5.5395      5.9960      6.8684      8.3282      10.610      13.992      19.101    
  26.753      37.352      50.640      65.636      80.854      94.720      106.02      114.20      125.18      126.43    
  126.43      125.18      122.11      116.35      107.23      94.720      79.633      63.480      48.035      34.809    
  24.637      17.554      12.940      9.8836      7.8704      6.6242      5.9189      5.6033      5.6033      5.9189    
  6.6242      7.8704      9.8836      12.940      17.554      24.637      34.809      48.035      63.480      79.633    
  94.720      107.23      116.35      122.11      127.86      128.22      127.86      126.43      122.95      116.35    
  106.02      92.183      76.017      59.317      43.961      31.340      22.033      15.787      11.771      9.1036    
  7.3988      6.3846      5.8568      5.6941      5.8568      6.3846      7.3988      9.1036      11.771      15.787    
  22.033      31.340      43.961      59.317      76.017      92.183      106.02      116.35      122.95      126.43    
  128.71      128.71      128.22      126.43      122.11      114.20      102.32      87.125      70.174      53.463    
  38.805      27.318      19.223      13.964      10.562      8.3259      6.9440      6.1644      5.8166      5.8166    
  6.1644      6.9440      8.3259      10.562      13.964      19.223      27.318      38.805      53.463      70.174    
  87.125      102.32      114.20      122.11      126.43      128.22      128.71      128.22      126.43      122.11    
  114.20      102.32      87.125      70.174      53.463      38.805      27.318      19.223      13.964      10.562    
  8.3259      6.9440      6.1644      5.8166      5.8166      6.1644      6.9440      8.3259      10.562      13.964    
  19.223      27.318      38.805      53.463      70.174      87.125      102.32      114.20      122.11      126.43    
  128.22      128.71      128.22      126.90      123.60      117.18      106.98      93.202      76.998      60.177    
  44.645      31.834      22.358      15.988      11.901      9.1935      7.4625      6.4331      5.8976      5.7326    
  5.8976      6.4331      7.4625      9.1935      11.901      15.988      22.358      31.834      44.645      60.177    
  76.998      93.202      106.98      117.18      123.59      126.90      128.22      128.53      126.43      123.60    
  118.11      109.21      96.809      81.669      65.302      49.527      35.921      25.393      18.031      13.238    
  10.088      8.0123      6.7282      6.0021      5.6776      5.6776      6.0022      6.7282      8.0123      10.088    
  13.238      18.031      25.393      35.921      49.527      65.302      81.669      96.809      109.21      118.11    
  123.59      126.43      127.53      127.53      122.11      117.18      109.21      97.997      84.025      68.492    
  53.017      39.168      28.021      19.918      14.500      10.949      8.5618      7.0347      6.1234      5.6475    
  5.5004      5.6475      6.1235      7.0347      8.5618      10.949      14.500      19.918      28.021      39.168    
  53.017      68.492      84.025      97.997      109.21      117.18      122.11      124.65      125.41      124.65    
  114.20      106.98      96.809      84.025      69.572      54.829      41.250      29.953      21.450      15.588    
  11.711      9.0722      7.3326      6.2518      5.6368      5.3603      5.3603      5.6368      6.2518      7.3326    
  9.0722      11.711      15.588      21.450      29.953      41.250      54.830      69.572      84.025      96.809    
  106.98      114.20      118.64      120.70      120.70      118.64      102.32      93.202      81.669      68.492    
  54.829      41.966      30.976      22.450      16.393      12.311      9.5021      7.5986      6.3757      5.6395    
  5.2513      5.1306      5.2513      5.6395      6.3757      7.5986      9.5021      12.311      16.393      22.450    
  30.976      41.966      54.830      68.492      81.669      93.202      102.32      108.71      112.43      113.64    
  112.43      108.71      87.125      76.998      65.302      53.017      41.250      30.976      22.798      16.821    
  12.696      9.8133      7.8093      6.4827      5.6493      5.1684      4.9498      4.9498      5.1684      5.6493    
  6.4827      7.8093      9.8133      12.696      16.821      22.798      30.976      41.250      53.017      65.302    
  76.998      87.125      95.011      100.32      102.97      102.97      100.32      95.010      70.174      60.177    
  49.527      39.168      29.953      22.450      16.821      12.829      9.9768      7.9447      6.5615      5.6608    
  5.1085      4.8121      4.7189      4.8121      5.1085      5.6608      6.5615      7.9447      9.9768      12.829    
  16.821      22.450      29.953      39.168      49.527      60.177      70.174      78.680      85.088      89.039    
  90.370      89.039      85.088      78.680      53.463      44.645      35.921      28.021      21.450      16.393    
  12.696      9.9768      7.9915      6.6034      5.6697      5.0694      4.7145      4.5500      4.5500      4.7145    
  5.0694      5.6697      6.6034      7.9915      9.9768      12.696      16.393      21.450      28.021      35.921    
  44.645      53.463      61.583      68.290      73.042      75.498      75.498      73.042      68.290      61.583    
  38.805      31.834      25.393      19.918      15.588      12.311      9.8133      7.9447      6.6034      5.6730    
  5.0500      4.6559      4.4386      4.3691      4.4386      4.6559      5.0500      5.6730      6.6034      7.9447    
  9.8133      12.311      15.588      19.918      25.393      31.834      38.805      45.705      51.883      56.748    
  59.851      60.916      59.851      56.748      51.883      45.705      27.318      22.358      18.031      14.500    
  11.711      9.5021      7.8093      6.5615      5.6697      5.0500      4.6364      4.3830      4.2625      4.2625    
  4.3830      4.6364      5.0500      5.6697      6.5615      7.8093      9.5021      11.711      14.500      18.031    
  22.358      27.318      32.560      37.604      41.941      45.115      46.789      46.789      45.115      41.941    
  37.604      32.560      19.223      15.988      13.238      10.949      9.0722      7.5986      6.4827      5.6608    
  5.0694      4.6559      4.3830      4.2273      4.1766      4.2273      4.3830      4.6559      5.0694      5.6608    
  6.4827      7.5986      9.0722      10.949      13.238      15.988      19.223      22.814      26.491      29.897    
  32.662      34.463      35.089      34.463      32.662      29.897      26.491      22.814      13.964      11.901    
  10.088      8.5618      7.3326      6.3757      5.6493      5.1085      4.7145      4.4386      4.2625      4.1766    
  4.1766      4.2625      4.4386      4.7145      5.1085      5.6493      6.3757      7.3326      8.5618      10.088    
  11.901      13.964      16.260      18.698      21.090      23.194      24.764      25.603      25.603      24.764    
  23.194      21.090      18.698      16.260      10.562      9.1935      8.0123      7.0347      6.2518      5.6395    
  5.1684      4.8121      4.5500      4.3691      4.2625      4.2273      4.2625      4.3691      4.5500      4.8121    
  5.1684      5.6395      6.2518      7.0347      8.0123      9.1935      10.562      12.067      13.638      15.203    
  16.649      17.831      18.608      18.879      18.608      17.831      16.649      15.203      13.638      12.067    
  8.3259      7.4625      6.7282      6.1234      5.6368      5.2513      4.9498      4.7189      4.5500      4.4386    
  4.3830      4.3830      4.4386      4.5500      4.7189      4.9498      5.2513      5.6368      6.1235      6.7282    
  7.4626      8.3260      9.2992      10.341      11.390      12.368      13.198      13.808      14.133      14.133    
  13.808      13.198      12.368      11.390      10.341      9.2992      6.9440      6.4331      6.0021      5.6475    
  5.3603      5.1306      4.9498      4.8121      4.7145      4.6559      4.6364      4.6559      4.7145      4.8121    
  4.9498      5.1306      5.3603      5.6475      6.0021      6.4331      6.9440      7.5298      8.1726      8.8411    
  9.4917      10.073      10.535      10.832      10.934      10.832      10.535      10.073      9.4917      8.8411    
  8.1726      7.5298      6.1644      5.8976      5.6776      5.5004      5.3603      5.2513      5.1684      5.1085    
  5.0694      5.0500      5.0500      5.0694      5.1085      5.1684      5.2513      5.3603      5.5004      5.6776    
  5.8976      6.1644      6.4781      6.8321      7.2125      7.5976      7.9594      8.2672      8.4918      8.6104    
  8.6104      8.4918      8.2672      7.9594      7.5976      7.2125      6.8321      6.4781      5.8166      5.7326    
  5.6776      5.6475      5.6368      5.6395      5.6493      5.6608      5.6697      5.6730      5.6697      5.6608    
  5.6493      5.6395      5.6368      5.6475      5.6776      5.7326      5.8166      5.9314      6.0752      6.2427    
  6.4238      6.6051      6.7706      6.9038      6.9903      7.0203      6.9903      6.9038      6.7706      6.6051    
  6.4238      6.2427      6.0753      5.9314      5.8166      5.8976      6.0022      6.1235      6.2518      6.3757    
  6.4827      6.5615      6.6034      6.6034      6.5615      6.4827      6.3757      6.2518      6.1235      6.0021    
  5.8976      5.8166      5.7630      5.7373      5.7372      5.7581      5.7934      5.8354      5.8761      5.9081    
  5.9257      5.9257      5.9081      5.8761      5.8354      5.7934      5.7581      5.7372      5.7373      5.7630    
  6.1644      6.4331      6.7282      7.0347      7.3326      7.5986      7.8093      7.9447      7.9915      7.9447    
  7.8093      7.5986      7.3326      7.0347      6.7282      6.4331      6.1644      5.9314      5.7373      5.5813    
  5.4596      5.3672      5.2991      5.2508      5.2188      5.2006      5.1947      5.2006      5.2188      5.2508    
  5.2991      5.3672      5.4596      5.5813      5.7373      5.9314      6.9440      7.4625      8.0123      8.5618    
  9.0722      9.5021      9.8133      9.9768      9.9768      9.8133      9.5021      9.0722      8.5618      8.0123    
  7.4626      6.9440      6.4781      6.0752      5.7372      5.4596      5.2351      5.0564      4.9176      4.8152    
  4.7473      4.7135      4.7135      4.7473      4.8152      4.9176      5.0564      5.2351      5.4596      5.7372    
  6.0753      6.4781      8.3259      9.1935      10.088      10.949      11.711      12.311      12.696      12.829    
  12.696      12.311      11.711      10.949      10.088      9.1935      8.3260      7.5298      6.8321      6.2427    
  5.7581      5.3672      5.0564      4.8134      4.6295      4.4999      4.4224      4.3966      4.4224      4.4999    
  4.6295      4.8134      5.0564      5.3672      5.7581      6.2427      6.8321      7.5298      10.562      11.901    
  13.238      14.500      15.588      16.393      16.821      16.821      16.393      15.588      14.500      13.238    
  11.901      10.562      9.2992      8.1726      7.2125      6.4238      5.7934      5.2991      4.9176      4.6295    
  4.4213      4.2852      4.2178      4.2178      4.2852      4.4213      4.6295      4.9176      5.2991      5.7934    
  6.4238      7.2125      8.1726      9.2992      13.964      15.988      18.031      19.918      21.450      22.450    
  22.798      22.450      21.450      19.918      18.031      15.988      13.964      12.067      10.341      8.8411    
  7.5976      6.6051      5.8354      5.2508      4.8152      4.4999      4.2852      4.1600      4.1187      4.1600    
  4.2852      4.4999      4.8152      5.2508      5.8354      6.6051      7.5976      8.8411      10.341      12.067    
  19.223      22.358      25.393      28.021      29.953      30.976      30.976      29.953      28.021      25.393    
  22.358      19.223      16.260      13.638      11.390      9.4917      7.9594      6.7706      5.8761      5.2188    
  4.7473      4.4224      4.2178      4.1187      4.1187      4.2178      4.4224      4.7473      5.2188      5.8761    
  6.7706      7.9594      9.4917      11.390      13.638      16.260      27.318      31.834      35.921      39.168    
  41.250      41.966      41.250      39.168      35.921      31.834      27.318      22.814      18.698      15.203    
  12.368      10.073      8.2672      6.9038      5.9081      5.2006      4.7135      4.3966      4.2178      4.1600    
  4.2178      4.3966      4.7135      5.2006      5.9081      6.9038      8.2672      10.073      12.368      15.203    
  18.698      22.814      38.805      44.645      49.527      53.017      54.830      54.830      53.017      49.527    
  44.645      38.805      32.560      26.491      21.090      16.649      13.198      10.535      8.4918      6.9903    
  5.9257      5.1947      4.7135      4.4224      4.2852      4.2852      4.4224      4.7135      5.1948      5.9257    
  6.9903      8.4918      10.535      13.198      16.649      21.090      26.491      32.560      53.463      60.177    
  65.302      68.492      69.572      68.492      65.302      60.177      53.463      45.705      37.604      29.897    
  23.194      17.831      13.808      10.832      8.6104      7.0203      5.9257      5.2006      4.7473      4.4999    
  4.4213      4.4999      4.7473      5.2006      5.9257      7.0203      8.6104      10.832      13.808      17.831    
  23.194      29.897      37.604      45.705      70.174      76.998      81.669      84.025      84.025      81.669    
  76.998      70.174      61.583      51.883      41.941      32.662      24.764      18.608      14.133      10.934    
  8.6104      6.9903      5.9081      5.2188      4.8152      4.6295      4.6295      4.8152      5.2188      5.9081    
  6.9903      8.6104      10.934      14.133      18.608      24.764      32.662      41.941      51.883      61.583    
  87.125      93.202      96.809      97.997      96.809      93.202      87.125      78.680      68.290      56.748    
  45.115      34.463      25.603      18.879      14.133      10.832      8.4918      6.9038      5.8761      5.2508    
  4.9176      4.8134      4.9176      5.2508      5.8761      6.9038      8.4918      10.832      14.133      18.879    
  25.603      34.463      45.115      56.748      68.290      78.680      102.32      106.98      109.21      109.21    
  106.98      102.32      95.011      85.088      73.042      59.851      46.789      35.089      25.603      18.608    
  13.808      10.535      8.2672      6.7706      5.8354      5.2991      5.0564      5.0564      5.2991      5.8354    
  6.7706      8.2672      10.535      13.808      18.608      25.603      35.089      46.789      59.851      73.042    
  85.088      95.010      114.20      117.18      118.11      117.18      114.20      108.71      100.32      89.039    
  75.498      60.916      46.789      34.463      24.764      17.831      13.198      10.073      7.9594      6.6051    
  5.7934      5.3672      5.2351      5.3672      5.7934      6.6051      7.9594      10.073      13.198      17.831    
  24.764      34.463      46.789      60.916      75.498      89.039      100.32      108.71      122.11      123.59    