       N       E                     dE             d eps       ncg     rms          rms(c)
DAV:   1     0.156651991698E+02    0.15665E+02   -0.11833E+04  5928   0.598E+02
DAV:   2    -0.634777707162E+01   -0.22013E+02   -0.21688E+02  6912   0.888E+01
DAV:   3    -0.637893074366E+01   -0.31154E-01   -0.31153E-01  6864   0.374E+00
DAV:   4    -0.637895030016E+01   -0.19557E-04   -0.19556E-04  8352   0.660E-02
DAV:   5    -0.637895030214E+01   -0.19800E-08   -0.54116E-09  6792   0.267E-04    0.164E+01
DAV:   6    -0.605533646069E+01    0.32361E+00   -0.11348E+00  5952   0.488E+00    0.564E+00
DAV:   7    -0.603440756216E+01    0.20929E-01   -0.88840E-02  7992   0.116E+00    0.165E+00
DAV:   8    -0.603276033765E+01    0.16472E-02   -0.45364E-03  5664   0.509E-01    0.183E-01
DAV:   9    -0.603267717766E+01    0.83160E-04   -0.73202E-05  7128   0.639E-02    0.160E-02
DAV:  10    -0.603268216717E+01   -0.49895E-05   -0.45313E-06  7512   0.119E-02    0.529E-03
DAV:  11    -0.603268211612E+01    0.51047E-07   -0.35684E-09  3624   0.417E-04
   1 F= -.60326821E+01 E0= -.60315207E+01  d E =-.603268E+01
