   2   2   1   0
  0.1064014E+02  0.2472000E-09  0.2472000E-09  0.4021144E-09  0.5000000E-15
  1.000000000000000E-004
  CAR 
 Co-hcc                                  
     37.52539215     -0.20516583  301     10.50610062      1.00000000
     -0.205  0.0000E+00  0.0000E+00  0.0000E+00  0.0000E+00
     -0.079  0.0000E+00  0.0000E+00  0.0000E+00  0.0000E+00
      0.046  0.0000E+00  0.0000E+00  0.0000E+00  0.0000E+00
      0.172  0.0000E+00  0.0000E+00  0.0000E+00  0.0000E+00
      0.298  0.0000E+00  0.0000E+00  0.0000E+00  0.0000E+00
      0.424  0.0000E+00  0.0000E+00  0.0000E+00  0.0000E+00
      0.549  0.0000E+00  0.0000E+00  0.0000E+00  0.0000E+00
      0.675  0.0000E+00  0.0000E+00  0.0000E+00  0.0000E+00
      0.801  0.0000E+00  0.0000E+00  0.0000E+00  0.0000E+00
      0.927  0.0000E+00  0.0000E+00  0.0000E+00  0.0000E+00
      1.053  0.0000E+00  0.0000E+00  0.0000E+00  0.0000E+00
      1.178  0.0000E+00  0.0000E+00  0.0000E+00  0.0000E+00
      1.304  0.2019E-10  0.1733E-10  0.2539E-11  0.2179E-11
      1.430  0.8141E-04  0.7616E-04  0.1024E-04  0.9578E-05
      1.556  0.6154E-02  0.6128E-02  0.7843E-03  0.7802E-03
      1.681  0.1016E-01  0.9896E-02  0.2062E-02  0.2025E-02
      1.807  0.4247E-01  0.4240E-01  0.7404E-02  0.7358E-02
      1.933  0.6157E-01  0.5967E-01  0.1515E-01  0.1486E-01
      2.059  0.2474E-01  0.2693E-01  0.1826E-01  0.1825E-01
      2.184  0.1486E-01  0.1397E-01  0.2013E-01  0.2001E-01
      2.310  0.4350E-01  0.4233E-01  0.2560E-01  0.2533E-01
      2.436  0.1569E+00  0.1519E+00  0.4534E-01  0.4443E-01
      2.562  0.5045E-01  0.5529E-01  0.5168E-01  0.5138E-01
      2.688  0.7670E-01  0.7653E-01  0.6133E-01  0.6101E-01
      2.813  0.2921E-01  0.2004E-01  0.6500E-01  0.6353E-01
      2.939  0.6958E-01  0.8037E-01  0.7375E-01  0.7364E-01
      3.065  0.7637E-01  0.4351E-01  0.8336E-01  0.7911E-01
      3.191  0.1636E+00  0.1800E+00  0.1039E+00  0.1018E+00
      3.316  0.1470E+00  0.1169E+00  0.1224E+00  0.1165E+00
      3.442  0.2854E-01  0.7488E-01  0.1260E+00  0.1259E+00
      3.568  0.1021E+00  0.5858E-01  0.1389E+00  0.1332E+00
      3.694  0.2206E+00  0.1129E+00  0.1666E+00  0.1474E+00
      3.819  0.1446E+00  0.2809E+00  0.1848E+00  0.1828E+00
      3.945  0.1998E-01  0.1693E-01  0.1873E+00  0.1849E+00
      4.071  0.1388E+00  0.6410E-01  0.2048E+00  0.1930E+00
      4.197  0.4516E-01  0.1056E+00  0.2104E+00  0.2062E+00
      4.323  0.2967E+00  0.6485E-01  0.2477E+00  0.2144E+00
      4.448  0.2713E+00  0.3132E+00  0.2819E+00  0.2538E+00
      4.574  0.1919E+00  0.2236E+00  0.3060E+00  0.2819E+00
      4.700  0.2436E+00  0.1474E+00  0.3366E+00  0.3004E+00
      4.826  0.1906E+00  0.1530E+00  0.3606E+00  0.3197E+00
      4.951  0.1059E+00  0.1761E+00  0.3739E+00  0.3418E+00
      5.077  0.3837E+00  0.1417E+00  0.4222E+00  0.3597E+00
      5.203  0.2555E+00  0.1435E+00  0.4543E+00  0.3777E+00
      5.329  0.8712E+00  0.2482E+00  0.5639E+00  0.4089E+00
      5.454  0.1079E+01  0.2208E+00  0.6996E+00  0.4367E+00
      5.580  0.8833E+00  0.2541E+00  0.8107E+00  0.4686E+00
      5.706  0.9180E+00  0.2991E+00  0.9262E+00  0.5063E+00
      5.832  0.1641E+01  0.3274E+00  0.1132E+01  0.5474E+00
      5.957  0.1208E+01  0.4074E+00  0.1284E+01  0.5987E+00
      6.083  0.1618E+01  0.3533E+00  0.1488E+01  0.6431E+00
      6.209  0.2223E+01  0.6224E+00  0.1768E+01  0.7214E+00
      6.335  0.1372E+01  0.3298E+00  0.1940E+01  0.7629E+00
      6.461  0.1506E+01  0.7144E+00  0.2129E+01  0.8527E+00
      6.586  0.1615E+01  0.8431E+00  0.2333E+01  0.9587E+00
      6.712  0.1909E+01  0.1062E+01  0.2573E+01  0.1092E+01
      6.838  0.1577E+01  0.8970E+00  0.2771E+01  0.1205E+01
      6.964  0.2121E+01  0.8292E+00  0.3038E+01  0.1309E+01
      7.089  0.2056E+01  0.9810E+00  0.3296E+01  0.1433E+01
      7.215  0.2252E+01  0.9819E+00  0.3579E+01  0.1556E+01
      7.341  0.1367E+01  0.1718E+01  0.3751E+01  0.1772E+01
      7.467  0.9821E+00  0.1235E+01  0.3875E+01  0.1928E+01
      7.592  0.1781E+01  0.1346E+01  0.4099E+01  0.2097E+01
      7.718  0.2974E+01  0.1158E+01  0.4473E+01  0.2243E+01
      7.844  0.2800E+01  0.1266E+01  0.4825E+01  0.2402E+01
      7.970  0.2618E+01  0.1472E+01  0.5154E+01  0.2587E+01
      8.096  0.2869E+01  0.1453E+01  0.5515E+01  0.2770E+01
      8.221  0.2800E+01  0.1876E+01  0.5867E+01  0.3006E+01
      8.347  0.3329E+01  0.1802E+01  0.6286E+01  0.3232E+01
      8.473  0.2580E+01  0.2269E+01  0.6610E+01  0.3518E+01
      8.599  0.2426E+01  0.1275E+01  0.6916E+01  0.3678E+01
      8.724  0.1867E+01  0.8406E+00  0.7150E+01  0.3784E+01
      8.850  0.1687E+01  0.8861E+00  0.7363E+01  0.3895E+01
      8.976  0.2237E+01  0.8826E+00  0.7644E+01  0.4006E+01
      9.102  0.1734E+01  0.2097E+01  0.7862E+01  0.4270E+01
      9.227  0.1240E+01  0.2206E+01  0.8018E+01  0.4547E+01
      9.353  0.1670E+01  0.2173E+01  0.8228E+01  0.4821E+01
      9.479  0.2905E+01  0.2520E+01  0.8593E+01  0.5138E+01
      9.605  0.2272E+01  0.2423E+01  0.8879E+01  0.5442E+01
      9.731  0.3394E+01  0.2619E+01  0.9306E+01  0.5772E+01
      9.856  0.4352E+01  0.2687E+01  0.9853E+01  0.6110E+01
      9.982  0.3941E+01  0.2884E+01  0.1035E+02  0.6472E+01
     10.108  0.7713E+00  0.2308E+01  0.1045E+02  0.6763E+01
     10.234  0.1515E+00  0.1424E+01  0.1046E+02  0.6942E+01
     10.359  0.2290E+00  0.1659E+01  0.1049E+02  0.7150E+01
     10.485  0.8411E+00  0.1743E+01  0.1060E+02  0.7370E+01
     10.611  0.4863E+00  0.1006E+01  0.1066E+02  0.7496E+01
     10.737  0.2289E+00  0.1796E+01  0.1069E+02  0.7722E+01
     10.862  0.2942E+00  0.1609E+01  0.1073E+02  0.7924E+01
     10.988  0.1453E+00  0.8701E+00  0.1074E+02  0.8034E+01
     11.114  0.1111E+00  0.1454E+01  0.1076E+02  0.8217E+01
     11.240  0.6687E-01  0.2114E+01  0.1077E+02  0.8483E+01
     11.366  0.1471E+00  0.2111E+01  0.1079E+02  0.8748E+01
     11.491  0.3567E+00  0.2307E+01  0.1083E+02  0.9038E+01
     11.617  0.3826E+00  0.2903E+01  0.1088E+02  0.9403E+01
     11.743  0.6397E+00  0.4325E+01  0.1096E+02  0.9947E+01
     11.869  0.4697E+00  0.3513E+01  0.1102E+02  0.1039E+02
     11.994  0.3473E+00  0.1131E+01  0.1106E+02  0.1053E+02
     12.120  0.5840E-01  0.8630E+00  0.1107E+02  0.1064E+02
     12.246  0.2080E+00  0.3806E+00  0.1110E+02  0.1069E+02
     12.372  0.1853E+00  0.4331E+00  0.1112E+02  0.1074E+02
     12.497  0.1934E+00  0.3218E+00  0.1114E+02  0.1078E+02
     12.623  0.3308E+00  0.2323E+00  0.1118E+02  0.1081E+02
     12.749  0.1347E+00  0.4138E+00  0.1120E+02  0.1086E+02
     12.875  0.1198E+00  0.3597E+00  0.1122E+02  0.1091E+02
     13.001  0.3691E+00  0.3099E+00  0.1126E+02  0.1095E+02
     13.126  0.2139E+00  0.5007E+00  0.1129E+02  0.1101E+02
     13.252  0.1098E+00  0.5110E+00  0.1130E+02  0.1108E+02
     13.378  0.4152E+00  0.2898E+00  0.1136E+02  0.1111E+02
     13.504  0.2786E+00  0.2414E+00  0.1139E+02  0.1114E+02
     13.629  0.8697E-01  0.4145E+00  0.1140E+02  0.1119E+02
     13.755  0.5615E-01  0.1224E+00  0.1141E+02  0.1121E+02
     13.881  0.2961E+00  0.1538E+00  0.1145E+02  0.1123E+02
     14.007  0.2074E+00  0.1807E+00  0.1147E+02  0.1125E+02
     14.132  0.4669E+00  0.5594E+00  0.1153E+02  0.1132E+02
     14.258  0.4022E+00  0.6757E-01  0.1158E+02  0.1133E+02
     14.384  0.1292E+00  0.2935E+00  0.1160E+02  0.1137E+02
     14.510  0.1050E+00  0.1667E+00  0.1161E+02  0.1139E+02
     14.636  0.3180E+00  0.1950E+00  0.1165E+02  0.1141E+02
     14.761  0.2266E+00  0.2888E+00  0.1168E+02  0.1145E+02
     14.887  0.1956E+00  0.4376E+00  0.1170E+02  0.1150E+02
     15.013  0.5821E-01  0.4071E+00  0.1171E+02  0.1156E+02
     15.139  0.1020E+00  0.2634E+00  0.1172E+02  0.1159E+02
     15.264  0.2137E+00  0.7714E-01  0.1175E+02  0.1160E+02
     15.390  0.5350E-01  0.8671E-01  0.1176E+02  0.1161E+02
     15.516  0.8801E-01  0.3095E+00  0.1177E+02  0.1165E+02
     15.642  0.1642E+00  0.3905E+00  0.1179E+02  0.1170E+02
     15.767  0.6230E-01  0.1308E+00  0.1180E+02  0.1171E+02
     15.893  0.1949E+00  0.1562E+00  0.1182E+02  0.1173E+02
     16.019  0.5541E+00  0.1639E+00  0.1189E+02  0.1175E+02
     16.145  0.2805E+00  0.3880E-01  0.1193E+02  0.1176E+02
     16.271  0.1628E+00  0.2067E+00  0.1195E+02  0.1178E+02
     16.396  0.7418E-01  0.4101E-01  0.1196E+02  0.1179E+02
     16.522  0.8100E-01  0.1778E+00  0.1197E+02  0.1181E+02
     16.648  0.7961E-03  0.2168E+00  0.1197E+02  0.1184E+02
     16.774  0.1557E-04  0.4466E+00  0.1197E+02  0.1190E+02
     16.899  0.2153E-01  0.3652E+00  0.1197E+02  0.1194E+02
     17.025  0.9489E-01  0.1056E+00  0.1198E+02  0.1196E+02
     17.151  0.1569E+00  0.5194E-01  0.1200E+02  0.1196E+02
     17.277  0.9510E-01  0.4256E-01  0.1201E+02  0.1197E+02
     17.402  0.8306E-01  0.1774E-04  0.1202E+02  0.1197E+02
     17.528  0.5631E-01  0.3913E-03  0.1203E+02  0.1197E+02
     17.654  0.2962E-01  0.5211E-01  0.1203E+02  0.1197E+02
     17.780  0.1417E+00  0.1475E+00  0.1205E+02  0.1199E+02
     17.906  0.7213E-01  0.3477E-01  0.1206E+02  0.1200E+02
     18.031  0.1442E+00  0.4710E-01  0.1208E+02  0.1200E+02
     18.157  0.2543E+00  0.1054E+00  0.1211E+02  0.1202E+02
     18.283  0.4687E+00  0.1382E+00  0.1217E+02  0.1203E+02
     18.409  0.8481E+00  0.5736E-01  0.1228E+02  0.1204E+02
     18.534  0.3951E+00  0.1528E+00  0.1233E+02  0.1206E+02
     18.660  0.3465E+00  0.6926E-02  0.1237E+02  0.1206E+02
     18.786  0.2308E+00  0.1595E+00  0.1240E+02  0.1208E+02
     18.912  0.4735E+00  0.2682E+00  0.1246E+02  0.1211E+02
     19.037  0.2516E+00  0.6512E+00  0.1249E+02  0.1220E+02
     19.163  0.2541E+00  0.5769E+00  0.1252E+02  0.1227E+02
     19.289  0.5616E+00  0.3603E+00  0.1259E+02  0.1231E+02
     19.415  0.3051E+00  0.4994E+00  0.1263E+02  0.1238E+02
     19.540  0.1890E+00  0.3632E+00  0.1266E+02  0.1242E+02
     19.666  0.2480E+00  0.4037E+00  0.1269E+02  0.1247E+02
     19.792  0.1629E+00  0.2556E+00  0.1271E+02  0.1251E+02
     19.918  0.5053E+00  0.5153E+00  0.1277E+02  0.1257E+02
     20.044  0.1790E+00  0.4624E+00  0.1279E+02  0.1263E+02
     20.169  0.4356E+00  0.1805E+00  0.1285E+02  0.1265E+02
     20.295  0.1272E+00  0.2183E+00  0.1286E+02  0.1268E+02
     20.421  0.3695E+00  0.2786E+00  0.1291E+02  0.1271E+02
     20.547  0.2053E+00  0.5054E+00  0.1294E+02  0.1278E+02
     20.672  0.6306E+00  0.2705E+00  0.1302E+02  0.1281E+02
     20.798  0.2142E+00  0.2900E+00  0.1304E+02  0.1285E+02
     20.924  0.3498E+00  0.2886E+00  0.1309E+02  0.1288E+02
     21.050  0.6013E+00  0.2731E+00  0.1316E+02  0.1292E+02
     21.175  0.6481E+00  0.2837E+00  0.1324E+02  0.1295E+02
     21.301  0.1228E+00  0.5793E+00  0.1326E+02  0.1303E+02
     21.427  0.8798E-01  0.3766E+00  0.1327E+02  0.1307E+02
     21.553  0.3069E+00  0.6745E+00  0.1331E+02  0.1316E+02
     21.679  0.8762E+00  0.5949E+00  0.1342E+02  0.1323E+02
     21.804  0.3074E+00  0.1765E+00  0.1346E+02  0.1326E+02
     21.930  0.1797E+00  0.8840E-01  0.1348E+02  0.1327E+02
     22.056  0.3687E+00  0.3062E+00  0.1353E+02  0.1331E+02
     22.182  0.1565E+00  0.8399E+00  0.1355E+02  0.1341E+02
     22.307  0.3512E+00  0.3809E+00  0.1359E+02  0.1346E+02
     22.433  0.2327E+00  0.2977E+00  0.1362E+02  0.1350E+02
     22.559  0.5166E+00  0.2392E+00  0.1368E+02  0.1353E+02
     22.685  0.3702E+00  0.3871E+00  0.1373E+02  0.1358E+02
     22.810  0.3262E+00  0.1734E+00  0.1377E+02  0.1360E+02
     22.936  0.3719E+00  0.3767E+00  0.1382E+02  0.1364E+02
     23.062  0.1114E+00  0.4136E+00  0.1383E+02  0.1370E+02
     23.188  0.8506E-01  0.3937E+00  0.1384E+02  0.1375E+02
     23.314  0.4523E+00  0.2270E+00  0.1390E+02  0.1377E+02
     23.439  0.3398E+00  0.4121E+00  0.1394E+02  0.1383E+02
     23.565  0.1213E+00  0.6419E-01  0.1396E+02  0.1383E+02
     23.691  0.7946E-01  0.2916E+00  0.1397E+02  0.1387E+02
     23.817  0.3972E+00  0.2712E+00  0.1402E+02  0.1391E+02
     23.942  0.3451E+00  0.3209E+00  0.1406E+02  0.1395E+02
     24.068  0.6039E+00  0.1371E+00  0.1414E+02  0.1396E+02
     24.194  0.1818E+00  0.9517E-01  0.1416E+02  0.1397E+02
     24.320  0.3906E+00  0.5393E+00  0.1421E+02  0.1404E+02
     24.445  0.1201E+00  0.5196E+00  0.1423E+02  0.1411E+02
     24.571  0.3454E-01  0.3539E+00  0.1423E+02  0.1415E+02
     24.697  0.4301E+00  0.2731E+00  0.1428E+02  0.1419E+02
     24.823  0.7770E+00  0.2447E+00  0.1438E+02  0.1422E+02
     24.949  0.3065E+00  0.8975E-01  0.1442E+02  0.1423E+02
     25.074  0.2916E+00  0.2457E+00  0.1446E+02  0.1426E+02
     25.200  0.1117E+00  0.7343E+00  0.1447E+02  0.1435E+02
     25.326  0.2729E+00  0.5382E+00  0.1450E+02  0.1442E+02
     25.452  0.2402E+00  0.2175E+00  0.1453E+02  0.1445E+02
     25.577  0.5499E+00  0.1510E+00  0.1460E+02  0.1447E+02
     25.703  0.2188E+00  0.2189E+00  0.1463E+02  0.1449E+02
     25.829  0.5126E+00  0.2313E+00  0.1470E+02  0.1452E+02
     25.955  0.4842E+00  0.6135E+00  0.1476E+02  0.1460E+02
     26.080  0.2774E+00  0.2464E+00  0.1479E+02  0.1463E+02
     26.206  0.4281E+00  0.5550E+00  0.1485E+02  0.1470E+02
     26.332  0.5757E+00  0.5229E+00  0.1492E+02  0.1477E+02
     26.458  0.2373E+00  0.2473E+00  0.1495E+02  0.1480E+02
     26.584  0.3976E+00  0.5655E+00  0.1500E+02  0.1487E+02
     26.709  0.1053E+00  0.3993E+00  0.1501E+02  0.1492E+02
     26.835  0.7457E-01  0.2428E+00  0.1502E+02  0.1495E+02
     26.961  0.1984E-01  0.4302E+00  0.1502E+02  0.1500E+02
     27.087  0.5012E+00  0.6603E-01  0.1509E+02  0.1501E+02
     27.212  0.3157E+00  0.1080E+00  0.1513E+02  0.1503E+02
     27.338  0.2006E+00  0.1475E+00  0.1515E+02  0.1504E+02
     27.464  0.2431E+00  0.5721E+00  0.1518E+02  0.1512E+02
     27.590  0.2689E+00  0.2112E+00  0.1522E+02  0.1514E+02
     27.715  0.4733E+00  0.2624E+00  0.1528E+02  0.1518E+02
     27.841  0.3420E+00  0.1011E+00  0.1532E+02  0.1519E+02
     27.967  0.5687E-02  0.4554E+00  0.1532E+02  0.1525E+02
     28.093  0.2072E+00  0.4783E+00  0.1534E+02  0.1531E+02
     28.219  0.4502E+00  0.1018E+00  0.1540E+02  0.1532E+02
     28.344  0.3876E+00  0.1355E+00  0.1545E+02  0.1534E+02
     28.470  0.1685E+00  0.3849E+00  0.1547E+02  0.1538E+02
     28.596  0.2750E-01  0.4062E+00  0.1547E+02  0.1544E+02
     28.722  0.1141E-01  0.2831E+00  0.1548E+02  0.1547E+02
     28.847  0.9134E-01  0.3231E-01  0.1549E+02  0.1547E+02
     28.973  0.1462E+00  0.3438E-01  0.1551E+02  0.1548E+02
     29.099  0.1718E+00  0.8042E-01  0.1553E+02  0.1549E+02
     29.225  0.3192E+00  0.1725E+00  0.1557E+02  0.1551E+02
     29.350  0.3314E+00  0.1107E+00  0.1561E+02  0.1552E+02
     29.476  0.3754E-01  0.3780E+00  0.1561E+02  0.1557E+02
     29.602  0.1278E+00  0.2445E+00  0.1563E+02  0.1560E+02
     29.728  0.1428E+00  0.1201E+00  0.1565E+02  0.1562E+02
     29.854  0.2009E+00  0.1160E+00  0.1567E+02  0.1563E+02
     29.979  0.8517E-01  0.1490E+00  0.1568E+02  0.1565E+02
     30.105  0.1287E+00  0.1478E+00  0.1570E+02  0.1567E+02
     30.231  0.6935E-01  0.1732E+00  0.1571E+02  0.1569E+02
     30.357  0.1313E+00  0.6775E-01  0.1573E+02  0.1570E+02
     30.482  0.1030E+00  0.4034E-01  0.1574E+02  0.1571E+02
     30.608  0.2859E-01  0.2585E+00  0.1574E+02  0.1574E+02
     30.734  0.7498E-01  0.3247E-01  0.1575E+02  0.1574E+02
     30.860  0.7773E-01  0.3370E-01  0.1576E+02  0.1575E+02
     30.985  0.8364E-01  0.1298E+00  0.1577E+02  0.1576E+02
     31.111  0.1939E+00  0.1358E+00  0.1580E+02  0.1578E+02
     31.237  0.1418E+00  0.1641E+00  0.1581E+02  0.1580E+02
     31.363  0.2373E-01  0.3410E-01  0.1582E+02  0.1580E+02
     31.489  0.1470E+00  0.8394E-01  0.1584E+02  0.1582E+02
     31.614  0.1605E-01  0.1739E+00  0.1584E+02  0.1584E+02
     31.740  0.1105E+00  0.1303E-01  0.1585E+02  0.1584E+02
     31.866  0.5474E-01  0.7291E-01  0.1586E+02  0.1585E+02
     31.992  0.2060E-01  0.4823E-01  0.1586E+02  0.1585E+02
     32.117  0.1991E+00  0.7903E-01  0.1589E+02  0.1586E+02
     32.243  0.3347E-01  0.1518E+00  0.1589E+02  0.1588E+02
     32.369  0.1054E+00  0.1422E+00  0.1590E+02  0.1590E+02
     32.495  0.4871E-01  0.6148E-01  0.1591E+02  0.1591E+02
     32.620  0.4877E-01  0.7640E-01  0.1592E+02  0.1592E+02
     32.746  0.1544E-01  0.7209E-03  0.1592E+02  0.1592E+02
     32.872  0.6268E-02  0.3738E-01  0.1592E+02  0.1592E+02
     32.998  0.7536E-01  0.5888E-01  0.1593E+02  0.1593E+02
     33.123  0.1323E-01  0.6779E-02  0.1593E+02  0.1593E+02
     33.249  0.3400E-01  0.1697E-01  0.1593E+02  0.1593E+02
     33.375  0.1274E+00  0.9509E-01  0.1595E+02  0.1595E+02
     33.501  0.1253E+00  0.1080E+00  0.1597E+02  0.1596E+02
     33.627  0.7813E-01  0.8344E-02  0.1598E+02  0.1596E+02
     33.752  0.6062E-03  0.3368E-01  0.1598E+02  0.1596E+02
     33.878  0.1042E-09  0.6945E-01  0.1598E+02  0.1597E+02
     34.004  0.1246E-03  0.3474E-01  0.1598E+02  0.1598E+02
     34.130  0.1212E-01  0.1963E-03  0.1598E+02  0.1598E+02
     34.255  0.5332E-01  0.6320E-01  0.1598E+02  0.1599E+02
     34.381  0.3106E-01  0.1943E-01  0.1599E+02  0.1599E+02
     34.507  0.4401E-05  0.5518E-05  0.1599E+02  0.1599E+02
     34.633  0.8097E-06  0.7792E-02  0.1599E+02  0.1599E+02
     34.758  0.5384E-02  0.1165E-01  0.1599E+02  0.1599E+02
     34.884  0.2683E-01  0.8363E-02  0.1599E+02  0.1599E+02
     35.010  0.3660E-01  0.3439E-01  0.1600E+02  0.1600E+02
     35.136  0.2121E-03  0.6826E-02  0.1600E+02  0.1600E+02
     35.262  0.1879E-10  0.2186E-05  0.1600E+02  0.1600E+02
     35.387  0.7839E-08  0.6577E-02  0.1600E+02  0.1600E+02
     35.513  0.1969E-02  0.7222E-02  0.1600E+02  0.1600E+02
     35.639  0.2511E-01  0.2478E-04  0.1600E+02  0.1600E+02
     35.765  0.5330E-03  0.6139E-02  0.1600E+02  0.1600E+02
     35.890  0.2880E-09  0.7562E-02  0.1600E+02  0.1600E+02
     36.016  0.0000E+00  0.8146E-04  0.1600E+02  0.1600E+02
     36.142  0.0000E+00  0.2019E-10  0.1600E+02  0.1600E+02
     36.268  0.0000E+00  0.0000E+00  0.1600E+02  0.1600E+02
     36.393  0.0000E+00  0.0000E+00  0.1600E+02  0.1600E+02
     36.519  0.0000E+00  0.0000E+00  0.1600E+02  0.1600E+02
     36.645  0.0000E+00  0.0000E+00  0.1600E+02  0.1600E+02
     36.771  0.0000E+00  0.0000E+00  0.1600E+02  0.1600E+02
     36.897  0.0000E+00  0.0000E+00  0.1600E+02  0.1600E+02
     37.022  0.0000E+00  0.0000E+00  0.1600E+02  0.1600E+02
     37.148  0.0000E+00  0.0000E+00  0.1600E+02  0.1600E+02
     37.274  0.0000E+00  0.0000E+00  0.1600E+02  0.1600E+02
     37.400  0.0000E+00  0.0000E+00  0.1600E+02  0.1600E+02
     37.525  0.0000E+00  0.0000E+00  0.1600E+02  0.1600E+02
     37.52539215     -0.20516583  301     10.50610062      1.00000000
     -0.205  0.0000E+00  0.0000E+00  0.0000E+00  0.0000E+00  0.0000E+00  0.0000E+00  0.0000E+00  0.0000E+00  0.0000E+00  0.0000E+00  0.0000E+00  0.0000E+00  0.0000E+00  0.0000E+00  0.0000E+00  0.0000E+00  0.0000E+00  0.0000E+00
     -0.079  0.0000E+00  0.0000E+00  0.0000E+00  0.0000E+00  0.0000E+00  0.0000E+00  0.0000E+00  0.0000E+00  0.0000E+00  0.0000E+00  0.0000E+00  0.0000E+00  0.0000E+00  0.0000E+00  0.0000E+00  0.0000E+00  0.0000E+00  0.0000E+00
      0.046  0.0000E+00  0.0000E+00  0.0000E+00  0.0000E+00  0.0000E+00  0.0000E+00  0.0000E+00  0.0000E+00  0.0000E+00  0.0000E+00  0.0000E+00  0.0000E+00  0.0000E+00  0.0000E+00  0.0000E+00  0.0000E+00  0.0000E+00  0.0000E+00
      0.172  0.0000E+00  0.0000E+00  0.0000E+00  0.0000E+00  0.0000E+00  0.0000E+00  0.0000E+00  0.0000E+00  0.0000E+00  0.0000E+00  0.0000E+00  0.0000E+00  0.0000E+00  0.0000E+00  0.0000E+00  0.0000E+00  0.0000E+00  0.0000E+00
      0.298  0.0000E+00  0.0000E+00  0.0000E+00  0.0000E+00  0.0000E+00  0.0000E+00  0.0000E+00  0.0000E+00  0.0000E+00  0.0000E+00  0.0000E+00  0.0000E+00  0.0000E+00  0.0000E+00  0.0000E+00  0.0000E+00  0.0000E+00  0.0000E+00
      0.424  0.0000E+00  0.0000E+00  0.0000E+00  0.0000E+00  0.0000E+00  0.0000E+00  0.0000E+00  0.0000E+00  0.0000E+00  0.0000E+00  0.0000E+00  0.0000E+00  0.0000E+00  0.0000E+00  0.0000E+00  0.0000E+00  0.0000E+00  0.0000E+00
      0.549  0.0000E+00  0.0000E+00  0.0000E+00  0.0000E+00  0.0000E+00  0.0000E+00  0.0000E+00  0.0000E+00  0.0000E+00  0.0000E+00  0.0000E+00  0.0000E+00  0.0000E+00  0.0000E+00  0.0000E+00  0.0000E+00  0.0000E+00  0.0000E+00
      0.675  0.0000E+00  0.0000E+00  0.0000E+00  0.0000E+00  0.0000E+00  0.0000E+00  0.0000E+00  0.0000E+00  0.0000E+00  0.0000E+00  0.0000E+00  0.0000E+00  0.0000E+00  0.0000E+00  0.0000E+00  0.0000E+00  0.0000E+00  0.0000E+00
      0.801  0.0000E+00  0.0000E+00  0.0000E+00  0.0000E+00  0.0000E+00  0.0000E+00  0.0000E+00  0.0000E+00  0.0000E+00  0.0000E+00  0.0000E+00  0.0000E+00  0.0000E+00  0.0000E+00  0.0000E+00  0.0000E+00  0.0000E+00  0.0000E+00
      0.927  0.0000E+00  0.0000E+00  0.0000E+00  0.0000E+00  0.0000E+00  0.0000E+00  0.0000E+00  0.0000E+00  0.0000E+00  0.0000E+00  0.0000E+00  0.0000E+00  0.0000E+00  0.0000E+00  0.0000E+00  0.0000E+00  0.0000E+00  0.0000E+00
      1.053  0.0000E+00  0.0000E+00  0.0000E+00  0.0000E+00  0.0000E+00  0.0000E+00  0.0000E+00  0.0000E+00  0.0000E+00  0.0000E+00  0.0000E+00  0.0000E+00  0.0000E+00  0.0000E+00  0.0000E+00  0.0000E+00  0.0000E+00  0.0000E+00
      1.178  0.0000E+00  0.0000E+00  0.0000E+00  0.0000E+00  0.0000E+00  0.0000E+00  0.0000E+00  0.0000E+00  0.0000E+00  0.0000E+00  0.0000E+00  0.0000E+00  0.0000E+00  0.0000E+00  0.0000E+00  0.0000E+00  0.0000E+00  0.0000E+00
      1.304  0.7480E-11  0.6423E-11  0.3187E-26  0.1832E-26  0.4825E-26  0.3134E-26  0.3187E-26  0.1832E-26  0.4262E-25  0.1695E-24  0.1188E-21  0.5410E-23  0.5584E-17  0.9212E-17  0.1188E-21  0.5410E-23  0.4262E-25  0.1695E-24
      1.430  0.3016E-04  0.2823E-04  0.1285E-19  0.8050E-20  0.5555E-15  0.4182E-15  0.1285E-19  0.8050E-20  0.1719E-18  0.7452E-18  0.4792E-15  0.2378E-16  0.2252E-10  0.4049E-10  0.4792E-15  0.2378E-16  0.1719E-18  0.7452E-18
      1.556  0.2280E-02  0.2271E-02  0.9660E-12  0.7126E-12  0.5329E-07  0.4632E-07  0.9660E-12  0.7126E-12  0.1746E-13  0.9559E-14  0.3617E-13  0.1912E-14  0.2452E-08  0.3697E-08  0.3617E-13  0.1912E-14  0.1746E-13  0.9559E-14
      1.681  0.3711E-02  0.3616E-02  0.2737E-05  0.2409E-05  0.4878E-04  0.4787E-04  0.2737E-05  0.2409E-05  0.4943E-07  0.3212E-07  0.1153E-13  0.2025E-14  0.7278E-06  0.4860E-06  0.1153E-13  0.2025E-14  0.4943E-07  0.3212E-07
      1.807  0.1539E-01  0.1537E-01  0.1608E-03  0.1605E-03  0.2785E-04  0.2909E-04  0.1608E-03  0.1605E-03  0.2904E-05  0.2139E-05  0.1836E-07  0.1067E-07  0.2689E-05  0.2092E-05  0.1836E-07  0.1067E-07  0.2904E-05  0.2139E-05
      1.933  0.2196E-01  0.2129E-01  0.2617E-03  0.2551E-03  0.3169E-03  0.3066E-03  0.2617E-03  0.2551E-03  0.4870E-05  0.3472E-05  0.1024E-04  0.7414E-05  0.3123E-06  0.2262E-06  0.1024E-04  0.7414E-05  0.4870E-05  0.3472E-05
      2.059  0.8814E-02  0.9597E-02  0.1041E-03  0.1143E-03  0.1384E-03  0.1501E-03  0.1041E-03  0.1143E-03  0.1940E-05  0.1559E-05  0.4309E-05  0.3544E-05  0.4102E-06  0.1995E-06  0.4309E-05  0.3544E-05  0.1940E-05  0.1559E-05
      2.184  0.5171E-02  0.4865E-02  0.2875E-04  0.2079E-04  0.2647E-03  0.2626E-03  0.2875E-04  0.2079E-04  0.1579E-05  0.8317E-06  0.3130E-09  0.3252E-09  0.2039E-04  0.1378E-04  0.3130E-09  0.3252E-09  0.1579E-05  0.8317E-06
      2.310  0.1497E-01  0.1459E-01  0.4971E-03  0.4938E-03  0.9894E-04  0.7751E-04  0.4971E-03  0.4938E-03  0.2686E-04  0.1954E-04  0.3059E-05  0.1400E-05  0.2526E-04  0.1794E-04  0.3059E-05  0.1400E-05  0.2686E-04  0.1954E-04
      2.436  0.5324E-01  0.5157E-01  0.1324E-02  0.1267E-02  0.1985E-02  0.1983E-02  0.1324E-02  0.1267E-02  0.6741E-04  0.4519E-04  0.9945E-04  0.7142E-04  0.9453E-04  0.6433E-04  0.9945E-04  0.7142E-04  0.6741E-04  0.4519E-04
      2.562  0.1696E-01  0.1863E-01  0.7444E-03  0.8002E-03  0.1233E-03  0.1649E-03  0.7444E-03  0.8002E-03  0.6237E-04  0.4561E-04  0.1054E-04  0.8695E-05  0.4005E-04  0.3096E-04  0.1054E-04  0.8695E-05  0.6237E-04  0.4561E-04
      2.688  0.2531E-01  0.2531E-01  0.1216E-02  0.1231E-02  0.3950E-03  0.3969E-03  0.1216E-02  0.1231E-02  0.1140E-03  0.7908E-04  0.6630E-04  0.4660E-04  0.3880E-04  0.2754E-04  0.6630E-04  0.4660E-04  0.1140E-03  0.7908E-04
      2.813  0.9415E-02  0.6503E-02  0.3426E-03  0.2567E-03  0.5791E-03  0.3430E-03  0.3426E-03  0.2567E-03  0.2377E-04  0.1323E-04  0.6612E-04  0.2915E-04  0.1634E-04  0.5750E-05  0.6612E-04  0.2915E-04  0.2377E-04  0.1323E-04
      2.939  0.2236E-01  0.2590E-01  0.6751E-03  0.8114E-03  0.1696E-02  0.1951E-02  0.6751E-03  0.8114E-03  0.4482E-04  0.3719E-04  0.1421E-03  0.1196E-03  0.1315E-03  0.8967E-04  0.1421E-03  0.1196E-03  0.4482E-04  0.3719E-04
      3.065  0.2382E-01  0.1365E-01  0.9429E-03  0.5835E-03  0.1960E-02  0.1058E-02  0.9429E-03  0.5835E-03  0.1005E-03  0.4114E-04  0.2321E-03  0.9700E-04  0.1633E-03  0.4178E-04  0.2321E-03  0.9700E-04  0.1005E-03  0.4114E-04
      3.191  0.5080E-01  0.5622E-01  0.2603E-02  0.2597E-02  0.3235E-02  0.4245E-02  0.2603E-02  0.2597E-02  0.3728E-03  0.2330E-03  0.2036E-03  0.2082E-03  0.7245E-03  0.5122E-03  0.2036E-03  0.2082E-03  0.3728E-03  0.2330E-03
      3.316  0.4458E-01  0.3578E-01  0.3799E-02  0.3084E-02  0.6661E-03  0.5001E-03  0.3799E-02  0.3084E-02  0.6566E-03  0.3530E-03  0.2589E-03  0.1143E-03  0.3485E-03  0.2013E-03  0.2589E-03  0.1143E-03  0.6566E-03  0.3530E-03
      3.442  0.8629E-02  0.2282E-01  0.7206E-03  0.1986E-02  0.1790E-03  0.3689E-03  0.7206E-03  0.1986E-02  0.1241E-03  0.2295E-03  0.5813E-04  0.9311E-04  0.6893E-04  0.1169E-03  0.5813E-04  0.9311E-04  0.1241E-03  0.2295E-03
      3.568  0.2976E-01  0.1725E-01  0.1690E-02  0.8222E-03  0.3109E-02  0.2203E-02  0.1690E-02  0.8222E-03  0.3442E-03  0.7829E-04  0.4346E-03  0.2068E-03  0.4956E-03  0.1854E-03  0.4346E-03  0.2068E-03  0.3442E-03  0.7829E-04
      3.694  0.6251E-01  0.3287E-01  0.5481E-02  0.2720E-02  0.3585E-02  0.2121E-02  0.5481E-02  0.2720E-02  0.1395E-02  0.4218E-03  0.1323E-02  0.3315E-03  0.5081E-03  0.2652E-03  0.1323E-02  0.3315E-03  0.1395E-02  0.4218E-03
      3.819  0.4074E-01  0.8055E-01  0.2700E-02  0.6661E-02  0.4286E-02  0.6250E-02  0.2700E-02  0.6661E-02  0.6150E-03  0.9924E-03  0.9495E-03  0.1219E-02  0.8670E-03  0.5158E-03  0.9495E-03  0.1219E-02  0.6150E-03  0.9924E-03
      3.945  0.5347E-02  0.4813E-02  0.1001E-03  0.1204E-03  0.1188E-02  0.9333E-03  0.1001E-03  0.1204E-03  0.1615E-04  0.1365E-04  0.6431E-04  0.3857E-04  0.7010E-03  0.2588E-03  0.6431E-04  0.3857E-04  0.1615E-04  0.1365E-04
      4.071  0.3657E-01  0.1753E-01  0.2266E-02  0.4608E-03  0.5231E-02  0.3926E-02  0.2266E-02  0.4608E-03  0.8922E-03  0.6461E-04  0.1067E-02  0.1769E-03  0.2540E-02  0.1249E-02  0.1067E-02  0.1769E-03  0.8922E-03  0.6461E-04
      4.197  0.1181E-01  0.2852E-01  0.1656E-02  0.2501E-02  0.2365E-03  0.3124E-02  0.1656E-02  0.2501E-02  0.5534E-03  0.5721E-03  0.1439E-03  0.5999E-03  0.3889E-03  0.7130E-03  0.1439E-03  0.5999E-03  0.5534E-03  0.5721E-03
      4.323  0.7447E-01  0.1714E-01  0.8697E-02  0.2424E-02  0.6433E-02  0.6502E-03  0.8697E-02  0.2424E-02  0.3215E-02  0.4941E-03  0.3210E-02  0.2132E-03  0.1763E-02  0.3295E-03  0.3210E-02  0.2132E-03  0.3215E-02  0.4941E-03
      4.448  0.6629E-01  0.8100E-01  0.7954E-02  0.9558E-02  0.5561E-02  0.7847E-02  0.7954E-02  0.9558E-02  0.4194E-02  0.2130E-02  0.1895E-02  0.2113E-02  0.4066E-02  0.1428E-02  0.1895E-02  0.2113E-02  0.4194E-02  0.2130E-02
      4.574  0.4427E-01  0.5665E-01  0.4344E-02  0.7406E-02  0.6995E-02  0.4588E-02  0.4344E-02  0.7406E-02  0.2099E-02  0.2252E-02  0.3590E-02  0.9264E-03  0.2479E-02  0.2101E-02  0.3590E-02  0.9264E-03  0.2099E-02  0.2252E-02
      4.700  0.5309E-01  0.3605E-01  0.7003E-02  0.3595E-02  0.4624E-02  0.6286E-02  0.7003E-02  0.3595E-02  0.5024E-02  0.8734E-03  0.4874E-02  0.1584E-02  0.3316E-02  0.1253E-02  0.4874E-02  0.1584E-02  0.5024E-02  0.8734E-03
      4.826  0.3882E-01  0.3650E-01  0.4500E-02  0.4785E-02  0.4102E-02  0.4257E-02  0.4500E-02  0.4785E-02  0.5465E-02  0.1460E-02  0.1511E-02  0.2071E-02  0.9828E-02  0.6443E-03  0.1511E-02  0.2071E-02  0.5465E-02  0.1460E-02
      4.951  0.1915E-01  0.4078E-01  0.2127E-02  0.6365E-02  0.2484E-02  0.2852E-02  0.2127E-02  0.6365E-02  0.3551E-02  0.2809E-02  0.3009E-02  0.1737E-02  0.3534E-02  0.1834E-02  0.3009E-02  0.1737E-02  0.3551E-02  0.2809E-02
      5.077  0.7157E-01  0.3171E-01  0.8415E-02  0.3883E-02  0.1412E-01  0.4444E-02  0.8415E-02  0.3883E-02  0.7081E-02  0.2381E-02  0.1555E-01  0.5499E-03  0.3395E-02  0.4905E-02  0.1555E-01  0.5499E-03  0.7081E-02  0.2381E-02
      5.203  0.4143E-01  0.3128E-01  0.3786E-02  0.2682E-02  0.9499E-02  0.8835E-02  0.3786E-02  0.2682E-02  0.6357E-02  0.7240E-03  0.1000E-01  0.2473E-02  0.1221E-01  0.2893E-02  0.1000E-01  0.2473E-02  0.6357E-02  0.7240E-03
      5.329  0.1168E+00  0.5157E-01  0.1835E-01  0.7539E-02  0.8312E-02  0.8369E-02  0.1835E-01  0.7539E-02  0.4515E-01  0.3844E-02  0.3073E-01  0.5780E-02  0.5068E-01  0.1103E-02  0.3073E-01  0.5780E-02  0.4515E-01  0.3844E-02
      5.454  0.1050E+00  0.4425E-01  0.1404E-01  0.5753E-02  0.6705E-02  0.9558E-02  0.1404E-01  0.5753E-02  0.6319E-01  0.2894E-02  0.7003E-01  0.5264E-02  0.5774E-01  0.3631E-02  0.7003E-01  0.5264E-02  0.6319E-01  0.2894E-02
      5.580  0.7635E-01  0.5100E-01  0.9030E-02  0.9744E-02  0.1220E-01  0.7080E-02  0.9030E-02  0.9744E-02  0.5190E-01  0.4633E-02  0.7052E-01  0.2754E-02  0.2843E-01  0.5703E-02  0.7052E-01  0.2754E-02  0.5190E-01  0.4633E-02
      5.706  0.6832E-01  0.5581E-01  0.8753E-02  0.1014E-01  0.1208E-01  0.7732E-02  0.8753E-02  0.1014E-01  0.5564E-01  0.7739E-02  0.6389E-01  0.4644E-02  0.6232E-01  0.8588E-02  0.6389E-01  0.4644E-02  0.5564E-01  0.7739E-02
      5.832  0.9494E-01  0.5797E-01  0.1392E-01  0.1361E-01  0.1880E-01  0.2348E-02  0.1392E-01  0.1361E-01  0.1252E+00  0.1242E-01  0.1060E+00  0.4910E-02  0.1185E+00  0.7237E-02  0.1060E+00  0.4910E-02  0.1252E+00  0.1242E-01
      5.957  0.5310E-01  0.6540E-01  0.9932E-02  0.1074E-01  0.1216E-01  0.1180E-01  0.9932E-02  0.1074E-01  0.1195E+00  0.1064E-01  0.7713E-01  0.1280E-01  0.5674E-01  0.1717E-01  0.7713E-01  0.1280E-01  0.1195E+00  0.1064E-01
      6.083  0.5634E-01  0.5371E-01  0.1446E-01  0.8173E-02  0.1815E-01  0.1420E-01  0.1446E-01  0.8173E-02  0.1232E+00  0.1190E-01  0.1307E+00  0.1313E-01  0.1101E+00  0.6834E-02  0.1307E+00  0.1313E-01  0.1232E+00  0.1190E-01