   2   2   0   0
  0.2137190E+02  0.2470000E-09  0.2470000E-09  0.8090000E-09  0.5000000E-15
  1.000000000000000E-004
  CAR 
 Co-hcc                                  
     21.38575680     -4.13371982  301      3.14247161      1.00000000
     -4.134  0.0000E+00  0.0000E+00  0.0000E+00  0.0000E+00
     -4.049  0.0000E+00  0.0000E+00  0.0000E+00  0.0000E+00
     -3.964  0.0000E+00  0.0000E+00  0.0000E+00  0.0000E+00
     -3.879  0.0000E+00  0.0000E+00  0.0000E+00  0.0000E+00
     -3.793  0.0000E+00  0.0000E+00  0.0000E+00  0.0000E+00
     -3.708  0.0000E+00  0.0000E+00  0.0000E+00  0.0000E+00
     -3.623  0.0000E+00  0.0000E+00  0.0000E+00  0.0000E+00
     -3.538  0.0000E+00  0.0000E+00  0.0000E+00  0.0000E+00
     -3.453  0.0000E+00  0.0000E+00  0.0000E+00  0.0000E+00
     -3.368  0.0000E+00  0.0000E+00  0.0000E+00  0.0000E+00
     -3.283  0.0000E+00  0.0000E+00  0.0000E+00  0.0000E+00
     -3.198  0.1242E-11  0.0000E+00  0.1056E-12  0.0000E+00
     -3.113  0.5242E-06  0.7364E-17  0.4459E-07  0.6264E-18
     -3.028  0.1103E-02  0.1339E-09  0.9390E-04  0.1139E-10
     -2.943  0.2388E-01  0.9582E-05  0.2125E-02  0.8151E-06
     -2.858  0.2958E-01  0.4096E-02  0.4642E-02  0.3493E-03
     -2.773  0.2760E-01  0.2829E-01  0.6989E-02  0.2756E-02
     -2.688  0.1661E+00  0.2155E-01  0.2112E-01  0.4590E-02
     -2.603  0.1989E+00  0.4065E-01  0.3803E-01  0.8048E-02
     -2.517  0.1543E+00  0.1842E+00  0.5116E-01  0.2372E-01
     -2.432  0.1338E+00  0.1408E+00  0.6255E-01  0.3569E-01
     -2.347  0.1327E+00  0.1169E+00  0.7384E-01  0.4564E-01
     -2.262  0.2152E+00  0.1090E+00  0.9214E-01  0.5491E-01
     -2.177  0.2699E+00  0.9260E-01  0.1151E+00  0.6279E-01
     -2.092  0.1656E+00  0.1397E+00  0.1292E+00  0.7467E-01
     -2.007  0.1950E+00  0.2844E+00  0.1458E+00  0.9887E-01
     -1.922  0.3388E+00  0.2702E+00  0.1746E+00  0.1219E+00
     -1.837  0.3177E+00  0.2080E+00  0.2016E+00  0.1395E+00
     -1.752  0.2998E+00  0.2776E+00  0.2271E+00  0.1632E+00
     -1.667  0.1637E+00  0.1834E+00  0.2411E+00  0.1788E+00
     -1.582  0.2115E+00  0.1735E+00  0.2590E+00  0.1935E+00
     -1.497  0.5666E-01  0.2112E+00  0.2639E+00  0.2115E+00
     -1.412  0.1825E-01  0.2286E+00  0.2654E+00  0.2309E+00
     -1.327  0.3439E+00  0.1144E+00  0.2947E+00  0.2407E+00
     -1.242  0.4197E+00  0.1285E+00  0.3304E+00  0.2516E+00
     -1.156  0.3489E+00  0.2165E+00  0.3600E+00  0.2700E+00
     -1.071  0.6492E+00  0.3794E+00  0.4153E+00  0.3023E+00
     -0.986  0.7800E+00  0.2489E+00  0.4816E+00  0.3235E+00
     -0.901  0.1177E+01  0.1853E+00  0.5817E+00  0.3392E+00
     -0.816  0.1766E+01  0.2016E+00  0.7320E+00  0.3564E+00
     -0.731  0.2144E+01  0.2961E+00  0.9143E+00  0.3816E+00
     -0.646  0.2345E+01  0.3503E+00  0.1114E+01  0.4113E+00
     -0.561  0.1141E+01  0.3916E+00  0.1211E+01  0.4447E+00
     -0.476  0.4881E+00  0.3452E+00  0.1252E+01  0.4740E+00
     -0.391  0.1795E+01  0.1080E+00  0.1405E+01  0.4832E+00
     -0.306  0.1537E+01  0.1072E+00  0.1536E+01  0.4923E+00
     -0.221  0.7951E+00  0.1630E+00  0.1603E+01  0.5062E+00
     -0.136  0.2648E+01  0.9960E-01  0.1829E+01  0.5147E+00
     -0.051  0.2389E+01  0.2812E+00  0.2032E+01  0.5386E+00
      0.034  0.3731E+01  0.6051E+00  0.2349E+01  0.5901E+00
      0.120  0.5776E+01  0.5013E+00  0.2841E+01  0.6327E+00
      0.205  0.4643E+01  0.6690E+00  0.3236E+01  0.6896E+00
      0.290  0.3294E+01  0.9099E+00  0.3516E+01  0.7670E+00
      0.375  0.1723E+01  0.1845E+01  0.3662E+01  0.9240E+00
      0.460  0.3694E+01  0.1828E+01  0.3977E+01  0.1079E+01
      0.545  0.3020E+01  0.2192E+01  0.4234E+01  0.1266E+01
      0.630  0.4731E+01  0.4578E+00  0.4636E+01  0.1305E+01
      0.715  0.3666E+01  0.7772E-02  0.4948E+01  0.1306E+01
      0.800  0.3076E+01  0.9463E-01  0.5210E+01  0.1314E+01
      0.885  0.2298E+01  0.1577E+01  0.5405E+01  0.1448E+01
      0.970  0.3721E+01  0.2175E+01  0.5722E+01  0.1633E+01
      1.055  0.4768E+01  0.7667E+00  0.6127E+01  0.1698E+01
      1.140  0.6460E+01  0.2796E+00  0.6677E+01  0.1722E+01
      1.225  0.6332E+01  0.4820E-02  0.7215E+01  0.1722E+01
      1.310  0.7598E+01  0.6100E-02  0.7862E+01  0.1723E+01
      1.396  0.5412E+01  0.7250E+00  0.8322E+01  0.1784E+01
      1.481  0.5461E+01  0.1768E+01  0.8786E+01  0.1935E+01
      1.566  0.4919E+01  0.1375E+01  0.9205E+01  0.2052E+01
      1.651  0.5161E+01  0.2288E+01  0.9644E+01  0.2246E+01
      1.736  0.3632E+01  0.4315E+01  0.9953E+01  0.2613E+01
      1.821  0.8266E+00  0.5550E+01  0.1002E+02  0.3085E+01
      1.906  0.7137E+00  0.5294E+01  0.1008E+02  0.3536E+01
      1.991  0.7120E+00  0.5865E+01  0.1014E+02  0.4035E+01
      2.076  0.3688E+00  0.3926E+01  0.1018E+02  0.4369E+01
      2.161  0.6659E+00  0.2634E+01  0.1023E+02  0.4593E+01
      2.246  0.1391E+01  0.2607E+01  0.1035E+02  0.4815E+01
      2.331  0.2146E+01  0.2513E+01  0.1053E+02  0.5028E+01
      2.416  0.7403E+00  0.1693E+01  0.1060E+02  0.5172E+01
      2.501  0.7637E+00  0.1011E+01  0.1066E+02  0.5258E+01
      2.586  0.1105E+01  0.7760E+00  0.1076E+02  0.5324E+01
      2.671  0.7537E+00  0.2629E+01  0.1082E+02  0.5548E+01
      2.757  0.3241E+00  0.3218E+01  0.1085E+02  0.5822E+01
      2.842  0.7474E-01  0.2548E+01  0.1085E+02  0.6038E+01
      2.927  0.4769E-01  0.2819E+01  0.1086E+02  0.6278E+01
      3.012  0.9869E-01  0.4215E+01  0.1087E+02  0.6637E+01
      3.097  0.1606E-01  0.3818E+01  0.1087E+02  0.6962E+01
      3.182  0.2581E-04  0.3817E+01  0.1087E+02  0.7286E+01
      3.267  0.3143E-03  0.3032E+01  0.1087E+02  0.7544E+01
      3.352  0.5968E-01  0.5370E+01  0.1087E+02  0.8001E+01
      3.437  0.4398E+00  0.7607E+01  0.1091E+02  0.8648E+01
      3.522  0.7452E+00  0.6435E+01  0.1097E+02  0.9195E+01
      3.607  0.5646E+00  0.4645E+01  0.1102E+02  0.9591E+01
      3.692  0.4488E+00  0.2307E+01  0.1106E+02  0.9787E+01
      3.777  0.4274E+00  0.3086E+01  0.1110E+02  0.1005E+02
      3.862  0.5750E+00  0.2673E+01  0.1114E+02  0.1028E+02
      3.947  0.4362E+00  0.1975E+01  0.1118E+02  0.1044E+02
      4.033  0.6043E+00  0.2649E+01  0.1123E+02  0.1067E+02
      4.118  0.6747E+00  0.1057E+01  0.1129E+02  0.1076E+02
      4.203  0.2694E+00  0.2405E+00  0.1131E+02  0.1078E+02
      4.288  0.1159E+00  0.1454E+00  0.1132E+02  0.1079E+02
      4.373  0.1316E+00  0.1865E+00  0.1133E+02  0.1081E+02
      4.458  0.1229E+00  0.8424E+00  0.1134E+02  0.1088E+02
      4.543  0.1356E+00  0.3375E+00  0.1136E+02  0.1091E+02
      4.628  0.2565E+00  0.7057E+00  0.1138E+02  0.1097E+02
      4.713  0.1394E+00  0.9077E+00  0.1139E+02  0.1105E+02
      4.798  0.1253E+00  0.7026E+00  0.1140E+02  0.1111E+02
      4.883  0.1941E+00  0.1032E+01  0.1142E+02  0.1119E+02
      4.968  0.7797E-01  0.7492E+00  0.1142E+02  0.1126E+02
      5.053  0.7149E-02  0.4870E+00  0.1142E+02  0.1130E+02
      5.138  0.8168E-01  0.4130E+00  0.1143E+02  0.1133E+02
      5.223  0.6403E+00  0.4695E+00  0.1149E+02  0.1137E+02
      5.308  0.1248E+01  0.3307E+00  0.1159E+02  0.1140E+02
      5.394  0.7823E+00  0.1936E+00  0.1166E+02  0.1142E+02
      5.479  0.5321E+00  0.2691E+00  0.1170E+02  0.1144E+02
      5.564  0.5830E+00  0.2249E+00  0.1175E+02  0.1146E+02
      5.649  0.5292E+00  0.7004E-01  0.1180E+02  0.1147E+02
      5.734  0.7330E+00  0.3750E+00  0.1186E+02  0.1150E+02
      5.819  0.4439E+00  0.8315E+00  0.1190E+02  0.1157E+02
      5.904  0.4055E+00  0.4646E+00  0.1193E+02  0.1161E+02
      5.989  0.3834E+00  0.2393E+00  0.1197E+02  0.1163E+02
      6.074  0.5350E+00  0.4103E+00  0.1201E+02  0.1166E+02
      6.159  0.2242E+00  0.8988E+00  0.1203E+02  0.1174E+02
      6.244  0.2329E+00  0.8482E+00  0.1205E+02  0.1181E+02
      6.329  0.3364E+00  0.4951E+00  0.1208E+02  0.1185E+02
      6.414  0.2640E+00  0.3529E+00  0.1210E+02  0.1188E+02
      6.499  0.5059E-01  0.4512E+00  0.1211E+02  0.1192E+02
      6.584  0.6431E-01  0.4261E+00  0.1211E+02  0.1196E+02
      6.670  0.2800E+00  0.3758E+00  0.1213E+02  0.1199E+02
      6.755  0.1405E+00  0.6464E+00  0.1215E+02  0.1205E+02
      6.840  0.1637E+00  0.2893E+00  0.1216E+02  0.1207E+02
      6.925  0.4648E+00  0.4166E+00  0.1220E+02  0.1211E+02
      7.010  0.3807E+00  0.1531E+00  0.1223E+02  0.1212E+02
      7.095  0.3847E+00  0.1978E+00  0.1227E+02  0.1214E+02
      7.180  0.5137E+00  0.1800E+00  0.1231E+02  0.1215E+02
      7.265  0.2300E+00  0.1171E+00  0.1233E+02  0.1216E+02
      7.350  0.1536E+00  0.3660E+00  0.1234E+02  0.1219E+02
      7.435  0.2873E+00  0.3761E+00  0.1237E+02  0.1222E+02
      7.520  0.3575E+00  0.3067E+00  0.1240E+02  0.1225E+02
      7.605  0.4705E+00  0.5771E+00  0.1244E+02  0.1230E+02
      7.690  0.5213E+00  0.3773E+00  0.1248E+02  0.1233E+02
      7.775  0.3571E+00  0.1364E+00  0.1251E+02  0.1234E+02
      7.860  0.4410E+00  0.5862E-01  0.1255E+02  0.1235E+02
      7.945  0.4382E+00  0.1054E+00  0.1259E+02  0.1236E+02
      8.031  0.3855E+00  0.5688E+00  0.1262E+02  0.1241E+02
      8.116  0.4315E+00  0.6380E+00  0.1266E+02  0.1246E+02
      8.201  0.1955E+00  0.4420E+00  0.1267E+02  0.1250E+02
      8.286  0.1974E+00  0.4268E+00  0.1269E+02  0.1253E+02
      8.371  0.2317E+00  0.7425E+00  0.1271E+02  0.1260E+02
      8.456  0.3306E+00  0.2841E+00  0.1274E+02  0.1262E+02
      8.541  0.3749E+00  0.1755E+00  0.1277E+02  0.1264E+02
      8.626  0.4021E+00  0.1069E+00  0.1280E+02  0.1265E+02
      8.711  0.1486E-01  0.3472E+00  0.1280E+02  0.1267E+02
      8.796  0.5010E-01  0.4745E+00  0.1281E+02  0.1272E+02
      8.881  0.2340E+00  0.4200E+00  0.1283E+02  0.1275E+02
      8.966  0.2560E+00  0.3105E+00  0.1285E+02  0.1278E+02
      9.051  0.2493E-01  0.3425E+00  0.1285E+02  0.1281E+02
      9.136  0.1937E+00  0.1344E+00  0.1287E+02  0.1282E+02
      9.221  0.4429E+00  0.2024E+00  0.1291E+02  0.1284E+02
      9.307  0.1949E+00  0.8156E-01  0.1292E+02  0.1284E+02
      9.392  0.3863E+00  0.1296E+00  0.1296E+02  0.1285E+02
      9.477  0.2698E+00  0.1056E+00  0.1298E+02  0.1286E+02
      9.562  0.3807E+00  0.3912E+00  0.1301E+02  0.1290E+02
      9.647  0.3989E+00  0.2626E+00  0.1305E+02  0.1292E+02
      9.732  0.4539E+00  0.1471E+00  0.1308E+02  0.1293E+02
      9.817  0.4815E+00  0.4366E+00  0.1312E+02  0.1297E+02
      9.902  0.8473E+00  0.4902E+00  0.1320E+02  0.1301E+02
      9.987  0.9594E+00  0.9843E-01  0.1328E+02  0.1302E+02
     10.072  0.7990E+00  0.1657E+00  0.1335E+02  0.1303E+02
     10.157  0.9269E+00  0.2806E+00  0.1343E+02  0.1306E+02
     10.242  0.2988E+00  0.4646E+00  0.1345E+02  0.1310E+02
     10.327  0.3619E+00  0.5931E+00  0.1348E+02  0.1315E+02
     10.412  0.3019E+00  0.9240E+00  0.1351E+02  0.1322E+02
     10.497  0.2179E+00  0.7272E+00  0.1353E+02  0.1329E+02
     10.583  0.1455E+00  0.1165E+01  0.1354E+02  0.1339E+02
     10.668  0.1364E+00  0.9390E+00  0.1355E+02  0.1346E+02
     10.753  0.5319E+00  0.2913E+00  0.1359E+02  0.1349E+02
     10.838  0.9646E+00  0.1379E+00  0.1368E+02  0.1350E+02
     10.923  0.7601E+00  0.6035E-01  0.1374E+02  0.1351E+02
     11.008  0.4640E+00  0.2843E+00  0.1378E+02  0.1353E+02
     11.093  0.3789E+00  0.1670E+00  0.1381E+02  0.1354E+02
     11.178  0.1908E+00  0.3679E+00  0.1383E+02  0.1358E+02
     11.263  0.4283E+00  0.6104E+00  0.1387E+02  0.1363E+02
     11.348  0.3184E+00  0.7318E+00  0.1389E+02  0.1369E+02
     11.433  0.9078E+00  0.6478E+00  0.1397E+02  0.1375E+02
     11.518  0.7930E+00  0.6856E+00  0.1404E+02  0.1380E+02
     11.603  0.5437E+00  0.3430E+00  0.1408E+02  0.1383E+02
     11.688  0.4095E+00  0.5938E+00  0.1412E+02  0.1388E+02
     11.773  0.8951E+00  0.6060E+00  0.1419E+02  0.1394E+02
     11.858  0.4534E+00  0.5076E+00  0.1423E+02  0.1398E+02
     11.944  0.3604E+00  0.7639E+00  0.1426E+02  0.1404E+02
     12.029  0.6803E+00  0.7999E+00  0.1432E+02  0.1411E+02
     12.114  0.6909E+00  0.4753E+00  0.1438E+02  0.1415E+02
     12.199  0.4253E+00  0.4918E+00  0.1442E+02  0.1419E+02
     12.284  0.3095E+00  0.5641E+00  0.1444E+02  0.1424E+02
     12.369  0.5837E+00  0.4692E+00  0.1449E+02  0.1428E+02
     12.454  0.9579E+00  0.6541E+00  0.1457E+02  0.1434E+02
     12.539  0.7681E+00  0.6175E+00  0.1464E+02  0.1439E+02
     12.624  0.4669E+00  0.5812E+00  0.1468E+02  0.1444E+02
     12.709  0.4025E+00  0.7268E+00  0.1471E+02  0.1450E+02
     12.794  0.6540E+00  0.9302E+00  0.1477E+02  0.1458E+02
     12.879  0.3645E+00  0.8597E+00  0.1480E+02  0.1465E+02
     12.964  0.1927E+00  0.4399E+00  0.1482E+02  0.1469E+02
     13.049  0.4161E+00  0.4649E+00  0.1485E+02  0.1473E+02
     13.134  0.1823E+00  0.2597E+00  0.1487E+02  0.1475E+02
     13.220  0.3776E+00  0.4108E+00  0.1490E+02  0.1479E+02
     13.305  0.1087E+01  0.2424E+00  0.1499E+02  0.1481E+02
     13.390  0.1075E+01  0.4204E+00  0.1508E+02  0.1484E+02
     13.475  0.3338E+00  0.4045E+00  0.1511E+02  0.1488E+02
     13.560  0.1637E+00  0.6183E+00  0.1513E+02  0.1493E+02
     13.645  0.9663E-01  0.2963E+00  0.1513E+02  0.1496E+02
     13.730  0.4024E+00  0.8308E+00  0.1517E+02  0.1503E+02
     13.815  0.3683E+00  0.1002E+01  0.1520E+02  0.1511E+02
     13.900  0.3423E+00  0.4197E+00  0.1523E+02  0.1515E+02
     13.985  0.2993E+00  0.1296E+00  0.1525E+02  0.1516E+02
     14.070  0.1119E+00  0.1944E+00  0.1526E+02  0.1517E+02
     14.155  0.1789E+00  0.1946E+00  0.1528E+02  0.1519E+02
     14.240  0.1719E+00  0.2814E+00  0.1529E+02  0.1522E+02
     14.325  0.4477E+00  0.4041E+00  0.1533E+02  0.1525E+02
     14.410  0.1762E+00  0.4950E+00  0.1535E+02  0.1529E+02
     14.495  0.4466E+00  0.2454E+00  0.1538E+02  0.1531E+02
     14.581  0.2292E+00  0.8533E-01  0.1540E+02  0.1532E+02
     14.666  0.1735E+00  0.3184E+00  0.1542E+02  0.1535E+02
     14.751  0.1009E+00  0.2735E+00  0.1543E+02  0.1537E+02
     14.836  0.2127E+00  0.1056E+00  0.1545E+02  0.1538E+02
     14.921  0.4971E+00  0.1744E+00  0.1549E+02  0.1539E+02
     15.006  0.1506E+00  0.2914E+00  0.1550E+02  0.1542E+02
     15.091  0.3689E+00  0.2963E+00  0.1553E+02  0.1544E+02
     15.176  0.3427E+00  0.1314E+00  0.1556E+02  0.1546E+02
     15.261  0.1425E+00  0.3291E+00  0.1557E+02  0.1548E+02
     15.346  0.2122E+00  0.2907E+00  0.1559E+02  0.1551E+02
     15.431  0.1319E+00  0.2241E+00  0.1560E+02  0.1553E+02
     15.516  0.7756E-02  0.3321E+00  0.1560E+02  0.1556E+02
     15.601  0.1415E-01  0.4627E+00  0.1560E+02  0.1559E+02
     15.686  0.5588E-01  0.1113E+00  0.1561E+02  0.1560E+02
     15.771  0.2025E+00  0.9990E-02  0.1563E+02  0.1561E+02
     15.857  0.1061E+00  0.1005E+00  0.1564E+02  0.1561E+02
     15.942  0.1055E-01  0.2399E+00  0.1564E+02  0.1563E+02
     16.027  0.1037E+00  0.2621E-01  0.1565E+02  0.1564E+02
     16.112  0.3099E+00  0.1605E-02  0.1567E+02  0.1564E+02
     16.197  0.3988E+00  0.6792E-01  0.1571E+02  0.1564E+02
     16.282  0.4492E+00  0.5465E-01  0.1574E+02  0.1565E+02
     16.367  0.8420E-01  0.9379E-01  0.1575E+02  0.1565E+02
     16.452  0.6347E-01  0.2570E+00  0.1576E+02  0.1568E+02
     16.537  0.6370E-01  0.3503E+00  0.1576E+02  0.1571E+02
     16.622  0.9036E-01  0.4271E+00  0.1577E+02  0.1574E+02
     16.707  0.2641E-01  0.2101E+00  0.1577E+02  0.1576E+02
     16.792  0.9089E-04  0.7235E-01  0.1577E+02  0.1577E+02
     16.877  0.2562E-02  0.5659E-01  0.1577E+02  0.1577E+02
     16.962  0.1723E-01  0.1005E-01  0.1577E+02  0.1577E+02
     17.047  0.1138E+00  0.1081E-01  0.1578E+02  0.1577E+02
     17.133  0.1647E+00  0.1449E-01  0.1580E+02  0.1577E+02
     17.218  0.1659E+00  0.2456E+00  0.1581E+02  0.1580E+02
     17.303  0.4579E-01  0.1066E+00  0.1582E+02  0.1580E+02
     17.388  0.2945E-03  0.1714E-01  0.1582E+02  0.1581E+02
     17.473  0.4104E-05  0.9417E-01  0.1582E+02  0.1581E+02
     17.558  0.6966E-02  0.1195E-01  0.1582E+02  0.1582E+02
     17.643  0.9044E-01  0.1123E-01  0.1582E+02  0.1582E+02
     17.728  0.4071E-01  0.9396E-01  0.1583E+02  0.1582E+02
     17.813  0.2037E+00  0.1746E-01  0.1584E+02  0.1583E+02
     17.898  0.2992E+00  0.3756E-01  0.1587E+02  0.1583E+02
     17.983  0.3245E-01  0.8953E-01  0.1587E+02  0.1584E+02
     18.068  0.7482E-04  0.9610E-01  0.1587E+02  0.1584E+02
     18.153  0.4684E-02  0.9300E-01  0.1587E+02  0.1585E+02
     18.238  0.1560E-01  0.2240E+00  0.1587E+02  0.1587E+02
     18.323  0.6917E-01  0.3124E-01  0.1588E+02  0.1587E+02
     18.408  0.2685E+00  0.3639E-01  0.1590E+02  0.1588E+02
     18.494  0.3205E+00  0.9823E-01  0.1593E+02  0.1589E+02
     18.579  0.1542E-01  0.2929E+00  0.1593E+02  0.1591E+02
     18.664  0.7347E-05  0.2036E+00  0.1593E+02  0.1593E+02
     18.749  0.1109E-04  0.4652E-01  0.1593E+02  0.1593E+02
     18.834  0.2687E-02  0.5900E-02  0.1593E+02  0.1593E+02
     18.919  0.3485E-01  0.1586E-01  0.1593E+02  0.1593E+02
     19.004  0.8913E-01  0.9778E-01  0.1594E+02  0.1594E+02
     19.089  0.9234E-02  0.5769E-01  0.1594E+02  0.1595E+02
     19.174  0.9598E-01  0.3179E-01  0.1595E+02  0.1595E+02
     19.259  0.8284E-01  0.9330E-01  0.1596E+02  0.1596E+02
     19.344  0.1609E-02  0.9801E-02  0.1596E+02  0.1596E+02
     19.429  0.2118E-06  0.8496E-05  0.1596E+02  0.1596E+02
     19.514  0.4304E-05  0.1674E-05  0.1596E+02  0.1596E+02
     19.599  0.1022E-01  0.3163E-02  0.1596E+02  0.1596E+02
     19.684  0.1816E+00  0.4469E-01  0.1597E+02  0.1596E+02
     19.770  0.1081E+00  0.1619E-01  0.1598E+02  0.1596E+02
     19.855  0.7828E-02  0.1333E+00  0.1598E+02  0.1598E+02
     19.940  0.7016E-01  0.1331E+00  0.1599E+02  0.1599E+02
     20.025  0.9425E-01  0.3601E-01  0.1600E+02  0.1599E+02
     20.110  0.1763E-01  0.9058E-03  0.1600E+02  0.1599E+02
     20.195  0.8528E-04  0.2330E-01  0.1600E+02  0.1599E+02
     20.280  0.2079E-08  0.9139E-01  0.1600E+02  0.1600E+02
     20.365  0.1903E-15  0.7694E-02  0.1600E+02  0.1600E+02
     20.450  0.0000E+00  0.5050E-05  0.1600E+02  0.1600E+02
     20.535  0.0000E+00  0.1379E-10  0.1600E+02  0.1600E+02
     20.620  0.0000E+00  0.0000E+00  0.1600E+02  0.1600E+02
     20.705  0.0000E+00  0.0000E+00  0.1600E+02  0.1600E+02
     20.790  0.0000E+00  0.0000E+00  0.1600E+02  0.1600E+02
     20.875  0.0000E+00  0.0000E+00  0.1600E+02  0.1600E+02
     20.960  0.0000E+00  0.0000E+00  0.1600E+02  0.1600E+02
     21.045  0.0000E+00  0.0000E+00  0.1600E+02  0.1600E+02
     21.131  0.0000E+00  0.0000E+00  0.1600E+02  0.1600E+02
     21.216  0.0000E+00  0.0000E+00  0.1600E+02  0.1600E+02
     21.301  0.0000E+00  0.0000E+00  0.1600E+02  0.1600E+02
     21.386  0.0000E+00  0.0000E+00  0.1600E+02  0.1600E+02
