    2    2    1    2
  0.1064014E+02  0.2472000E-09  0.2472000E-09  0.4021144E-09  0.5000000E-15
  1.000000000000000E-004
  CAR 
 Co-hcc                                  
     18     95     16
 
  0.0000000E+00  0.0000000E+00  0.0000000E+00  0.8680556E-03
      1          1.509860        1.510760   1.000000   1.000000
      2          5.297720        6.241891   1.000000   1.000000
      3          7.850471        9.484544   1.000000   1.000000
      4          7.904048        9.542989   1.000000   1.000000
      5          7.904048        9.542990   1.000000   1.000000
      6          8.218936        9.911381   1.000000   1.000000
      7          8.218936        9.911381   1.000000   1.000000
      8          8.606837       10.325723   1.000000   1.000000
      9          8.606837       10.373033   1.000000   0.999916
     10          9.715496       10.373033   1.000000   0.999916
     11          9.715497       11.597647   1.000000   0.000000
     12         10.384360       11.597647   0.999713   0.000000
     13         16.965005       17.992349   0.000000   0.000000
     14         32.756695       32.480776   0.000000   0.000000
     15         35.561083       35.735548   0.000000   0.000000
     16         35.561385       35.810367   0.000000   0.000000
 
  0.8333333E-01  0.1387779E-16  0.0000000E+00  0.5208333E-02
      1          1.757696        1.759549   1.000000   1.000000
      2          5.447559        6.412155   1.000000   1.000000
      3          7.653692        9.245991   1.000000   1.000000
      4          8.020919        9.645852   1.000000   1.000000
      5          8.063848        9.671289   1.000000   1.000000
      6          8.168873        9.724874   1.000000   1.000000
      7          8.322452        9.844496   1.000000   1.000000
      8          8.444351       10.024961   1.000000   1.000000
      9          8.534101       10.288199   1.000000   1.000000
     10          8.909494       10.306367   1.000000   1.000000
     11          9.745743       11.633574   1.000000   0.000000
     12         11.517081       12.492429   0.000000   0.000000
     13         17.006682       18.010885   0.000000   0.000000
     14         30.964698       31.046796   0.000000   0.000000
     15         33.324544       33.390690   0.000000   0.000000
     16         33.388776       33.720796   0.000000   0.000000
 
  0.1666667E+00  0.1387779E-16  0.0000000E+00  0.5208333E-02
      1          2.473805        2.483065   1.000000   1.000000
      2          5.817443        6.848776   1.000000   1.000000
      3          7.381158        8.770530   1.000000   1.000000
      4          7.692334        8.894027   1.000000   1.000000
      5          7.985439        9.609246   1.000000   1.000000
      6          8.351565       10.036313   1.000000   1.000000
      7          8.354839       10.061930   1.000000   1.000000
      8          8.375026       10.080540   1.000000   1.000000
      9          8.545669       10.133525   1.000000   1.000000
     10          8.613861       10.345734   1.000000   0.999997
     11          9.809774       11.708743   1.000000   0.000000
     12         13.136836       13.998579   0.000000   0.000000
     13         17.153425       18.085070   0.000000   0.000000
     14         27.138626       27.469429   0.000000   0.000000
     15         30.954608       31.265352   0.000000   0.000000
     16         32.349581       32.434352   0.000000   0.000000
 
  0.2500000E+00  0.1387779E-16  0.0000000E+00  0.5208333E-02
      1          3.553281        3.600836   1.000000   1.000000
      2          6.107390        7.268537   1.000000   1.000000
      3          6.949068        8.072473   1.000000   1.000000
      4          7.222509        8.590541   1.000000   1.000000
      5          7.885785        9.448392   1.000000   1.000000
      6          8.139236        9.832539   1.000000   1.000000
      7          8.336555        9.901901   1.000000   1.000000
      8          8.819063       10.519589   1.000000   0.351408
      9          8.830493       10.570948   1.000000   0.033315
     10          9.032361       10.808436   1.000000   0.000000
     11          9.869430       11.777772   1.000000   0.000000
     12         14.959457       15.727052   0.000000   0.000000
     13         17.439137       18.242569   0.000000   0.000000
     14         23.392019       23.863660   0.000000   0.000000
     15         28.841981       29.115030   0.000000   0.000000
     16         30.789276       30.925222   0.000000   0.000000
 
  0.3333333E+00  0.2775558E-16  0.0000000E+00  0.5208333E-02
      1          4.717517        4.927578   1.000000   1.000000
      2          6.029259        7.285743   1.000000   1.000000
      3          6.410597        7.580020   1.000000   1.000000
      4          7.350450        8.496733   1.000000   1.000000
      5          7.945101        9.551347   1.000000   1.000000
      6          8.015807        9.610376   1.000000   1.000000
      7          8.148589        9.674564   1.000000   1.000000
      8          9.341145       11.150974   1.000000   0.000000
      9          9.485596       11.201456   1.000000   0.000000
     10          9.533990       11.312659   1.000000   0.000000
     11          9.909636       11.823672   1.000000   0.000000
     12         16.944318       17.611256   0.000000   0.000000
     13         17.533980       18.177676   0.000000   0.000000
     14         20.466620       21.076895   0.000000   0.000000
     15         27.164573       27.384808   0.000000   0.000000
     16         27.682902       27.953696   0.000000   0.000000
 
  0.4166667E+00  0.5551115E-16  0.0000000E+00  0.5208333E-02
      1          5.456883        6.079209   1.000000   1.000000
      2          5.837356        7.065697   1.000000   1.000000
      3          6.088304        7.289876   1.000000   1.000000
      4          7.736951        8.562813   1.000000   1.000000
      5          7.812535        9.459176   1.000000   1.000000
      6          8.015516        9.510157   1.000000   1.000000
      7          8.228598        9.784969   1.000000   1.000000
      8          9.723753       11.590199   1.000000   0.000000
      9          9.859740       11.736672   1.000000   0.000000
     10          9.930741       11.847479   1.000000   0.000000
     11         10.694729       12.186455   0.000000   0.000000
     12         15.716431       16.476728   0.000000   0.000000
     13         18.996232       19.541324   0.000000   0.000000
     14         20.294327       20.809892   0.000000   0.000000
     15         24.970913       25.389454   0.000000   0.000000
     16         26.060883       26.228526   0.000000   0.000000
 
  0.5000000E+00  0.2775558E-16  0.0000000E+00  0.2604167E-02
      1          5.678175        6.592798   1.000000   1.000000
      2          5.719728        6.878024   1.000000   1.000000
      3          5.981330        7.194480   1.000000   1.000000
      4          7.765638        8.673358   1.000000   1.000000
      5          7.967556        9.405773   1.000000   1.000000
      6          7.997214        9.450451   1.000000   1.000000
      7          8.305468        9.875290   1.000000   1.000000
      8          9.862192       11.748135   1.000000   0.000000
      9          9.937037       11.854522   1.000000   0.000000
     10         10.010906       11.912497   1.000000   0.000000
     11         11.893685       13.131553   0.000000   0.000000
     12         13.961380       14.936295   0.000000   0.000000
     13         20.338172       20.760518   0.000000   0.000000
     14         21.011697       21.403492   0.000000   0.000000
     15         23.411817       23.962668   0.000000   0.000000
     16         24.707746       25.275256   0.000000   0.000000
 
  0.8333333E-01  0.8333333E-01  0.0000000E+00  0.5208333E-02
      1          2.240609        2.246264   1.000000   1.000000
      2          5.713722        6.720418   1.000000   1.000000
      3          7.438242        8.979951   1.000000   1.000000
      4          7.945580        9.000446   1.000000   1.000000
      5          8.059660        9.699976   1.000000   1.000000
      6          8.219626        9.898904   1.000000   1.000000
      7          8.260174        9.933620   1.000000   1.000000
      8          8.321208       10.033272   1.000000   1.000000
      9          8.551343       10.272615   1.000000   1.000000
     10          8.673616       10.295435   1.000000   1.000000
     11          9.782289       11.676285   1.000000   0.000000
     12         12.683239       13.573300   0.000000   0.000000
     13         17.102893       18.059332   0.000000   0.000000
     14         28.881040       29.097261   0.000000   0.000000
     15         29.661823       30.003191   0.000000   0.000000
     16         34.919242       34.975558   0.000000   0.000000
 
  0.1666667E+00  0.8333333E-01  0.0000000E+00  0.1041667E-01
      1          3.147752        3.172070   1.000000   1.000000
      2          6.091615        7.188198   1.000000   1.000000
      3          7.164918        8.319580   1.000000   1.000000
      4          7.222350        8.615606   1.000000   1.000000
      5          7.930937        9.517665   1.000000   1.000000
      6          8.088975        9.749950   1.000000   1.000000
      7          8.483424       10.147103   1.000000   1.000000
      8          8.517750       10.187162   1.000000   1.000000
      9          8.696170       10.412139   1.000000   0.996066
     10          8.981182       10.729242   1.000000   0.000000
     11          9.826569       11.727704   1.000000   0.000000
     12         14.302274       15.107539   0.000000   0.000000
     13         17.340603       18.197323   0.000000   0.000000
     14         25.307451       25.699677   0.000000   0.000000
     15         27.563081       27.897138   0.000000   0.000000
     16         32.502061       32.536180   0.000000   0.000000
 
  0.2500000E+00  0.8333333E-01  0.0000000E+00  0.1041667E-01
      1          4.309750        4.415380   1.000000   1.000000
      2          6.205811        7.435261   1.000000   1.000000
      3          6.632868        7.784536   1.000000   1.000000
      4          7.106638        8.390284   1.000000   1.000000
      5          7.895551        9.479805   1.000000   1.000000
      6          7.940244        9.513598   1.000000   1.000000
      7          8.312338        9.909221   1.000000   1.000000
      8          8.903594       10.635257   1.000000   0.000130
      9          9.212768       10.991209   1.000000   0.000000
     10          9.566556       11.320057   1.000000   0.000000
     11          9.863377       11.770073   1.000000   0.000000
     12         16.167119       16.882804   0.000000   0.000000
     13         17.706290       18.411497   0.000000   0.000000
     14         21.812158       22.341855   0.000000   0.000000
     15         26.000520       26.323628   0.000000   0.000000
     16         29.307897       29.494637   0.000000   0.000000
 
  0.3333333E+00  0.8333333E-01  0.0000000E+00  0.1041667E-01
      1          5.310755        5.703444   1.000000   1.000000
      2          6.021839        7.278646   1.000000   1.000000
      3          6.233445        7.428998   1.000000   1.000000
      4          7.360214        8.390915   1.000000   1.000000
      5          7.773163        9.369150   1.000000   1.000000
      6          8.106167        9.658153   1.000000   1.000000
      7          8.140955        9.689387   1.000000   1.000000
      8          9.431205       11.213740   1.000000   0.000000
      9          9.652477       11.491389   1.000000   0.000000
     10          9.885633       11.795320   1.000000   0.000000
     11         10.396422       12.037581   0.999040   0.000000
     12         17.063025       17.709297   0.000000   0.000000
     13         18.192996       18.804813   0.000000   0.000000
     14         20.089732       20.674201   0.000000   0.000000
     15         24.783174       25.076245   0.000000   0.000000
     16         26.394475       26.729218   0.000000   0.000000
 
  0.4166667E+00  0.8333333E-01  0.0000000E+00  0.1041667E-01
      1          5.731936        6.567586   1.000000   1.000000
      2          5.863050        7.050858   1.000000   1.000000
      3          6.033679        7.253843   1.000000   1.000000
      4          7.729624        8.513400   1.000000   1.000000
      5          7.747054        9.338944   1.000000   1.000000
      6          7.965287        9.465218   1.000000   1.000000
      7          8.301847        9.875042   1.000000   1.000000
      8          9.810147       11.674293   1.000000   0.000000
      9          9.885911       11.760359   1.000000   0.000000
     10          9.895168       11.805975   1.000000   0.000000
     11         11.721223       13.021493   0.000000   0.000000
     12         14.745034       15.632209   0.000000   0.000000
     13         20.135221       20.613749   0.000000   0.000000
     14         20.914626       21.344951   0.000000   0.000000
     15         23.959668       24.270890   0.000000   0.000000
     16         24.014044       24.505192   0.000000   0.000000
 
  0.1666667E+00  0.1666667E+00  0.0000000E+00  0.5208333E-02
      1          4.165896        4.237986   1.000000   1.000000
      2          6.398413        7.574379   1.000000   1.000000
      3          6.750497        7.891288   1.000000   1.000000
      4          6.865124        8.241401   1.000000   1.000000
      5          7.819548        9.431932   1.000000   1.000000
      6          7.940130        9.486689   1.000000   1.000000
      7          8.413467       10.027748   1.000000   1.000000
      8          8.653856       10.383838   1.000000   0.999728
      9          9.200449       10.966448   1.000000   0.000000
     10          9.590417       11.335324   1.000000   0.000000
     11          9.822535       11.722810   1.000000   0.000000
     12         15.904551       16.641461   0.000000   0.000000
     13         17.743444       18.478249   0.000000   0.000000
     14         23.538129       23.963445   0.000000   0.000000
     15         24.034031       24.460987   0.000000   0.000000
     16         30.838650       30.844026   0.000000   0.000000
 
  0.2500000E+00  0.1666667E+00  0.0000000E+00  0.1041667E-01
      1          5.270939        5.503368   1.000000   1.000000
      2          6.372647        7.574325   1.000000   1.000000
      3          6.380278        7.631875   1.000000   1.000000
      4          6.853025        8.071867   1.000000   1.000000
      5          7.657772        9.227632   1.000000   1.000000
      6          8.087914        9.628651   1.000000   1.000000
      7          8.212582        9.787942   1.000000   1.000000
      8          8.974929       10.735722   1.000000   0.000000
      9          9.651465       11.479710   1.000000   0.000000
     10          9.815267       11.714430   1.000000   0.000000
     11         10.425499       12.086743   0.988689   0.000000
     12         17.790732       18.446591   0.000000   0.000000
     13         18.158652       18.752366   0.000000   0.000000
     14         20.656407       21.208030   0.000000   0.000000
     15         22.587906       23.003105   0.000000   0.000000
     16         28.174168       28.395890   0.000000   0.000000
 
  0.3333333E+00  0.1666667E+00  0.0000000E+00  0.1041667E-01
      1          5.942841        6.586823   1.000000   1.000000
      2          6.151592        7.387756   1.000000   1.000000
      3          6.165276        7.400078   1.000000   1.000000
      4          7.190071        8.161287   1.000000   1.000000
      5          7.616011        9.169373   1.000000   1.000000
      6          7.991811        9.518201   1.000000   1.000000
      7          8.295737        9.870218   1.000000   1.000000
      8          9.400731       11.202327   1.000000   0.000000
      9          9.809125       11.707144   1.000000   0.000000
     10          9.870824       11.739230   1.000000   0.000000
     11         11.646436       13.041764   0.000000   0.000000
     12         16.439267       17.152141   0.000000   0.000000
     13         19.837354       20.392519   0.000000   0.000000
     14         20.516975       21.010793   0.000000   0.000000
     15         21.789072       22.176888   0.000000   0.000000
     16         25.469781       25.858588   0.000000   0.000000
 
  0.4166667E+00  0.1666667E+00  0.0000000E+00  0.5208333E-02
      1          6.062786        7.019572   1.000000   1.000000
      2          6.074983        7.262540   1.000000   1.000000
      3          6.104939        7.327110   1.000000   1.000000
      4          7.421896        8.256627   1.000000   1.000000
      5          7.640017        9.216453   1.000000   1.000000
      6          7.872385        9.350891   1.000000   1.000000
      7          8.384475        9.977549   1.000000   1.000000
      8          9.689252       11.528353   1.000000   0.000000
      9          9.806664       11.704176   1.000000   0.000000
     10          9.843118       11.715134   1.000000   0.000000
     11         12.949467       13.996561   0.000000   0.000000
     12         14.562161       15.537386   0.000000   0.000000
     13         21.120459       21.524084   0.000000   0.000000
     14         21.295681       21.741362   0.000000   0.000000
     15         21.713895       22.097814   0.000000   0.000000
     16         23.788771       24.305057   0.000000   0.000000
 
  0.2500000E+00  0.2500000E+00  0.0000000E+00  0.5208333E-02
      1          6.092510        6.614381   1.000000   1.000000
      2          6.219770        7.465285   1.000000   1.000000
      3          6.585529        7.760897   1.000000   1.000000
      4          6.626526        7.800837   1.000000   1.000000
      5          7.543359        9.073156   1.000000   1.000000
      6          8.013168        9.547000   1.000000   1.000000
      7          8.301590        9.871798   1.000000   1.000000
      8          9.159394       10.950033   1.000000   0.000000
      9          9.764769       11.656695   1.000000   0.000000
     10          9.875128       11.742089   1.000000   0.000000
     11         11.655266       13.081731   0.000000   0.000000
     12         18.225505       18.761567   0.000000   0.000000
     13         19.011064       19.595078   0.000000   0.000000
     14         19.719855       20.304596   0.000000   0.000000
     15         21.148517       21.616725   0.000000   0.000000
     16         27.368558       27.620547   0.000000   0.000000
 
  0.3333333E+00  0.2500000E+00  0.0000000E+00  0.1041667E-01
      1          6.145255        7.296472   1.000000   1.000000
      2          6.360550        7.428626   1.000000   1.000000
      3          6.445015        7.604026   1.000000   1.000000
      4          6.965032        7.916981   1.000000   1.000000
      5          7.562689        9.076804   1.000000   1.000000
      6          7.804611        9.296969   1.000000   1.000000
      7          8.472700       10.073866   1.000000   1.000000
      8          9.445754       11.265976   1.000000   0.000000
      9          9.735121       11.622769   1.000000   0.000000
     10          9.809877       11.675225   1.000000   0.000000
     11         13.361973       14.425637   0.000000   0.000000
     12         15.988604       16.756452   0.000000   0.000000
     13         18.360435       18.912887   0.000000   0.000000
     14         21.783255       22.278291   0.000000   0.000000
     15         22.181938       22.582252   0.000000   0.000000
     16         24.846512       25.277084   0.000000   0.000000
 
  0.3333333E+00  0.3333333E+00  0.0000000E+00  0.1736111E-02
      1          6.154956        7.462139   1.000000   1.000000
      2          6.558349        7.630588   1.000000   1.000000
      3          6.558349        7.630588   1.000000   1.000000
      4          6.831762        7.826002   1.000000   1.000000
      5          7.634177        9.120180   1.000000   1.000000
      6          7.634177        9.120180   1.000000   1.000000
      7          8.572113       10.181687   1.000000   1.000000
      8          9.596881       11.439082   1.000000   0.000000
      9          9.596881       11.439083   1.000000   0.000000
     10          9.705530       11.589135   1.000000   0.000000
     11         15.132694       15.918204   0.000000   0.000000
     12         15.993725       16.758173   0.000000   0.000000
     13         15.993726       16.758175   0.000000   0.000000
     14         23.058701       23.433907   0.000000   0.000000
     15         23.805286       24.253209   0.000000   0.000000
     16         23.805286       24.253210   0.000000   0.000000
 
  0.0000000E+00  0.0000000E+00  0.1250000E+00  0.1736111E-02
      1          1.668540        1.670021   1.000000   1.000000
      2          5.266124        6.126906   1.000000   1.000000
      3          7.809634        9.431814   1.000000   1.000000
      4          7.864625        9.501826   1.000000   1.000000
      5          7.864626        9.501827   1.000000   1.000000
      6          8.176720        9.863060   1.000000   1.000000
      7          8.176720        9.863061   1.000000   1.000000
      8          8.702321        9.933002   1.000000   1.000000
      9          8.702321       10.477413   1.000000   0.791433
     10          9.706270       10.477413   1.000000   0.791431
     11          9.706270       11.589244   1.000000   0.000000
     12          9.775743       11.589245   1.000000   0.000000
     13         17.885402       18.780191   0.000000   0.000000
     14         32.683519       32.380703   0.000000   0.000000
     15         34.768894       34.766664   0.000000   0.000000
     16         35.569296       35.389405   0.000000   0.000000
 
  0.8333333E-01  0.1387779E-16  0.1250000E+00  0.1041667E-01
      1          1.913932        1.916673   1.000000   1.000000
      2          5.424371        6.305491   1.000000   1.000000
      3          7.652462        9.244324   1.000000   1.000000
      4          7.956989        9.349922   1.000000   1.000000
      5          7.970254        9.604187   1.000000   1.000000
      6          8.064387        9.618778   1.000000   1.000000
      7          8.275676        9.890560   1.000000   1.000000
      8          8.558114        9.970772   1.000000   1.000000
      9          8.648035       10.412841   1.000000   0.995827
     10          8.828121       10.427368   1.000000   0.987023
     11          9.732169       11.619906   1.000000   0.000000
     12         10.994600       12.250213   0.000000   0.000000
     13         17.977173       18.845042   0.000000   0.000000
     14         31.040434       31.095344   0.000000   0.000000
     15         33.284856       33.325078   0.000000   0.000000
     16         33.540240       33.868819   0.000000   0.000000
 
  0.1666667E+00  0.1387779E-16  0.1250000E+00  0.1041667E-01
      1          2.620568        2.632460   1.000000   1.000000
      2          5.819677        6.769666   1.000000   1.000000
      3          7.398725        8.598052   1.000000   1.000000
      4          7.525289        8.916930   1.000000   1.000000
      5          7.929428        9.561492   1.000000   1.000000
      6          8.203319        9.854109   1.000000   1.000000
      7          8.293620        9.887737   1.000000   1.000000
      8          8.507186       10.219538   1.000000   1.000000
      9          8.630672       10.378089   1.000000   0.999853
     10          8.703380       10.399021   1.000000   0.998772
     11          9.786443       11.683288   1.000000   0.000000
     12         12.378529       13.462729   0.000000   0.000000
     13         18.285684       19.073523   0.000000   0.000000
     14         27.267062       27.591825   0.000000   0.000000
     15         31.135142       31.446895   0.000000   0.000000
     16         32.042596       32.114971   0.000000   0.000000
 
  0.2500000E+00  0.1387779E-16  0.1250000E+00  0.1041667E-01
      1          3.674637        3.732353   1.000000   1.000000
      2          6.138786        7.233483   1.000000   1.000000
      3          6.863154        7.979519   1.000000   1.000000
      4          7.254687        8.627517   1.000000   1.000000
      5          7.790589        9.364418   1.000000   1.000000
      6          8.160158        9.852404   1.000000   1.000000
      7          8.343050        9.862247   1.000000   1.000000
      8          8.864096       10.606370   1.000000   0.002284
      9          8.890978       10.621267   1.000000   0.000562
     10          9.000075       10.776908   1.000000   0.000000
     11          9.836983       11.741026   1.000000   0.000000
     12         13.818550       14.776041   0.000000   0.000000
     13         18.872920       19.538364   0.000000   0.000000
     14         23.534710       24.002464   0.000000   0.000000
     15         29.048079       29.326368   0.000000   0.000000
     16         29.503534       29.740351   0.000000   0.000000
 
  0.3333333E+00  0.2775558E-16  0.1250000E+00  0.1041667E-01
      1          4.769703        5.017356   1.000000   1.000000
      2          6.053931        7.254097   1.000000   1.000000
      3          6.437422        7.590560   1.000000   1.000000
      4          7.238952        8.492604   1.000000   1.000000
      5          7.956457        9.443787   1.000000   1.000000
      6          7.998069        9.667725   1.000000   1.000000
      7          8.386980        9.814253   1.000000   1.000000
      8          9.357429       11.166430   1.000000   0.000000
      9          9.429737       11.191348   1.000000   0.000000
     10          9.492883       11.253492   1.000000   0.000000
     11          9.876434       11.784026   1.000000   0.000000
     12         15.182201       15.966028   0.000000   0.000000
     13         19.254207       19.860411   0.000000   0.000000
     14         20.837558       21.391266   0.000000   0.000000
     15         26.481459       26.861530   0.000000   0.000000
     16         27.391961       27.621799   0.000000   0.000000
 
  0.4166667E+00  0.5551115E-16  0.1250000E+00  0.1041667E-01
      1          5.375812        6.074125   1.000000   1.000000
      2          5.823497        7.025348   1.000000   1.000000
      3          6.308715        7.445783   1.000000   1.000000
      4          7.248957        8.365874   1.000000   1.000000
      5          7.877377        9.530036   1.000000   1.000000
      6          8.226968        9.740679   1.000000   1.000000
      7          8.621974        9.859899   1.000000   1.000000
      8          9.712567       11.583112   1.000000   0.000000
      9          9.774882       11.644153   1.000000   0.000000
     10          9.933876       11.838558   1.000000   0.000000
     11         10.604428       12.090292   0.002709   0.000000
     12         15.253351       15.957235   0.000000   0.000000
     13         18.445358       19.172157   0.000000   0.000000
     14         21.154148       21.565493   0.000000   0.000000
     15         24.267747       24.780855   0.000000   0.000000
     16         26.303491       26.484706   0.000000   0.000000
 
  0.5000000E+00  0.2775558E-16  0.1250000E+00  0.5208333E-02
      1          5.500006        6.460614   1.000000   1.000000
      2          5.710096        6.892702   1.000000   1.000000
      3          6.303502        7.454707   1.000000   1.000000
      4          7.269912        8.314089   1.000000   1.000000
      5          7.833800        9.480361   1.000000   1.000000
      6          8.309697        9.848290   1.000000   1.000000
      7          8.802024        9.961042   1.000000   1.000000
      8          9.794880       11.684124   1.000000   0.000000
      9          9.909061       11.806146   1.000000   0.000000
     10         10.006507       11.907588   1.000000   0.000000
     11         11.775762       12.950525   0.000000   0.000000
     12         13.862661       14.802424   0.000000   0.000000
     13         19.776032       20.301549   0.000000   0.000000
     14         20.148423       20.696159   0.000000   0.000000
     15         24.569010       24.985211   0.000000   0.000000
     16         25.593841       26.079787   0.000000   0.000000
 
  0.8333333E-01  0.8333333E-01  0.1250000E+00  0.1041667E-01
      1          2.391011        2.398523   1.000000   1.000000
      2          5.707844        6.631822   1.000000   1.000000
      3          7.453428        8.797210   1.000000   1.000000
      4          7.714345        8.998119   1.000000   1.000000
      5          8.006457        9.656332   1.000000   1.000000
      6          8.131285        9.745389   1.000000   1.000000
      7          8.246019        9.850019   1.000000   1.000000
      8          8.430301       10.135094   1.000000   1.000000
      9          8.628514       10.374048   1.000000   0.999906
     10          8.734155       10.416266   1.000000   0.994472
     11          9.763743       11.656038   1.000000   0.000000
     12         12.002026       13.123654   0.000000   0.000000
     13         18.179247       18.993675   0.000000   0.000000
     14         28.989060       29.194537   0.000000   0.000000
     15         29.802295       30.139095   0.000000   0.000000
     16         34.244148       34.229818   0.000000   0.000000
 
  0.1666667E+00  0.8333333E-01  0.1250000E+00  0.2083333E-01
      1          3.281933        3.312075   1.000000   1.000000
      2          6.118603        7.139733   1.000000   1.000000
      3          7.089891        8.188318   1.000000   1.000000
      4          7.198265        8.647840   1.000000   1.000000
      5          7.870523        9.479617   1.000000   1.000000
      6          8.087136        9.690442   1.000000   1.000000