    2    2    1    2
  0.2137190E+02  0.2470000E-09  0.2470000E-09  0.8090000E-09  0.5000000E-15
  1.000000000000000E-004
  CAR 
 Co-hcc                                  
     18     95     16
 
  0.0000000E+00  0.0000000E+00  0.0000000E+00  0.8680556E-03
      1         -2.973744       -2.830781   1.000000   1.000000
      2         -2.502195       -2.184367   1.000000   1.000000
      3         -0.081852        1.561629   1.000000   1.000000
      4          0.825199        2.158086   1.000000   1.000000
      5          0.825200        2.524574   1.000000   1.000000
      6          0.826094        2.524574   1.000000   1.000000
      7          0.826095        2.525824   1.000000   1.000000
      8          0.942951        2.525824   1.000000   1.000000
      9          1.698384        2.774400   1.000000   1.000000
     10          1.698385        3.893949   1.000000   0.000000
     11          1.701293        3.893951   1.000000   0.000000
     12          1.701294        3.897848   1.000000   0.000000
     13          2.214353        3.897849   1.000000   0.000000
     14          6.496322        6.653732   0.000000   0.000000
     15         10.924540       11.212475   0.000000   0.000000
     16         18.857127       18.754024   0.000000   0.000000
 
  0.8333333E-01  0.0000000E+00  0.0000000E+00  0.5208333E-02
      1         -2.719811       -2.574914   1.000000   1.000000
      2         -2.257094       -1.926229   1.000000   1.000000
      3         -0.003482        1.662932   1.000000   1.000000
      4          0.748729        2.113467   1.000000   1.000000
      5          0.750439        2.427422   1.000000   1.000000
      6          0.933862        2.429565   1.000000   1.000000
      7          0.934737        2.644738   1.000000   1.000000
      8          1.001767        2.645968   1.000000   1.000000
      9          1.255833        2.830252   1.000000   1.000000
     10          1.499984        3.573048   1.000000   0.000000
     11          1.676197        3.867594   1.000000   0.000000
     12          1.680222        3.873095   1.000000   0.000000
     13          2.826324        4.092986   1.000000   0.000000
     14          6.897576        7.172179   0.000000   0.000000
     15         11.076991       11.343338   0.000000   0.000000
     16         19.149637       19.059722   0.000000   0.000000
 
  0.1666667E+00 -0.1387779E-16  0.0000000E+00  0.5208333E-02
      1         -2.003807       -1.836834   1.000000   1.000000
      2         -1.590985       -1.194046   1.000000   1.000000
      3          0.212427        1.909485   1.000000   1.000000
      4          0.587419        1.984295   1.000000   1.000000
      5          0.591874        2.203947   1.000000   1.000000
      6          0.745514        2.232871   1.000000   1.000000
      7          1.055948        2.974266   1.000000   0.999999
      8          1.189255        2.983590   1.000000   0.999997
      9          1.239128        2.984862   1.000000   0.999996
     10          1.239989        2.986042   1.000000   0.999995
     11          1.616147        3.796446   1.000000   0.000000
     12          1.622410        3.805135   1.000000   0.000000
     13          3.852473        4.696072   0.000000   0.000000
     14          7.950120        8.363555   0.000000   0.000000
     15         11.542343       11.747006   0.000000   0.000000
     16         20.004049       19.946793   0.000000   0.000000
 
  0.2500000E+00 -0.2775558E-16  0.0000000E+00  0.5208333E-02
      1         -1.115626       -0.756639   1.000000   1.000000
      2         -0.887018       -0.205736   1.000000   1.000000
      3          0.331884        1.806200   1.000000   1.000000
      4          0.541823        1.925941   1.000000   1.000000
      5          0.583629        2.119359   1.000000   1.000000
      6          0.629955        2.416611   1.000000   1.000000
      7          0.660245        2.446377   1.000000   1.000000
      8          1.535272        3.214057   1.000000   0.021447
      9          1.543953        3.474856   1.000000   0.000000
     10          1.615916        3.476052   1.000000   0.000000
     11          1.678297        3.700848   1.000000   0.000000
     12          1.679079        3.712996   1.000000   0.000000
     13          5.170281        5.723416   0.000000   0.000000
     14          9.431486        9.903543   0.000000   0.000000
     15         12.320467       12.436718   0.000000   0.000000
     16         17.856197       18.193553   0.000000   0.000000
 
  0.3333333E+00 -0.2775558E-16  0.0000000E+00  0.5208333E-02
      1         -0.824009        0.127348   1.000000   1.000000
      2         -0.766752        0.359397   1.000000   1.000000
      3          0.027963        1.637755   1.000000   1.000000
      4          0.198038        1.989308   1.000000   1.000000
      5          0.850914        2.356718   1.000000   1.000000
      6          1.002795        2.769318   1.000000   1.000000
      7          1.455226        2.906787   1.000000   1.000000
      8          1.466041        3.557178   1.000000   0.000000
      9          1.818216        3.606417   1.000000   0.000000
     10          2.147356        3.621634   1.000000   0.000000
     11          2.148030        4.005395   1.000000   0.000000
     12          2.751776        4.006440   1.000000   0.000000
     13          6.808336        7.169812   0.000000   0.000000
     14         11.183480       11.657337   0.000000   0.000000
     15         13.065441       13.184261   0.000000   0.000000
     16         14.284061       14.675601   0.000000   0.000000
 
  0.4166667E+00 -0.2775558E-16  0.0000000E+00  0.5208333E-02
      1         -0.908431        0.308588   1.000000   1.000000
      2         -0.891998        0.365400   1.000000   1.000000
      3         -0.154020        1.529614   1.000000   1.000000
      4         -0.052775        1.715499   1.000000   1.000000
      5          1.085947        3.114313   1.000000   0.787114
      6          1.217888        3.343304   1.000000   0.000000
      7          1.397094        3.537965   1.000000   0.000000
      8          1.409506        3.555465   1.000000   0.000000
      9          2.513473        3.999669   1.000000   0.000000
     10          2.513626        4.424599   1.000000   0.000000
     11          3.755185        4.424865   0.000000   0.000000
     12          4.555654        4.725709   0.000000   0.000000
     13          8.765017        9.003492   0.000000   0.000000
     14         10.864892       11.438317   0.000000   0.000000
     15         11.816145       12.388437   0.000000   0.000000
     16         12.656784       13.015932   0.000000   0.000000
 
  0.5000000E+00 -0.5551115E-16  0.0000000E+00  0.2604167E-02
      1         -0.959805        0.302632   1.000000   1.000000
      2         -0.955598        0.318210   1.000000   1.000000
      3         -0.211444        1.499819   1.000000   1.000000
      4         -0.142363        1.614368   1.000000   1.000000
      5          1.179446        3.278333   1.000000   0.000061
      6          1.276209        3.422363   1.000000   0.000000
      7          1.375969        3.513103   1.000000   0.000000
      8          1.389006        3.531483   1.000000   0.000000
      9          2.652686        4.585294   1.000000   0.000000
     10          2.652892        4.585558   1.000000   0.000000
     11          5.248466        5.200061   0.000000   0.000000
     12          5.597157        5.572873   0.000000   0.000000
     13          9.308708       10.069409   0.000000   0.000000
     14         10.122956       10.718701   0.000000   0.000000
     15         10.534008       10.926859   0.000000   0.000000
     16         11.675667       11.841144   0.000000   0.000000
 
  0.8333333E-01  0.8333333E-01  0.0000000E+00  0.5208333E-02
      1         -2.230037       -2.075955   1.000000   1.000000
      2         -1.794312       -1.427638   1.000000   1.000000
      3          0.144888        1.851335   1.000000   1.000000
      4          0.607545        2.028223   1.000000   1.000000
      5          0.609188        2.248188   1.000000   1.000000
      6          0.878250        2.250580   1.000000   1.000000
      7          1.075377        2.890702   1.000000   1.000000
      8          1.159790        2.891823   1.000000   1.000000
      9          1.191234        2.936319   1.000000   1.000000
     10          1.206501        3.144968   1.000000   0.471858
     11          1.629020        3.811284   1.000000   0.000000
     12          1.632746        3.816437   1.000000   0.000000
     13          3.552157        4.499372   0.000000   0.000000
     14          7.619442        8.004768   0.000000   0.000000
     15         11.386938       11.611694   0.000000   0.000000
     16         19.723869       19.656978   0.000000   0.000000
 
  0.1666667E+00  0.8333333E-01  0.0000000E+00  0.1041667E-01
      1         -1.360364       -1.142176   1.000000   1.000000
      2         -1.028377       -0.524098   1.000000   1.000000
      3          0.406402        1.884786   1.000000   1.000000
      4          0.437834        1.957731   1.000000   1.000000
      5          0.447502        2.001849   1.000000   1.000000
      6          0.483414        2.218102   1.000000   1.000000
      7          0.765683        2.625345   1.000000   1.000000
      8          1.273529        3.121074   1.000000   0.727482
      9          1.540042        3.352234   1.000000   0.000000
     10          1.546292        3.368961   1.000000   0.000000
     11          1.595399        3.704348   1.000000   0.000000
     12          1.721393        3.712985   1.000000   0.000000
     13          4.675543        5.327911   0.000000   0.000000
     14          8.874703        9.338269   0.000000   0.000000
     15         12.020378       12.169792   0.000000   0.000000
     16         19.933551       20.225781   0.000000   0.000000
 
  0.2500000E+00  0.8333333E-01  0.0000000E+00  0.1041667E-01
      1         -0.691012       -0.042424   1.000000   1.000000
      2         -0.585189        0.370638   1.000000   1.000000
      3          0.165936        1.731389   1.000000   1.000000
      4          0.371848        1.910288   1.000000   1.000000
      5          0.655834        2.092359   1.000000   1.000000
      6          0.673538        2.182477   1.000000   1.000000
      7          0.859684        2.634120   1.000000   1.000000
      8          1.436242        3.345719   1.000000   0.000000
      9          1.445330        3.579182   1.000000   0.000000
     10          1.582784        3.591536   1.000000   0.000000
     11          2.239731        3.949140   1.000000   0.000000
     12          2.616686        4.041293   1.000000   0.000000
     13          6.137141        6.576830   0.000000   0.000000
     14         10.494463       10.982603   0.000000   0.000000
     15         12.927500       12.997842   0.000000   0.000000
     16         16.127429       16.490732   0.000000   0.000000
 
  0.3333333E+00  0.8333333E-01  0.0000000E+00  0.1041667E-01
      1         -0.708268        0.448619   1.000000   1.000000
      2         -0.682472        0.557038   1.000000   1.000000
      3         -0.049098        1.614872   1.000000   1.000000
      4          0.081036        1.867296   1.000000   1.000000
      5          0.981930        2.722932   1.000000   1.000000
      6          1.087385        2.921045   1.000000   1.000000
      7          1.345982        3.047070   1.000000   0.996516
      8          1.357271        3.469961   1.000000   0.000000
      9          1.776738        3.485142   1.000000   0.000000
     10          1.996085        3.589006   1.000000   0.000000
     11          3.401140        4.664428   0.000000   0.000000
     12          4.123608        4.990868   0.000000   0.000000
     13          7.937601        8.233020   0.000000   0.000000
     14         12.276362       12.744682   0.000000   0.000000
     15         12.413194       12.841980   0.000000   0.000000
     16         13.227847       13.604046   0.000000   0.000000
 
  0.4166667E+00  0.8333333E-01  0.0000000E+00  0.1041667E-01
      1         -0.811348        0.452944   1.000000   1.000000
      2         -0.804746        0.477644   1.000000   1.000000
      3         -0.152175        1.563656   1.000000   1.000000
      4         -0.076223        1.694640   1.000000   1.000000
      5          1.160454        3.249832   1.000000   0.001196
      6          1.258030        3.382997   1.000000   0.000000
      7          1.293737        3.406564   1.000000   0.000000
      8          1.306294        3.423365   1.000000   0.000000
      9          2.245076        3.728005   1.000000   0.000000
     10          2.282559        3.888452   1.000000   0.000000
     11          5.210728        5.719637   0.000000   0.000000
     12          5.822805        6.185091   0.000000   0.000000
     13          9.850867       10.219378   0.000000   0.000000
     14         10.010703       10.531884   0.000000   0.000000
     15         10.771109       11.472190   0.000000   0.000000
     16         12.511752       12.721313   0.000000   0.000000
 
  0.1666667E+00  0.1666667E+00  0.0000000E+00  0.5208333E-02
      1         -0.462876       -0.089275   1.000000   1.000000
      2         -0.286152        0.449823   1.000000   1.000000
      3          0.200607        1.715559   1.000000   1.000000
      4          0.204664        1.721847   1.000000   1.000000
      5          0.242033        1.786753   1.000000   1.000000
      6          0.465672        2.288160   1.000000   1.000000
      7          0.722592        2.520631   1.000000   1.000000
      8          1.397244        3.300234   1.000000   0.000004
      9          1.405263        3.529083   1.000000   0.000000
     10          1.405709        3.541087   1.000000   0.000000
     11          2.295926        3.974578   1.000000   0.000000
     12          2.667955        4.099243   1.000000   0.000000
     13          5.917324        6.395889   0.000000   0.000000
     14         10.262000       10.758604   0.000000   0.000000
     15         12.835020       12.911834   0.000000   0.000000
     16         18.318998       18.548939   0.000000   0.000000
 
  0.2500000E+00  0.1666667E+00  0.0000000E+00  0.1041667E-01
      1         -0.205710        0.853742   1.000000   1.000000
      2         -0.182895        1.065922   1.000000   1.000000
      3          0.075890        1.728686   1.000000   1.000000
      4          0.231110        1.771688   1.000000   1.000000
      5          0.561449        1.905633   1.000000   1.000000
      6          0.578998        2.039882   1.000000   1.000000
      7          1.093685        2.905116   1.000000   1.000000
      8          1.232333        3.324888   1.000000   0.000000
      9          1.244230        3.342531   1.000000   0.000000
     10          1.549396        3.460121   1.000000   0.000000
     11          3.464804        4.826150   0.000000   0.000000
     12          4.129662        5.210994   0.000000   0.000000
     13          7.535363        7.879364   0.000000   0.000000
     14         11.979745       12.487736   0.000000   0.000000
     15         13.727386       13.820984   0.000000   0.000000
     16         14.824744       15.172362   0.000000   0.000000
 
  0.3333333E+00  0.1666667E+00  0.0000000E+00  0.1041667E-01
      1         -0.385530        0.898363   1.000000   1.000000
      2         -0.378227        0.934978   1.000000   1.000000
      3         -0.007618        1.719654   1.000000   1.000000
      4          0.085309        1.889671   1.000000   1.000000
      5          1.049508        2.610094   1.000000   1.000000
      6          1.091866        2.701450   1.000000   1.000000
      7          1.101285        3.160920   1.000000   0.300904
      8          1.115163        3.180249   1.000000   0.142648
      9          1.466432        3.218331   1.000000   0.015951
     10          1.654171        3.523899   1.000000   0.000000
     11          5.224240        6.071675   0.000000   0.000000
     12          6.025462        6.729636   0.000000   0.000000
     13          9.503377        9.753980   0.000000   0.000000
     14         11.397722       11.912656   0.000000   0.000000
     15         12.408569       12.947317   0.000000   0.000000
     16         13.511384       13.941703   0.000000   0.000000
 
  0.4166667E+00  0.1666667E+00  0.0000000E+00  0.5208333E-02
      1         -0.455994        0.848373   1.000000   1.000000
      2         -0.453735        0.854669   1.000000   1.000000
      3         -0.027305        1.732151   1.000000   1.000000
      4          0.032976        1.832173   1.000000   1.000000
      5          1.051141        3.005330   1.000000   0.999948
      6          1.065480        3.065019   1.000000   0.985763
      7          1.196282        3.097739   1.000000   0.897106
      8          1.269123        3.116682   1.000000   0.767134
      9          1.649247        3.362893   1.000000   0.000000
     10          1.674470        3.465047   1.000000   0.000000
     11          6.861526        7.327879   0.000000   0.000000
     12          7.205498        7.670467   0.000000   0.000000
     13          9.687518       10.384783   0.000000   0.000000
     14         10.458040       11.201804   0.000000   0.000000
     15         11.352288       11.580952   0.000000   0.000000
     16         12.377251       12.545866   0.000000   0.000000
 
  0.2500000E+00  0.2500000E+00  0.0000000E+00  0.5208333E-02
      1          0.071774        1.470451   1.000000   1.000000
      2          0.081014        1.485708   1.000000   1.000000
      3          0.086640        1.794906   1.000000   1.000000
      4          0.193715        1.819986   1.000000   1.000000
      5          0.629395        1.962925   1.000000   1.000000
      6          0.634085        2.019996   1.000000   1.000000
      7          0.977751        3.005507   1.000000   0.999946
      8          0.997447        3.037068   1.000000   0.998565
      9          1.241154        3.195736   1.000000   0.065963
     10          1.489166        3.510149   1.000000   0.000000
     11          5.233981        6.168514   0.000000   0.000000
     12          6.081549        6.892995   0.000000   0.000000
     13          9.330135        9.599825   0.000000   0.000000
     14         13.522641       13.873778   0.000000   0.000000
     15         13.723877       14.186174   0.000000   0.000000
     16         13.766128       14.266069   0.000000   0.000000
 
  0.3333333E+00  0.2500000E+00  0.0000000E+00  0.1041667E-01
      1          0.059619        1.403604   1.000000   1.000000
      2          0.070418        1.411782   1.000000   1.000000
      3          0.162281        1.962863   1.000000   1.000000
      4          0.224439        2.070717   1.000000   1.000000
      5          0.774731        2.280087   1.000000   1.000000
      6          0.798268        2.341262   1.000000   1.000000
      7          0.931686        2.749191   1.000000   1.000000
      8          0.964579        2.785966   1.000000   1.000000
      9          1.228760        3.359350   1.000000   0.000000
     10          1.336584        3.472766   1.000000   0.000000
     11          7.407580        8.008254   0.000000   0.000000
     12          8.238200        8.812961   0.000000   0.000000
     13         10.735481       11.270419   0.000000   0.000000
     14         11.458945       11.689321   0.000000   0.000000
     15         11.716801       12.273211   0.000000   0.000000
     16         13.264922       13.703280   0.000000   0.000000
 
  0.3333333E+00  0.3333333E+00  0.0000000E+00  0.1736111E-02
      1          0.419784        1.856795   1.000000   1.000000
      2          0.458128        1.888053   1.000000   1.000000
      3          0.458128        1.888058   1.000000   1.000000
      4          0.498857        1.925541   1.000000   1.000000
      5          0.531793        2.291945   1.000000   1.000000
      6          0.547995        2.354917   1.000000   1.000000
      7          0.547999        2.354917   1.000000   1.000000
      8          0.569104        2.422663   1.000000   1.000000
      9          1.219774        3.424144   1.000000   0.000000
     10          1.219777        3.424147   1.000000   0.000000
     11          9.736443       10.164371   0.000000   0.000000
     12          9.993225       10.462726   0.000000   0.000000
     13          9.993227       10.462728   0.000000   0.000000
     14         10.631081       11.145621   0.000000   0.000000
     15         12.117764       12.754257   0.000000   0.000000
     16         12.117766       12.754259   0.000000   0.000000
 
  0.0000000E+00  0.0000000E+00  0.1250000E+00  0.1736111E-02
      1         -2.956862       -2.810049   1.000000   1.000000
      2         -2.521016       -2.214034   1.000000   1.000000
      3         -0.066253        1.568083   1.000000   1.000000
      4          0.822130        2.055178   1.000000   1.000000
      5          0.825226        2.524613   1.000000   1.000000
      6          0.825227        2.524614   1.000000   1.000000
      7          0.826067        2.525785   1.000000   1.000000
      8          0.826068        2.525786   1.000000   1.000000
      9          1.698516        2.969840   1.000000   0.999999
     10          1.698516        3.894120   1.000000   0.000000
     11          1.701174        3.894121   1.000000   0.000000
     12          1.701174        3.897692   1.000000   0.000000
     13          2.419081        3.897693   1.000000   0.000000
     14          6.252906        6.434476   0.000000   0.000000
     15         11.235132       11.502184   0.000000   0.000000
     16         18.179372       18.151624   0.000000   0.000000
 
  0.8333333E-01  0.0000000E+00  0.1250000E+00  0.1041667E-01
      1         -2.703097       -2.554136   1.000000   1.000000
      2         -2.275388       -1.956097   1.000000   1.000000
      3          0.011387        1.668351   1.000000   1.000000
      4          0.748425        2.050558   1.000000   1.000000
      5          0.750385        2.427632   1.000000   1.000000
      6          0.860122        2.429503   1.000000   1.000000
      7          0.933922        2.644828   1.000000   1.000000
      8          0.934698        2.645916   1.000000   1.000000
      9          1.335774        2.941566   1.000000   1.000000
     10          1.499122        3.568919   1.000000   0.000000
     11          1.676321        3.867772   1.000000   0.000000
     12          1.679990        3.872792   1.000000   0.000000
     13          2.972123        4.137716   0.999999   0.000000
     14          6.644026        6.942268   0.000000   0.000000
     15         11.399824       11.649322   0.000000   0.000000
     16         18.440621       18.427206   0.000000   0.000000
 
  0.1666667E+00 -0.1387779E-16  0.1250000E+00  0.1041667E-01
      1         -1.988343       -1.816295   1.000000   1.000000
      2         -1.606526       -1.223709   1.000000   1.000000
      3          0.224529        1.910583   1.000000   1.000000
      4          0.587314        1.977683   1.000000   1.000000
      5          0.591823        2.206456   1.000000   1.000000
      6          0.716498        2.232405   1.000000   1.000000
      7          1.057221        2.974709   1.000000   0.999999
      8          1.169495        2.983676   1.000000   0.999996
      9          1.239186        2.984902   1.000000   0.999996
     10          1.240025        2.986530   1.000000   0.999995
     11          1.616441        3.796839   1.000000   0.000000
     12          1.622201        3.804835   1.000000   0.000000
     13          3.983857        4.795104   0.000000   0.000000
     14          7.663185        8.085397   0.000000   0.000000
     15         11.900971       12.102344   0.000000   0.000000
     16         19.180058       19.209482   0.000000   0.000000
 
  0.2500000E+00 -0.2775558E-16  0.1250000E+00  0.1041667E-01
      1         -1.106241       -0.738527   1.000000   1.000000
      2         -0.894924       -0.230368   1.000000   1.000000
      3          0.334288        1.813187   1.000000   1.000000
      4          0.495535        1.923301   1.000000   1.000000
      5          0.619129        2.123314   1.000000   1.000000
      6          0.634141        2.355100   1.000000   1.000000
      7          0.685929        2.517263   1.000000   1.000000
      8          1.535623        3.175235   1.000000   0.177042
      9          1.543654        3.474902   1.000000   0.000000
     10          1.562752        3.476005   1.000000   0.000000
     11          1.678332        3.701339   1.000000   0.000000
     12          1.679054        3.712572   1.000000   0.000000
     13          5.296485        5.843026   0.000000   0.000000
     14          9.089548        9.540698   0.000000   0.000000
     15         12.732448       12.872563   0.000000   0.000000
     16         17.864147       18.206278   0.000000   0.000000
 
  0.3333333E+00 -0.2775558E-16  0.1250000E+00  0.1041667E-01
      1         -0.821868        0.135826   1.000000   1.000000
      2         -0.769014        0.350093   1.000000   1.000000
      3          0.032521        1.646197   1.000000   1.000000
      4          0.188206        1.959232   1.000000   1.000000
      5          0.862247        2.400294   1.000000   1.000000
      6          1.000460        2.768024   1.000000   1.000000
      7          1.455615        2.910303   1.000000   1.000000
      8          1.465620        3.506093   1.000000   0.000000
      9          1.841478        3.606972   1.000000   0.000000
     10          2.147377        3.621042   1.000000   0.000000
     11          2.147998        4.005429   1.000000   0.000000
     12          2.698161        4.006393   1.000000   0.000000
     13          6.929787        7.291041   0.000000   0.000000
     14         10.772064       11.180886   0.000000   0.000000
     15         13.441298       13.658609   0.000000   0.000000
     16         14.327996       14.712950   0.000000   0.000000
 
  0.4166667E+00 -0.2775558E-16  0.1250000E+00  0.1041667E-01
      1         -0.907850        0.310639   1.000000   1.000000
      2         -0.892661        0.363125   1.000000   1.000000
      3         -0.150749        1.535380   1.000000   1.000000
      4         -0.057431        1.706412   1.000000   1.000000
      5          1.092640        3.131052   1.000000   0.626647
      6          1.214476        3.341834   1.000000   0.000000
      7          1.397603        3.538665   1.000000   0.000000
      8          1.409059        3.554817   1.000000   0.000000
      9          2.513415        4.012497   1.000000   0.000000
     10          2.513544        4.424517   1.000000   0.000000
     11          3.776835        4.424746   0.000000   0.000000
     12          4.511663        4.680407   0.000000   0.000000
     13          8.870293        9.109479   0.000000   0.000000
     14         10.867130       11.425255   0.000000   0.000000
     15         11.751175       12.303263   0.000000   0.000000
     16         12.467588       12.842855   0.000000   0.000000
 
  0.5000000E+00 -0.5551115E-16  0.1250000E+00  0.5208333E-02
      1         -0.959716        0.303105   1.000000   1.000000
      2         -0.955871        0.317446   1.000000   1.000000
      3         -0.209410        1.503286   1.000000   1.000000
      4         -0.145448        1.609182   1.000000   1.000000
      5          1.184070        3.286566   1.000000   0.000023
      6          1.273542        3.420646   1.000000   0.000000
      7          1.376370        3.513680   1.000000   0.000000
      8          1.388363        3.530607   1.000000   0.000000
      9          2.652664        4.585267   1.000000   0.000000
     10          2.652826        4.585477   1.000000   0.000000
     11          5.258947        5.207675   0.000000   0.000000
     12          5.580992        5.552796   0.000000   0.000000
     13          9.307658       10.065610   0.000000   0.000000
     14          9.950450       10.541321   0.000000   0.000000
     15         10.765338       11.163418   0.000000   0.000000
     16         11.732161       11.898252   0.000000   0.000000
 
  0.8333333E-01  0.8333333E-01  0.1250000E+00  0.1041667E-01
      1         -2.213959       -2.055247   1.000000   1.000000
      2         -1.811007       -1.457548   1.000000   1.000000
      3          0.158045        1.854012   1.000000   1.000000
      4          0.607646        2.011634   1.000000   1.000000
      5          0.609109        2.248335   1.000000   1.000000
      6          0.807095        2.250486   1.000000   1.000000
      7          1.097148        2.890758   1.000000   1.000000
      8          1.159252        2.891827   1.000000   1.000000
      9          1.191710        2.960045   1.000000   1.000000
     10          1.205543        3.142839   1.000000   0.495859
     11          1.629152        3.811469   1.000000   0.000000
     12          1.632590        3.816230   1.000000   0.000000
     13          3.685638        4.586881   0.000000   0.000000
     14          7.343812        7.743471   0.000000   0.000000
     15         11.733854       11.950582   0.000000   0.000000
     16         18.945385       18.958911   0.000000   0.000000
 
  0.1666667E+00  0.8333333E-01  0.1250000E+00  0.2083333E-01
      1         -1.347276       -1.122379   1.000000   1.000000
      2         -1.040220       -0.552638   1.000000   1.000000
      3          0.409655        1.892594   1.000000   1.000000
      4          0.438046        1.957136   1.000000   1.000000
      5          0.447191        2.005551   1.000000   1.000000
      6          0.481389        2.205572   1.000000   1.000000