PROCAR lm decomposed
# of k-points:   95         # of bands:   16         # of ions:    2

 k-point     1 :    0.00000000 0.00000000 0.00000000     weight = 0.00086806

band     1 # energy    1.50985953 # occ.  1.00000000
 
ion      s     py     pz     px    dxy    dyz    dz2    dxz  x2-y2    tot
    1  0.370  0.000  0.000  0.000  0.000  0.000  0.000  0.000  0.000  0.370
    2  0.370  0.000  0.000  0.000  0.000  0.000  0.000  0.000  0.000  0.370
tot    0.741  0.000  0.000  0.000  0.000  0.000  0.000  0.000  0.000  0.741
 
band     2 # energy    5.29771982 # occ.  1.00000000
 
ion      s     py     pz     px    dxy    dyz    dz2    dxz  x2-y2    tot
    1  0.084  0.000  0.000  0.000  0.000  0.000  0.367  0.000  0.000  0.451
    2  0.084  0.000  0.000  0.000  0.000  0.000  0.367  0.000  0.000  0.451
tot    0.167  0.000  0.000  0.000  0.000  0.000  0.734  0.000  0.000  0.901
 
band     3 # energy    7.85047131 # occ.  1.00000000
 
ion      s     py     pz     px    dxy    dyz    dz2    dxz  x2-y2    tot
    1  0.000  0.000  0.000  0.000  0.000  0.000  0.487  0.000  0.000  0.487
    2  0.000  0.000  0.000  0.000  0.000  0.000  0.487  0.000  0.000  0.487
tot    0.000  0.000  0.000  0.000  0.000  0.000  0.973  0.000  0.000  0.973
 
band     4 # energy    7.90404759 # occ.  1.00000000
 
ion      s     py     pz     px    dxy    dyz    dz2    dxz  x2-y2    tot
    1  0.000  0.000  0.000  0.001  0.483  0.000  0.000  0.000  0.000  0.484
    2  0.000  0.000  0.000  0.001  0.483  0.000  0.000  0.000  0.000  0.484
tot    0.000  0.000  0.000  0.001  0.966  0.000  0.000  0.000  0.000  0.968
 
band     5 # energy    7.90404787 # occ.  1.00000000
 
ion      s     py     pz     px    dxy    dyz    dz2    dxz  x2-y2    tot
    1  0.000  0.001  0.000  0.000  0.000  0.000  0.000  0.000  0.483  0.484
    2  0.000  0.001  0.000  0.000  0.000  0.000  0.000  0.000  0.483  0.484
tot    0.000  0.001  0.000  0.000  0.000  0.000  0.000  0.000  0.966  0.968
 
band     6 # energy    8.21893577 # occ.  1.00000000
 
ion      s     py     pz     px    dxy    dyz    dz2    dxz  x2-y2    tot
    1  0.000  0.000  0.000  0.001  0.487  0.000  0.000  0.000  0.000  0.488
    2  0.000  0.000  0.000  0.001  0.487  0.000  0.000  0.000  0.000  0.488
tot    0.000  0.000  0.000  0.001  0.975  0.000  0.000  0.000  0.000  0.976
 
band     7 # energy    8.21893600 # occ.  1.00000000
 
ion      s     py     pz     px    dxy    dyz    dz2    dxz  x2-y2    tot
    1  0.000  0.001  0.000  0.000  0.000  0.000  0.000  0.000  0.487  0.488
    2  0.000  0.001  0.000  0.000  0.000  0.000  0.000  0.000  0.487  0.488
tot    0.000  0.001  0.000  0.000  0.000  0.000  0.000  0.000  0.975  0.976
 
band     8 # energy    8.60683665 # occ.  1.00000000
 
ion      s     py     pz     px    dxy    dyz    dz2    dxz  x2-y2    tot
    1  0.000  0.000  0.000  0.000  0.000  0.000  0.000  0.490  0.000  0.490
    2  0.000  0.000  0.000  0.000  0.000  0.000  0.000  0.490  0.000  0.490
tot    0.000  0.000  0.000  0.000  0.000  0.000  0.000  0.980  0.000  0.980
 
band     9 # energy    8.60683672 # occ.  1.00000000
 
ion      s     py     pz     px    dxy    dyz    dz2    dxz  x2-y2    tot
    1  0.000  0.000  0.000  0.000  0.000  0.490  0.000  0.000  0.000  0.490
    2  0.000  0.000  0.000  0.000  0.000  0.490  0.000  0.000  0.000  0.490
tot    0.000  0.000  0.000  0.000  0.000  0.980  0.000  0.000  0.000  0.980
 
band    10 # energy    9.71549644 # occ.  1.00000000
 
ion      s     py     pz     px    dxy    dyz    dz2    dxz  x2-y2    tot
    1  0.000  0.000  0.000  0.000  0.000  0.000  0.000  0.493  0.000  0.493
    2  0.000  0.000  0.000  0.000  0.000  0.000  0.000  0.493  0.000  0.493
tot    0.000  0.000  0.000  0.000  0.000  0.000  0.000  0.985  0.000  0.985
 
band    11 # energy    9.71549654 # occ.  1.00000000
 
ion      s     py     pz     px    dxy    dyz    dz2    dxz  x2-y2    tot
    1  0.000  0.000  0.000  0.000  0.000  0.493  0.000  0.000  0.000  0.493
    2  0.000  0.000  0.000  0.000  0.000  0.493  0.000  0.000  0.000  0.493
tot    0.000  0.000  0.000  0.000  0.000  0.985  0.000  0.000  0.000  0.985
 
band    12 # energy   10.38436031 # occ.  0.99971271
 
ion      s     py     pz     px    dxy    dyz    dz2    dxz  x2-y2    tot
    1  0.000  0.000  0.352  0.000  0.000  0.000  0.000  0.000  0.000  0.352
    2  0.000  0.000  0.352  0.000  0.000  0.000  0.000  0.000  0.000  0.352
tot    0.000  0.000  0.704  0.000  0.000  0.000  0.000  0.000  0.000  0.704
 
band    13 # energy   16.96500504 # occ.  0.00000000
 
ion      s     py     pz     px    dxy    dyz    dz2    dxz  x2-y2    tot
    1  0.227  0.000  0.000  0.000  0.000  0.000  0.232  0.000  0.000  0.459
    2  0.227  0.000  0.000  0.000  0.000  0.000  0.232  0.000  0.000  0.459
tot    0.454  0.000  0.000  0.000  0.000  0.000  0.464  0.000  0.000  0.918
 
band    14 # energy   32.75669520 # occ.  0.00000000
 
ion      s     py     pz     px    dxy    dyz    dz2    dxz  x2-y2    tot
    1  0.007  0.000  0.000  0.000  0.000  0.000  0.032  0.000  0.000  0.038
    2  0.007  0.000  0.000  0.000  0.000  0.000  0.032  0.000  0.000  0.038
tot    0.013  0.000  0.000  0.000  0.000  0.000  0.064  0.000  0.000  0.077
 
band    15 # energy   35.56108317 # occ.  0.00000000
 
ion      s     py     pz     px    dxy    dyz    dz2    dxz  x2-y2    tot
    1  0.000  0.187  0.000  0.080  0.038  0.000  0.000  0.000  0.087  0.392
    2  0.000  0.187  0.000  0.081  0.038  0.000  0.000  0.000  0.087  0.392
tot    0.000  0.373  0.000  0.161  0.075  0.000  0.000  0.000  0.174  0.784
 
band    16 # energy   35.56138496 # occ.  0.00000000
 
ion      s     py     pz     px    dxy    dyz    dz2    dxz  x2-y2    tot
    1  0.000  0.080  0.000  0.187  0.087  0.000  0.000  0.000  0.038  0.392
    2  0.000  0.080  0.000  0.187  0.087  0.000  0.000  0.000  0.038  0.392
tot    0.000  0.161  0.000  0.373  0.174  0.000  0.000  0.000  0.075  0.784
 

 k-point     2 :    0.08333333 0.00000000 0.00000000     weight = 0.00520833

band     1 # energy    1.75769591 # occ.  1.00000000
 
ion      s     py     pz     px    dxy    dyz    dz2    dxz  x2-y2    tot
    1  0.362  0.002  0.000  0.006  0.000  0.000  0.000  0.000  0.000  0.371
    2  0.362  0.002  0.000  0.006  0.000  0.000  0.000  0.000  0.000  0.371
tot    0.724  0.004  0.000  0.013  0.000  0.000  0.000  0.000  0.000  0.741
 
band     2 # energy    5.44755902 # occ.  1.00000000
 
ion      s     py     pz     px    dxy    dyz    dz2    dxz  x2-y2    tot
    1  0.076  0.001  0.000  0.004  0.002  0.000  0.368  0.000  0.001  0.452
    2  0.076  0.001  0.000  0.004  0.002  0.000  0.368  0.000  0.001  0.452
tot    0.152  0.003  0.000  0.008  0.004  0.000  0.736  0.000  0.001  0.903
 
band     3 # energy    7.65369212 # occ.  1.00000000
 
ion      s     py     pz     px    dxy    dyz    dz2    dxz  x2-y2    tot
    1  0.000  0.000  0.000  0.001  0.223  0.000  0.184  0.000  0.074  0.482
    2  0.000  0.000  0.000  0.001  0.223  0.000  0.184  0.000  0.074  0.482
tot    0.000  0.001  0.000  0.002  0.446  0.000  0.367  0.000  0.149  0.964
 
band     4 # energy    8.02091886 # occ.  1.00000000
 
ion      s     py     pz     px    dxy    dyz    dz2    dxz  x2-y2    tot
    1  0.000  0.001  0.000  0.000  0.121  0.000  0.000  0.000  0.362  0.484
    2  0.000  0.001  0.000  0.000  0.121  0.000  0.000  0.000  0.362  0.484
tot    0.000  0.002  0.000  0.001  0.241  0.000  0.000  0.000  0.724  0.968
 
band     5 # energy    8.06384758 # occ.  1.00000000
 
ion      s     py     pz     px    dxy    dyz    dz2    dxz  x2-y2    tot
    1  0.000  0.000  0.000  0.000  0.157  0.000  0.277  0.000  0.052  0.486
    2  0.000  0.000  0.000  0.000  0.157  0.000  0.277  0.000  0.052  0.486
tot    0.000  0.000  0.000  0.001  0.314  0.000  0.553  0.000  0.105  0.973
 
band     6 # energy    8.16887305 # occ.  1.00000000
 
ion      s     py     pz     px    dxy    dyz    dz2    dxz  x2-y2    tot
    1  0.001  0.000  0.000  0.001  0.343  0.000  0.028  0.000  0.114  0.487
    2  0.001  0.000  0.000  0.001  0.343  0.000  0.028  0.000  0.114  0.487
tot    0.002  0.000  0.000  0.001  0.686  0.000  0.056  0.000  0.229  0.974
 
band     7 # energy    8.32245216 # occ.  1.00000000
 
ion      s     py     pz     px    dxy    dyz    dz2    dxz  x2-y2    tot
    1  0.000  0.001  0.000  0.000  0.122  0.000  0.000  0.000  0.365  0.488
    2  0.000  0.001  0.000  0.000  0.122  0.000  0.000  0.000  0.365  0.488
tot    0.000  0.002  0.000  0.001  0.244  0.000  0.000  0.000  0.731  0.977
 
band     8 # energy    8.44435057 # occ.  1.00000000
 
ion      s     py     pz     px    dxy    dyz    dz2    dxz  x2-y2    tot
    1  0.000  0.000  0.015  0.000  0.000  0.116  0.000  0.349  0.000  0.481
    2  0.000  0.000  0.015  0.000  0.000  0.116  0.000  0.349  0.000  0.481
tot    0.000  0.000  0.031  0.000  0.000  0.233  0.000  0.698  0.000  0.961
 
band     9 # energy    8.53410055 # occ.  1.00000000
 
ion      s     py     pz     px    dxy    dyz    dz2    dxz  x2-y2    tot
    1  0.000  0.000  0.000  0.000  0.000  0.367  0.000  0.122  0.000  0.489
    2  0.000  0.000  0.000  0.000  0.000  0.367  0.000  0.122  0.000  0.489
tot    0.000  0.000  0.000  0.000  0.000  0.734  0.000  0.245  0.000  0.978
 
band    10 # energy    8.90949447 # occ.  1.00000000
 
ion      s     py     pz     px    dxy    dyz    dz2    dxz  x2-y2    tot
    1  0.000  0.000  0.092  0.000  0.000  0.090  0.000  0.269  0.000  0.451
    2  0.000  0.000  0.092  0.000  0.000  0.090  0.000  0.269  0.000  0.451
tot    0.000  0.000  0.184  0.000  0.000  0.180  0.000  0.539  0.000  0.902
 
band    11 # energy    9.74574327 # occ.  1.00000000
 
ion      s     py     pz     px    dxy    dyz    dz2    dxz  x2-y2    tot
    1  0.000  0.000  0.000  0.000  0.000  0.370  0.000  0.123  0.000  0.493
    2  0.000  0.000  0.000  0.000  0.000  0.370  0.000  0.123  0.000  0.493
tot    0.000  0.000  0.000  0.000  0.000  0.740  0.000  0.247  0.000  0.987
 
band    12 # energy   11.51708093 # occ.  0.00000000
 
ion      s     py     pz     px    dxy    dyz    dz2    dxz  x2-y2    tot
    1  0.000  0.000  0.241  0.000  0.000  0.040  0.000  0.121  0.000  0.403
    2  0.000  0.000  0.241  0.000  0.000  0.040  0.000  0.121  0.000  0.403
tot    0.000  0.000  0.482  0.000  0.000  0.081  0.000  0.243  0.000  0.806
 
band    13 # energy   17.00668247 # occ.  0.00000000
 
ion      s     py     pz     px    dxy    dyz    dz2    dxz  x2-y2    tot
    1  0.223  0.002  0.000  0.005  0.000  0.000  0.226  0.000  0.000  0.457
    2  0.223  0.002  0.000  0.005  0.000  0.000  0.226  0.000  0.000  0.457
tot    0.447  0.004  0.000  0.011  0.000  0.000  0.452  0.000  0.000  0.914
 
band    14 # energy   30.96469769 # occ.  0.00000000
 
ion      s     py     pz     px    dxy    dyz    dz2    dxz  x2-y2    tot
    1  0.014  0.022  0.000  0.067  0.112  0.000  0.024  0.000  0.037  0.277
    2  0.014  0.022  0.000  0.067  0.112  0.000  0.024  0.000  0.037  0.277
tot    0.027  0.045  0.000  0.134  0.225  0.000  0.048  0.000  0.075  0.554
 
band    15 # energy   33.32454436 # occ.  0.00000000
 
ion      s     py     pz     px    dxy    dyz    dz2    dxz  x2-y2    tot
    1  0.022  0.022  0.000  0.066  0.066  0.000  0.040  0.000  0.022  0.238
    2  0.022  0.022  0.000  0.066  0.066  0.000  0.040  0.000  0.022  0.238
tot    0.044  0.044  0.000  0.131  0.132  0.000  0.081  0.000  0.044  0.475
 
band    16 # energy   33.38877559 # occ.  0.00000000
 
ion      s     py     pz     px    dxy    dyz    dz2    dxz  x2-y2    tot
    1  0.000  0.174  0.000  0.058  0.043  0.000  0.000  0.000  0.130  0.405
    2  0.000  0.174  0.000  0.058  0.043  0.000  0.000  0.000  0.130  0.405
tot    0.000  0.347  0.000  0.116  0.087  0.000  0.000  0.000  0.260  0.810
 

 k-point     3 :    0.16666667 0.00000000 0.00000000     weight = 0.00520833

band     1 # energy    2.47380510 # occ.  1.00000000
 
ion      s     py     pz     px    dxy    dyz    dz2    dxz  x2-y2    tot
    1  0.336  0.008  0.000  0.024  0.002  0.000  0.001  0.000  0.001  0.372
    2  0.336  0.008  0.000  0.024  0.002  0.000  0.001  0.000  0.001  0.372
tot    0.672  0.016  0.000  0.048  0.004  0.000  0.002  0.000  0.001  0.744
 
band     2 # energy    5.81744304 # occ.  1.00000000
 
ion      s     py     pz     px    dxy    dyz    dz2    dxz  x2-y2    tot
    1  0.054  0.004  0.000  0.012  0.019  0.000  0.358  0.000  0.006  0.455
    2  0.054  0.004  0.000  0.012  0.019  0.000  0.358  0.000  0.006  0.455
tot    0.108  0.008  0.000  0.025  0.039  0.000  0.717  0.000  0.013  0.910
 
band     3 # energy    7.38115812 # occ.  1.00000000
 
ion      s     py     pz     px    dxy    dyz    dz2    dxz  x2-y2    tot
    1  0.000  0.002  0.000  0.005  0.262  0.000  0.120  0.000  0.087  0.476
    2  0.000  0.002  0.000  0.005  0.262  0.000  0.120  0.000  0.087  0.476
tot    0.001  0.003  0.000  0.009  0.523  0.000  0.241  0.000  0.174  0.951
 
band     4 # energy    7.69233351 # occ.  1.00000000
 
ion      s     py     pz     px    dxy    dyz    dz2    dxz  x2-y2    tot
    1  0.000  0.000  0.067  0.000  0.000  0.096  0.000  0.287  0.000  0.450
    2  0.000  0.000  0.067  0.000  0.000  0.096  0.000  0.287  0.000  0.450
tot    0.000  0.000  0.133  0.000  0.000  0.192  0.000  0.575  0.000  0.900
 
band     5 # energy    7.98543911 # occ.  1.00000000
 
ion      s     py     pz     px    dxy    dyz    dz2    dxz  x2-y2    tot
    1  0.004  0.000  0.000  0.001  0.312  0.000  0.061  0.000  0.104  0.483
    2  0.004  0.000  0.000  0.001  0.312  0.000  0.061  0.000  0.104  0.483
tot    0.008  0.001  0.000  0.003  0.624  0.000  0.123  0.000  0.208  0.967
 
band     6 # energy    8.35156503 # occ.  1.00000000
 
ion      s     py     pz     px    dxy    dyz    dz2    dxz  x2-y2    tot
    1  0.000  0.002  0.000  0.001  0.121  0.000  0.000  0.000  0.362  0.484
    2  0.000  0.002  0.000  0.001  0.121  0.000  0.000  0.000  0.362  0.484
tot    0.000  0.003  0.000  0.001  0.241  0.000  0.000  0.000  0.724  0.969
 
band     7 # energy    8.35483922 # occ.  1.00000000
 
ion      s     py     pz     px    dxy    dyz    dz2    dxz  x2-y2    tot
    1  0.000  0.000  0.000  0.000  0.000  0.365  0.000  0.122  0.000  0.487
    2  0.000  0.000  0.000  0.000  0.000  0.365  0.000  0.122  0.000  0.487
tot    0.000  0.000  0.000  0.000  0.000  0.731  0.000  0.244  0.000  0.974
 
band     8 # energy    8.37502632 # occ.  1.00000000
 
ion      s     py     pz     px    dxy    dyz    dz2    dxz  x2-y2    tot
    1  0.002  0.000  0.000  0.001  0.120  0.000  0.323  0.000  0.040  0.487
    2  0.002  0.000  0.000  0.001  0.120  0.000  0.323  0.000  0.040  0.487
tot    0.003  0.001  0.000  0.003  0.240  0.000  0.646  0.000  0.080  0.973
 
band     9 # energy    8.54566899 # occ.  1.00000000
 
ion      s     py     pz     px    dxy    dyz    dz2    dxz  x2-y2    tot
    1  0.000  0.000  0.034  0.000  0.000  0.110  0.000  0.331  0.000  0.475
    2  0.000  0.000  0.034  0.000  0.000  0.110  0.000  0.331  0.000  0.475
tot    0.000  0.000  0.068  0.000  0.000  0.220  0.000  0.661  0.000  0.950
 
band    10 # energy    8.61386060 # occ.  1.00000000
 
ion      s     py     pz     px    dxy    dyz    dz2    dxz  x2-y2    tot
    1  0.000  0.002  0.000  0.001  0.122  0.000  0.000  0.000  0.365  0.489
    2  0.000  0.002  0.000  0.001  0.122  0.000  0.000  0.000  0.365  0.489
tot    0.000  0.003  0.000  0.001  0.243  0.000  0.000  0.000  0.730  0.978
 
band    11 # energy    9.80977448 # occ.  1.00000000
 
ion      s     py     pz     px    dxy    dyz    dz2    dxz  x2-y2    tot
    1  0.000  0.000  0.000  0.000  0.000  0.371  0.000  0.124  0.000  0.495
    2  0.000  0.000  0.000  0.000  0.000  0.371  0.000  0.124  0.000  0.495
tot    0.000  0.000  0.000  0.000  0.000  0.742  0.000  0.247  0.000  0.989
 
band    12 # energy   13.13683647 # occ.  0.00000000
 
ion      s     py     pz     px    dxy    dyz    dz2    dxz  x2-y2    tot
    1  0.000  0.000  0.238  0.000  0.000  0.043  0.000  0.129  0.000  0.410
    2  0.000  0.000  0.238  0.000  0.000  0.043  0.000  0.129  0.000  0.410
tot    0.000  0.000  0.476  0.000  0.000  0.086  0.000  0.259  0.000  0.821
 
band    13 # energy   17.15342512 # occ.  0.00000000
 
ion      s     py     pz     px    dxy    dyz    dz2    dxz  x2-y2    tot
    1  0.209  0.008  0.000  0.024  0.001  0.000  0.207  0.000  0.000  0.450
    2  0.209  0.008  0.000  0.024  0.001  0.000  0.207  0.000  0.000  0.450
tot    0.418  0.016  0.000  0.048  0.001  0.000  0.415  0.000  0.000  0.899
 
band    14 # energy   27.13862560 # occ.  0.00000000
 
ion      s     py     pz     px    dxy    dyz    dz2    dxz  x2-y2    tot
    1  0.042  0.037  0.000  0.110  0.122  0.000  0.023  0.000  0.041  0.374
    2  0.042  0.037  0.000  0.110  0.122  0.000  0.023  0.000  0.041  0.374
tot    0.084  0.073  0.000  0.220  0.244  0.000  0.046  0.000  0.081  0.749
 
band    15 # energy   30.95460794 # occ.  0.00000000
 
ion      s     py     pz     px    dxy    dyz    dz2    dxz  x2-y2    tot
    1  0.000  0.190  0.000  0.063  0.033  0.000  0.000  0.000  0.100  0.387
    2  0.000  0.190  0.000  0.063  0.033  0.000  0.000  0.000  0.100  0.387
tot    0.000  0.380  0.000  0.127  0.067  0.000  0.000  0.000  0.201  0.774
 
band    16 # energy   32.34958091 # occ.  0.00000000
 
ion      s     py     pz     px    dxy    dyz    dz2    dxz  x2-y2    tot
    1  0.022  0.006  0.000  0.017  0.147  0.000  0.048  0.000  0.049  0.288
    2  0.022  0.006  0.000  0.017  0.147  0.000  0.048  0.000  0.049  0.288
tot    0.043  0.011  0.000  0.033  0.295  0.000  0.096  0.000  0.098  0.577
 

 k-point     4 :    0.25000000 0.00000000 0.00000000     weight = 0.00520833

band     1 # energy    3.55328076 # occ.  1.00000000
 
ion      s     py     pz     px    dxy    dyz    dz2    dxz  x2-y2    tot
    1  0.290  0.016  0.000  0.047  0.015  0.000  0.005  0.000  0.005  0.377
    2  0.290  0.016  0.000  0.047  0.015  0.000  0.005  0.000  0.005  0.377
tot    0.579  0.031  0.000  0.093  0.029  0.000  0.010  0.000  0.010  0.753
 
band     2 # energy    6.10739017 # occ.  1.00000000
 
ion      s     py     pz     px    dxy    dyz    dz2    dxz  x2-y2    tot
    1  0.027  0.004  0.000  0.012  0.107  0.000  0.276  0.000  0.036  0.461
    2  0.027  0.004  0.000  0.012  0.107  0.000  0.276  0.000  0.036  0.461
tot    0.054  0.008  0.000  0.024  0.214  0.000  0.552  0.000  0.071  0.923
 
band     3 # energy    6.94906848 # occ.  1.00000000
 
ion      s     py     pz     px    dxy    dyz    dz2    dxz  x2-y2    tot
    1  0.000  0.000  0.054  0.000  0.000  0.098  0.000  0.295  0.000  0.447
    2  0.000  0.000  0.054  0.000  0.000  0.098  0.000  0.295  0.000  0.447
tot    0.000  0.000  0.109  0.000  0.000  0.196  0.000  0.589  0.000  0.894
 
band     4 # energy    7.22250882 # occ.  1.00000000
 
ion      s     py     pz     px    dxy    dyz    dz2    dxz  x2-y2    tot
    1  0.001  0.007  0.000  0.021  0.228  0.000  0.131  0.000  0.076  0.465
    2  0.001  0.007  0.000  0.021  0.228  0.000  0.131  0.000  0.076  0.465
tot    0.002  0.014  0.000  0.042  0.457  0.000  0.262  0.000  0.152  0.930
 
band     5 # energy    7.88578457 # occ.  1.00000000
 
ion      s     py     pz     px    dxy    dyz    dz2    dxz  x2-y2    tot
    1  0.010  0.001  0.000  0.004  0.249  0.000  0.132  0.000  0.083  0.480
    2  0.010  0.001  0.000  0.004  0.249  0.000  0.132  0.000  0.083  0.480
tot    0.021  0.003  0.000  0.008  0.497  0.000  0.265  0.000  0.166  0.960
 
band     6 # energy    8.13923617 # occ.  1.00000000
 
ion      s     py     pz     px    dxy    dyz    dz2    dxz  x2-y2    tot
    1  0.000  0.000  0.000  0.000  0.000  0.364  0.000  0.121  0.000  0.485
    2  0.000  0.000  0.000  0.000  0.000  0.364  0.000  0.121  0.000  0.485
tot    0.000  0.000  0.000  0.000  0.000  0.728  0.000  0.243  0.000  0.971
 
band     7 # energy    8.33655459 # occ.  1.00000000
 
ion      s     py     pz     px    dxy    dyz    dz2    dxz  x2-y2    tot
    1  0.000  0.000  0.028  0.000  0.000  0.112  0.000  0.337  0.000  0.477
    2  0.000  0.000  0.028  0.000  0.000  0.112  0.000  0.337  0.000  0.477
tot    0.000  0.000  0.055  0.000  0.000  0.225  0.000  0.674  0.000  0.953
 
band     8 # energy    8.81906295 # occ.  1.00000000
 
ion      s     py     pz     px    dxy    dyz    dz2    dxz  x2-y2    tot
    1  0.006  0.002  0.000  0.006  0.103  0.000  0.335  0.000  0.034  0.486
    2  0.006  0.002  0.000  0.006  0.103  0.000  0.335  0.000  0.034  0.486
tot    0.012  0.004  0.000  0.011  0.207  0.000  0.669  0.000  0.069  0.972
 
band     9 # energy    8.83049285 # occ.  1.00000000
 
ion      s     py     pz     px    dxy    dyz    dz2    dxz  x2-y2    tot
    1  0.000  0.002  0.000  0.001  0.121  0.000  0.000  0.000  0.363  0.486
    2  0.000  0.002  0.000  0.001  0.121  0.000  0.000  0.000  0.363  0.486
tot    0.000  0.004  0.000  0.001  0.242  0.000  0.000  0.000  0.726  0.973
 
band    10 # energy    9.03236085 # occ.  1.00000000
 
ion      s     py     pz     px    dxy    dyz    dz2    dxz  x2-y2    tot
    1  0.000  0.002  0.000  0.001  0.122  0.000  0.000  0.000  0.365  0.490
    2  0.000  0.002  0.000  0.001  0.122  0.000  0.000  0.000  0.365  0.490
tot    0.000  0.004  0.000  0.001  0.244  0.000  0.000  0.000  0.731  0.980
 
band    11 # energy    9.86943034 # occ.  1.00000000
 
ion      s     py     pz     px    dxy    dyz    dz2    dxz  x2-y2    tot
    1  0.000  0.000  0.000  0.000  0.000  0.372  0.000  0.124  0.000  0.496
    2  0.000  0.000  0.000  0.000  0.000  0.372  0.000  0.124  0.000  0.496
tot    0.000  0.000  0.000  0.000  0.000  0.743  0.000  0.248  0.000  0.991
 
band    12 # energy   14.95945670 # occ.  0.00000000
 
ion      s     py     pz     px    dxy    dyz    dz2    dxz  x2-y2    tot
    1  0.000  0.000  0.243  0.000  0.000  0.043  0.000  0.128  0.000  0.413
    2  0.000  0.000  0.243  0.000  0.000  0.043  0.000  0.128  0.000  0.413
tot    0.000  0.000  0.485  0.000  0.000  0.085  0.000  0.255  0.000  0.825
 
band    13 # energy   17.43913690 # occ.  0.00000000
 
ion      s     py     pz     px    dxy    dyz    dz2    dxz  x2-y2    tot
    1  0.170  0.022  0.000  0.066  0.000  0.000  0.179  0.000  0.000  0.438
    2  0.170  0.022  0.000  0.066  0.000  0.000  0.179  0.000  0.000  0.438
tot    0.340  0.044  0.000  0.132  0.001  0.000  0.358  0.000  0.000  0.875
 
band    14 # energy   23.39201927 # occ.  0.00000000
 
ion      s     py     pz     px    dxy    dyz    dz2    dxz  x2-y2    tot
    1  0.095  0.034  0.000  0.103  0.111  0.000  0.019  0.000  0.037  0.399
    2  0.095  0.034  0.000  0.103  0.111  0.000  0.019  0.000  0.037  0.399
tot    0.189  0.069  0.000  0.207  0.221  0.000  0.037  0.000  0.074  0.797
 
band    15 # energy   28.84198075 # occ.  0.00000000
 
ion      s     py     pz     px    dxy    dyz    dz2    dxz  x2-y2    tot
    1  0.000  0.209  0.000  0.070  0.022  0.000  0.000  0.000  0.066  0.366
    2  0.000  0.209  0.000  0.070  0.022  0.000  0.000  0.000  0.066  0.366
tot    0.000  0.417  0.000  0.139  0.044  0.000  0.000  0.000  0.131  0.731
 
band    16 # energy   30.78927600 # occ.  0.00000000
 
ion      s     py     pz     px    dxy    dyz    dz2    dxz  x2-y2    tot
    1  0.000  0.000  0.072  0.000  0.000  0.060  0.000  0.181  0.000  0.313
    2  0.000  0.000  0.072  0.000  0.000  0.060  0.000  0.181  0.000  0.313
tot    0.000  0.000  0.144  0.000  0.000  0.121  0.000  0.362  0.000  0.627
 

 k-point     5 :    0.33333333 0.00000000 0.00000000     weight = 0.00520833

band     1 # energy    4.71751681 # occ.  1.00000000
 
ion      s     py     pz     px    dxy    dyz    dz2    dxz  x2-y2    tot
    1  0.212  0.018  0.000  0.055  0.070  0.000  0.017  0.000  0.023  0.394
    2  0.212  0.018  0.000  0.055  0.070  0.000  0.017  0.000  0.023  0.394
tot    0.423  0.037  0.000  0.110  0.139  0.000  0.034  0.000  0.046  0.789
 
band     2 # energy    6.02925863 # occ.  1.00000000
 
ion      s     py     pz     px    dxy    dyz    dz2    dxz  x2-y2    tot
    1  0.015  0.001  0.000  0.003  0.214  0.000  0.160  0.000  0.071  0.465
    2  0.015  0.001  0.000  0.003  0.214  0.000  0.160  0.000  0.071  0.465
tot    0.031  0.002  0.000  0.006  0.428  0.000  0.320  0.000  0.143  0.929
 
band     3 # energy    6.41059746 # occ.  1.00000000
 
ion      s     py     pz     px    dxy    dyz    dz2    dxz  x2-y2    tot
    1  0.000  0.000  0.036  0.000  0.000  0.103  0.000  0.309  0.000  0.448
    2  0.000  0.000  0.036  0.000  0.000  0.103  0.000  0.309  0.000  0.448
tot    0.000  0.000  0.071  0.000  0.000  0.206  0.000  0.619  0.000  0.896
 
band     4 # energy    7.35045031 # occ.  1.00000000
 
ion      s     py     pz     px    dxy    dyz    dz2    dxz  x2-y2    tot
    1  0.010  0.018  0.000  0.053  0.173  0.000  0.135  0.000  0.058  0.447
    2  0.010  0.018  0.000  0.053  0.173  0.000  0.135  0.000  0.058  0.447
tot    0.020  0.035  0.000  0.106  0.346  0.000  0.271  0.000  0.115  0.894
 
band     5 # energy    7.94510090 # occ.  1.00000000
 
ion      s     py     pz     px    dxy    dyz    dz2    dxz  x2-y2    tot
    1  0.000  0.000  0.000  0.000  0.000  0.363  0.000  0.121  0.000  0.484
    2  0.000  0.000  0.000  0.000  0.000  0.363  0.000  0.121  0.000  0.484
tot    0.000  0.000  0.000  0.000  0.000  0.726  0.000  0.242  0.000  0.968
 
band     6 # energy    8.01580653 # occ.  1.00000000
 
ion      s     py     pz     px    dxy    dyz    dz2    dxz  x2-y2    tot
    1  0.009  0.004  0.000  0.011  0.126  0.000  0.288  0.000  0.042  0.479
    2  0.009  0.004  0.000  0.011  0.126  0.000  0.288  0.000  0.042  0.479
tot    0.017  0.008  0.000  0.023  0.252  0.000  0.575  0.000  0.084  0.959
 
band     7 # energy    8.14858860 # occ.  1.00000000
 
ion      s     py     pz     px    dxy    dyz    dz2    dxz  x2-y2    tot
    1  0.000  0.000  0.028  0.000  0.000  0.112  0.000  0.335  0.000  0.475
    2  0.000  0.000  0.028  0.000  0.000  0.112  0.000  0.335  0.000  0.475
tot    0.000  0.000  0.056  0.000  0.000  0.224  0.000  0.671  0.000  0.951
 
band     8 # energy    9.34114463 # occ.  1.00000000
 
ion      s     py     pz     px    dxy    dyz    dz2    dxz  x2-y2    tot
    1  0.000  0.001  0.000  0.000  0.122  0.000  0.000  0.000  0.367  0.490
    2  0.000  0.001  0.000  0.000  0.122  0.000  0.000  0.000  0.367  0.490
tot    0.000  0.002  0.000  0.001  0.244  0.000  0.000  0.000  0.733  0.980
 
band     9 # energy    9.48559585 # occ.  1.00000000
 
ion      s     py     pz     px    dxy    dyz    dz2    dxz  x2-y2    tot
    1  0.000  0.002  0.000  0.001  0.122  0.000  0.000  0.000  0.367  0.493
    2  0.000  0.002  0.000  0.001  0.122  0.000  0.000  0.000  0.367  0.493
tot    0.000  0.005  0.000  0.002  0.245  0.000  0.000  0.000  0.734  0.985
 
band    10 # energy    9.53398974 # occ.  1.00000000
 
ion      s     py     pz     px    dxy    dyz    dz2    dxz  x2-y2    tot
    1  0.019  0.006  0.000  0.019  0.104  0.000  0.298  0.000  0.035  0.481
    2  0.019  0.006  0.000  0.019  0.104  0.000  0.298  0.000  0.035  0.481
tot    0.037  0.012  0.000  0.037  0.208  0.000  0.596  0.000  0.069  0.961
 
band    11 # energy    9.90963564 # occ.  1.00000000
 
ion      s     py     pz     px    dxy    dyz    dz2    dxz  x2-y2    tot
    1  0.000  0.000  0.000  0.000  0.000  0.372  0.000  0.124  0.000  0.496
    2  0.000  0.000  0.000  0.000  0.000  0.372  0.000  0.124  0.000  0.496
tot    0.000  0.000  0.000  0.000  0.000  0.744  0.000  0.248  0.000  0.992
 
band    12 # energy   16.94431765 # occ.  0.00000000
 
ion      s     py     pz     px    dxy    dyz    dz2    dxz  x2-y2    tot
    1  0.000  0.000  0.246  0.000  0.000  0.042  0.000  0.125  0.000  0.413
    2  0.000  0.000  0.246  0.000  0.000  0.042  0.000  0.125  0.000  0.413
tot    0.000  0.000  0.492  0.000  0.000  0.083  0.000  0.250  0.000  0.826
 
band    13 # energy   17.53397954 # occ.  0.00000000
 
ion      s     py     pz     px    dxy    dyz    dz2    dxz  x2-y2    tot
    1  0.052  0.054  0.000  0.163  0.006  0.000  0.147  0.000  0.002  0.424
    2  0.052  0.054  0.000  0.163  0.006  0.000  0.147  0.000  0.002  0.424
tot    0.104  0.109  0.000  0.327  0.011  0.000  0.294  0.000  0.004  0.849
 
band    14 # energy   20.46662034 # occ.  0.00000000
 
ion      s     py     pz     px    dxy    dyz    dz2    dxz  x2-y2    tot
    1  0.216  0.012  0.000  0.037  0.101  0.000  0.009  0.000  0.034  0.409
    2  0.216  0.012  0.000  0.037  0.101  0.000  0.009  0.000  0.034  0.409
tot    0.432  0.024  0.000  0.073  0.202  0.000  0.018  0.000  0.067  0.817
 
band    15 # energy   27.16457281 # occ.  0.00000000
 
ion      s     py     pz     px    dxy    dyz    dz2    dxz  x2-y2    tot
    1  0.000  0.226  0.000  0.075  0.011  0.000  0.000  0.000  0.033  0.345
    2  0.000  0.226  0.000  0.075  0.011  0.000  0.000  0.000  0.033  0.345
tot    0.000  0.451  0.000  0.150  0.022  0.000  0.000  0.000  0.067  0.690
 
band    16 # energy   27.68290233 # occ.  0.00000000
 
ion      s     py     pz     px    dxy    dyz    dz2    dxz  x2-y2    tot
    1  0.000  0.000  0.099  0.000  0.000  0.064  0.000  0.191  0.000  0.354
    2  0.000  0.000  0.099  0.000  0.000  0.064  0.000  0.191  0.000  0.354
tot    0.000  0.000  0.199  0.000  0.000  0.127  0.000  0.381  0.000  0.707
 

 k-point     6 :    0.41666667 0.00000000 0.00000000     weight = 0.00520833

band     1 # energy    5.45688333 # occ.  1.00000000
 
ion      s     py     pz     px    dxy    dyz    dz2    dxz  x2-y2    tot
    1  0.108  0.010  0.000  0.030  0.185  0.000  0.035  0.000  0.062  0.430
    2  0.108  0.010  0.000  0.030  0.185  0.000  0.035  0.000  0.062  0.430
tot    0.216  0.020  0.000  0.060  0.370  0.000  0.070  0.000  0.123  0.860
 
band     2 # energy    5.83735552 # occ.  1.00000000
 
ion      s     py     pz     px    dxy    dyz    dz2    dxz  x2-y2    tot
    1  0.024  0.001  0.000  0.002  0.249  0.000  0.103  0.000  0.083  0.462
    2  0.024  0.001  0.000  0.002  0.249  0.000  0.103  0.000  0.083  0.462
tot    0.048  0.002  0.000  0.005  0.497  0.000  0.207  0.000  0.166  0.923