   2   2   1   0
  0.1064014E+02  0.2472000E-09  0.2472000E-09  0.4021144E-09  0.5000000E-15
  1.000000000000000E-004
  CAR 
 Co-hcc                                  
     37.53573635     -0.20817882  301     10.52900723      1.00000000
     -0.208  0.0000E+00  0.0000E+00  0.0000E+00  0.0000E+00
     -0.082  0.0000E+00  0.0000E+00  0.0000E+00  0.0000E+00
      0.043  0.0000E+00  0.0000E+00  0.0000E+00  0.0000E+00
      0.169  0.0000E+00  0.0000E+00  0.0000E+00  0.0000E+00
      0.295  0.0000E+00  0.0000E+00  0.0000E+00  0.0000E+00
      0.421  0.0000E+00  0.0000E+00  0.0000E+00  0.0000E+00
      0.547  0.0000E+00  0.0000E+00  0.0000E+00  0.0000E+00
      0.673  0.0000E+00  0.0000E+00  0.0000E+00  0.0000E+00
      0.798  0.0000E+00  0.0000E+00  0.0000E+00  0.0000E+00
      0.924  0.0000E+00  0.0000E+00  0.0000E+00  0.0000E+00
      1.050  0.0000E+00  0.0000E+00  0.0000E+00  0.0000E+00
      1.176  0.0000E+00  0.0000E+00  0.0000E+00  0.0000E+00
      1.302  0.2021E-11  0.5906E-11  0.2542E-12  0.7431E-12
      1.427  0.1498E-04  0.2410E-04  0.1885E-05  0.3033E-05
      1.553  0.2802E-02  0.3192E-02  0.3544E-03  0.4047E-03
      1.679  0.2290E-01  0.2418E-01  0.3235E-02  0.3447E-02
      1.805  0.2150E-01  0.2049E-01  0.5940E-02  0.6024E-02
      1.931  0.5174E-01  0.5356E-01  0.1245E-01  0.1276E-01
      2.056  0.4349E-01  0.4176E-01  0.1792E-01  0.1802E-01
      2.182  0.3412E-01  0.3392E-01  0.2221E-01  0.2228E-01
      2.308  0.7613E-01  0.7597E-01  0.3179E-01  0.3184E-01
      2.434  0.5212E-01  0.5137E-01  0.3835E-01  0.3830E-01
      2.560  0.9532E-01  0.9292E-01  0.5034E-01  0.4999E-01
      2.686  0.4479E-01  0.4545E-01  0.5598E-01  0.5571E-01
      2.811  0.5717E-01  0.5510E-01  0.6317E-01  0.6265E-01
      2.937  0.1319E+00  0.1257E+00  0.7976E-01  0.7846E-01
      3.063  0.9335E-01  0.9420E-01  0.9151E-01  0.9032E-01
      3.189  0.7766E-01  0.7689E-01  0.1013E+00  0.9999E-01
      3.315  0.9133E-01  0.8303E-01  0.1128E+00  0.1104E+00
      3.440  0.1064E+00  0.8651E-01  0.1262E+00  0.1213E+00
      3.566  0.1382E+00  0.1546E+00  0.1435E+00  0.1408E+00
      3.692  0.1058E+00  0.6718E-01  0.1569E+00  0.1492E+00
      3.818  0.1367E+00  0.1388E+00  0.1741E+00  0.1667E+00
      3.944  0.1404E+00  0.1573E+00  0.1917E+00  0.1865E+00
      4.069  0.1281E+00  0.1014E+00  0.2078E+00  0.1992E+00
      4.195  0.1231E+00  0.1143E+00  0.2233E+00  0.2136E+00
      4.321  0.1782E+00  0.1247E+00  0.2458E+00  0.2293E+00
      4.447  0.2584E+00  0.1766E+00  0.2783E+00  0.2515E+00
      4.573  0.1643E+00  0.2031E+00  0.2989E+00  0.2771E+00
      4.699  0.1577E+00  0.1490E+00  0.3188E+00  0.2958E+00
      4.824  0.2248E+00  0.1327E+00  0.3471E+00  0.3125E+00
      4.950  0.2706E+00  0.1641E+00  0.3811E+00  0.3331E+00
      5.076  0.3199E+00  0.2004E+00  0.4214E+00  0.3584E+00
      5.202  0.4411E+00  0.2135E+00  0.4769E+00  0.3852E+00
      5.328  0.5395E+00  0.2537E+00  0.5447E+00  0.4171E+00
      5.453  0.8455E+00  0.1920E+00  0.6511E+00  0.4413E+00
      5.579  0.1176E+01  0.3490E+00  0.7990E+00  0.4852E+00
      5.705  0.1035E+01  0.1657E+00  0.9292E+00  0.5061E+00
      5.831  0.1391E+01  0.2795E+00  0.1104E+01  0.5412E+00
      5.957  0.1231E+01  0.2925E+00  0.1259E+01  0.5780E+00
      6.082  0.1859E+01  0.5302E+00  0.1493E+01  0.6447E+00
      6.208  0.1743E+01  0.5121E+00  0.1712E+01  0.7092E+00
      6.334  0.1803E+01  0.5205E+00  0.1939E+01  0.7746E+00
      6.460  0.1341E+01  0.7332E+00  0.2108E+01  0.8669E+00
      6.586  0.1611E+01  0.8860E+00  0.2311E+01  0.9784E+00
      6.712  0.1795E+01  0.8423E+00  0.2536E+01  0.1084E+01
      6.837  0.1674E+01  0.8534E+00  0.2747E+01  0.1192E+01
      6.963  0.2043E+01  0.8609E+00  0.3004E+01  0.1300E+01
      7.089  0.2124E+01  0.1171E+01  0.3271E+01  0.1447E+01
      7.215  0.2148E+01  0.1045E+01  0.3542E+01  0.1579E+01
      7.341  0.1443E+01  0.1359E+01  0.3723E+01  0.1750E+01
      7.466  0.1070E+01  0.1502E+01  0.3858E+01  0.1939E+01
      7.592  0.1704E+01  0.1280E+01  0.4072E+01  0.2100E+01
      7.718  0.2731E+01  0.1177E+01  0.4416E+01  0.2248E+01
      7.844  0.2850E+01  0.1180E+01  0.4774E+01  0.2396E+01
      7.970  0.2619E+01  0.1479E+01  0.5104E+01  0.2582E+01
      8.095  0.2845E+01  0.1497E+01  0.5462E+01  0.2771E+01
      8.221  0.2761E+01  0.1930E+01  0.5809E+01  0.3014E+01
      8.347  0.3382E+01  0.1899E+01  0.6234E+01  0.3252E+01
      8.473  0.2856E+01  0.2060E+01  0.6594E+01  0.3512E+01
      8.599  0.2271E+01  0.1359E+01  0.6879E+01  0.3683E+01
      8.725  0.1797E+01  0.8788E+00  0.7106E+01  0.3793E+01
      8.850  0.1988E+01  0.8175E+00  0.7356E+01  0.3896E+01
      8.976  0.1800E+01  0.9444E+00  0.7582E+01  0.4015E+01
      9.102  0.1747E+01  0.1859E+01  0.7802E+01  0.4249E+01
      9.228  0.1785E+01  0.2398E+01  0.8027E+01  0.4550E+01
      9.354  0.1584E+01  0.2362E+01  0.8226E+01  0.4848E+01
      9.479  0.2242E+01  0.2286E+01  0.8508E+01  0.5135E+01
      9.605  0.2606E+01  0.2557E+01  0.8836E+01  0.5457E+01
      9.731  0.3114E+01  0.2491E+01  0.9228E+01  0.5770E+01
      9.857  0.4257E+01  0.2746E+01  0.9763E+01  0.6116E+01
      9.983  0.4083E+01  0.2869E+01  0.1028E+02  0.6477E+01
     10.108  0.1389E+01  0.2099E+01  0.1045E+02  0.6741E+01
     10.234  0.4303E+00  0.1785E+01  0.1051E+02  0.6965E+01
     10.360  0.2914E+00  0.1593E+01  0.1054E+02  0.7166E+01
     10.486  0.3003E+00  0.1386E+01  0.1058E+02  0.7340E+01
     10.612  0.1876E+00  0.1573E+01  0.1060E+02  0.7538E+01
     10.738  0.2018E+00  0.1262E+01  0.1063E+02  0.7697E+01
     10.863  0.4956E+00  0.1550E+01  0.1069E+02  0.7892E+01
     10.989  0.3484E+00  0.1387E+01  0.1074E+02  0.8066E+01
     11.115  0.3312E+00  0.1397E+01  0.1078E+02  0.8242E+01
     11.241  0.2833E+00  0.1813E+01  0.1081E+02  0.8470E+01
     11.367  0.1022E+00  0.2082E+01  0.1083E+02  0.8732E+01
     11.492  0.1705E+00  0.2382E+01  0.1085E+02  0.9032E+01
     11.618  0.1640E+00  0.3158E+01  0.1087E+02  0.9429E+01
     11.744  0.6016E+00  0.4106E+01  0.1094E+02  0.9946E+01
     11.870  0.4847E+00  0.3722E+01  0.1100E+02  0.1041E+02
     11.996  0.2962E+00  0.1217E+01  0.1104E+02  0.1057E+02
     12.122  0.1445E+00  0.4592E+00  0.1106E+02  0.1062E+02
     12.247  0.1498E+00  0.2508E+00  0.1108E+02  0.1066E+02
     12.373  0.1615E+00  0.5333E+00  0.1110E+02  0.1072E+02
     12.499  0.2662E+00  0.5168E+00  0.1113E+02  0.1079E+02
     12.625  0.2358E+00  0.4346E+00  0.1116E+02  0.1084E+02
     12.751  0.3410E+00  0.2062E+00  0.1120E+02  0.1087E+02
     12.876  0.2759E+00  0.2554E+00  0.1124E+02  0.1090E+02
     13.002  0.2664E+00  0.5276E+00  0.1127E+02  0.1097E+02
     13.128  0.1947E+00  0.4577E+00  0.1130E+02  0.1103E+02
     13.254  0.1718E+00  0.2999E+00  0.1132E+02  0.1106E+02
     13.380  0.2196E+00  0.2451E+00  0.1135E+02  0.1109E+02
     13.505  0.2677E+00  0.3469E+00  0.1138E+02  0.1114E+02
     13.631  0.1140E+00  0.2426E+00  0.1139E+02  0.1117E+02
     13.757  0.2854E+00  0.2900E+00  0.1143E+02  0.1120E+02
     13.883  0.2746E+00  0.2531E+00  0.1147E+02  0.1124E+02
     14.009  0.1400E+00  0.3267E+00  0.1148E+02  0.1128E+02
     14.135  0.2294E+00  0.2976E+00  0.1151E+02  0.1131E+02
     14.260  0.2779E+00  0.2498E+00  0.1155E+02  0.1135E+02
     14.386  0.2400E+00  0.2382E+00  0.1158E+02  0.1138E+02
     14.512  0.2319E+00  0.1953E+00  0.1161E+02  0.1140E+02
     14.638  0.2049E+00  0.2837E+00  0.1163E+02  0.1144E+02
     14.764  0.1077E+00  0.2850E+00  0.1165E+02  0.1147E+02
     14.889  0.2632E+00  0.1294E+00  0.1168E+02  0.1149E+02
     15.015  0.3537E+00  0.2519E+00  0.1172E+02  0.1152E+02
     15.141  0.1668E+00  0.2679E+00  0.1174E+02  0.1155E+02
     15.267  0.1973E+00  0.3389E+00  0.1177E+02  0.1160E+02
     15.393  0.5889E-01  0.2250E+00  0.1178E+02  0.1163E+02
     15.518  0.1204E+00  0.1708E+00  0.1179E+02  0.1165E+02
     15.644  0.1390E+00  0.1106E+00  0.1181E+02  0.1166E+02
     15.770  0.1198E+00  0.4278E+00  0.1182E+02  0.1171E+02
     15.896  0.1773E+00  0.2315E+00  0.1185E+02  0.1174E+02
     16.022  0.2091E+00  0.1874E+00  0.1187E+02  0.1177E+02
     16.148  0.2778E+00  0.9827E-01  0.1191E+02  0.1178E+02
     16.273  0.1412E+00  0.1570E+00  0.1193E+02  0.1180E+02
     16.399  0.1138E+00  0.1398E+00  0.1194E+02  0.1182E+02
     16.525  0.1060E+00  0.1580E+00  0.1195E+02  0.1184E+02
     16.651  0.5431E-01  0.1100E+00  0.1196E+02  0.1185E+02
     16.777  0.5588E-03  0.2992E+00  0.1196E+02  0.1189E+02
     16.902  0.2857E-01  0.2263E+00  0.1196E+02  0.1192E+02
     17.028  0.8944E-01  0.1659E+00  0.1197E+02  0.1194E+02
     17.154  0.9522E-01  0.1165E+00  0.1199E+02  0.1195E+02
     17.280  0.7116E-01  0.5411E-01  0.1200E+02  0.1196E+02
     17.406  0.8801E-01  0.7675E-02  0.1201E+02  0.1196E+02
     17.531  0.2340E+00  0.2358E-01  0.1204E+02  0.1196E+02
     17.657  0.1357E+00  0.8568E-01  0.1205E+02  0.1197E+02
     17.783  0.1868E+00  0.2886E-01  0.1208E+02  0.1198E+02
     17.909  0.1678E+00  0.4209E-01  0.1210E+02  0.1198E+02
     18.035  0.1201E+00  0.1354E+00  0.1211E+02  0.1200E+02
     18.161  0.2382E+00  0.1777E+00  0.1214E+02  0.1202E+02
     18.286  0.3444E+00  0.1132E+00  0.1219E+02  0.1204E+02
     18.412  0.4001E+00  0.2026E+00  0.1224E+02  0.1206E+02
     18.538  0.4216E+00  0.1956E+00  0.1229E+02  0.1209E+02
     18.664  0.4477E+00  0.1158E+00  0.1235E+02  0.1210E+02
     18.790  0.5132E+00  0.9939E-01  0.1241E+02  0.1211E+02
     18.915  0.2446E+00  0.1303E+00  0.1244E+02  0.1213E+02
     19.041  0.2750E+00  0.3458E+00  0.1248E+02  0.1217E+02
     19.167  0.4732E+00  0.4615E+00  0.1254E+02  0.1223E+02
     19.293  0.4174E+00  0.5885E+00  0.1259E+02  0.1231E+02
     19.419  0.2334E+00  0.5068E+00  0.1262E+02  0.1237E+02
     19.544  0.2107E+00  0.4075E+00  0.1264E+02  0.1242E+02
     19.670  0.2623E+00  0.3326E+00  0.1268E+02  0.1246E+02
     19.796  0.3853E+00  0.5586E+00  0.1273E+02  0.1253E+02
     19.922  0.2537E+00  0.3528E+00  0.1276E+02  0.1258E+02
     20.048  0.2619E+00  0.3105E+00  0.1279E+02  0.1262E+02
     20.174  0.3242E+00  0.2050E+00  0.1283E+02  0.1264E+02
     20.299  0.3728E+00  0.2740E+00  0.1288E+02  0.1268E+02
     20.425  0.3347E+00  0.4134E+00  0.1292E+02  0.1273E+02
     20.551  0.3497E+00  0.2402E+00  0.1296E+02  0.1276E+02
     20.677  0.3656E+00  0.3681E+00  0.1301E+02  0.1280E+02
     20.803  0.3875E+00  0.3634E+00  0.1306E+02  0.1285E+02
     20.928  0.4954E+00  0.3805E+00  0.1312E+02  0.1290E+02
     21.054  0.2332E+00  0.3472E+00  0.1315E+02  0.1294E+02
     21.180  0.2945E+00  0.3684E+00  0.1319E+02  0.1299E+02
     21.306  0.3222E+00  0.4929E+00  0.1323E+02  0.1305E+02
     21.432  0.5547E+00  0.4384E+00  0.1330E+02  0.1311E+02
     21.557  0.2840E+00  0.3159E+00  0.1333E+02  0.1315E+02
     21.683  0.4654E+00  0.3222E+00  0.1339E+02  0.1319E+02
     21.809  0.4213E+00  0.3344E+00  0.1345E+02  0.1323E+02
     21.935  0.3422E+00  0.5261E+00  0.1349E+02  0.1329E+02
     22.061  0.1828E+00  0.3490E+00  0.1351E+02  0.1334E+02
     22.187  0.2792E+00  0.5178E+00  0.1355E+02  0.1340E+02
     22.312  0.4110E+00  0.4530E+00  0.1360E+02  0.1346E+02
     22.438  0.3571E+00  0.2159E+00  0.1364E+02  0.1349E+02
     22.564  0.3280E+00  0.2265E+00  0.1368E+02  0.1352E+02
     22.690  0.3822E+00  0.3728E+00  0.1373E+02  0.1356E+02
     22.816  0.2722E+00  0.3948E+00  0.1377E+02  0.1361E+02
     22.941  0.2030E+00  0.3287E+00  0.1379E+02  0.1365E+02
     23.067  0.3783E+00  0.3890E+00  0.1384E+02  0.1370E+02
     23.193  0.2712E+00  0.3499E+00  0.1387E+02  0.1375E+02
     23.319  0.1706E+00  0.1996E+00  0.1390E+02  0.1377E+02
     23.445  0.2055E+00  0.3520E+00  0.1392E+02  0.1382E+02
     23.570  0.2966E+00  0.3271E+00  0.1396E+02  0.1386E+02
     23.696  0.2848E+00  0.2495E+00  0.1399E+02  0.1389E+02
     23.822  0.2763E+00  0.1652E+00  0.1403E+02  0.1391E+02
     23.948  0.3220E+00  0.2295E+00  0.1407E+02  0.1394E+02
     24.074  0.2899E+00  0.3519E+00  0.1411E+02  0.1398E+02
     24.200  0.2981E+00  0.2463E+00  0.1414E+02  0.1401E+02
     24.325  0.2638E+00  0.3231E+00  0.1418E+02  0.1405E+02
     24.451  0.2424E+00  0.2700E+00  0.1421E+02  0.1409E+02
     24.577  0.3946E+00  0.3248E+00  0.1426E+02  0.1413E+02
     24.703  0.3354E+00  0.2420E+00  0.1430E+02  0.1416E+02
     24.829  0.4508E+00  0.2696E+00  0.1436E+02  0.1419E+02
     24.954  0.3627E+00  0.3630E+00  0.1440E+02  0.1424E+02
     25.080  0.3632E+00  0.3889E+00  0.1445E+02  0.1429E+02
     25.206  0.3208E+00  0.3848E+00  0.1449E+02  0.1434E+02
     25.332  0.3682E+00  0.4646E+00  0.1453E+02  0.1439E+02
     25.458  0.4067E+00  0.3454E+00  0.1458E+02  0.1444E+02
     25.583  0.2717E+00  0.3309E+00  0.1462E+02  0.1448E+02
     25.709  0.3143E+00  0.4420E+00  0.1466E+02  0.1454E+02
     25.835  0.3026E+00  0.3640E+00  0.1470E+02  0.1458E+02
     25.961  0.2617E+00  0.3487E+00  0.1473E+02  0.1463E+02
     26.087  0.4222E+00  0.3404E+00  0.1478E+02  0.1467E+02
     26.213  0.4632E+00  0.2596E+00  0.1484E+02  0.1470E+02
     26.338  0.3129E+00  0.2704E+00  0.1488E+02  0.1473E+02
     26.464  0.4774E+00  0.4670E+00  0.1494E+02  0.1479E+02
     26.590  0.2285E+00  0.4892E+00  0.1497E+02  0.1485E+02
     26.716  0.2222E+00  0.3898E+00  0.1500E+02  0.1490E+02
     26.842  0.2462E+00  0.3316E+00  0.1503E+02  0.1495E+02
     26.967  0.2488E+00  0.3171E+00  0.1506E+02  0.1499E+02
     27.093  0.1708E+00  0.2696E+00  0.1508E+02  0.1502E+02
     27.219  0.2864E+00  0.1449E+00  0.1512E+02  0.1504E+02
     27.345  0.4604E+00  0.2723E+00  0.1517E+02  0.1507E+02
     27.471  0.3877E+00  0.2164E+00  0.1522E+02  0.1510E+02
     27.597  0.1895E+00  0.3486E+00  0.1525E+02  0.1514E+02
     27.722  0.1670E+00  0.5080E+00  0.1527E+02  0.1521E+02
     27.848  0.1646E+00  0.3017E+00  0.1529E+02  0.1524E+02
     27.974  0.2378E+00  0.1247E+00  0.1532E+02  0.1526E+02
     28.100  0.2857E+00  0.2084E+00  0.1536E+02  0.1529E+02
     28.226  0.2236E+00  0.1690E+00  0.1538E+02  0.1531E+02
     28.351  0.2729E+00  0.3127E+00  0.1542E+02  0.1535E+02
     28.477  0.1989E+00  0.2210E+00  0.1544E+02  0.1538E+02
     28.603  0.1725E+00  0.2997E+00  0.1546E+02  0.1541E+02
     28.729  0.2213E+00  0.2348E+00  0.1549E+02  0.1544E+02
     28.855  0.1567E+00  0.1967E+00  0.1551E+02  0.1547E+02
     28.980  0.1680E+00  0.1591E+00  0.1553E+02  0.1549E+02
     29.106  0.2222E+00  0.1745E+00  0.1556E+02  0.1551E+02
     29.232  0.1782E+00  0.1826E+00  0.1558E+02  0.1553E+02
     29.358  0.2555E+00  0.2152E+00  0.1562E+02  0.1556E+02
     29.484  0.5746E-01  0.2634E+00  0.1562E+02  0.1559E+02
     29.610  0.9851E-01  0.1901E+00  0.1564E+02  0.1562E+02
     29.735  0.9425E-01  0.7530E-01  0.1565E+02  0.1563E+02
     29.861  0.9913E-01  0.8041E-01  0.1566E+02  0.1564E+02
     29.987  0.1232E+00  0.1427E+00  0.1567E+02  0.1565E+02
     30.113  0.7901E-01  0.1282E+00  0.1568E+02  0.1567E+02
     30.239  0.2232E+00  0.8450E-01  0.1571E+02  0.1568E+02
     30.364  0.1573E+00  0.1030E+00  0.1573E+02  0.1569E+02
     30.490  0.6150E-01  0.1731E+00  0.1574E+02  0.1572E+02
     30.616  0.1123E+00  0.1546E+00  0.1575E+02  0.1573E+02
     30.742  0.6234E-01  0.6648E-01  0.1576E+02  0.1574E+02
     30.868  0.1017E+00  0.1817E+00  0.1578E+02  0.1577E+02
     30.993  0.1593E+00  0.9668E-01  0.1580E+02  0.1578E+02
     31.119  0.6568E-01  0.5286E-01  0.1580E+02  0.1578E+02
     31.245  0.4956E-02  0.1139E+00  0.1580E+02  0.1580E+02
     31.371  0.6851E-01  0.3159E-01  0.1581E+02  0.1580E+02
     31.497  0.1130E+00  0.1026E+00  0.1583E+02  0.1582E+02
     31.623  0.4914E-01  0.1245E+00  0.1583E+02  0.1583E+02
     31.748  0.6726E-01  0.2870E-01  0.1584E+02  0.1584E+02
     31.874  0.5289E-01  0.6334E-01  0.1585E+02  0.1584E+02
     32.000  0.1233E+00  0.1204E+00  0.1586E+02  0.1586E+02
     32.126  0.1246E+00  0.7033E-01  0.1588E+02  0.1587E+02
     32.252  0.5019E-01  0.7242E-01  0.1589E+02  0.1588E+02
     32.377  0.9729E-01  0.1035E+00  0.1590E+02  0.1589E+02
     32.503  0.8141E-01  0.1489E+00  0.1591E+02  0.1591E+02
     32.629  0.6148E-01  0.4286E-01  0.1592E+02  0.1591E+02
     32.755  0.4281E-01  0.3079E-01  0.1592E+02  0.1592E+02
     32.881  0.4523E-01  0.5083E-01  0.1593E+02  0.1592E+02
     33.006  0.6642E-01  0.6369E-01  0.1594E+02  0.1593E+02
     33.132  0.5066E-01  0.6274E-01  0.1594E+02  0.1594E+02
     33.258  0.2048E-01  0.5346E-01  0.1594E+02  0.1595E+02
     33.384  0.7707E-01  0.6951E-01  0.1595E+02  0.1596E+02
     33.510  0.1123E-01  0.3920E-02  0.1596E+02  0.1596E+02
     33.636  0.2673E-02  0.2396E-01  0.1596E+02  0.1596E+02
     33.761  0.5139E-01  0.1184E-01  0.1596E+02  0.1596E+02
     33.887  0.5401E-01  0.5440E-01  0.1597E+02  0.1597E+02
     34.013  0.8523E-01  0.6850E-01  0.1598E+02  0.1598E+02
     34.139  0.1562E-01  0.4785E-01  0.1598E+02  0.1598E+02
     34.265  0.5534E-01  0.2463E-01  0.1599E+02  0.1598E+02
     34.390  0.3092E-01  0.2622E-01  0.1599E+02  0.1599E+02
     34.516  0.1563E-02  0.5281E-03  0.1599E+02  0.1599E+02
     34.642  0.2914E-01  0.4146E-01  0.1600E+02  0.1599E+02
     34.768  0.6664E-02  0.3228E-01  0.1600E+02  0.1600E+02
     34.894  0.3596E-02  0.3431E-02  0.1600E+02  0.1600E+02
     35.019  0.4551E-03  0.4696E-06  0.1600E+02  0.1600E+02
     35.145  0.3622E-08  0.1604E-02  0.1600E+02  0.1600E+02
     35.271  0.3475E-04  0.3090E-02  0.1600E+02  0.1600E+02
     35.397  0.4749E-02  0.3459E-02  0.1600E+02  0.1600E+02
     35.523  0.3818E-02  0.3940E-03  0.1600E+02  0.1600E+02
     35.649  0.4328E-02  0.3685E-02  0.1600E+02  0.1600E+02
     35.774  0.3406E-02  0.2052E-02  0.1600E+02  0.1600E+02
     35.900  0.1819E-04  0.2047E-02  0.1600E+02  0.1600E+02
     36.026  0.1356E-11  0.2407E-04  0.1600E+02  0.1600E+02
     36.152  0.0000E+00  0.5906E-11  0.1600E+02  0.1600E+02
     36.278  0.0000E+00  0.0000E+00  0.1600E+02  0.1600E+02
     36.403  0.0000E+00  0.0000E+00  0.1600E+02  0.1600E+02
     36.529  0.0000E+00  0.0000E+00  0.1600E+02  0.1600E+02
     36.655  0.0000E+00  0.0000E+00  0.1600E+02  0.1600E+02
     36.781  0.0000E+00  0.0000E+00  0.1600E+02  0.1600E+02
     36.907  0.0000E+00  0.0000E+00  0.1600E+02  0.1600E+02
     37.032  0.0000E+00  0.0000E+00  0.1600E+02  0.1600E+02
     37.158  0.0000E+00  0.0000E+00  0.1600E+02  0.1600E+02
     37.284  0.0000E+00  0.0000E+00  0.1600E+02  0.1600E+02
     37.410  0.0000E+00  0.0000E+00  0.1600E+02  0.1600E+02
     37.536  0.0000E+00  0.0000E+00  0.1600E+02  0.1600E+02
     37.53573635     -0.20817882  301     10.52900723      1.00000000
     -0.208  0.0000E+00  0.0000E+00  0.0000E+00  0.0000E+00  0.0000E+00  0.0000E+00  0.0000E+00  0.0000E+00  0.0000E+00  0.0000E+00  0.0000E+00  0.0000E+00  0.0000E+00  0.0000E+00  0.0000E+00  0.0000E+00  0.0000E+00  0.0000E+00
     -0.082  0.0000E+00  0.0000E+00  0.0000E+00  0.0000E+00  0.0000E+00  0.0000E+00  0.0000E+00  0.0000E+00  0.0000E+00  0.0000E+00  0.0000E+00  0.0000E+00  0.0000E+00  0.0000E+00  0.0000E+00  0.0000E+00  0.0000E+00  0.0000E+00
      0.043  0.0000E+00  0.0000E+00  0.0000E+00  0.0000E+00  0.0000E+00  0.0000E+00  0.0000E+00  0.0000E+00  0.0000E+00  0.0000E+00  0.0000E+00  0.0000E+00  0.0000E+00  0.0000E+00  0.0000E+00  0.0000E+00  0.0000E+00  0.0000E+00
      0.169  0.0000E+00  0.0000E+00  0.0000E+00  0.0000E+00  0.0000E+00  0.0000E+00  0.0000E+00  0.0000E+00  0.0000E+00  0.0000E+00  0.0000E+00  0.0000E+00  0.0000E+00  0.0000E+00  0.0000E+00  0.0000E+00  0.0000E+00  0.0000E+00
      0.295  0.0000E+00  0.0000E+00  0.0000E+00  0.0000E+00  0.0000E+00  0.0000E+00  0.0000E+00  0.0000E+00  0.0000E+00  0.0000E+00  0.0000E+00  0.0000E+00  0.0000E+00  0.0000E+00  0.0000E+00  0.0000E+00  0.0000E+00  0.0000E+00
      0.421  0.0000E+00  0.0000E+00  0.0000E+00  0.0000E+00  0.0000E+00  0.0000E+00  0.0000E+00  0.0000E+00  0.0000E+00  0.0000E+00  0.0000E+00  0.0000E+00  0.0000E+00  0.0000E+00  0.0000E+00  0.0000E+00  0.0000E+00  0.0000E+00
      0.547  0.0000E+00  0.0000E+00  0.0000E+00  0.0000E+00  0.0000E+00  0.0000E+00  0.0000E+00  0.0000E+00  0.0000E+00  0.0000E+00  0.0000E+00  0.0000E+00  0.0000E+00  0.0000E+00  0.0000E+00  0.0000E+00  0.0000E+00  0.0000E+00
      0.673  0.0000E+00  0.0000E+00  0.0000E+00  0.0000E+00  0.0000E+00  0.0000E+00  0.0000E+00  0.0000E+00  0.0000E+00  0.0000E+00  0.0000E+00  0.0000E+00  0.0000E+00  0.0000E+00  0.0000E+00  0.0000E+00  0.0000E+00  0.0000E+00
      0.798  0.0000E+00  0.0000E+00  0.0000E+00  0.0000E+00  0.0000E+00  0.0000E+00  0.0000E+00  0.0000E+00  0.0000E+00  0.0000E+00  0.0000E+00  0.0000E+00  0.0000E+00  0.0000E+00  0.0000E+00  0.0000E+00  0.0000E+00  0.0000E+00
      0.924  0.0000E+00  0.0000E+00  0.0000E+00  0.0000E+00  0.0000E+00  0.0000E+00  0.0000E+00  0.0000E+00  0.0000E+00  0.0000E+00  0.0000E+00  0.0000E+00  0.0000E+00  0.0000E+00  0.0000E+00  0.0000E+00  0.0000E+00  0.0000E+00
      1.050  0.0000E+00  0.0000E+00  0.0000E+00  0.0000E+00  0.0000E+00  0.0000E+00  0.0000E+00  0.0000E+00  0.0000E+00  0.0000E+00  0.0000E+00  0.0000E+00  0.0000E+00  0.0000E+00  0.0000E+00  0.0000E+00  0.0000E+00  0.0000E+00
      1.176  0.0000E+00  0.0000E+00  0.0000E+00  0.0000E+00  0.0000E+00  0.0000E+00  0.0000E+00  0.0000E+00  0.0000E+00  0.0000E+00  0.0000E+00  0.0000E+00  0.0000E+00  0.0000E+00  0.0000E+00  0.0000E+00  0.0000E+00  0.0000E+00
      1.302  0.7488E-12  0.2189E-11  0.9320E-28  0.2725E-27  0.6165E-20  0.2478E-19  0.9320E-28  0.2725E-27  0.4648E-26  0.5935E-25  0.1225E-22  0.4351E-26  0.7326E-18  0.1910E-17  0.1225E-22  0.4351E-26  0.4648E-26  0.5935E-25
      1.427  0.5552E-05  0.8935E-05  0.2975E-12  0.7675E-12  0.4501E-10  0.9865E-10  0.2975E-12  0.7675E-12  0.2381E-14  0.4575E-14  0.9076E-16  0.6150E-19  0.5650E-11  0.8134E-11  0.9076E-16  0.6150E-19  0.2381E-14  0.4575E-14
      1.553  0.1035E-02  0.1179E-02  0.5218E-06  0.7713E-06  0.1905E-05  0.2418E-05  0.5218E-06  0.7713E-06  0.4177E-08  0.4598E-08  0.2582E-10  0.3817E-10  0.1401E-07  0.1354E-07  0.2582E-10  0.3817E-10  0.4177E-08  0.4598E-08
      1.679  0.8382E-02  0.8851E-02  0.3713E-04  0.4030E-04  0.2801E-04  0.3126E-04  0.3713E-04  0.4030E-04  0.2978E-06  0.2405E-06  0.2689E-06  0.2424E-06  0.2061E-06  0.1544E-06  0.2689E-06  0.2424E-06  0.2978E-06  0.2405E-06
      1.805  0.7815E-02  0.7445E-02  0.4289E-04  0.4232E-04  0.6541E-04  0.6464E-04  0.4289E-04  0.4232E-04  0.4942E-06  0.3915E-06  0.5588E-06  0.3942E-06  0.8685E-06  0.7097E-06  0.5588E-06  0.3942E-06  0.4942E-06  0.3915E-06
      1.931  0.1849E-01  0.1913E-01  0.2189E-03  0.2296E-03  0.2409E-03  0.2511E-03  0.2189E-03  0.2296E-03  0.4849E-05  0.3783E-05  0.4385E-05  0.3485E-05  0.6054E-05  0.4558E-05  0.4385E-05  0.3485E-05  0.4849E-05  0.3783E-05
      2.056  0.1541E-01  0.1480E-01  0.2791E-03  0.2745E-03  0.1305E-03  0.1234E-03  0.2791E-03  0.2745E-03  0.8682E-05  0.6290E-05  0.4944E-05  0.3639E-05  0.4961E-05  0.3468E-05  0.4944E-05  0.3639E-05  0.8682E-05  0.6290E-05
      2.182  0.1191E-01  0.1184E-01  0.1800E-03  0.1791E-03  0.3506E-03  0.3567E-03  0.1800E-03  0.1791E-03  0.4997E-05  0.3611E-05  0.1228E-04  0.9201E-05  0.8038E-05  0.5825E-05  0.1228E-04  0.9201E-05  0.4997E-05  0.3611E-05
      2.308  0.2621E-01  0.2616E-01  0.5981E-03  0.6043E-03  0.7197E-03  0.7217E-03  0.5981E-03  0.6043E-03  0.2958E-04  0.2164E-04  0.2271E-04  0.1669E-04  0.4511E-04  0.3222E-04  0.2271E-04  0.1669E-04  0.2958E-04  0.2164E-04
      2.434  0.1776E-01  0.1751E-01  0.6063E-03  0.6047E-03  0.2604E-03  0.2560E-03  0.6063E-03  0.6047E-03  0.3570E-04  0.2561E-04  0.1831E-04  0.1314E-04  0.2572E-04  0.1798E-04  0.1831E-04  0.1314E-04  0.3570E-04  0.2561E-04
      2.560  0.3186E-01  0.3110E-01  0.1091E-02  0.1075E-02  0.1030E-02  0.1014E-02  0.1091E-02  0.1075E-02  0.7547E-04  0.5208E-04  0.8252E-04  0.5812E-04  0.4967E-04  0.3404E-04  0.8252E-04  0.5812E-04  0.7547E-04  0.5208E-04
      2.686  0.1486E-01  0.1511E-01  0.4067E-03  0.4323E-03  0.7838E-03  0.7659E-03  0.4067E-03  0.4323E-03  0.2769E-04  0.2056E-04  0.3934E-04  0.2905E-04  0.7181E-04  0.4528E-04  0.3934E-04  0.2905E-04  0.2769E-04  0.2056E-04
      2.811  0.1859E-01  0.1797E-01  0.7208E-03  0.6715E-03  0.8951E-03  0.9301E-03  0.7208E-03  0.6715E-03  0.6925E-04  0.4434E-04  0.5733E-04  0.3823E-04  0.1125E-03  0.7942E-04  0.5733E-04  0.3823E-04  0.6925E-04  0.4434E-04
      2.937  0.4221E-01  0.4037E-01  0.2107E-02  0.2027E-02  0.1713E-02  0.1668E-02  0.2107E-02  0.2027E-02  0.2265E-03  0.1475E-03  0.1770E-03  0.1223E-03  0.2046E-03  0.1289E-03  0.1770E-03  0.1223E-03  0.2265E-03  0.1475E-03
      3.063  0.2943E-01  0.2986E-01  0.1506E-02  0.1559E-02  0.1499E-02  0.1479E-02  0.1506E-02  0.1559E-02  0.1757E-03  0.1250E-03  0.1832E-03  0.1165E-03  0.1636E-03  0.1219E-03  0.1832E-03  0.1165E-03  0.1757E-03  0.1250E-03
      3.189  0.2404E-01  0.2397E-01  0.1561E-02  0.1545E-02  0.8898E-03  0.9500E-03  0.1561E-02  0.1545E-02  0.2403E-03  0.1492E-03  0.1689E-03  0.1257E-03  0.1529E-03  0.7823E-04  0.1689E-03  0.1257E-03  0.2403E-03  0.1492E-03
      3.315  0.2772E-01  0.2544E-01  0.1260E-02  0.1275E-02  0.2558E-02  0.2139E-02  0.1260E-02  0.1275E-02  0.1947E-03  0.1383E-03  0.2407E-03  0.1236E-03  0.4964E-03  0.3077E-03  0.2407E-03  0.1236E-03  0.1947E-03  0.1383E-03
      3.440  0.3163E-01  0.2608E-01  0.2038E-02  0.1546E-02  0.2259E-02  0.2118E-02  0.2038E-02  0.1546E-02  0.3500E-03  0.1559E-03  0.4709E-03  0.2621E-03  0.2554E-03  0.1301E-03  0.4709E-03  0.2621E-03  0.3500E-03  0.1559E-03
      3.566  0.4062E-01  0.4594E-01  0.2892E-02  0.3310E-02  0.2804E-02  0.3197E-02  0.2892E-02  0.3310E-02  0.5328E-03  0.3976E-03  0.4162E-03  0.3545E-03  0.7169E-03  0.4484E-03  0.4162E-03  0.3545E-03  0.5328E-03  0.3976E-03
      3.692  0.3014E-01  0.1961E-01  0.3011E-02  0.1743E-02  0.9164E-03  0.1005E-02  0.3011E-02  0.1743E-02  0.8134E-03  0.2735E-03  0.3203E-03  0.1010E-03  0.4769E-03  0.2709E-03  0.3203E-03  0.1010E-03  0.8134E-03  0.2735E-03
      3.818  0.3822E-01  0.3981E-01  0.2976E-02  0.3905E-02  0.3415E-02  0.1878E-02  0.2976E-02  0.3905E-02  0.7135E-03  0.6285E-03  0.8780E-03  0.4270E-03  0.7226E-03  0.3317E-03  0.8780E-03  0.4270E-03  0.7135E-03  0.6285E-03
      3.944  0.3844E-01  0.4413E-01  0.2768E-02  0.3008E-02  0.4291E-02  0.5521E-02  0.2768E-02  0.3008E-02  0.7646E-03  0.4549E-03  0.9684E-03  0.7509E-03  0.1320E-02  0.8134E-03  0.9684E-03  0.7509E-03  0.7646E-03  0.4549E-03
      4.069  0.3398E-01  0.2787E-01  0.2956E-02  0.2551E-02  0.3414E-02  0.2638E-02  0.2956E-02  0.2551E-02  0.1051E-02  0.4780E-03  0.1014E-02  0.4860E-03  0.1148E-02  0.4907E-03  0.1014E-02  0.4860E-03  0.1051E-02  0.4780E-03
      4.195  0.3178E-01  0.3075E-01  0.3058E-02  0.2657E-02  0.3046E-02  0.3663E-02  0.3058E-02  0.2657E-02  0.1229E-02  0.5836E-03  0.1014E-02  0.6361E-03  0.1430E-02  0.8036E-03  0.1014E-02  0.6361E-03  0.1229E-02  0.5836E-03
      4.321  0.4499E-01  0.3299E-01  0.5329E-02  0.3868E-02  0.3643E-02  0.2532E-02  0.5329E-02  0.3868E-02  0.1945E-02  0.8918E-03  0.1671E-02  0.5108E-03  0.1303E-02  0.8483E-03  0.1671E-02  0.5108E-03  0.1945E-02  0.8918E-03
      4.447  0.6242E-01  0.4562E-01  0.6695E-02  0.5309E-02  0.6886E-02  0.4636E-02  0.6695E-02  0.5309E-02  0.3286E-02  0.1129E-02  0.2968E-02  0.1290E-02  0.3924E-02  0.7370E-03  0.2968E-02  0.1290E-02  0.3286E-02  0.1129E-02
      4.573  0.3816E-01  0.5110E-01  0.4365E-02  0.6062E-02  0.4103E-02  0.5486E-02  0.4365E-02  0.6062E-02  0.2776E-02  0.1741E-02  0.2055E-02  0.1441E-02  0.2784E-02  0.1704E-02  0.2055E-02  0.1441E-02  0.2776E-02  0.1741E-02
      4.699  0.3474E-01  0.3669E-01  0.3965E-02  0.4015E-02  0.4215E-02  0.5030E-02  0.3965E-02  0.4015E-02  0.2661E-02  0.1294E-02  0.2735E-02  0.1090E-02  0.3649E-02  0.1960E-02  0.2735E-02  0.1090E-02  0.2661E-02  0.1294E-02
      4.824  0.4715E-01  0.3165E-01  0.5344E-02  0.4292E-02  0.7084E-02  0.3253E-02  0.5344E-02  0.4292E-02  0.4651E-02  0.1483E-02  0.5050E-02  0.1223E-02  0.3469E-02  0.1558E-02  0.5050E-02  0.1223E-02  0.4651E-02  0.1483E-02
      4.950  0.5376E-01  0.3793E-01  0.6645E-02  0.4056E-02  0.7825E-02  0.7152E-02  0.6645E-02  0.4056E-02  0.5378E-02  0.1462E-02  0.6393E-02  0.2164E-02  0.8183E-02  0.2003E-02  0.6393E-02  0.2164E-02  0.5378E-02  0.1462E-02
      5.076  0.6106E-01  0.4503E-01  0.9586E-02  0.6376E-02  0.5786E-02  0.6225E-02  0.9586E-02  0.6376E-02  0.9791E-02  0.2612E-02  0.5953E-02  0.2947E-02  0.9434E-02  0.1291E-02  0.5953E-02  0.2947E-02  0.9791E-02  0.2612E-02
      5.202  0.7180E-01  0.4710E-01  0.1028E-01  0.7266E-02  0.8228E-02  0.6269E-02  0.1028E-01  0.7266E-02  0.1669E-01  0.2876E-02  0.1392E-01  0.2098E-02  0.1742E-01  0.3847E-02  0.1392E-01  0.2098E-02  0.1669E-01  0.2876E-02
      5.328  0.6983E-01  0.5332E-01  0.8035E-02  0.8546E-02  0.1034E-01  0.6592E-02  0.8035E-02  0.8546E-02  0.2432E-01  0.4506E-02  0.2905E-01  0.3424E-02  0.2206E-01  0.5053E-02  0.2905E-01  0.3424E-02  0.2432E-01  0.4506E-02
      5.453  0.7875E-01  0.3880E-01  0.6904E-02  0.6538E-02  0.1006E-01  0.5419E-02  0.6904E-02  0.6538E-02  0.4640E-01  0.3843E-02  0.5874E-01  0.2788E-02  0.5201E-01  0.3761E-02  0.5874E-01  0.2788E-02  0.4640E-01  0.3843E-02
      5.579  0.1046E+00  0.6746E-01  0.1438E-01  0.1042E-01  0.1089E-01  0.1220E-01  0.1438E-01  0.1042E-01  0.7169E-01  0.6791E-02  0.7930E-01  0.7673E-02  0.6093E-01  0.6146E-02  0.7930E-01  0.7673E-02  0.7169E-01  0.6791E-02
      5.705  0.8796E-01  0.2994E-01  0.1395E-01  0.4546E-02  0.1318E-01  0.5802E-02  0.1395E-01  0.4546E-02  0.6318E-01  0.3873E-02  0.6995E-01  0.4789E-02  0.5028E-01  0.2802E-02  0.6995E-01  0.4789E-02  0.6318E-01  0.3873E-02
      5.831  0.7968E-01  0.4823E-01  0.1182E-01  0.7167E-02  0.1418E-01  0.9503E-02  0.1182E-01  0.7167E-02  0.1098E+00  0.7098E-02  0.9078E-01  0.6779E-02  0.9411E-01  0.1095E-01  0.9078E-01  0.6779E-02  0.1098E+00  0.7098E-02
      5.957  0.5362E-01  0.4862E-01  0.1000E-01  0.9772E-02  0.1281E-01  0.7464E-02  0.1000E-01  0.9772E-02  0.1163E+00  0.8501E-02  0.7800E-01  0.7160E-02  0.7079E-01  0.8957E-02  0.7800E-01  0.7160E-02  0.1163E+00  0.8501E-02
      6.082  0.7528E-01  0.8214E-01  0.1729E-01  0.1619E-01  0.1977E-01  0.1413E-01  0.1729E-01  0.1619E-01  0.1315E+00  0.1679E-01  0.1410E+00  0.1692E-01  0.1523E+00  0.1560E-01  0.1410E+00  0.1692E-01  0.1315E+00  0.1679E-01