    2    2    1    2
  0.2137190E+02  0.2470000E-09  0.2470000E-09  0.8090000E-09  0.5000000E-15
  1.000000000000000E-004
  CAR 
 Co-hcc                                  
     18    259     16
 
  0.0000000E+00  0.0000000E+00  0.0000000E+00  0.2572016E-03
      1         -3.012912       -2.820984   1.000000   1.000000
      2         -2.546373       -2.176273   1.000000   1.000000
      3         -0.104589        1.569144   1.000000   1.000000
      4          0.764623        2.174952   1.000000   1.000000
      5          0.764624        2.531920   1.000000   1.000000
      6          0.765514        2.531921   1.000000   1.000000
      7          0.765515        2.533169   1.000000   1.000000
      8          0.920360        2.533169   1.000000   1.000000
      9          1.671359        2.779196   1.000000   1.000000
     10          1.671359        3.889386   1.000000   0.000000
     11          1.674259        3.889387   1.000000   0.000000
     12          1.674260        3.893275   1.000000   0.000000
     13          2.201844        3.893276   1.000000   0.000000
     14          6.479469        6.665235   0.000000   0.000000
     15         10.900472       11.228094   0.000000   0.000000
     16         18.832682       18.768623   0.000000   0.000000
 
  0.5555556E-01 -0.3469447E-17  0.0000000E+00  0.1543210E-02
      1         -2.899331       -2.706712   1.000000   1.000000
      2         -2.436320       -2.060786   1.000000   1.000000
      3         -0.069341        1.614843   1.000000   1.000000
      4          0.729550        2.153634   1.000000   1.000000
      5          0.730662        2.487442   1.000000   1.000000
      6          0.813439        2.488920   1.000000   1.000000
      7          0.814163        2.585940   1.000000   1.000000
      8          0.946286        2.586954   1.000000   1.000000
      9          1.415725        2.804299   1.000000   1.000000
     10          1.578954        3.733801   1.000000   0.000000
     11          1.661350        3.877495   1.000000   0.000000
     12          1.664782        3.882156   1.000000   0.000000
     13          2.534047        3.981039   1.000000   0.000000
     14          6.662104        6.908643   0.000000   0.000000
     15         10.967997       11.286054   0.000000   0.000000
     16         18.963170       18.905077   0.000000   0.000000
 
  0.1111111E+00 -0.6938894E-17  0.0000000E+00  0.1543210E-02
      1         -2.566113       -2.369145   1.000000   1.000000
      2         -2.117551       -1.721689   1.000000   1.000000
      3          0.032521        1.744330   1.000000   1.000000
      4          0.636269        2.090539   1.000000   1.000000
      5          0.638558        2.366808   1.000000   1.000000
      6          0.955292        2.370741   1.000000   1.000000
      7          0.956246        2.743017   1.000000   1.000000
      8          1.025573        2.744372   1.000000   1.000000
      9          1.052142        2.877033   1.000000   1.000000
     10          1.339836        3.378161   1.000000   0.000000
     11          1.632706        3.843526   1.000000   0.000000
     12          1.637349        3.849916   1.000000   0.000000
     13          3.122033        4.248155   0.785656   0.000000
     14          7.171856        7.527729   0.000000   0.000000
     15         11.172449       11.462359   0.000000   0.000000
     16         19.350044       19.308384   0.000000   0.000000
 
  0.1666667E+00  0.1387779E-16  0.0000000E+00  0.1543210E-02
      1         -2.043749       -1.826938   1.000000   1.000000
      2         -1.635617       -1.185883   1.000000   1.000000
      3          0.189699        1.916608   1.000000   1.000000
      4          0.528200        1.992026   1.000000   1.000000
      5          0.532249        2.211335   1.000000   1.000000
      6          0.720896        2.240054   1.000000   1.000000
      7          1.029175        2.972053   1.000000   1.000000
      8          1.165741        2.990690   1.000000   0.999997
      9          1.178367        2.990959   1.000000   0.999997
     10          1.179221        2.992228   1.000000   0.999996
     11          1.589136        3.791951   1.000000   0.000000
     12          1.595380        3.800618   1.000000   0.000000
     13          3.837825        4.701057   0.000000   0.000000
     14          7.933498        8.372803   0.000000   0.000000
     15         11.518010       11.763125   0.000000   0.000000
     16         19.979691       19.961050   0.000000   0.000000
 
  0.2222222E+00  0.0000000E+00  0.0000000E+00  0.1543210E-02
      1         -1.427925       -1.125546   1.000000   1.000000
      2         -1.122155       -0.524495   1.000000   1.000000
      3          0.393536        1.871957   1.000000   1.000000
      4          0.432953        1.948309   1.000000   1.000000
      5          0.506602        2.107375   1.000000   1.000000
      6          0.515652        2.324096   1.000000   1.000000
      7          0.708487        2.588324   1.000000   1.000000
      8          1.401307        3.136120   1.000000   0.652839
      9          1.461740        3.307558   1.000000   0.000004
     10          1.462604        3.308875   1.000000   0.000004
     11          1.536274        3.729481   1.000000   0.000000
     12          1.544122        3.740440   1.000000   0.000000
     13          4.682835        5.342235   0.000000   0.000000
     14          8.883870        9.369313   0.000000   0.000000
     15         12.005041       12.193017   0.000000   0.000000
     16         19.114537       19.472309   0.000000   0.000000
 
  0.2777778E+00  0.2775558E-16  0.0000000E+00  0.1543210E-02
      1         -0.979505       -0.384045   1.000000   1.000000
      2         -0.832945        0.078462   1.000000   1.000000
      3          0.192002        1.748303   1.000000   1.000000
      4          0.415371        1.971498   1.000000   1.000000
      5          0.626525        2.238149   1.000000   1.000000
      6          0.704121        2.256064   1.000000   1.000000
      7          0.854000        2.596933   1.000000   1.000000
      8          1.480381        3.309085   1.000000   0.000003
      9          1.489794        3.661605   1.000000   0.000000
     10          1.776442        3.662820   1.000000   0.000000
     11          1.777234        3.663509   1.000000   0.000000
     12          1.857101        3.676716   1.000000   0.000000
     13          5.666648        6.170721   0.000000   0.000000
     14          9.978354       10.480737   0.000000   0.000000
     15         12.603795       12.734113   0.000000   0.000000
     16         16.568576       16.970245   0.000000   0.000000
 
  0.3333333E+00  0.2775558E-16  0.0000000E+00  0.1543210E-02
      1         -0.878062        0.135905   1.000000   1.000000
      2         -0.821472        0.367053   1.000000   1.000000
      3          0.001772        1.638403   1.000000   1.000000
      4          0.171145        1.987454   1.000000   1.000000
      5          0.823366        2.365943   1.000000   1.000000
      6          0.967523        2.776758   1.000000   1.000000
      7          1.428239        2.912391   1.000000   1.000000
      8          1.439022        3.562422   1.000000   0.000000
      9          1.777609        3.602054   1.000000   0.000000
     10          2.086106        3.617229   1.000000   0.000000
     11          2.086776        4.012811   1.000000   0.000000
     12          2.714284        4.013854   1.000000   0.000000
     13          6.796091        7.182539   0.000000   0.000000
     14         11.169059       11.666361   0.000000   0.000000
     15         13.038190       13.199913   0.000000   0.000000
     16         14.254340       14.687223   0.000000   0.000000
 
  0.3888889E+00  0.5551115E-16  0.0000000E+00  0.1543210E-02
      1         -0.930624        0.302980   1.000000   1.000000
      2         -0.906098        0.393459   1.000000   1.000000
      3         -0.133966        1.556447   1.000000   1.000000
      4         -0.012781        1.787136   1.000000   1.000000
      5          0.992426        2.976191   1.000000   1.000000
      6          1.136486        3.251986   1.000000   0.001962
      7          1.385947        3.489300   1.000000   0.000000
      8          1.397847        3.552267   1.000000   0.000000
      9          2.349887        3.569043   1.000000   0.000000
     10          2.350284        4.239291   1.000000   0.000000
     11          3.036001        4.314534   0.999370   0.000000
     12          3.893163        4.315160   0.000000   0.000000
     13          8.069741        8.367937   0.000000   0.000000
     14         11.759820       12.289236   0.000000   0.000000
     15         12.308937       12.765518   0.000000   0.000000
     16         12.635688       13.134200   0.000000   0.000000
 
  0.4444444E+00  0.0000000E+00  0.0000000E+00  0.1543210E-02
      1         -0.993185        0.314869   1.000000   1.000000
      2         -0.982720        0.349891   1.000000   1.000000
      3         -0.213230        1.510781   1.000000   1.000000
      4         -0.128863        1.658884   1.000000   1.000000
      5          1.108990        3.209881   1.000000   0.045201
      6          1.222494        3.397270   1.000000   0.000000
      7          1.358423        3.519880   1.000000   0.000000
      8          1.371130        3.537811   1.000000   0.000000
      9          2.528068        4.519841   1.000000   0.000000
     10          2.528178        4.519961   1.000000   0.000000
     11          4.379824        4.555020   0.000000   0.000000
     12          5.071329        5.190028   0.000000   0.000000
     13          9.456736        9.691818   0.000000   0.000000
     14         10.036086       10.732066   0.000000   0.000000
     15         10.971387       11.683900   0.000000   0.000000
     16         12.524740       12.787014   0.000000   0.000000
 
  0.5000000E+00  0.5551115E-16  0.0000000E+00  0.7716049E-03
      1         -1.016842        0.310102   1.000000   1.000000
      2         -1.012604        0.325647   1.000000   1.000000
      3         -0.238233        1.498643   1.000000   1.000000
      4         -0.169308        1.612600   1.000000   1.000000
      5          1.151966        3.283024   1.000000   0.000084
      6          1.247782        3.426906   1.000000   0.000000
      7          1.348996        3.508803   1.000000   0.000000
      8          1.361993        3.527133   1.000000   0.000000
      9          2.591103        4.592736   1.000000   0.000000
     10          2.591309        4.592999   1.000000   0.000000
     11          5.207446        5.211127   0.000000   0.000000
     12          5.554145        5.582954   0.000000   0.000000
     13          9.279745       10.078847   0.000000   0.000000
     14         10.090657       10.732304   0.000000   0.000000
     15         10.526596       10.934886   0.000000   0.000000
     16         11.662948       11.856900   0.000000   0.000000
 
  0.5555556E-01  0.5555556E-01  0.0000000E+00  0.1543210E-02
      1         -2.675608       -2.480658   1.000000   1.000000
      2         -2.221392       -1.833238   1.000000   1.000000
      3         -0.000690        1.703156   1.000000   1.000000
      4          0.662017        2.111606   1.000000   1.000000
      5          0.663078        2.401788   1.000000   1.000000
      6          0.907631        2.403314   1.000000   1.000000
      7          0.913066        2.694582   1.000000   1.000000
      8          1.003059        2.695928   1.000000   1.000000
      9          1.148489        2.853206   1.000000   1.000000
     10          1.415370        3.484694   1.000000   0.000000
     11          1.641114        3.853487   1.000000   0.000000
     12          1.644362        3.857911   1.000000   0.000000
     13          2.951753        4.160106   1.000000   0.000000
     14          7.007540        7.335213   0.000000   0.000000
     15         11.104075       11.403280   0.000000   0.000000
     16         19.221917       19.175030   0.000000   0.000000
 
  0.1111111E+00  0.5555556E-01  0.0000000E+00  0.3086420E-02
      1         -2.244233       -2.039335   1.000000   1.000000
      2         -1.815728       -1.393290   1.000000   1.000000
      3          0.129731        1.864997   1.000000   1.000000
      4          0.546821        2.032087   1.000000   1.000000
      5          0.548903        2.252146   1.000000   1.000000
      6          0.837139        2.257693   1.000000   1.000000
      7          1.051296        2.906556   1.000000   1.000000
      8          1.106161        2.907727   1.000000   1.000000
      9          1.147763        2.946676   1.000000   1.000000
     10          1.161417        3.121281   1.000000   0.791808
     11          1.601244        3.805965   1.000000   0.000000
     12          1.605645        3.812024   1.000000   0.000000
     13          3.571535        4.523838   0.000000   0.000000
     14          7.640146        8.055132   0.000000   0.000000
     15         11.379825       11.642590   0.000000   0.000000
     16         19.730742       19.703654   0.000000   0.000000
 
  0.1666667E+00  0.5555556E-01  0.0000000E+00  0.3086420E-02
      1         -1.656283       -1.410855   1.000000   1.000000
      2         -1.293649       -0.782794   1.000000   1.000000
      3          0.308335        1.926118   1.000000   1.000000
      4          0.446289        1.984693   1.000000   1.000000
      5          0.451182        2.094963   1.000000   1.000000
      6          0.548381        2.196869   1.000000   1.000000
      7          0.842399        2.745028   1.000000   1.000000
      8          1.208401        3.073219   1.000000   0.985076
      9          1.379450        3.204315   1.000000   0.062290
     10          1.458180        3.209458   1.000000   0.046352
     11          1.547226        3.741527   1.000000   0.000000
     12          1.553500        3.750166   1.000000   0.000000
     13          4.336701        5.074732   0.000000   0.000000
     14          8.492164        8.965262   0.000000   0.000000
     15         11.799281       12.011054   0.000000   0.000000
     16         20.471395       20.468454   0.000000   0.000000
 
  0.2222222E+00  0.5555556E-01  0.0000000E+00  0.3086420E-02
      1         -1.076502       -0.665657   1.000000   1.000000
      2         -0.855301       -0.114392   1.000000   1.000000
      3          0.298297        1.809726   1.000000   1.000000
      4          0.499824        1.912617   1.000000   1.000000
      5          0.511197        2.047931   1.000000   1.000000
      6          0.543589        2.403266   1.000000   1.000000
      7          0.546339        2.432460   1.000000   1.000000
      8          1.420948        3.224791   1.000000   0.017215
      9          1.486133        3.560802   1.000000   0.000000
     10          1.494262        3.581713   1.000000   0.000000
     11          1.719294        3.668639   1.000000   0.000000
     12          1.888681        3.679819   1.000000   0.000000
     13          5.243716        5.813069   0.000000   0.000000
     14          9.512478       10.013940   0.000000   0.000000
     15         12.355060       12.508084   0.000000   0.000000
     16         17.889715       18.264539   0.000000   0.000000
 
  0.2777778E+00  0.5555556E-01  0.0000000E+00  0.3086420E-02
      1         -0.814647        0.007315   1.000000   1.000000
      2         -0.728762        0.354451   1.000000   1.000000
      3          0.093470        1.699491   1.000000   1.000000
      4          0.287530        2.051879   1.000000   1.000000
      5          0.721193        2.116183   1.000000   1.000000
      6          0.783219        2.336080   1.000000   1.000000
      7          1.082869        2.721989   1.000000   1.000000
      8          1.425247        3.394264   1.000000   0.000000
      9          1.434985        3.595985   1.000000   0.000000
     10          1.713711        3.609372   1.000000   0.000000
     11          2.141763        3.949513   1.000000   0.000000
     12          2.546259        4.013053   1.000000   0.000000
     13          6.297235        6.736495   0.000000   0.000000
     14         10.659505       11.166568   0.000000   0.000000
     15         12.962244       13.075693   0.000000   0.000000
     16         15.423871       15.843967   0.000000   0.000000
 
  0.3333333E+00  0.5555556E-01  0.0000000E+00  0.3086420E-02
      1         -0.828462        0.333075   1.000000   1.000000
      2         -0.794026        0.475456   1.000000   1.000000
      3         -0.061259        1.610111   1.000000   1.000000
      4          0.081635        1.892269   1.000000   1.000000
      5          0.913399        2.648162   1.000000   1.000000
      6          1.037977        2.937263   1.000000   1.000000
      7          1.371957        3.029230   1.000000   0.999683
      8          1.383030        3.532371   1.000000   0.000000
      9          1.811078        3.547591   1.000000   0.000000
     10          2.032307        3.619480   1.000000   0.000000
     11          2.831100        4.357407   1.000000   0.000000
     12          3.540298        4.540031   0.000000   0.000000
     13          7.499307        7.839406   0.000000   0.000000
     14         11.861388       12.353015   0.000000   0.000000
     15         12.727200       13.103432   0.000000   0.000000
     16         13.468582       13.858714   0.000000   0.000000
 
  0.3888889E+00  0.5555556E-01  0.0000000E+00  0.3086420E-02
      1         -0.902317        0.386294   1.000000   1.000000
      2         -0.886998        0.441094   1.000000   1.000000
      3         -0.162930        1.551784   1.000000   1.000000
      4         -0.063104        1.734525   1.000000   1.000000
      5          1.060782        3.129170   1.000000   0.722266
      6          1.180527        3.315346   1.000000   0.000001
      7          1.332350        3.485066   1.000000   0.000000
      8          1.344469        3.501715   1.000000   0.000000
      9          2.224739        3.618409   1.000000   0.000000
     10          2.281658        3.974457   1.000000   0.000000
     11          3.984294        4.855822   0.000000   0.000000
     12          4.744454        5.274802   0.000000   0.000000
     13          8.839064        9.105510   0.000000   0.000000
     14         10.893898       11.500340   0.000000   0.000000
     15         11.846125       12.458322   0.000000   0.000000
     16         12.746910       13.135070   0.000000   0.000000
 
  0.4444444E+00  0.5555556E-01  0.0000000E+00  0.3086420E-02
      1         -0.950652        0.376837   1.000000   1.000000
      2         -0.945142        0.396935   1.000000   1.000000
      3         -0.211338        1.527561   1.000000   1.000000
      4         -0.139257        1.649073   1.000000   1.000000
      5          1.143558        3.270023   1.000000   0.000344
      6          1.240816        3.416886   1.000000   0.000000
      7          1.311283        3.459901   1.000000   0.000000
      8          1.324020        3.477386   1.000000   0.000000
      9          2.398915        4.101620   1.000000   0.000000
     10          2.414116        4.200760   1.000000   0.000000
     11          5.177840        5.540449   0.000000   0.000000
     12          5.680619        5.939027   0.000000   0.000000
     13          9.520484       10.283449   0.000000   0.000000
     14         10.223647       10.442887   0.000000   0.000000
     15         10.387437       11.180795   0.000000   0.000000
     16         12.112372       12.320515   0.000000   0.000000
 
  0.1111111E+00  0.1111111E+00  0.0000000E+00  0.1543210E-02
      1         -1.735180       -1.507376   1.000000   1.000000
      2         -1.352806       -0.870872   1.000000   1.000000
      3          0.284017        1.948042   1.000000   1.000000
      4          0.409631        2.055512   1.000000   1.000000
      5          0.411715        2.079582   1.000000   1.000000
      6          0.596050        2.082187   1.000000   1.000000
      7          0.896955        2.809587   1.000000   1.000000
      8          1.150811        3.051631   1.000000   0.997305
      9          1.366328        3.182261   1.000000   0.180868
     10          1.468731        3.190591   1.000000   0.125555
     11          1.544865        3.738013   1.000000   0.000000
     12          1.549518        3.744588   1.000000   0.000000
     13          4.219623        4.990873   0.000000   0.000000
     14          8.358850        8.827311   0.000000   0.000000
     15         11.731572       11.951731   0.000000   0.000000
     16         20.352612       20.346584   0.000000   0.000000
 
  0.1666667E+00  0.1111111E+00  0.0000000E+00  0.3086420E-02
      1         -1.116026       -0.812218   1.000000   1.000000
      2         -0.831299       -0.212949   1.000000   1.000000
      3          0.298320        1.853137   1.000000   1.000000
      4          0.300605        1.898408   1.000000   1.000000
      5          0.371145        1.912511   1.000000   1.000000
      6          0.486045        2.302710   1.000000   1.000000
      7          0.634982        2.504061   1.000000   1.000000
      8          1.279758        3.183157   1.000000   0.174277
      9          1.471174        3.542938   1.000000   0.000000
     10          1.477537        3.581241   1.000000   0.000000
     11          1.728940        3.648784   1.000000   0.000000
     12          1.932895        3.657791   1.000000   0.000000
     13          5.032498        5.645948   0.000000   0.000000
     14          9.276039        9.778306   0.000000   0.000000
     15         12.230363       12.397366   0.000000   0.000000
     16         19.358744       19.690497   0.000000   0.000000
 
  0.2222222E+00  0.1111111E+00  0.0000000E+00  0.3086420E-02
      1         -0.648168       -0.059714   1.000000   1.000000
      2         -0.521511        0.413110   1.000000   1.000000
      3          0.179704        1.761912   1.000000   1.000000
      4          0.393801        1.815726   1.000000   1.000000
      5          0.409922        1.902904   1.000000   1.000000
      6          0.420762        2.235500   1.000000   1.000000
      7          0.736999        2.577989   1.000000   1.000000
      8          1.390702        3.323772   1.000000   0.000000
      9          1.399165        3.550952   1.000000   0.000000
     10          1.438271        3.562688   1.000000   0.000000
     11          2.214063        3.968877   1.000000   0.000000
     12          2.595319        4.079629   1.000000   0.000000
     13          6.001803        6.486310   0.000000   0.000000
     14         10.350074       10.866910   0.000000   0.000000
     15         12.852491       12.967577   0.000000   0.000000
     16         16.818414       17.204316   0.000000   0.000000
 
  0.2777778E+00  0.1111111E+00  0.0000000E+00  0.3086420E-02
      1         -0.589125        0.467264   1.000000   1.000000
      2         -0.546722        0.690398   1.000000   1.000000
      3          0.029327        1.686011   1.000000   1.000000
      4          0.192392        2.017717   1.000000   1.000000
      5          0.758288        2.081324   1.000000   1.000000
      6          0.781882        2.294203   1.000000   1.000000
      7          1.143726        2.851717   1.000000   1.000000
      8          1.313885        3.456699   1.000000   0.000000
      9          1.324139        3.457144   1.000000   0.000000
     10          1.628359        3.471035   1.000000   0.000000
     11          2.908656        4.460204   1.000000   0.000000
     12          3.512586        4.712434   0.000000   0.000000
     13          7.126263        7.508546   0.000000   0.000000
     14         11.534551       12.050337   0.000000   0.000000
     15         13.342408       13.492836   0.000000   0.000000
     16         14.497139       14.910063   0.000000   0.000000
 
  0.3333333E+00  0.1111111E+00  0.0000000E+00  0.3086420E-02
      1         -0.676718        0.594777   1.000000   1.000000
      2         -0.658761        0.673964   1.000000   1.000000
      3         -0.076200        1.633786   1.000000   1.000000
      4          0.040546        1.855117   1.000000   1.000000
      5          0.985768        2.746455   1.000000   1.000000
      6          1.060071        2.881335   1.000000   1.000000
      7          1.250654        3.093466   1.000000   0.945139
      8          1.262284        3.379575   1.000000   0.000000
      9          1.625954        3.395024   1.000000   0.000000
     10          1.835837        3.568721   1.000000   0.000000
     11          3.923644        5.072793   0.000000   0.000000
     12          4.670472        5.527817   0.000000   0.000000
     13          8.401399        8.704872   0.000000   0.000000
     14         12.019836       12.534295   0.000000   0.000000
     15         12.689233       13.176239   0.000000   0.000000
     16         12.918950       13.405781   0.000000   0.000000
 
  0.3888889E+00  0.1111111E+00  0.0000000E+00  0.3086420E-02
      1         -0.754634        0.577329   1.000000   1.000000
      2         -0.747151        0.606833   1.000000   1.000000
      3         -0.136199        1.608682   1.000000   1.000000
      4         -0.055727        1.750102   1.000000   1.000000
      5          1.115813        3.224004   1.000000   0.018186
      6          1.204571        3.275972   1.000000   0.000184
      7          1.208989        3.328273   1.000000   0.000000
      8          1.221455        3.344652   1.000000   0.000000
      9          1.928382        3.379996   1.000000   0.000000
     10          1.999172        3.652087   1.000000   0.000000
     11          5.170608        5.882335   0.000000   0.000000
     12          5.864561        6.420338   0.000000   0.000000
     13          9.798093       10.045558   0.000000   0.000000
     14         10.238624       10.904342   0.000000   0.000000
     15         11.196697       11.885612   0.000000   0.000000
     16         12.902140       13.183192   0.000000   0.000000
 
  0.4444444E+00  0.1111111E+00  0.0000000E+00  0.1543210E-02
      1         -0.782181        0.563920   1.000000   1.000000
      2         -0.780608        0.575681   1.000000   1.000000
      3         -0.154600        1.603937   1.000000   1.000000
      4         -0.089614        1.711399   1.000000   1.000000
      5          1.161284        3.294058   1.000000   0.000023
      6          1.194488        3.310377   1.000000   0.000003
      7          1.207243        3.327072   1.000000   0.000000
      8          1.246480        3.395280   1.000000   0.000000
      9          2.033195        3.613928   1.000000   0.000000
     10          2.054577        3.662289   1.000000   0.000000
     11          6.034986        6.484220   0.000000   0.000000
     12          6.371310        6.799174   0.000000   0.000000
     13          9.442977       10.213838   0.000000   0.000000
     14         10.236608       11.055299   0.000000   0.000000
     15         10.898400       11.127131   0.000000   0.000000
     16         11.982341       12.179586   0.000000   0.000000
 
  0.1666667E+00  0.1666667E+00  0.0000000E+00  0.1543210E-02
      1         -0.507636       -0.079464   1.000000   1.000000
      2         -0.331950        0.457987   1.000000   1.000000
      3          0.140745        1.722979   1.000000   1.000000
      4          0.144769        1.729252   1.000000   1.000000
      5          0.216240        1.788728   1.000000   1.000000
      6          0.438836        2.286240   1.000000   1.000000
      7          0.700340        2.526781   1.000000   1.000000
      8          1.370250        3.304742   1.000000   0.000006
      9          1.371760        3.524857   1.000000   0.000000
     10          1.378247        3.536819   1.000000   0.000000
     11          2.239696        3.982183   1.000000   0.000000
     12          2.619133        4.106793   1.000000   0.000000
     13          5.904373        6.407030   0.000000   0.000000
     14         10.246544       10.767513   0.000000   0.000000
     15         12.809861       12.928588   0.000000   0.000000
     16         18.282855       18.561775   0.000000   0.000000
 
  0.2222222E+00  0.1666667E+00  0.0000000E+00  0.3086420E-02
      1         -0.212929        0.640457   1.000000   1.000000
      2         -0.170396        1.005150   1.000000   1.000000
      3          0.095717        1.661232   1.000000   1.000000
      4          0.272991        1.714218   1.000000   1.000000
      5          0.288854        1.743077   1.000000   1.000000
      6          0.307303        2.109392   1.000000   1.000000
      7          0.940096        2.783697   1.000000   1.000000
      8          1.259293        3.387844   1.000000   0.000000
      9          1.269992        3.403867   1.000000   0.000000
     10          1.467015        3.418061   1.000000   0.000000
     11          2.959013        4.518622   1.000000   0.000000
     12          3.537196        4.800300   0.000000   0.000000
     13          6.943097        7.352298   0.000000   0.000000
     14         11.366426       11.895924   0.000000   0.000000
     15         13.477154       13.567812   0.000000   0.000000
     16         15.910213       16.295248   0.000000   0.000000
 
  0.2777778E+00  0.1666667E+00  0.0000000E+00  0.3086420E-02
      1         -0.327801        0.937423   1.000000   1.000000
      2         -0.313066        1.047004   1.000000   1.000000
      3          0.012807        1.720237   1.000000   1.000000
      4          0.145434        1.977408   1.000000   1.000000
      5          0.715162        2.034840   1.000000   1.000000
      6          0.742212        2.191289   1.000000   1.000000