    2    2    1    2
  0.1064014E+02  0.2472000E-09  0.2472000E-09  0.4021144E-09  0.5000000E-15
  1.000000000000000E-004
  CAR 
 Co-hcc                                  
     18    259     16
 
  0.0000000E+00  0.0000000E+00  0.0000000E+00  0.2572016E-03
      1          1.513699        1.507454   1.000000   1.000000
      2          5.311058        6.237086   1.000000   1.000000
      3          7.869039        9.481446   1.000000   1.000000
      4          7.923157        9.540622   1.000000   1.000000
      5          7.923157        9.540622   1.000000   1.000000
      6          8.238577        9.909085   1.000000   1.000000
      7          8.238578        9.909085   1.000000   1.000000
      8          8.622936       10.323960   1.000000   1.000000
      9          8.622936       10.375353   1.000000   0.999993
     10          9.732578       10.375354   1.000000   0.999993
     11          9.732578       11.600175   1.000000   0.000000
     12         10.387230       11.600176   0.999970   0.000000
     13         16.977779       17.989547   0.000000   0.000000
     14         32.760035       32.475913   0.000000   0.000000
     15         35.566849       35.731164   0.000000   0.000000
     16         35.567161       35.820104   0.000000   0.000000
 
  0.5555556E-01 -0.3469447E-17  0.0000000E+00  0.1543210E-02
      1          1.624387        1.618497   1.000000   1.000000
      2          5.379165        6.314113   1.000000   1.000000
      3          7.753021        9.341893   1.000000   1.000000
      4          7.975511        9.598008   1.000000   1.000000
      5          8.024422        9.657042   1.000000   1.000000
      6          8.212024        9.874525   1.000000   1.000000
      7          8.284985        9.948586   1.000000   1.000000
      8          8.564638        9.959943   1.000000   1.000000
      9          8.589534       10.336378   1.000000   1.000000
     10          9.207158       10.343672   1.000000   1.000000
     11          9.746789       11.617075   1.000000   0.000000
     12         11.043604       12.072761   0.000000   0.000000
     13         16.995734       17.997347   0.000000   0.000000
     14         31.994251       31.890689   0.000000   0.000000
     15         33.859190       34.002701   0.000000   0.000000
     16         34.248916       34.578085   0.000000   0.000000
 
  0.1111111E+00 -0.6938894E-17  0.0000000E+00  0.1543210E-02
      1          1.951352        1.947275   1.000000   1.000000
      2          5.569307        6.531979   1.000000   1.000000
      3          7.583361        9.132931   1.000000   1.000000
      4          8.097253        9.339934   1.000000   1.000000
      5          8.129041        9.733122   1.000000   1.000000
      6          8.208034        9.766776   1.000000   1.000000
      7          8.255034        9.859223   1.000000   1.000000
      8          8.420724       10.108973   1.000000   1.000000
      9          8.498594       10.230678   1.000000   1.000000
     10          8.741331       10.260710   1.000000   1.000000
     11          9.782757       11.659561   1.000000   0.000000
     12         12.039378       12.963772   0.000000   0.000000
     13         17.054192       18.024677   0.000000   0.000000
     14         29.739337       29.929395   0.000000   0.000000
     15         32.555266       32.873542   0.000000   0.000000
     16         32.969750       33.001551   0.000000   0.000000
 
  0.1666667E+00 -0.2775558E-16  0.0000000E+00  0.1543210E-02
      1          2.477730        2.479854   1.000000   1.000000
      2          5.831599        6.844262   1.000000   1.000000
      3          7.399064        8.770687   1.000000   1.000000
      4          7.704827        8.891365   1.000000   1.000000
      5          8.004412        9.606737   1.000000   1.000000
      6          8.370622       10.034086   1.000000   1.000000
      7          8.371106       10.058938   1.000000   1.000000
      8          8.394349       10.082741   1.000000   1.000000
      9          8.560387       10.135480   1.000000   1.000000
     10          8.633867       10.343571   1.000000   1.000000
     11          9.826996       11.711319   1.000000   0.000000
     12         13.145230       13.999410   0.000000   0.000000
     13         17.165433       18.082033   0.000000   0.000000
     14         27.145520       27.466855   0.000000   0.000000
     15         30.960578       31.263136   0.000000   0.000000
     16         32.355505       32.431101   0.000000   0.000000
 
  0.2222222E+00  0.0000000E+00  0.0000000E+00  0.1543210E-02
      1          3.169024        3.189670   1.000000   1.000000
      2          6.062913        7.155228   1.000000   1.000000
      3          7.187931        8.282919   1.000000   1.000000
      4          7.262610        8.668810   1.000000   1.000000
      5          7.918559        9.479867   1.000000   1.000000
      6          8.226780        9.917250   1.000000   1.000000
      7          8.419755        9.983759   1.000000   1.000000
      8          8.666627       10.342561   1.000000   1.000000
      9          8.680353       10.378136   1.000000   0.999990
     10          8.904207       10.641999   1.000000   0.000697
     11          9.868704       11.759636   1.000000   0.000000
     12         14.340133       15.131463   0.000000   0.000000
     13         17.341447       18.179355   0.000000   0.000000
     14         24.606278       25.021909   0.000000   0.000000
     15         29.509550       29.788960   0.000000   0.000000
     16         31.624112       31.781280   0.000000   0.000000
 
  0.2777778E+00  0.0000000E+00  0.0000000E+00  0.1543210E-02
      1          3.958943        4.030826   1.000000   1.000000
      2          6.132599        7.320888   1.000000   1.000000
      3          6.757945        7.885998   1.000000   1.000000
      4          7.251280        8.534321   1.000000   1.000000
      5          7.919486        9.444967   1.000000   1.000000
      6          8.085294        9.755106   1.000000   1.000000
      7          8.284848        9.824324   1.000000   1.000000
      8          9.024918       10.714965   1.000000   0.000000
      9          9.039732       10.765518   1.000000   0.000000
     10          9.205360       10.975633   1.000000   0.000000
     11          9.902509       11.798435   1.000000   0.000000
     12         15.613463       16.341330   0.000000   0.000000
     13         17.557050       18.291287   0.000000   0.000000
     14         22.265963       22.775391   0.000000   0.000000
     15         28.233888       28.482522   0.000000   0.000000
     16         29.722736       29.895809   0.000000   0.000000
 
  0.3333333E+00  0.2775558E-16  0.0000000E+00  0.1543210E-02
      1          4.723990        4.924614   1.000000   1.000000
      2          6.045143        7.282341   1.000000   1.000000
      3          6.422738        7.580559   1.000000   1.000000
      4          7.365253        8.493747   1.000000   1.000000
      5          7.960408        9.548452   1.000000   1.000000
      6          8.033782        9.612406   1.000000   1.000000
      7          8.163142        9.676267   1.000000   1.000000
      8          9.361828       11.149112   1.000000   0.000000
      9          9.506474       11.198196   1.000000   0.000000
     10          9.553057       11.310821   1.000000   0.000000
     11          9.926992       11.826282   1.000000   0.000000
     12         16.952022       17.611614   0.000000   0.000000
     13         17.544045       18.173912   0.000000   0.000000
     14         20.475119       21.074386   0.000000   0.000000
     15         27.169813       27.382104   0.000000   0.000000
     16         27.688746       27.952516   0.000000   0.000000
 
  0.3888889E+00 -0.5551115E-16  0.0000000E+00  0.1543210E-02
      1          5.290832        5.743881   1.000000   1.000000
      2          5.912699        7.141402   1.000000   1.000000
      3          6.183848        7.365143   1.000000   1.000000
      4          7.602206        8.519854   1.000000   1.000000
      5          7.863260        9.501648   1.000000   1.000000
      6          8.066076        9.556633   1.000000   1.000000
      7          8.185075        9.712704   1.000000   1.000000
      8          9.640706       11.469158   1.000000   0.000000
      9          9.773467       11.611690   1.000000   0.000000
     10          9.942892       11.817399   1.000000   0.000000
     11         10.265081       11.844217   1.000000   0.000000
     12         16.520439       17.193505   0.000000   0.000000
     13         18.326889       18.909239   0.000000   0.000000
     14         20.074426       20.634974   0.000000   0.000000
     15         25.823956       26.183650   0.000000   0.000000
     16         26.360558       26.536248   0.000000   0.000000
 
  0.4444444E+00  0.0000000E+00  0.0000000E+00  0.1543210E-02
      1          5.584626        6.337009   1.000000   1.000000
      2          5.801776        6.984382   1.000000   1.000000
      3          6.041090        7.237473   1.000000   1.000000
      4          7.801780        8.610207   1.000000   1.000000
      5          7.882524        9.431660   1.000000   1.000000
      6          8.003466        9.478935   1.000000   1.000000
      7          8.290814        9.832842   1.000000   1.000000
      8          9.821306       11.675642   1.000000   0.000000
      9          9.951674       11.830155   1.000000   0.000000
     10          9.963246       11.854064   1.000000   0.000000
     11         11.204876       12.576687   0.000000   0.000000
     12         14.935648       15.766648   0.000000   0.000000
     13         19.633131       20.123173   0.000000   0.000000
     14         20.618455       21.065628   0.000000   0.000000
     15         24.227100       24.691380   0.000000   0.000000
     16         25.433334       25.998282   0.000000   0.000000
 
  0.5000000E+00  0.0000000E+00  0.0000000E+00  0.7716049E-03
      1          5.693720        6.590204   1.000000   1.000000
      2          5.732509        6.874558   1.000000   1.000000
      3          5.993557        7.195138   1.000000   1.000000
      4          7.780747        8.670454   1.000000   1.000000
      5          7.981860        9.407733   1.000000   1.000000
      6          8.008887        9.452031   1.000000   1.000000
      7          8.323635        9.872596   1.000000   1.000000
      8          9.883560       11.746506   1.000000   0.000000
      9          9.954428       11.857136   1.000000   0.000000
     10         10.032434       11.910889   1.000000   0.000000
     11         11.907715       13.128251   0.000000   0.000000
     12         13.973625       14.933055   0.000000   0.000000
     13         20.343905       20.760674   0.000000   0.000000
     14         21.019054       21.399227   0.000000   0.000000
     15         23.420023       23.961875   0.000000   0.000000
     16         24.717291       25.271603   0.000000   0.000000
 
  0.5555556E-01  0.5555556E-01  0.0000000E+00  0.1543210E-02
      1          1.843267        1.838433   1.000000   1.000000
      2          5.508829        6.461993   1.000000   1.000000
      3          7.629359        9.191345   1.000000   1.000000
      4          8.080411        9.506168   1.000000   1.000000
      5          8.118705        9.711824   1.000000   1.000000
      6          8.161366        9.762432   1.000000   1.000000
      7          8.382789        9.809219   1.000000   1.000000
      8          8.406905       10.066638   1.000000   1.000000
      9          8.483993       10.210093   1.000000   1.000000
     10          8.840418       10.340382   1.000000   1.000000
     11          9.769319       11.643621   1.000000   0.000000
     12         11.760597       12.708126   0.000000   0.000000
     13         17.034100       18.015081   0.000000   0.000000
     14         30.715569       30.785183   0.000000   0.000000
     15         31.728670       32.023826   0.000000   0.000000
     16         34.639645       34.747166   0.000000   0.000000
 
  0.1111111E+00  0.5555556E-01  0.0000000E+00  0.3086420E-02
      1          2.270596        2.269498   1.000000   1.000000
      2          5.739512        6.730479   1.000000   1.000000
      3          7.451075        8.968547   1.000000   1.000000
      4          7.922499        8.971194   1.000000   1.000000
      5          8.062882        9.679768   1.000000   1.000000
      6          8.264596        9.920851   1.000000   1.000000
      7          8.290582        9.945502   1.000000   1.000000
      8          8.351469       10.046123   1.000000   1.000000
      9          8.575310       10.273943   1.000000   1.000000
     10          8.666896       10.275528   1.000000   1.000000
     11          9.804005       11.684230   1.000000   0.000000
     12         12.744388       13.623291   0.000000   0.000000
     13         17.120379       18.058914   0.000000   0.000000
     14         28.457039       28.713016   0.000000   0.000000
     15         30.105615       30.394173   0.000000   0.000000
     16         34.198495       34.274201   0.000000   0.000000
 
  0.1666667E+00  0.5555556E-01  0.0000000E+00  0.3086420E-02
      1          2.882067        2.892180   1.000000   1.000000
      2          6.001480        7.054203   1.000000   1.000000
      3          7.272082        8.475494   1.000000   1.000000
      4          7.398963        8.724731   1.000000   1.000000
      5          7.962773        9.542016   1.000000   1.000000
      6          8.208173        9.871634   1.000000   1.000000
      7          8.470589       10.144802   1.000000   1.000000
      8          8.540914       10.153211   1.000000   1.000000
      9          8.575405       10.257705   1.000000   1.000000
     10          8.844254       10.565132   1.000000   0.153447
     11          9.841746       11.728125   1.000000   0.000000
     12         13.862725       14.680654   0.000000   0.000000
     13         17.269885       18.142334   0.000000   0.000000
     14         25.898929       26.264546   0.000000   0.000000
     15         28.841565       29.140164   0.000000   0.000000
     16         33.048998       33.077503   0.000000   0.000000
 
  0.2222222E+00  0.5555556E-01  0.0000000E+00  0.3086420E-02
      1          3.630295        3.671690   1.000000   1.000000
      2          6.167851        7.311212   1.000000   1.000000
      3          6.942460        8.054541   1.000000   1.000000
      4          7.177213        8.530565   1.000000   1.000000
      5          7.913963        9.453957   1.000000   1.000000
      6          8.068624        9.704497   1.000000   1.000000
      7          8.404563        9.998939   1.000000   1.000000
      8          8.746262       10.436707   1.000000   0.995481
      9          8.911358       10.632114   1.000000   0.001771
     10          9.174642       10.913805   1.000000   0.000000
     11          9.875324       11.766872   1.000000   0.000000
     12         15.080078       15.837597   0.000000   0.000000
     13         17.487376       18.268949   0.000000   0.000000
     14         23.440518       23.896637   0.000000   0.000000
     15         27.685365       27.981406   0.000000   0.000000
     16         30.835220       30.954660   0.000000   0.000000
 
  0.2777778E+00  0.5555556E-01  0.0000000E+00  0.3086420E-02
      1          4.424426        4.548142   1.000000   1.000000
      2          6.146446        7.369508   1.000000   1.000000
      3          6.572843        7.718473   1.000000   1.000000
      4          7.224712        8.445632   1.000000   1.000000
      5          7.947023        9.488886   1.000000   1.000000
      6          7.972959        9.561146   1.000000   1.000000
      7          8.264668        9.832617   1.000000   1.000000
      8          9.096005       10.804179   1.000000   0.000000
      9          9.254842       11.020539   1.000000   0.000000
     10          9.569179       11.306707   1.000000   0.000000
     11          9.901314       11.796603   1.000000   0.000000
     12         16.378212       17.071932   0.000000   0.000000
     13         17.681598       18.352334   0.000000   0.000000
     14         21.287695       21.839637   0.000000   0.000000
     15         26.654920       26.932434   0.000000   0.000000
     16         28.739612       28.951843   0.000000   0.000000
 
  0.3333333E+00  0.5555556E-01  0.0000000E+00  0.3086420E-02
      1          5.107760        5.419958   1.000000   1.000000
      2          6.021235        7.261299   1.000000   1.000000
      3          6.294861        7.468595   1.000000   1.000000
      4          7.396609        8.442836   1.000000   1.000000
      5          7.853622        9.454815   1.000000   1.000000
      6          8.114744        9.636116   1.000000   1.000000
      7          8.136193        9.674324   1.000000   1.000000
      8          9.472214       11.224402   1.000000   0.000000
      9          9.562359       11.367882   1.000000   0.000000
     10          9.919167       11.756457   1.000000   0.000000
     11         10.089189       11.816832   1.000000   0.000000
     12         17.265172       17.885494   0.000000   0.000000
     13         17.736103       18.359206   0.000000   0.000000
     14         20.103143       20.698963   0.000000   0.000000
     15         25.791555       26.045167   0.000000   0.000000
     16         26.789633       27.096974   0.000000   0.000000
 
  0.3888889E+00  0.5555556E-01  0.0000000E+00  0.3086420E-02
      1          5.528269        6.138477   1.000000   1.000000
      2          5.894788        7.105853   1.000000   1.000000
      3          6.109872        7.303937   1.000000   1.000000
      4          7.671405        8.505099   1.000000   1.000000
      5          7.793635        9.394305   1.000000   1.000000
      6          8.035562        9.542532   1.000000   1.000000
      7          8.250018        9.789115   1.000000   1.000000
      8          9.745711       11.574862   1.000000   0.000000
      9          9.814727       11.645103   1.000000   0.000000
     10          9.929941       11.828937   1.000000   0.000000
     11         10.860006       12.342667   0.000000   0.000000
     12         15.811975       16.554428   0.000000   0.000000
     13         19.101778       19.642533   0.000000   0.000000
     14         20.349742       20.850088   0.000000   0.000000
     15         25.033873       25.360821   0.000000   0.000000
     16         25.107925       25.441271   0.000000   0.000000
 
  0.4444444E+00  0.5555556E-01  0.0000000E+00  0.3086420E-02
      1          5.709568        6.572864   1.000000   1.000000
      2          5.805610        6.959050   1.000000   1.000000
      3          6.017614        7.222384   1.000000   1.000000
      4          7.766011        8.595672   1.000000   1.000000
      5          7.891976        9.380222   1.000000   1.000000
      6          7.978993        9.455592   1.000000   1.000000
      7          8.322600        9.873004   1.000000   1.000000
      8          9.872980       11.730623   1.000000   0.000000
      9          9.934892       11.825540   1.000000   0.000000
     10          9.964373       11.834460   1.000000   0.000000
     11         11.805734       13.055387   0.000000   0.000000
     12         14.350370       15.268075   0.000000   0.000000
     13         20.242656       20.687857   0.000000   0.000000
     14         20.974653       21.373434   0.000000   0.000000
     15         23.699593       24.211835   0.000000   0.000000
     16         24.517092       24.874158   0.000000   0.000000
 
  0.1111111E+00  0.1111111E+00  0.0000000E+00  0.1543210E-02
      1          2.784867        2.791739   1.000000   1.000000
      2          5.981999        7.019567   1.000000   1.000000
      3          7.263214        8.555375   1.000000   1.000000
      4          7.492206        8.734726   1.000000   1.000000
      5          7.999316        9.585682   1.000000   1.000000
      6          8.166853        9.833231   1.000000   1.000000
      7          8.370440       10.042499   1.000000   1.000000
      8          8.547964       10.223538   1.000000   1.000000
      9          8.609825       10.233169   1.000000   1.000000
     10          8.838990       10.555049   1.000000   0.230694
     11          9.824199       11.707477   1.000000   0.000000
     12         13.696756       14.525555   0.000000   0.000000
     13         17.248889       18.132926   0.000000   0.000000
     14         27.042330       27.334765   0.000000   0.000000
     15         27.677942       28.042764   0.000000   0.000000
     16         33.923936       33.841442   0.000000   0.000000
 
  0.1666667E+00  0.1111111E+00  0.0000000E+00  0.3086420E-02
      1          3.461002        3.488252   1.000000   1.000000
      2          6.216637        7.320653   1.000000   1.000000
      3          7.070463        8.167965   1.000000   1.000000
      4          7.081613        8.489252   1.000000   1.000000
      5          7.942368        9.493395   1.000000   1.000000
      6          8.004769        9.636679   1.000000   1.000000
      7          8.511880       10.126770   1.000000   1.000000
      8          8.544488       10.233749   1.000000   1.000000
      9          8.875809       10.583739   1.000000   0.060807
     10          9.182560       10.911496   1.000000   0.000000
     11          9.843550       11.729807   1.000000   0.000000
     12         14.805734       15.581762   0.000000   0.000000
     13         17.458832       18.265129   0.000000   0.000000
     14         24.754074       25.149301   0.000000   0.000000
     15         26.306381       26.662168   0.000000   0.000000
     16         31.978967       31.997636   0.000000   0.000000
 
  0.2222222E+00  0.1111111E+00  0.0000000E+00  0.3086420E-02
      1          4.235172        4.314206   1.000000   1.000000
      2          6.305016        7.496547   1.000000   1.000000
      3          6.706066        7.840828   1.000000   1.000000
      4          7.014607        8.319583   1.000000   1.000000
      5          7.873090        9.473868   1.000000   1.000000
      6          7.954553        9.476394   1.000000   1.000000
      7          8.380517        9.974288   1.000000   1.000000
      8          8.789750       10.498079   1.000000   0.809153
      9          9.224031       10.973127   1.000000   0.000000
     10          9.599656       11.326270   1.000000   0.000000
     11          9.860356       11.749128   1.000000   0.000000
     12         16.029462       16.748964   0.000000   0.000000
     13         17.738406       18.445543   0.000000   0.000000
     14         22.415431       22.899847   0.000000   0.000000
     15         25.288517       25.637863   0.000000   0.000000
     16         29.906938       30.045234   0.000000   0.000000
 
  0.2777778E+00  0.1111111E+00  0.0000000E+00  0.3086420E-02
      1          4.986421        5.192003   1.000000   1.000000
      2          6.210964        7.453418   1.000000   1.000000
      3          6.416271        7.585002   1.000000   1.000000
      4          7.110783        8.281714   1.000000   1.000000
      5          7.778995        9.356948   1.000000   1.000000
      6          8.061558        9.578174   1.000000   1.000000
      7          8.234265        9.800016   1.000000   1.000000
      8          9.099424       10.830059   1.000000   0.000000
      9          9.538662       11.330469   1.000000   0.000000
     10          9.872813       11.763292   1.000000   0.000000
     11         10.109985       11.794408   1.000000   0.000000
     12         17.341394       17.998655   0.000000   0.000000
     13         17.839870       18.447386   0.000000   0.000000
     14         20.573381       21.146009   0.000000   0.000000
     15         24.429159       24.762725   0.000000   0.000000
     16         27.910360       28.155562   0.000000   0.000000
 
  0.3333333E+00  0.1111111E+00  0.0000000E+00  0.3086420E-02
      1          5.536117        5.994235   1.000000   1.000000
      2          6.071133        7.304091   1.000000   1.000000
      3          6.207631        7.403483   1.000000   1.000000
      4          7.330845        8.319277   1.000000   1.000000
      5          7.726852        9.294529   1.000000   1.000000
      6          8.094372        9.628445   1.000000   1.000000
      7          8.206872        9.741770   1.000000   1.000000
      8          9.435077       11.201317   1.000000   0.000000
      9          9.772914       11.600391   1.000000   0.000000
     10          9.880660       11.772067   1.000000   0.000000
     11         10.782327       12.337484   0.000000   0.000000
     12         16.862523       17.515414   0.000000   0.000000
     13         18.708686       19.294910   0.000000   0.000000
     14         20.199410       20.741582   0.000000   0.000000
     15         23.742334       24.056850   0.000000   0.000000
     16         26.052865       26.399367   0.000000   0.000000
 
  0.3888889E+00  0.1111111E+00  0.0000000E+00  0.3086420E-02
      1          5.801279        6.564566   1.000000   1.000000
      2          5.966011        7.154054   1.000000   1.000000
      3          6.082324        7.295742   1.000000   1.000000
      4          7.592385        8.403897   1.000000   1.000000
      5          7.712573        9.288504   1.000000   1.000000
      6          7.984931        9.483192   1.000000   1.000000
      7          8.316978        9.870715   1.000000   1.000000
      8          9.714760       11.528963   1.000000   0.000000
      9          9.884772       11.742041   1.000000   0.000000
     10          9.892442       11.776589   1.000000   0.000000
     11         11.689309       13.008184   0.000000   0.000000
     12         15.255783       16.074288   0.000000   0.000000
     13         20.032568       20.533323   0.000000   0.000000
     14         20.849011       21.290158   0.000000   0.000000
     15         23.234434       23.546108   0.000000   0.000000
     16         24.436299       24.886124   0.000000   0.000000
 
  0.4444444E+00  0.1111111E+00  0.0000000E+00  0.1543210E-02
      1          5.876234        6.796260   1.000000   1.000000
      2          5.921482        7.059235   1.000000   1.000000
      3          6.040525        7.260017   1.000000   1.000000
      4          7.708515        8.458317   1.000000   1.000000
      5          7.714865        9.311774   1.000000   1.000000
      6          7.939960        9.407645   1.000000   1.000000
      7          8.356235        9.916638   1.000000   1.000000
      8          9.859788       11.699017   1.000000   0.000000
      9          9.885976       11.743853   1.000000   0.000000
     10          9.888920       11.777891   1.000000   0.000000
     11         12.405322       13.525531   0.000000   0.000000
     12         14.261271       15.234346   0.000000   0.000000
     13         20.780036       21.209651   0.000000   0.000000
     14         21.335568       21.710838   0.000000   0.000000
     15         22.971190       23.305091   0.000000   0.000000
     16         23.591579       24.118503   0.000000   0.000000
 
  0.1666667E+00  0.1666667E+00  0.0000000E+00  0.1543210E-02
      1          4.170559        4.234963   1.000000   1.000000
      2          6.413870        7.570572   1.000000   1.000000
      3          6.762611        7.891736   1.000000   1.000000
      4          6.881978        8.238595   1.000000   1.000000
      5          7.834530        9.433831   1.000000   1.000000
      6          7.958506        9.483936   1.000000   1.000000
      7          8.428554       10.029704   1.000000   1.000000
      8          8.673550       10.380934   1.000000   0.999986
      9          9.220706       10.964402   1.000000   0.000000
     10          9.610386       11.333076   1.000000   0.000000
     11          9.839782       11.725370   1.000000   0.000000
     12         15.912659       16.641963   0.000000   0.000000
     13         17.754035       18.474682   0.000000   0.000000
     14         23.546059       23.960804   0.000000   0.000000
     15         24.040761       24.458769   0.000000   0.000000
     16         30.842943       30.841566   0.000000   0.000000
 
  0.2222222E+00  0.1666667E+00  0.0000000E+00  0.3086420E-02
      1          4.926768        5.074659   1.000000   1.000000
      2          6.450967        7.666077   1.000000   1.000000
      3          6.501163        7.671389   1.000000   1.000000
      4          6.815687        8.077781   1.000000   1.000000
      5          7.712964        9.282153   1.000000   1.000000
      6          8.040796        9.556321   1.000000   1.000000
      7          8.301048        9.877998   1.000000   1.000000
      8          8.871413       10.598773   1.000000   0.024232
      9          9.540825       11.326505   1.000000   0.000000
     10          9.834896       11.719749   1.000000   0.000000
     11         10.134814       11.817054   1.000000   0.000000
     12         17.144773       17.821872   0.000000   0.000000
     13         18.103997       18.726950   0.000000   0.000000
     14         21.521662       22.020367   0.000000   0.000000
     15         22.976248       23.388876   0.000000   0.000000
     16         29.130091       29.273062   0.000000   0.000000
 
  0.2777778E+00  0.1666667E+00  0.0000000E+00  0.3086420E-02
      1          5.577418        5.908135   1.000000   1.000000
      2          6.299776        7.498292   1.000000   1.000000
      3          6.312678        7.553132   1.000000   1.000000
      4          6.956652        8.087873   1.000000   1.000000
      5          7.645651        9.193184   1.000000   1.000000
      6          8.151371        9.698177   1.000000   1.000000