       N       E                     dE             d eps       ncg     rms          rms(c)
DAV:   1     0.696220793032E+02    0.69622E+02   -0.74632E+03 16952   0.131E+03
DAV:   2    -0.136660557171E+02   -0.83288E+02   -0.76838E+02 16632   0.227E+02
DAV:   3    -0.155794972360E+02   -0.19134E+01   -0.18832E+01 20760   0.473E+01
DAV:   4    -0.156107759922E+02   -0.31279E-01   -0.31274E-01 23312   0.455E+00
DAV:   5    -0.156109936902E+02   -0.21770E-03   -0.21770E-03 21128   0.361E-01    0.165E+01
DAV:   6    -0.144186238360E+02    0.11924E+01   -0.10547E+01 17856   0.672E+01    0.607E+00
DAV:   7    -0.141059698626E+02    0.31265E+00   -0.13988E+00 19216   0.235E+01    0.372E+00
DAV:   8    -0.140826286491E+02    0.23341E-01   -0.18966E-02 24072   0.188E+00    0.167E+00
DAV:   9    -0.140691774014E+02    0.13451E-01   -0.44678E-03 25088   0.118E+00    0.481E-01
DAV:  10    -0.140681425594E+02    0.10348E-02   -0.68635E-04 22704   0.349E-01    0.569E-02
DAV:  11    -0.140681480245E+02   -0.54651E-05   -0.51314E-05 25072   0.116E-01    0.237E-02
DAV:  12    -0.140681459099E+02    0.21146E-05   -0.53964E-06 17672   0.258E-02    0.146E-02
DAV:  13    -0.140681462367E+02   -0.32674E-06   -0.10990E-06 11360   0.148E-02
   1 F= -.14068146E+02 E0= -.14067040E+02  d E =-.221316E-02  mag=     3.1799
