       N       E                     dE             d eps       ncg     rms          rms(c)
DAV:   1     0.772909050329E+02    0.77291E+02   -0.66112E+03 16608   0.984E+02
DAV:   2    -0.105393402326E+02   -0.87830E+02   -0.81176E+02 16720   0.211E+02
DAV:   3    -0.126788195448E+02   -0.21395E+01   -0.21105E+01 20504   0.461E+01
DAV:   4    -0.127142927985E+02   -0.35473E-01   -0.35457E-01 22664   0.478E+00
DAV:   5    -0.127146338369E+02   -0.34104E-03   -0.34100E-03 20720   0.428E-01    0.125E+01
DAV:   6    -0.125367012126E+02    0.17793E+00   -0.22285E+01 19032   0.767E+01    0.128E+01
DAV:   7    -0.111212089636E+02    0.14155E+01   -0.47922E+00 19768   0.339E+01    0.310E+00
DAV:   8    -0.111930283347E+02   -0.71819E-01   -0.15484E-01 20520   0.364E+00    0.164E+00
DAV:   9    -0.112319941117E+02   -0.38966E-01   -0.43710E-02 20176   0.224E+00    0.726E-01
DAV:  10    -0.112388798269E+02   -0.68857E-02   -0.11000E-02 20056   0.120E+00    0.370E-01
DAV:  11    -0.112389701559E+02   -0.90329E-04   -0.37534E-03 20392   0.674E-01    0.105E-01
DAV:  12    -0.112390313534E+02   -0.61197E-04   -0.24994E-04 18240   0.158E-01    0.490E-02
DAV:  13    -0.112390690034E+02   -0.37650E-04   -0.30674E-05 20024   0.582E-02    0.213E-02
DAV:  14    -0.112390843178E+02   -0.15314E-04   -0.20210E-05 19664   0.463E-02    0.923E-03
DAV:  15    -0.112390845098E+02   -0.19203E-06   -0.13675E-06 14960   0.147E-02
   1 F= -.11239085E+02 E0= -.11236570E+02  d E =-.502893E-02  mag=     3.8609
