 vasp.6.3.2 27Jun22 (build Aug 12 2022 00:53:59) complex                        
  
 executed on               tv2STD date 2024.12.02  16:52:53
 running   24 mpi-ranks, with    1 threads/rank
 distrk:  each k-point on   24 cores,    1 groups
 distr:  one band on NCORE=   6 cores,    4 groups


--------------------------------------------------------------------------------------------------------


 INCAR:
   SYSTEM = Co-hcc
   NWRITE = 2    write-flag
   ISTART = 0    job   : 0-new, 1-cont, 2-samecut
   ICHARG = 2    charge: 0-wave, 1-file, 2-atom, >10-const
   INIWAV = 1    electr: 0-lowe 1-rand  2-diag
   ENCUT = 425.0     energy cutoff in eV
   PREC = Accurate      normal | accurate
   ADDGRID = .FALSE.  (use fine grid)
   NELM = 100     number of ELM steps
   EDIFF = 1E-06    energy stopping-criterion for ELM
   LREAL = .FALSE.      real-space projection (.FALSE., .TRUE., On, Auto)
   ALGO = Normal     Normal, Fast, Very_Fast
   LWAVE = .FALSE.
   LCHARG = .FALSE.
   NSW = 0       max number of geometry steps
   IBRION = -1     ionic relax: 0-MD, 1-quasi-Newton, 2-CG, 3-Damped MD
   EDIFFG = -0.02  force (eV/A) stopping-criterion for geometry steps
   ISIF = 2     (1:force\=y stress\=trace only ions\=y shape\=n volume\=n)
   ISYM = 1     (1-use symmetry, 0-no symmetry)
   ISMEAR = 0     (-1-Fermi, 1-Methfessel/Paxton)
   SIGMA = 0.05   broadening in eV
   LORBIT = 11
   NPAR = 4
   ISPIN = 2
   MAGMOM = 2*3

 POTCAR:    PAW_PBE Co 02Aug2007                  
 POTCAR:    PAW_PBE Co 02Aug2007                  
   SHA256 =  0e690c60710354995174544f52f9f2c30879afabeffe3b3fbd4001cb294e56d4 Co/POTCAR             
   COPYR  = (c) Copyright 02Aug2007 Georg Kresse                                                    
   COPYR  = This file is part of the software VASP. Any use, copying, and all other rights are regul
   COPYR  = If you do not have a valid VASP license, you may not use, copy or distribute this file. 
   VRHFIN =Co: d8 s1                                                                                
   LEXCH  = PE                                                                                      
   EATOM  =   813.3670 eV,   59.7808 Ry                                                             
                                                                                                    
   TITEL  = PAW_PBE Co 02Aug2007                                                                    
   LULTRA =        F    use ultrasoft PP ?                                                          
   IUNSCR =        1    unscreen: 0-lin 1-nonlin 2-no                                               
   RPACOR =    2.000    partial core radius                                                         
   POMASS =   58.933; ZVAL   =    9.000    mass and valenz                                          
   RCORE  =    2.300    outmost cutoff radius                                                       
   RWIGS  =    2.460; RWIGS  =    1.302    wigner-seitz radius (au A)                               
   ENMAX  =  267.968; ENMIN  =  200.976 eV                                                          
   RCLOC  =    1.203    cutoff for local pot                                                        
   LCOR   =        T    correct aug charges                                                         
   LPAW   =        T    paw PP                                                                      
   EAUG   =  477.818                                                                                
   DEXC   =    0.000                                                                                
   RMAX   =    2.360    core radius for proj-oper                                                   
   RAUG   =    1.300    factor for augmentation sphere                                              
   RDEP   =    2.393    radius for radial grids                                                     
   RDEPT  =    1.864    core radius for aug-charge                                                  
                                                                                                    
   Atomic configuration                                                                             
    9 entries                                                                                       
     n  l   j            E        occ.                                                              
     1  0  0.50     -7587.6674   2.0000                                                             
     2  0  0.50      -893.6084   2.0000                                                             
     2  1  1.50      -764.5805   6.0000                                                             
     3  0  0.50       -97.5973   2.0000                                                             
     3  1  1.50       -60.9648   6.0000                                                             
     3  2  2.50        -4.2382   8.0000                                                             
     4  0  0.50        -4.3746   1.0000                                                             
     4  1  1.50        -4.0817   0.0000                                                             
     4  3  2.50        -1.3606   0.0000                                                             
   Description                                                                                      
     l       E           TYP  RCUT    TYP  RCUT                                                     
     2     -4.2382362     23  2.300                                                                 
     2     -5.5988188     23  2.300                                                                 
     0     -4.3745797     23  2.300                                                                 
     0      5.7660125     23  2.300                                                                 
     1     -2.7211652     23  2.300                                                                 
     1     16.9860234     23  2.300                                                                 
  local pseudopotential read in
  partial core-charges read in
  partial kinetic energy density read in
  atomic valenz-charges read in
  non local Contribution for L=           2  read in
    real space projection operators read in
  non local Contribution for L=           2  read in
    real space projection operators read in
  non local Contribution for L=           0  read in
    real space projection operators read in
  non local Contribution for L=           0  read in
    real space projection operators read in
  non local Contribution for L=           1  read in
    real space projection operators read in
  non local Contribution for L=           1  read in
    real space projection operators read in
    PAW grid and wavefunctions read in
 
   number of l-projection  operators is LMAX  =           6
   number of lm-projection operators is LMMAX =          18
 
  PAW_PBE Co 02Aug2007                  :
 energy of atom  1       EATOM= -813.3670
 kinetic energy error for atom=    0.0054 (will be added to EATOM!!)
 
 
 POSCAR: Co hcp
  positions in direct lattice
  No initial velocities read in
 exchange correlation table for  LEXCH =        8
   RHO(1)=    0.500       N(1)  =     2000
   RHO(2)=  100.500       N(2)  =     4000
 


--------------------------------------------------------------------------------------------------------


 ion  position               nearest neighbor table
   1  0.333  0.667  0.250-   2 2.47   2 2.47   2 2.47   2 2.47   2 2.47   2 2.47
   2  0.667  0.333  0.750-   1 2.47   1 2.47   1 2.47   1 2.47   1 2.47   1 2.47
 
  LATTYP: Found a hexagonal cell.
 ALAT       =     2.4719999032
 C/A-ratio  =     1.6266764715
  
  Lattice vectors:
  
 A1 = (   1.2359999516,  -2.1408147143,   0.0000000000)
 A2 = (   1.2359999516,   2.1408147143,   0.0000000000)
 A3 = (   0.0000000000,   0.0000000000,   4.0211440800)


Analysis of symmetry for initial positions (statically):
=====================================================================
 Subroutine PRICEL returns:
 Original cell was already a primitive cell.
 

 Routine SETGRP: Setting up the symmetry group for a 
 hexagonal supercell.


 Subroutine GETGRP returns: Found 24 space group operations
 (whereof 12 operations were pure point group operations)
 out of a pool of 24 trial point group operations.


The static configuration has the point symmetry D_3d.
 The point group associated with its full space group is D_6h.


Analysis of symmetry for dynamics (positions and initial velocities):
=====================================================================
 Subroutine PRICEL returns:
 Original cell was already a primitive cell.
 

 Routine SETGRP: Setting up the symmetry group for a 
 hexagonal supercell.


 Subroutine GETGRP returns: Found 24 space group operations
 (whereof 12 operations were pure point group operations)
 out of a pool of 24 trial point group operations.


The dynamic configuration has the point symmetry D_3d.
 The point group associated with its full space group is D_6h.


Analysis of structural, dynamic, and magnetic symmetry:
=====================================================================
 Subroutine PRICEL returns:
 Original cell was already a primitive cell.
 

 Routine SETGRP: Setting up the symmetry group for a 
 hexagonal supercell.


 Subroutine GETGRP returns: Found 24 space group operations
 (whereof 12 operations were pure point group operations)
 out of a pool of 24 trial point group operations.


The overall configuration has the point symmetry D_3d.
 The point group associated with its full space group is D_6h.


 Subroutine INISYM returns: Found 24 space group operations
 (whereof 12 operations are pure point group operations),
 and found     1 'primitive' translations


----------------------------------------------------------------------------------------

                                     Primitive cell                                     

  volume of cell :      21.2803

  direct lattice vectors                    reciprocal lattice vectors
     1.235999952 -2.140814714  0.000000000     0.404530760 -0.233555943  0.000000000
     1.235999952  2.140814714  0.000000000     0.404530760  0.233555943  0.000000000
     0.000000000  0.000000000  4.021144080     0.000000000  0.000000000  0.248685444

  length of vectors
     2.471999903  2.471999903  4.021144080     0.467111887  0.467111887  0.248685444

  position of ions in fractional coordinates (direct lattice)
     0.333333333  0.666666667  0.250000000
     0.666666667  0.333333333  0.750000000

  ion indices of the primitive-cell ions
   primitive index   ion index
                 1           1
                 2           2

----------------------------------------------------------------------------------------

 
 
 KPOINTS: Automatic mesh                          

Automatic generation of k-mesh.
 Grid dimensions read from file:
 generate k-points for:   18   18   12

 Generating k-lattice:

  Cartesian coordinates                     Fractional coordinates (reciprocal lattice)
     0.022473931 -0.012975330  0.000000000     0.055555556  0.000000000  0.000000000
     0.022473931  0.012975330  0.000000000     0.000000000  0.055555556  0.000000000
     0.000000000  0.000000000  0.020723787     0.000000000  0.000000000  0.083333333

  Length of vectors
     0.025950660  0.025950660  0.020723787

  Shift w.r.t. Gamma in fractional coordinates (k-lattice)
     0.000000000  0.000000000  0.000000000

 
 Subroutine IBZKPT returns following result:
 ===========================================
 
 Found    259 irreducible k-points:
 
 Following reciprocal coordinates:
            Coordinates               Weight
  0.000000  0.000000  0.000000      1.000000
  0.055556 -0.000000  0.000000      6.000000
  0.111111 -0.000000  0.000000      6.000000
  0.166667 -0.000000  0.000000      6.000000
  0.222222  0.000000  0.000000      6.000000
  0.277778  0.000000  0.000000      6.000000
  0.333333  0.000000  0.000000      6.000000
  0.388889 -0.000000  0.000000      6.000000
  0.444444  0.000000  0.000000      6.000000
  0.500000  0.000000  0.000000      3.000000
  0.055556  0.055556  0.000000      6.000000
  0.111111  0.055556  0.000000     12.000000
  0.166667  0.055556  0.000000     12.000000
  0.222222  0.055556  0.000000     12.000000
  0.277778  0.055556  0.000000     12.000000
  0.333333  0.055556  0.000000     12.000000
  0.388889  0.055556  0.000000     12.000000
  0.444444  0.055556  0.000000     12.000000
  0.111111  0.111111  0.000000      6.000000
  0.166667  0.111111  0.000000     12.000000
  0.222222  0.111111  0.000000     12.000000
  0.277778  0.111111  0.000000     12.000000
  0.333333  0.111111  0.000000     12.000000
  0.388889  0.111111  0.000000     12.000000
  0.444444  0.111111  0.000000      6.000000
  0.166667  0.166667  0.000000      6.000000
  0.222222  0.166667  0.000000     12.000000
  0.277778  0.166667  0.000000     12.000000
  0.333333  0.166667  0.000000     12.000000
  0.388889  0.166667  0.000000     12.000000
  0.222222  0.222222  0.000000      6.000000
  0.277778  0.222222  0.000000     12.000000
  0.333333  0.222222  0.000000     12.000000
  0.388889  0.222222  0.000000      6.000000
  0.277778  0.277778  0.000000      6.000000
  0.333333  0.277778  0.000000     12.000000
  0.333333  0.333333  0.000000      2.000000
  0.000000  0.000000  0.083333      2.000000
  0.055556 -0.000000  0.083333     12.000000
  0.111111 -0.000000  0.083333     12.000000
  0.166667 -0.000000  0.083333     12.000000
  0.222222  0.000000  0.083333     12.000000
  0.277778  0.000000  0.083333     12.000000
  0.333333  0.000000  0.083333     12.000000
  0.388889 -0.000000  0.083333     12.000000
  0.444444  0.000000  0.083333     12.000000
  0.500000  0.000000  0.083333      6.000000
  0.055556  0.055556  0.083333     12.000000
  0.111111  0.055556  0.083333     24.000000
  0.166667  0.055556  0.083333     24.000000
  0.222222  0.055556  0.083333     24.000000
  0.277778  0.055556  0.083333     24.000000
  0.333333  0.055556  0.083333     24.000000
  0.388889  0.055556  0.083333     24.000000
  0.444444  0.055556  0.083333     24.000000
  0.111111  0.111111  0.083333     12.000000
  0.166667  0.111111  0.083333     24.000000
  0.222222  0.111111  0.083333     24.000000
  0.277778  0.111111  0.083333     24.000000
  0.333333  0.111111  0.083333     24.000000
  0.388889  0.111111  0.083333     24.000000
  0.444444  0.111111  0.083333     12.000000
  0.166667  0.166667  0.083333     12.000000
  0.222222  0.166667  0.083333     24.000000
  0.277778  0.166667  0.083333     24.000000
  0.333333  0.166667  0.083333     24.000000
  0.388889  0.166667  0.083333     24.000000
  0.222222  0.222222  0.083333     12.000000
  0.277778  0.222222  0.083333     24.000000
  0.333333  0.222222  0.083333     24.000000
  0.388889  0.222222  0.083333     12.000000
  0.277778  0.277778  0.083333     12.000000
  0.333333  0.277778  0.083333     24.000000
  0.333333  0.333333  0.083333      4.000000
  0.000000  0.000000  0.166667      2.000000
  0.055556 -0.000000  0.166667     12.000000
  0.111111 -0.000000  0.166667     12.000000
  0.166667 -0.000000  0.166667     12.000000
  0.222222  0.000000  0.166667     12.000000
  0.277778  0.000000  0.166667     12.000000
  0.333333  0.000000  0.166667     12.000000
  0.388889 -0.000000  0.166667     12.000000
  0.444444  0.000000  0.166667     12.000000
  0.500000  0.000000  0.166667      6.000000
  0.055556  0.055556  0.166667     12.000000
  0.111111  0.055556  0.166667     24.000000
  0.166667  0.055556  0.166667     24.000000
  0.222222  0.055556  0.166667     24.000000
  0.277778  0.055556  0.166667     24.000000
  0.333333  0.055556  0.166667     24.000000
  0.388889  0.055556  0.166667     24.000000
  0.444444  0.055556  0.166667     24.000000
  0.111111  0.111111  0.166667     12.000000
  0.166667  0.111111  0.166667     24.000000
  0.222222  0.111111  0.166667     24.000000
  0.277778  0.111111  0.166667     24.000000
  0.333333  0.111111  0.166667     24.000000
  0.388889  0.111111  0.166667     24.000000
  0.444444  0.111111  0.166667     12.000000
  0.166667  0.166667  0.166667     12.000000
  0.222222  0.166667  0.166667     24.000000
  0.277778  0.166667  0.166667     24.000000
  0.333333  0.166667  0.166667     24.000000
  0.388889  0.166667  0.166667     24.000000
  0.222222  0.222222  0.166667     12.000000
  0.277778  0.222222  0.166667     24.000000
  0.333333  0.222222  0.166667     24.000000
  0.388889  0.222222  0.166667     12.000000
  0.277778  0.277778  0.166667     12.000000
  0.333333  0.277778  0.166667     24.000000
  0.333333  0.333333  0.166667      4.000000
  0.000000  0.000000  0.250000      2.000000
  0.055556 -0.000000  0.250000     12.000000
  0.111111 -0.000000  0.250000     12.000000
  0.166667 -0.000000  0.250000     12.000000
  0.222222  0.000000  0.250000     12.000000
  0.277778  0.000000  0.250000     12.000000
  0.333333  0.000000  0.250000     12.000000
  0.388889 -0.000000  0.250000     12.000000
  0.444444  0.000000  0.250000     12.000000
  0.500000  0.000000  0.250000      6.000000
  0.055556  0.055556  0.250000     12.000000
  0.111111  0.055556  0.250000     24.000000
  0.166667  0.055556  0.250000     24.000000
  0.222222  0.055556  0.250000     24.000000
  0.277778  0.055556  0.250000     24.000000
  0.333333  0.055556  0.250000     24.000000
  0.388889  0.055556  0.250000     24.000000
  0.444444  0.055556  0.250000     24.000000
  0.111111  0.111111  0.250000     12.000000
  0.166667  0.111111  0.250000     24.000000
  0.222222  0.111111  0.250000     24.000000
  0.277778  0.111111  0.250000     24.000000
  0.333333  0.111111  0.250000     24.000000
  0.388889  0.111111  0.250000     24.000000
  0.444444  0.111111  0.250000     12.000000
  0.166667  0.166667  0.250000     12.000000
  0.222222  0.166667  0.250000     24.000000
  0.277778  0.166667  0.250000     24.000000
  0.333333  0.166667  0.250000     24.000000
  0.388889  0.166667  0.250000     24.000000
  0.222222  0.222222  0.250000     12.000000
  0.277778  0.222222  0.250000     24.000000
  0.333333  0.222222  0.250000     24.000000
  0.388889  0.222222  0.250000     12.000000
  0.277778  0.277778  0.250000     12.000000
  0.333333  0.277778  0.250000     24.000000
  0.333333  0.333333  0.250000      4.000000
  0.000000  0.000000  0.333333      2.000000
  0.055556 -0.000000  0.333333     12.000000
  0.111111 -0.000000  0.333333     12.000000
  0.166667 -0.000000  0.333333     12.000000
  0.222222  0.000000  0.333333     12.000000
  0.277778  0.000000  0.333333     12.000000
  0.333333  0.000000  0.333333     12.000000
  0.388889 -0.000000  0.333333     12.000000
  0.444444  0.000000  0.333333     12.000000
  0.500000  0.000000  0.333333      6.000000
  0.055556  0.055556  0.333333     12.000000
  0.111111  0.055556  0.333333     24.000000
  0.166667  0.055556  0.333333     24.000000
  0.222222  0.055556  0.333333     24.000000
  0.277778  0.055556  0.333333     24.000000
  0.333333  0.055556  0.333333     24.000000
  0.388889  0.055556  0.333333     24.000000
  0.444444  0.055556  0.333333     24.000000
  0.111111  0.111111  0.333333     12.000000
  0.166667  0.111111  0.333333     24.000000
  0.222222  0.111111  0.333333     24.000000
  0.277778  0.111111  0.333333     24.000000
  0.333333  0.111111  0.333333     24.000000
  0.388889  0.111111  0.333333     24.000000
  0.444444  0.111111  0.333333     12.000000
  0.166667  0.166667  0.333333     12.000000
  0.222222  0.166667  0.333333     24.000000
  0.277778  0.166667  0.333333     24.000000
  0.333333  0.166667  0.333333     24.000000
  0.388889  0.166667  0.333333     24.000000
  0.222222  0.222222  0.333333     12.000000
  0.277778  0.222222  0.333333     24.000000
  0.333333  0.222222  0.333333     24.000000
  0.388889  0.222222  0.333333     12.000000
  0.277778  0.277778  0.333333     12.000000
  0.333333  0.277778  0.333333     24.000000
  0.333333  0.333333  0.333333      4.000000
  0.000000  0.000000  0.416667      2.000000
  0.055556 -0.000000  0.416667     12.000000
  0.111111 -0.000000  0.416667     12.000000
  0.166667 -0.000000  0.416667     12.000000
  0.222222  0.000000  0.416667     12.000000
  0.277778  0.000000  0.416667     12.000000
  0.333333  0.000000  0.416667     12.000000
  0.388889 -0.000000  0.416667     12.000000
  0.444444  0.000000  0.416667     12.000000
  0.500000  0.000000  0.416667      6.000000
  0.055556  0.055556  0.416667     12.000000
  0.111111  0.055556  0.416667     24.000000
  0.166667  0.055556  0.416667     24.000000
  0.222222  0.055556  0.416667     24.000000
  0.277778  0.055556  0.416667     24.000000
  0.333333  0.055556  0.416667     24.000000
  0.388889  0.055556  0.416667     24.000000
  0.444444  0.055556  0.416667     24.000000
  0.111111  0.111111  0.416667     12.000000
  0.166667  0.111111  0.416667     24.000000
  0.222222  0.111111  0.416667     24.000000
  0.277778  0.111111  0.416667     24.000000
  0.333333  0.111111  0.416667     24.000000
  0.388889  0.111111  0.416667     24.000000
  0.444444  0.111111  0.416667     12.000000
  0.166667  0.166667  0.416667     12.000000
  0.222222  0.166667  0.416667     24.000000
  0.277778  0.166667  0.416667     24.000000
  0.333333  0.166667  0.416667     24.000000
  0.388889  0.166667  0.416667     24.000000
  0.222222  0.222222  0.416667     12.000000
  0.277778  0.222222  0.416667     24.000000
  0.333333  0.222222  0.416667     24.000000
  0.388889  0.222222  0.416667     12.000000
  0.277778  0.277778  0.416667     12.000000
  0.333333  0.277778  0.416667     24.000000
  0.333333  0.333333  0.416667      4.000000
  0.000000  0.000000  0.500000      1.000000
  0.055556 -0.000000  0.500000      6.000000
  0.111111 -0.000000  0.500000      6.000000
  0.166667 -0.000000  0.500000      6.000000
  0.222222  0.000000  0.500000      6.000000
  0.277778  0.000000  0.500000      6.000000
  0.333333  0.000000  0.500000      6.000000
  0.388889 -0.000000  0.500000      6.000000
  0.444444  0.000000  0.500000      6.000000
  0.500000  0.000000  0.500000      3.000000
  0.055556  0.055556  0.500000      6.000000
  0.111111  0.055556  0.500000     12.000000
  0.166667  0.055556  0.500000     12.000000
  0.222222  0.055556  0.500000     12.000000
  0.277778  0.055556  0.500000     12.000000
  0.333333  0.055556  0.500000     12.000000
  0.388889  0.055556  0.500000     12.000000
  0.444444  0.055556  0.500000     12.000000
  0.111111  0.111111  0.500000      6.000000
  0.166667  0.111111  0.500000     12.000000
  0.222222  0.111111  0.500000     12.000000
  0.277778  0.111111  0.500000     12.000000
  0.333333  0.111111  0.500000     12.000000
  0.388889  0.111111  0.500000     12.000000
  0.444444  0.111111  0.500000      6.000000
  0.166667  0.166667  0.500000      6.000000
  0.222222  0.166667  0.500000     12.000000
  0.277778  0.166667  0.500000     12.000000
  0.333333  0.166667  0.500000     12.000000
  0.388889  0.166667  0.500000     12.000000
  0.222222  0.222222  0.500000      6.000000
  0.277778  0.222222  0.500000     12.000000
  0.333333  0.222222  0.500000     12.000000
  0.388889  0.222222  0.500000      6.000000
  0.277778  0.277778  0.500000      6.000000
  0.333333  0.277778  0.500000     12.000000
  0.333333  0.333333  0.500000      2.000000
 
 Following cartesian coordinates:
            Coordinates               Weight
  0.000000  0.000000  0.000000      1.000000
  0.022474 -0.012975  0.000000      6.000000
  0.044948 -0.025951  0.000000      6.000000
  0.067422 -0.038926  0.000000      6.000000
  0.089896 -0.051901  0.000000      6.000000
  0.112370 -0.064877  0.000000      6.000000
  0.134844 -0.077852  0.000000      6.000000
  0.157318 -0.090827  0.000000      6.000000
  0.179791 -0.103803  0.000000      6.000000
  0.202265 -0.116778  0.000000      3.000000
  0.044948  0.000000  0.000000      6.000000
  0.067422 -0.012975  0.000000     12.000000
  0.089896 -0.025951  0.000000     12.000000
  0.112370 -0.038926  0.000000     12.000000
  0.134844 -0.051901  0.000000     12.000000
  0.157318 -0.064877  0.000000     12.000000
  0.179791 -0.077852  0.000000     12.000000
  0.202265 -0.090827  0.000000     12.000000
  0.089896  0.000000  0.000000      6.000000
  0.112370 -0.012975  0.000000     12.000000
  0.134844 -0.025951  0.000000     12.000000
  0.157318 -0.038926  0.000000     12.000000
  0.179791 -0.051901  0.000000     12.000000
  0.202265 -0.064877  0.000000     12.000000
  0.224739 -0.077852  0.000000      6.000000
  0.134844  0.000000  0.000000      6.000000
  0.157318 -0.012975  0.000000     12.000000
  0.179791 -0.025951  0.000000     12.000000
  0.202265 -0.038926  0.000000     12.000000
  0.224739 -0.051901  0.000000     12.000000
  0.179791  0.000000  0.000000      6.000000
  0.202265 -0.012975  0.000000     12.000000
  0.224739 -0.025951  0.000000     12.000000
  0.247213 -0.038926  0.000000      6.000000
  0.224739  0.000000  0.000000      6.000000
  0.247213 -0.012975  0.000000     12.000000
  0.269687  0.000000  0.000000      2.000000
  0.000000  0.000000  0.020724      2.000000
  0.022474 -0.012975  0.020724     12.000000
  0.044948 -0.025951  0.020724     12.000000
  0.067422 -0.038926  0.020724     12.000000
  0.089896 -0.051901  0.020724     12.000000
  0.112370 -0.064877  0.020724     12.000000
  0.134844 -0.077852  0.020724     12.000000
  0.157318 -0.090827  0.020724     12.000000
  0.179791 -0.103803  0.020724     12.000000
  0.202265 -0.116778  0.020724      6.000000
  0.044948  0.000000  0.020724     12.000000
  0.067422 -0.012975  0.020724     24.000000
  0.089896 -0.025951  0.020724     24.000000
  0.112370 -0.038926  0.020724     24.000000
  0.134844 -0.051901  0.020724     24.000000
  0.157318 -0.064877  0.020724     24.000000
  0.179791 -0.077852  0.020724     24.000000
  0.202265 -0.090827  0.020724     24.000000
  0.089896  0.000000  0.020724     12.000000
  0.112370 -0.012975  0.020724     24.000000
  0.134844 -0.025951  0.020724     24.000000
  0.157318 -0.038926  0.020724     24.000000
  0.179791 -0.051901  0.020724     24.000000
  0.202265 -0.064877  0.020724     24.000000
  0.224739 -0.077852  0.020724     12.000000
  0.134844  0.000000  0.020724     12.000000
  0.157318 -0.012975  0.020724     24.000000
  0.179791 -0.025951  0.020724     24.000000
  0.202265 -0.038926  0.020724     24.000000
  0.224739 -0.051901  0.020724     24.000000
  0.179791  0.000000  0.020724     12.000000
  0.202265 -0.012975  0.020724     24.000000
  0.224739 -0.025951  0.020724     24.000000
  0.247213 -0.038926  0.020724     12.000000
  0.224739  0.000000  0.020724     12.000000
  0.247213 -0.012975  0.020724     24.000000
  0.269687  0.000000  0.020724      4.000000
  0.000000  0.000000  0.041448      2.000000
  0.022474 -0.012975  0.041448     12.000000
  0.044948 -0.025951  0.041448     12.000000
  0.067422 -0.038926  0.041448     12.000000
  0.089896 -0.051901  0.041448     12.000000
  0.112370 -0.064877  0.041448     12.000000
  0.134844 -0.077852  0.041448     12.000000
  0.157318 -0.090827  0.041448     12.000000
  0.179791 -0.103803  0.041448     12.000000
  0.202265 -0.116778  0.041448      6.000000
  0.044948  0.000000  0.041448     12.000000
  0.067422 -0.012975  0.041448     24.000000
  0.089896 -0.025951  0.041448     24.000000
  0.112370 -0.038926  0.041448     24.000000
  0.134844 -0.051901  0.041448     24.000000
  0.157318 -0.064877  0.041448     24.000000
  0.179791 -0.077852  0.041448     24.000000
  0.202265 -0.090827  0.041448     24.000000
  0.089896  0.000000  0.041448     12.000000
  0.112370 -0.012975  0.041448     24.000000
  0.134844 -0.025951  0.041448     24.000000
  0.157318 -0.038926  0.041448     24.000000
  0.179791 -0.051901  0.041448     24.000000
  0.202265 -0.064877  0.041448     24.000000
  0.224739 -0.077852  0.041448     12.000000
  0.134844  0.000000  0.041448     12.000000
  0.157318 -0.012975  0.041448     24.000000
  0.179791 -0.025951  0.041448     24.000000
  0.202265 -0.038926  0.041448     24.000000
  0.224739 -0.051901  0.041448     24.000000
  0.179791  0.000000  0.041448     12.000000
  0.202265 -0.012975  0.041448     24.000000
  0.224739 -0.025951  0.041448     24.000000
  0.247213 -0.038926  0.041448     12.000000
  0.224739  0.000000  0.041448     12.000000
  0.247213 -0.012975  0.041448     24.000000
  0.269687  0.000000  0.041448      4.000000
  0.000000  0.000000  0.062171      2.000000
  0.022474 -0.012975  0.062171     12.000000
  0.044948 -0.025951  0.062171     12.000000
  0.067422 -0.038926  0.062171     12.000000
  0.089896 -0.051901  0.062171     12.000000
  0.112370 -0.064877  0.062171     12.000000
  0.134844 -0.077852  0.062171     12.000000
  0.157318 -0.090827  0.062171     12.000000
  0.179791 -0.103803  0.062171     12.000000
  0.202265 -0.116778  0.062171      6.000000
  0.044948  0.000000  0.062171     12.000000
  0.067422 -0.012975  0.062171     24.000000
  0.089896 -0.025951  0.062171     24.000000
  0.112370 -0.038926  0.062171     24.000000
  0.134844 -0.051901  0.062171     24.000000
  0.157318 -0.064877  0.062171     24.000000
  0.179791 -0.077852  0.062171     24.000000
  0.202265 -0.090827  0.062171     24.000000
  0.089896  0.000000  0.062171     12.000000
  0.112370 -0.012975  0.062171     24.000000
  0.134844 -0.025951  0.062171     24.000000
  0.157318 -0.038926  0.062171     24.000000
  0.179791 -0.051901  0.062171     24.000000
  0.202265 -0.064877  0.062171     24.000000
  0.224739 -0.077852  0.062171     12.000000
  0.134844  0.000000  0.062171     12.000000
  0.157318 -0.012975  0.062171     24.000000
  0.179791 -0.025951  0.062171     24.000000
  0.202265 -0.038926  0.062171     24.000000
  0.224739 -0.051901  0.062171     24.000000
  0.179791  0.000000  0.062171     12.000000
  0.202265 -0.012975  0.062171     24.000000
  0.224739 -0.025951  0.062171     24.000000
  0.247213 -0.038926  0.062171     12.000000
  0.224739  0.000000  0.062171     12.000000
  0.247213 -0.012975  0.062171     24.000000
  0.269687  0.000000  0.062171      4.000000
  0.000000  0.000000  0.082895      2.000000
  0.022474 -0.012975  0.082895     12.000000
  0.044948 -0.025951  0.082895     12.000000
  0.067422 -0.038926  0.082895     12.000000
  0.089896 -0.051901  0.082895     12.000000
  0.112370 -0.064877  0.082895     12.000000
  0.134844 -0.077852  0.082895     12.000000
  0.157318 -0.090827  0.082895     12.000000
  0.179791 -0.103803  0.082895     12.000000
  0.202265 -0.116778  0.082895      6.000000
  0.044948  0.000000  0.082895     12.000000
  0.067422 -0.012975  0.082895     24.000000
  0.089896 -0.025951  0.082895     24.000000
  0.112370 -0.038926  0.082895     24.000000
  0.134844 -0.051901  0.082895     24.000000
  0.157318 -0.064877  0.082895     24.000000
  0.179791 -0.077852  0.082895     24.000000
  0.202265 -0.090827  0.082895     24.000000
  0.089896  0.000000  0.082895     12.000000
  0.112370 -0.012975  0.082895     24.000000
  0.134844 -0.025951  0.082895     24.000000
  0.157318 -0.038926  0.082895     24.000000
  0.179791 -0.051901  0.082895     24.000000
  0.202265 -0.064877  0.082895     24.000000
  0.224739 -0.077852  0.082895     12.000000
  0.134844  0.000000  0.082895     12.000000
  0.157318 -0.012975  0.082895     24.000000
  0.179791 -0.025951  0.082895     24.000000
  0.202265 -0.038926  0.082895     24.000000
  0.224739 -0.051901  0.082895     24.000000
  0.179791  0.000000  0.082895     12.000000
  0.202265 -0.012975  0.082895     24.000000
  0.224739 -0.025951  0.082895     24.000000
  0.247213 -0.038926  0.082895     12.000000
  0.224739  0.000000  0.082895     12.000000
  0.247213 -0.012975  0.082895     24.000000
  0.269687  0.000000  0.082895      4.000000
  0.000000  0.000000  0.103619      2.000000
  0.022474 -0.012975  0.103619     12.000000
  0.044948 -0.025951  0.103619     12.000000
  0.067422 -0.038926  0.103619     12.000000
  0.089896 -0.051901  0.103619     12.000000
  0.112370 -0.064877  0.103619     12.000000
  0.134844 -0.077852  0.103619     12.000000
  0.157318 -0.090827  0.103619     12.000000
  0.179791 -0.103803  0.103619     12.000000
  0.202265 -0.116778  0.103619      6.000000
  0.044948  0.000000  0.103619     12.000000
  0.067422 -0.012975  0.103619     24.000000
  0.089896 -0.025951  0.103619     24.000000
  0.112370 -0.038926  0.103619     24.000000
  0.134844 -0.051901  0.103619     24.000000
  0.157318 -0.064877  0.103619     24.000000
  0.179791 -0.077852  0.103619     24.000000
  0.202265 -0.090827  0.103619     24.000000
  0.089896  0.000000  0.103619     12.000000
  0.112370 -0.012975  0.103619     24.000000
  0.134844 -0.025951  0.103619     24.000000
  0.157318 -0.038926  0.103619     24.000000
  0.179791 -0.051901  0.103619     24.000000
  0.202265 -0.064877  0.103619     24.000000
  0.224739 -0.077852  0.103619     12.000000
  0.134844  0.000000  0.103619     12.000000
  0.157318 -0.012975  0.103619     24.000000
  0.179791 -0.025951  0.103619     24.000000
  0.202265 -0.038926  0.103619     24.000000
  0.224739 -0.051901  0.103619     24.000000
  0.179791  0.000000  0.103619     12.000000
  0.202265 -0.012975  0.103619     24.000000
  0.224739 -0.025951  0.103619     24.000000
  0.247213 -0.038926  0.103619     12.000000
  0.224739  0.000000  0.103619     12.000000
  0.247213 -0.012975  0.103619     24.000000
  0.269687  0.000000  0.103619      4.000000
  0.000000  0.000000  0.124343      1.000000
  0.022474 -0.012975  0.124343      6.000000
  0.044948 -0.025951  0.124343      6.000000
  0.067422 -0.038926  0.124343      6.000000
  0.089896 -0.051901  0.124343      6.000000
  0.112370 -0.064877  0.124343      6.000000
  0.134844 -0.077852  0.124343      6.000000
  0.157318 -0.090827  0.124343      6.000000
  0.179791 -0.103803  0.124343      6.000000
  0.202265 -0.116778  0.124343      3.000000
  0.044948  0.000000  0.124343      6.000000
  0.067422 -0.012975  0.124343     12.000000
  0.089896 -0.025951  0.124343     12.000000
  0.112370 -0.038926  0.124343     12.000000
  0.134844 -0.051901  0.124343     12.000000
  0.157318 -0.064877  0.124343     12.000000
  0.179791 -0.077852  0.124343     12.000000
  0.202265 -0.090827  0.124343     12.000000
  0.089896  0.000000  0.124343      6.000000
  0.112370 -0.012975  0.124343     12.000000
  0.134844 -0.025951  0.124343     12.000000
  0.157318 -0.038926  0.124343     12.000000
  0.179791 -0.051901  0.124343     12.000000
  0.202265 -0.064877  0.124343     12.000000
  0.224739 -0.077852  0.124343      6.000000
  0.134844  0.000000  0.124343      6.000000
  0.157318 -0.012975  0.124343     12.000000
  0.179791 -0.025951  0.124343     12.000000
  0.202265 -0.038926  0.124343     12.000000
  0.224739 -0.051901  0.124343     12.000000
  0.179791  0.000000  0.124343      6.000000
  0.202265 -0.012975  0.124343     12.000000
  0.224739 -0.025951  0.124343     12.000000
  0.247213 -0.038926  0.124343      6.000000
  0.224739  0.000000  0.124343      6.000000
  0.247213 -0.012975  0.124343     12.000000
  0.269687  0.000000  0.124343      2.000000
 


--------------------------------------------------------------------------------------------------------




 Dimension of arrays:
   k-points           NKPTS =    259   k-points in BZ     NKDIM =    259   number of bands    NBANDS=     16
   number of dos      NEDOS =    301   number of ions     NIONS =      2
   non local maximal  LDIM  =      6   non local SUM 2l+1 LMDIM =     18
   total plane-waves  NPLWV =   9072
   max r-space proj   IRMAX =      1   max aug-charges    IRDMAX=  17011
   dimension x,y,z NGX =    18 NGY =   18 NGZ =   28
   dimension x,y,z NGXF=    36 NGYF=   36 NGZF=   56
   support grid    NGXF=    36 NGYF=   36 NGZF=   56
   ions per type =               2
   NGX,Y,Z   is equivalent  to a cutoff of  12.11, 12.11, 11.58 a.u.
   NGXF,Y,Z  is equivalent  to a cutoff of  24.21, 24.21, 23.15 a.u.

 SYSTEM =  Co-hcc                                  
 POSCAR =  Co hcp                                  

 Startparameter for this run:
   NWRITE =      2    write-flag & timer
   PREC   = accura    normal or accurate (medium, high low for compatibility)
   ISTART =      0    job   : 0-new  1-cont  2-samecut
   ICHARG =      2    charge: 1-file 2-atom 10-const
   ISPIN  =      2    spin polarized calculation?
   LNONCOLLINEAR =      F non collinear calculations
   LSORBIT =      F    spin-orbit coupling
   INIWAV =      1    electr: 0-lowe 1-rand  2-diag
   LASPH  =      F    aspherical Exc in radial PAW
 Electronic Relaxation 1
   ENCUT  =  425.0 eV  31.24 Ry    5.59 a.u.   4.16  4.16  6.76*2*pi/ulx,y,z
   ENINI  =  425.0     initial cutoff
   ENAUG  =  477.8 eV  augmentation charge cutoff
   NELM   =    100;   NELMIN=  2; NELMDL= -5     # of ELM steps 
   EDIFF  = 0.1E-05   stopping-criterion for ELM
   LREAL  =      F    real-space projection
   NLSPLINE    = F    spline interpolate recip. space projectors
   LCOMPAT=      F    compatible to vasp.4.4
   GGA_COMPAT  = T    GGA compatible to vasp.4.4-vasp.4.6
   LMAXPAW     = -100 max onsite density
   LMAXMIX     =    2 max onsite mixed and CHGCAR
   VOSKOWN=      0    Vosko Wilk Nusair interpolation
   ROPT   =    0.00000
 Ionic relaxation
   EDIFFG = -.2E-01   stopping-criterion for IOM
   NSW    =      0    number of steps for IOM
   NBLOCK =      1;   KBLOCK =      1    inner block; outer block 
   IBRION =     -1    ionic relax: 0-MD 1-quasi-New 2-CG
   NFREE  =      0    steps in history (QN), initial steepest desc. (CG)
   ISIF   =      2    stress and relaxation
   IWAVPR =     10    prediction:  0-non 1-charg 2-wave 3-comb
   ISYM   =      1    0-nonsym 1-usesym 2-fastsym
   LCORR  =      T    Harris-Foulkes like correction to forces

   POTIM  = 0.5000    time-step for ionic-motion
   TEIN   =    0.0    initial temperature
   TEBEG  =    0.0;   TEEND  =   0.0 temperature during run
   SMASS  =  -3.00    Nose mass-parameter (am)
   estimated Nose-frequenzy (Omega)   =  0.10E-29 period in steps = 0.13E+47 mass=  -0.140E-27a.u.
   SCALEE = 1.0000    scale energy and forces
   NPACO  =    256;   APACO  = 10.0  distance and # of slots for P.C.
   PSTRESS=    0.0 pullay stress

  Mass of Ions in am
   POMASS =  58.93
  Ionic Valenz
   ZVAL   =   9.00
  Atomic Wigner-Seitz radii
   RWIGS  =  -1.00
  virtual crystal weights 
   VCA    =   1.00
   NELECT =      18.0000    total number of electrons
   NUPDOWN=      -1.0000    fix difference up-down

 DOS related values:
   EMIN   =  10.00;   EMAX   =-10.00  energy-range for DOS
   EFERMI =   0.00
   ISMEAR =     0;   SIGMA  =   0.05  broadening in eV -4-tet -1-fermi 0-gaus

 Electronic relaxation 2 (details)
   IALGO  =     38    algorithm
   LDIAG  =      T    sub-space diagonalisation (order eigenvalues)
   LSUBROT=      F    optimize rotation matrix (better conditioning)
   TURBO    =      0    0=normal 1=particle mesh
   IRESTART =      0    0=no restart 2=restart with 2 vectors
   NREBOOT  =      0    no. of reboots
   NMIN     =      0    reboot dimension
   EREF     =   0.00    reference energy to select bands
   IMIX   =      4    mixing-type and parameters
     AMIX     =   0.40;   BMIX     =  1.00
     AMIX_MAG =   1.60;   BMIX_MAG =  1.00
     AMIN     =   0.10
     WC   =   100.;   INIMIX=   1;  MIXPRE=   1;  MAXMIX= -45

 Intra band minimization:
   WEIMIN = 0.0000     energy-eigenvalue tresh-hold
   EBREAK =  0.16E-07  absolut break condition
   DEPER  =   0.30     relativ break condition  

   TIME   =   0.40     timestep for ELM

  volume/ion in A,a.u.               =      10.64        71.80
  Fermi-wavevector in a.u.,A,eV,Ry     =   1.548246  2.925761 32.614055  2.397065
  Thomas-Fermi vector in A             =   2.653224
 
 Write flags
   LWAVE        =      F    write WAVECAR
   LDOWNSAMPLE  =      F    k-point downsampling of WAVECAR
   LCHARG       =      F    write CHGCAR
   LVTOT        =      F    write LOCPOT, total local potential
   LVHAR        =      F    write LOCPOT, Hartree potential only
   LELF         =      F    write electronic localiz. function (ELF)
   LORBIT       =     11    0 simple, 1 ext, 2 COOP (PROOUT), +10 PAW based schemes


 Dipole corrections
   LMONO  =      F    monopole corrections only (constant potential shift)
   LDIPOL =      F    correct potential (dipole corrections)
   IDIPOL =      0    1-x, 2-y, 3-z, 4-all directions 
   EPSILON=  1.0000000 bulk dielectric constant

 Exchange correlation treatment:
   GGA     =    --    GGA type
   LEXCH   =     8    internal setting for exchange type
   LIBXC   =     F    Libxc                    
   VOSKOWN =     0    Vosko Wilk Nusair interpolation
   LHFCALC =     F    Hartree Fock is set to
   LHFONE  =     F    Hartree Fock one center treatment
   AEXX    =    0.0000 exact exchange contribution

 Linear response parameters
   LEPSILON=     F    determine dielectric tensor
   LRPA    =     F    only Hartree local field effects (RPA)
   LNABLA  =     F    use nabla operator in PAW spheres
   LVEL    =     F    velocity operator in full k-point grid
   CSHIFT  =0.1000    complex shift for real part using Kramers Kronig
   OMEGAMAX=  -1.0    maximum frequency
   DEG_THRESHOLD= 0.2000000E-02 threshold for treating states as degnerate
   RTIME   =   -0.100 relaxation time in fs
  (WPLASMAI=    0.000 imaginary part of plasma frequency in eV, 0.658/RTIME)
   DFIELD  = 0.0000000 0.0000000 0.0000000 field for delta impulse in time
 
  Optional k-point grid parameters
   LKPOINTS_OPT  =     F    use optional k-point grid
   KPOINTS_OPT_MODE=     1    mode for optional k-point grid
 
 Orbital magnetization related:
   ORBITALMAG=     F  switch on orbital magnetization
   LCHIMAG   =     F  perturbation theory with respect to B field
   DQ        =  0.001000  dq finite difference perturbation B field
   LLRAUG    =     F  two centre corrections for induced B field



--------------------------------------------------------------------------------------------------------


 Static calculation
 charge density and potential will be updated during run
 spin polarized calculation
 Variant of blocked Davidson
 Davidson routine will perform the subspace rotation
 perform sub-space diagonalisation
    after iterative eigenvector-optimisation
 modified Broyden-mixing scheme, WC =      100.0
 initial mixing is a Kerker type mixing with AMIX =  0.4000 and BMIX =      1.0000
 Hartree-type preconditioning will be used
 using additional bands            7
 reciprocal scheme for non local part
 use partial core corrections
 calculate Harris-corrections to forces 
   (improved forces if not selfconsistent)
 use gradient corrections 
 use of overlap-Matrix (Vanderbilt PP)
 Gauss-broadening in eV      SIGMA  =   0.05


--------------------------------------------------------------------------------------------------------


  energy-cutoff  :      425.00
  volume of cell :       21.28
      direct lattice vectors                 reciprocal lattice vectors
     1.235999952 -2.140814714  0.000000000     0.404530760 -0.233555943  0.000000000
     1.235999952  2.140814714  0.000000000     0.404530760  0.233555943  0.000000000
     0.000000000  0.000000000  4.021144080     0.000000000  0.000000000  0.248685444

  length of vectors
     2.471999903  2.471999903  4.021144080     0.467111887  0.467111887  0.248685444


 
 k-points in units of 2pi/SCALE and weight: Automatic mesh                          
   0.00000000  0.00000000  0.00000000       0.000
   0.02247393 -0.01297533  0.00000000       0.002
   0.04494786 -0.02595066  0.00000000       0.002
   0.06742179 -0.03892599  0.00000000       0.002
   0.08989572 -0.05190132  0.00000000       0.002
   0.11236966 -0.06487665  0.00000000       0.002
   0.13484359 -0.07785198  0.00000000       0.002
   0.15731752 -0.09082731  0.00000000       0.002
   0.17979145 -0.10380264  0.00000000       0.002
   0.20226538 -0.11677797  0.00000000       0.001
   0.04494786  0.00000000  0.00000000       0.002
   0.06742179 -0.01297533  0.00000000       0.003
   0.08989572 -0.02595066  0.00000000       0.003
   0.11236966 -0.03892599  0.00000000       0.003
   0.13484359 -0.05190132  0.00000000       0.003
   0.15731752 -0.06487665  0.00000000       0.003
   0.17979145 -0.07785198  0.00000000       0.003
   0.20226538 -0.09082731  0.00000000       0.003
   0.08989572  0.00000000  0.00000000       0.002
   0.11236966 -0.01297533  0.00000000       0.003
   0.13484359 -0.02595066  0.00000000       0.003
   0.15731752 -0.03892599  0.00000000       0.003
   0.17979145 -0.05190132  0.00000000       0.003
   0.20226538 -0.06487665  0.00000000       0.003
   0.22473931 -0.07785198  0.00000000       0.002
   0.13484359  0.00000000  0.00000000       0.002
   0.15731752 -0.01297533  0.00000000       0.003
   0.17979145 -0.02595066  0.00000000       0.003
   0.20226538 -0.03892599  0.00000000       0.003
   0.22473931 -0.05190132  0.00000000       0.003
   0.17979145  0.00000000  0.00000000       0.002
   0.20226538 -0.01297533  0.00000000       0.003
   0.22473931 -0.02595066  0.00000000       0.003
   0.24721324 -0.03892599  0.00000000       0.002
   0.22473931  0.00000000  0.00000000       0.002
   0.24721324 -0.01297533  0.00000000       0.003
   0.26968717  0.00000000  0.00000000       0.001
   0.00000000  0.00000000  0.02072379       0.001
   0.02247393 -0.01297533  0.02072379       0.003
   0.04494786 -0.02595066  0.02072379       0.003
   0.06742179 -0.03892599  0.02072379       0.003
   0.08989572 -0.05190132  0.02072379       0.003
   0.11236966 -0.06487665  0.02072379       0.003
   0.13484359 -0.07785198  0.02072379       0.003
   0.15731752 -0.09082731  0.02072379       0.003
   0.17979145 -0.10380264  0.02072379       0.003
   0.20226538 -0.11677797  0.02072379       0.002
   0.04494786  0.00000000  0.02072379       0.003
   0.06742179 -0.01297533  0.02072379       0.006
   0.08989572 -0.02595066  0.02072379       0.006
   0.11236966 -0.03892599  0.02072379       0.006
   0.13484359 -0.05190132  0.02072379       0.006
   0.15731752 -0.06487665  0.02072379       0.006
   0.17979145 -0.07785198  0.02072379       0.006
   0.20226538 -0.09082731  0.02072379       0.006
   0.08989572  0.00000000  0.02072379       0.003
   0.11236966 -0.01297533  0.02072379       0.006
   0.13484359 -0.02595066  0.02072379       0.006
   0.15731752 -0.03892599  0.02072379       0.006
   0.17979145 -0.05190132  0.02072379       0.006
   0.20226538 -0.06487665  0.02072379       0.006
   0.22473931 -0.07785198  0.02072379       0.003
   0.13484359  0.00000000  0.02072379       0.003
   0.15731752 -0.01297533  0.02072379       0.006
   0.17979145 -0.02595066  0.02072379       0.006
   0.20226538 -0.03892599  0.02072379       0.006
   0.22473931 -0.05190132  0.02072379       0.006
   0.17979145  0.00000000  0.02072379       0.003
   0.20226538 -0.01297533  0.02072379       0.006
   0.22473931 -0.02595066  0.02072379       0.006
   0.24721324 -0.03892599  0.02072379       0.003
   0.22473931  0.00000000  0.02072379       0.003
   0.24721324 -0.01297533  0.02072379       0.006
   0.26968717  0.00000000  0.02072379       0.001
   0.00000000  0.00000000  0.04144757       0.001
   0.02247393 -0.01297533  0.04144757       0.003
   0.04494786 -0.02595066  0.04144757       0.003
   0.06742179 -0.03892599  0.04144757       0.003
   0.08989572 -0.05190132  0.04144757       0.003
   0.11236966 -0.06487665  0.04144757       0.003
   0.13484359 -0.07785198  0.04144757       0.003
   0.15731752 -0.09082731  0.04144757       0.003
   0.17979145 -0.10380264  0.04144757       0.003
   0.20226538 -0.11677797  0.04144757       0.002
   0.04494786  0.00000000  0.04144757       0.003
   0.06742179 -0.01297533  0.04144757       0.006
   0.08989572 -0.02595066  0.04144757       0.006
   0.11236966 -0.03892599  0.04144757       0.006
   0.13484359 -0.05190132  0.04144757       0.006
   0.15731752 -0.06487665  0.04144757       0.006
   0.17979145 -0.07785198  0.04144757       0.006
   0.20226538 -0.09082731  0.04144757       0.006
   0.08989572  0.00000000  0.04144757       0.003
   0.11236966 -0.01297533  0.04144757       0.006
   0.13484359 -0.02595066  0.04144757       0.006
   0.15731752 -0.03892599  0.04144757       0.006
   0.17979145 -0.05190132  0.04144757       0.006
   0.20226538 -0.06487665  0.04144757       0.006
   0.22473931 -0.07785198  0.04144757       0.003
   0.13484359  0.00000000  0.04144757       0.003
   0.15731752 -0.01297533  0.04144757       0.006
   0.17979145 -0.02595066  0.04144757       0.006
   0.20226538 -0.03892599  0.04144757       0.006
   0.22473931 -0.05190132  0.04144757       0.006
   0.17979145  0.00000000  0.04144757       0.003
   0.20226538 -0.01297533  0.04144757       0.006
   0.22473931 -0.02595066  0.04144757       0.006
   0.24721324 -0.03892599  0.04144757       0.003
   0.22473931  0.00000000  0.04144757       0.003
   0.24721324 -0.01297533  0.04144757       0.006
   0.26968717  0.00000000  0.04144757       0.001
   0.00000000  0.00000000  0.06217136       0.001
   0.02247393 -0.01297533  0.06217136       0.003
   0.04494786 -0.02595066  0.06217136       0.003
   0.06742179 -0.03892599  0.06217136       0.003
   0.08989572 -0.05190132  0.06217136       0.003
   0.11236966 -0.06487665  0.06217136       0.003
   0.13484359 -0.07785198  0.06217136       0.003
   0.15731752 -0.09082731  0.06217136       0.003
   0.17979145 -0.10380264  0.06217136       0.003
   0.20226538 -0.11677797  0.06217136       0.002
   0.04494786  0.00000000  0.06217136       0.003
   0.06742179 -0.01297533  0.06217136       0.006
   0.08989572 -0.02595066  0.06217136       0.006
   0.11236966 -0.03892599  0.06217136       0.006
   0.13484359 -0.05190132  0.06217136       0.006
   0.15731752 -0.06487665  0.06217136       0.006
   0.17979145 -0.07785198  0.06217136       0.006
   0.20226538 -0.09082731  0.06217136       0.006
   0.08989572  0.00000000  0.06217136       0.003
   0.11236966 -0.01297533  0.06217136       0.006
   0.13484359 -0.02595066  0.06217136       0.006
   0.15731752 -0.03892599  0.06217136       0.006
   0.17979145 -0.05190132  0.06217136       0.006
   0.20226538 -0.06487665  0.06217136       0.006
   0.22473931 -0.07785198  0.06217136       0.003
   0.13484359  0.00000000  0.06217136       0.003
   0.15731752 -0.01297533  0.06217136       0.006
   0.17979145 -0.02595066  0.06217136       0.006
   0.20226538 -0.03892599  0.06217136       0.006
   0.22473931 -0.05190132  0.06217136       0.006
   0.17979145  0.00000000  0.06217136       0.003
   0.20226538 -0.01297533  0.06217136       0.006
   0.22473931 -0.02595066  0.06217136       0.006
   0.24721324 -0.03892599  0.06217136       0.003
   0.22473931  0.00000000  0.06217136       0.003
   0.24721324 -0.01297533  0.06217136       0.006
   0.26968717  0.00000000  0.06217136       0.001
   0.00000000  0.00000000  0.08289515       0.001
   0.02247393 -0.01297533  0.08289515       0.003
   0.04494786 -0.02595066  0.08289515       0.003
   0.06742179 -0.03892599  0.08289515       0.003
   0.08989572 -0.05190132  0.08289515       0.003
   0.11236966 -0.06487665  0.08289515       0.003
   0.13484359 -0.07785198  0.08289515       0.003
   0.15731752 -0.09082731  0.08289515       0.003
   0.17979145 -0.10380264  0.08289515       0.003
   0.20226538 -0.11677797  0.08289515       0.002
   0.04494786  0.00000000  0.08289515       0.003
   0.06742179 -0.01297533  0.08289515       0.006
   0.08989572 -0.02595066  0.08289515       0.006
   0.11236966 -0.03892599  0.08289515       0.006
   0.13484359 -0.05190132  0.08289515       0.006
   0.15731752 -0.06487665  0.08289515       0.006
   0.17979145 -0.07785198  0.08289515       0.006
   0.20226538 -0.09082731  0.08289515       0.006
   0.08989572  0.00000000  0.08289515       0.003
   0.11236966 -0.01297533  0.08289515       0.006
   0.13484359 -0.02595066  0.08289515       0.006
   0.15731752 -0.03892599  0.08289515       0.006
   0.17979145 -0.05190132  0.08289515       0.006
   0.20226538 -0.06487665  0.08289515       0.006
   0.22473931 -0.07785198  0.08289515       0.003
   0.13484359  0.00000000  0.08289515       0.003
   0.15731752 -0.01297533  0.08289515       0.006
   0.17979145 -0.02595066  0.08289515       0.006
   0.20226538 -0.03892599  0.08289515       0.006
   0.22473931 -0.05190132  0.08289515       0.006
   0.17979145  0.00000000  0.08289515       0.003
   0.20226538 -0.01297533  0.08289515       0.006
   0.22473931 -0.02595066  0.08289515       0.006
   0.24721324 -0.03892599  0.08289515       0.003
   0.22473931  0.00000000  0.08289515       0.003
   0.24721324 -0.01297533  0.08289515       0.006
   0.26968717  0.00000000  0.08289515       0.001
   0.00000000  0.00000000  0.10361893       0.001
   0.02247393 -0.01297533  0.10361893       0.003
   0.04494786 -0.02595066  0.10361893       0.003
   0.06742179 -0.03892599  0.10361893       0.003
   0.08989572 -0.05190132  0.10361893       0.003
   0.11236966 -0.06487665  0.10361893       0.003
   0.13484359 -0.07785198  0.10361893       0.003
   0.15731752 -0.09082731  0.10361893       0.003
   0.17979145 -0.10380264  0.10361893       0.003
   0.20226538 -0.11677797  0.10361893       0.002
   0.04494786  0.00000000  0.10361893       0.003
   0.06742179 -0.01297533  0.10361893       0.006
   0.08989572 -0.02595066  0.10361893       0.006
   0.11236966 -0.03892599  0.10361893       0.006
   0.13484359 -0.05190132  0.10361893       0.006
   0.15731752 -0.06487665  0.10361893       0.006
   0.17979145 -0.07785198  0.10361893       0.006
   0.20226538 -0.09082731  0.10361893       0.006
   0.08989572  0.00000000  0.10361893       0.003
   0.11236966 -0.01297533  0.10361893       0.006
   0.13484359 -0.02595066  0.10361893       0.006
   0.15731752 -0.03892599  0.10361893       0.006
   0.17979145 -0.05190132  0.10361893       0.006
   0.20226538 -0.06487665  0.10361893       0.006
   0.22473931 -0.07785198  0.10361893       0.003
   0.13484359  0.00000000  0.10361893       0.003
   0.15731752 -0.01297533  0.10361893       0.006
   0.17979145 -0.02595066  0.10361893       0.006
   0.20226538 -0.03892599  0.10361893       0.006
   0.22473931 -0.05190132  0.10361893       0.006
   0.17979145  0.00000000  0.10361893       0.003
   0.20226538 -0.01297533  0.10361893       0.006
   0.22473931 -0.02595066  0.10361893       0.006
   0.24721324 -0.03892599  0.10361893       0.003
   0.22473931  0.00000000  0.10361893       0.003
   0.24721324 -0.01297533  0.10361893       0.006
   0.26968717  0.00000000  0.10361893       0.001
   0.00000000  0.00000000  0.12434272       0.000
   0.02247393 -0.01297533  0.12434272       0.002
   0.04494786 -0.02595066  0.12434272       0.002
   0.06742179 -0.03892599  0.12434272       0.002
   0.08989572 -0.05190132  0.12434272       0.002
   0.11236966 -0.06487665  0.12434272       0.002
   0.13484359 -0.07785198  0.12434272       0.002
   0.15731752 -0.09082731  0.12434272       0.002
   0.17979145 -0.10380264  0.12434272       0.002
   0.20226538 -0.11677797  0.12434272       0.001
   0.04494786  0.00000000  0.12434272       0.002
   0.06742179 -0.01297533  0.12434272       0.003
   0.08989572 -0.02595066  0.12434272       0.003
   0.11236966 -0.03892599  0.12434272       0.003
   0.13484359 -0.05190132  0.12434272       0.003
   0.15731752 -0.06487665  0.12434272       0.003
   0.17979145 -0.07785198  0.12434272       0.003
   0.20226538 -0.09082731  0.12434272       0.003
   0.08989572  0.00000000  0.12434272       0.002
   0.11236966 -0.01297533  0.12434272       0.003
   0.13484359 -0.02595066  0.12434272       0.003
   0.15731752 -0.03892599  0.12434272       0.003
   0.17979145 -0.05190132  0.12434272       0.003
   0.20226538 -0.06487665  0.12434272       0.003
   0.22473931 -0.07785198  0.12434272       0.002
   0.13484359  0.00000000  0.12434272       0.002
   0.15731752 -0.01297533  0.12434272       0.003
   0.17979145 -0.02595066  0.12434272       0.003
   0.20226538 -0.03892599  0.12434272       0.003
   0.22473931 -0.05190132  0.12434272       0.003
   0.17979145  0.00000000  0.12434272       0.002
   0.20226538 -0.01297533  0.12434272       0.003
   0.22473931 -0.02595066  0.12434272       0.003
   0.24721324 -0.03892599  0.12434272       0.002
   0.22473931  0.00000000  0.12434272       0.002
   0.24721324 -0.01297533  0.12434272       0.003
   0.26968717  0.00000000  0.12434272       0.001
 
 k-points in reciprocal lattice and weights: Automatic mesh                          
   0.00000000  0.00000000  0.00000000       0.000
   0.05555556 -0.00000000  0.00000000       0.002
   0.11111111 -0.00000000  0.00000000       0.002
   0.16666667 -0.00000000  0.00000000       0.002
   0.22222222  0.00000000  0.00000000       0.002
   0.27777778  0.00000000  0.00000000       0.002
   0.33333333  0.00000000  0.00000000       0.002
   0.38888889 -0.00000000  0.00000000       0.002
   0.44444444  0.00000000  0.00000000       0.002
   0.50000000  0.00000000  0.00000000       0.001
   0.05555556  0.05555556  0.00000000       0.002
   0.11111111  0.05555556  0.00000000       0.003
   0.16666667  0.05555556  0.00000000       0.003
   0.22222222  0.05555556  0.00000000       0.003
   0.27777778  0.05555556  0.00000000       0.003
   0.33333333  0.05555556  0.00000000       0.003
   0.38888889  0.05555556  0.00000000       0.003
   0.44444444  0.05555556  0.00000000       0.003
   0.11111111  0.11111111  0.00000000       0.002
   0.16666667  0.11111111  0.00000000       0.003
   0.22222222  0.11111111  0.00000000       0.003
   0.27777778  0.11111111  0.00000000       0.003
   0.33333333  0.11111111  0.00000000       0.003
   0.38888889  0.11111111  0.00000000       0.003
   0.44444444  0.11111111  0.00000000       0.002
   0.16666667  0.16666667  0.00000000       0.002
   0.22222222  0.16666667  0.00000000       0.003
   0.27777778  0.16666667  0.00000000       0.003
   0.33333333  0.16666667  0.00000000       0.003
   0.38888889  0.16666667  0.00000000       0.003
   0.22222222  0.22222222  0.00000000       0.002
   0.27777778  0.22222222  0.00000000       0.003
   0.33333333  0.22222222  0.00000000       0.003
   0.38888889  0.22222222  0.00000000       0.002
   0.27777778  0.27777778  0.00000000       0.002
   0.33333333  0.27777778  0.00000000       0.003
   0.33333333  0.33333333  0.00000000       0.001
   0.00000000  0.00000000  0.08333333       0.001
   0.05555556 -0.00000000  0.08333333       0.003
   0.11111111 -0.00000000  0.08333333       0.003
   0.16666667 -0.00000000  0.08333333       0.003
   0.22222222  0.00000000  0.08333333       0.003
   0.27777778  0.00000000  0.08333333       0.003
   0.33333333  0.00000000  0.08333333       0.003
   0.38888889 -0.00000000  0.08333333       0.003
   0.44444444  0.00000000  0.08333333       0.003
   0.50000000  0.00000000  0.08333333       0.002
   0.05555556  0.05555556  0.08333333       0.003
   0.11111111  0.05555556  0.08333333       0.006
   0.16666667  0.05555556  0.08333333       0.006
   0.22222222  0.05555556  0.08333333       0.006
   0.27777778  0.05555556  0.08333333       0.006
   0.33333333  0.05555556  0.08333333       0.006
   0.38888889  0.05555556  0.08333333       0.006
   0.44444444  0.05555556  0.08333333       0.006
   0.11111111  0.11111111  0.08333333       0.003
   0.16666667  0.11111111  0.08333333       0.006
   0.22222222  0.11111111  0.08333333       0.006
   0.27777778  0.11111111  0.08333333       0.006
   0.33333333  0.11111111  0.08333333       0.006
   0.38888889  0.11111111  0.08333333       0.006
   0.44444444  0.11111111  0.08333333       0.003
   0.16666667  0.16666667  0.08333333       0.003
   0.22222222  0.16666667  0.08333333       0.006
   0.27777778  0.16666667  0.08333333       0.006
   0.33333333  0.16666667  0.08333333       0.006
   0.38888889  0.16666667  0.08333333       0.006
   0.22222222  0.22222222  0.08333333       0.003
   0.27777778  0.22222222  0.08333333       0.006
   0.33333333  0.22222222  0.08333333       0.006
   0.38888889  0.22222222  0.08333333       0.003
   0.27777778  0.27777778  0.08333333       0.003
   0.33333333  0.27777778  0.08333333       0.006
   0.33333333  0.33333333  0.08333333       0.001
   0.00000000  0.00000000  0.16666667       0.001
   0.05555556 -0.00000000  0.16666667       0.003
   0.11111111 -0.00000000  0.16666667       0.003
   0.16666667 -0.00000000  0.16666667       0.003
   0.22222222  0.00000000  0.16666667       0.003
   0.27777778  0.00000000  0.16666667       0.003
   0.33333333  0.00000000  0.16666667       0.003
   0.38888889 -0.00000000  0.16666667       0.003
   0.44444444  0.00000000  0.16666667       0.003
   0.50000000  0.00000000  0.16666667       0.002
   0.05555556  0.05555556  0.16666667       0.003
   0.11111111  0.05555556  0.16666667       0.006
   0.16666667  0.05555556  0.16666667       0.006
   0.22222222  0.05555556  0.16666667       0.006
   0.27777778  0.05555556  0.16666667       0.006
   0.33333333  0.05555556  0.16666667       0.006
   0.38888889  0.05555556  0.16666667       0.006
   0.44444444  0.05555556  0.16666667       0.006
   0.11111111  0.11111111  0.16666667       0.003
   0.16666667  0.11111111  0.16666667       0.006
   0.22222222  0.11111111  0.16666667       0.006
   0.27777778  0.11111111  0.16666667       0.006
   0.33333333  0.11111111  0.16666667       0.006
   0.38888889  0.11111111  0.16666667       0.006
   0.44444444  0.11111111  0.16666667       0.003
   0.16666667  0.16666667  0.16666667       0.003
   0.22222222  0.16666667  0.16666667       0.006
   0.27777778  0.16666667  0.16666667       0.006
   0.33333333  0.16666667  0.16666667       0.006
   0.38888889  0.16666667  0.16666667       0.006
   0.22222222  0.22222222  0.16666667       0.003
   0.27777778  0.22222222  0.16666667       0.006
   0.33333333  0.22222222  0.16666667       0.006
   0.38888889  0.22222222  0.16666667       0.003
   0.27777778  0.27777778  0.16666667       0.003
   0.33333333  0.27777778  0.16666667       0.006
   0.33333333  0.33333333  0.16666667       0.001
   0.00000000  0.00000000  0.25000000       0.001
   0.05555556 -0.00000000  0.25000000       0.003
   0.11111111 -0.00000000  0.25000000       0.003
   0.16666667 -0.00000000  0.25000000       0.003
   0.22222222  0.00000000  0.25000000       0.003
   0.27777778  0.00000000  0.25000000       0.003
   0.33333333  0.00000000  0.25000000       0.003
   0.38888889 -0.00000000  0.25000000       0.003
   0.44444444  0.00000000  0.25000000       0.003
   0.50000000  0.00000000  0.25000000       0.002
   0.05555556  0.05555556  0.25000000       0.003
   0.11111111  0.05555556  0.25000000       0.006
   0.16666667  0.05555556  0.25000000       0.006
   0.22222222  0.05555556  0.25000000       0.006
   0.27777778  0.05555556  0.25000000       0.006
   0.33333333  0.05555556  0.25000000       0.006
   0.38888889  0.05555556  0.25000000       0.006
   0.44444444  0.05555556  0.25000000       0.006
   0.11111111  0.11111111  0.25000000       0.003
   0.16666667  0.11111111  0.25000000       0.006
   0.22222222  0.11111111  0.25000000       0.006
   0.27777778  0.11111111  0.25000000       0.006
   0.33333333  0.11111111  0.25000000       0.006
   0.38888889  0.11111111  0.25000000       0.006
   0.44444444  0.11111111  0.25000000       0.003
   0.16666667  0.16666667  0.25000000       0.003
   0.22222222  0.16666667  0.25000000       0.006
   0.27777778  0.16666667  0.25000000       0.006
   0.33333333  0.16666667  0.25000000       0.006
   0.38888889  0.16666667  0.25000000       0.006
   0.22222222  0.22222222  0.25000000       0.003
   0.27777778  0.22222222  0.25000000       0.006
   0.33333333  0.22222222  0.25000000       0.006
   0.38888889  0.22222222  0.25000000       0.003
   0.27777778  0.27777778  0.25000000       0.003
   0.33333333  0.27777778  0.25000000       0.006
   0.33333333  0.33333333  0.25000000       0.001
   0.00000000  0.00000000  0.33333333       0.001
   0.05555556 -0.00000000  0.33333333       0.003
   0.11111111 -0.00000000  0.33333333       0.003
   0.16666667 -0.00000000  0.33333333       0.003
   0.22222222  0.00000000  0.33333333       0.003
   0.27777778  0.00000000  0.33333333       0.003
   0.33333333  0.00000000  0.33333333       0.003
   0.38888889 -0.00000000  0.33333333       0.003
   0.44444444  0.00000000  0.33333333       0.003
   0.50000000  0.00000000  0.33333333       0.002
   0.05555556  0.05555556  0.33333333       0.003
   0.11111111  0.05555556  0.33333333       0.006
   0.16666667  0.05555556  0.33333333       0.006
   0.22222222  0.05555556  0.33333333       0.006
   0.27777778  0.05555556  0.33333333       0.006
   0.33333333  0.05555556  0.33333333       0.006
   0.38888889  0.05555556  0.33333333       0.006
   0.44444444  0.05555556  0.33333333       0.006
   0.11111111  0.11111111  0.33333333       0.003
   0.16666667  0.11111111  0.33333333       0.006
   0.22222222  0.11111111  0.33333333       0.006
   0.27777778  0.11111111  0.33333333       0.006
   0.33333333  0.11111111  0.33333333       0.006
   0.38888889  0.11111111  0.33333333       0.006
   0.44444444  0.11111111  0.33333333       0.003
   0.16666667  0.16666667  0.33333333       0.003
   0.22222222  0.16666667  0.33333333       0.006
   0.27777778  0.16666667  0.33333333       0.006
   0.33333333  0.16666667  0.33333333       0.006
   0.38888889  0.16666667  0.33333333       0.006
   0.22222222  0.22222222  0.33333333       0.003
   0.27777778  0.22222222  0.33333333       0.006
   0.33333333  0.22222222  0.33333333       0.006
   0.38888889  0.22222222  0.33333333       0.003
   0.27777778  0.27777778  0.33333333       0.003
   0.33333333  0.27777778  0.33333333       0.006
   0.33333333  0.33333333  0.33333333       0.001
   0.00000000  0.00000000  0.41666667       0.001
   0.05555556 -0.00000000  0.41666667       0.003
   0.11111111 -0.00000000  0.41666667       0.003
   0.16666667 -0.00000000  0.41666667       0.003
   0.22222222  0.00000000  0.41666667       0.003
   0.27777778  0.00000000  0.41666667       0.003
   0.33333333  0.00000000  0.41666667       0.003
   0.38888889 -0.00000000  0.41666667       0.003
   0.44444444  0.00000000  0.41666667       0.003
   0.50000000  0.00000000  0.41666667       0.002
   0.05555556  0.05555556  0.41666667       0.003
   0.11111111  0.05555556  0.41666667       0.006
   0.16666667  0.05555556  0.41666667       0.006
   0.22222222  0.05555556  0.41666667       0.006
   0.27777778  0.05555556  0.41666667       0.006
   0.33333333  0.05555556  0.41666667       0.006
   0.38888889  0.05555556  0.41666667       0.006
   0.44444444  0.05555556  0.41666667       0.006
   0.11111111  0.11111111  0.41666667       0.003
   0.16666667  0.11111111  0.41666667       0.006
   0.22222222  0.11111111  0.41666667       0.006
   0.27777778  0.11111111  0.41666667       0.006
   0.33333333  0.11111111  0.41666667       0.006
   0.38888889  0.11111111  0.41666667       0.006
   0.44444444  0.11111111  0.41666667       0.003
   0.16666667  0.16666667  0.41666667       0.003
   0.22222222  0.16666667  0.41666667       0.006
   0.27777778  0.16666667  0.41666667       0.006
   0.33333333  0.16666667  0.41666667       0.006
   0.38888889  0.16666667  0.41666667       0.006
   0.22222222  0.22222222  0.41666667       0.003
   0.27777778  0.22222222  0.41666667       0.006
   0.33333333  0.22222222  0.41666667       0.006
   0.38888889  0.22222222  0.41666667       0.003
   0.27777778  0.27777778  0.41666667       0.003
   0.33333333  0.27777778  0.41666667       0.006
   0.33333333  0.33333333  0.41666667       0.001
   0.00000000  0.00000000  0.50000000       0.000
   0.05555556 -0.00000000  0.50000000       0.002
   0.11111111 -0.00000000  0.50000000       0.002
   0.16666667 -0.00000000  0.50000000       0.002
   0.22222222  0.00000000  0.50000000       0.002
   0.27777778  0.00000000  0.50000000       0.002
   0.33333333  0.00000000  0.50000000       0.002
   0.38888889 -0.00000000  0.50000000       0.002
   0.44444444  0.00000000  0.50000000       0.002
   0.50000000  0.00000000  0.50000000       0.001
   0.05555556  0.05555556  0.50000000       0.002
   0.11111111  0.05555556  0.50000000       0.003
   0.16666667  0.05555556  0.50000000       0.003
   0.22222222  0.05555556  0.50000000       0.003
   0.27777778  0.05555556  0.50000000       0.003
   0.33333333  0.05555556  0.50000000       0.003
   0.38888889  0.05555556  0.50000000       0.003
   0.44444444  0.05555556  0.50000000       0.003
   0.11111111  0.11111111  0.50000000       0.002
   0.16666667  0.11111111  0.50000000       0.003
   0.22222222  0.11111111  0.50000000       0.003
   0.27777778  0.11111111  0.50000000       0.003
   0.33333333  0.11111111  0.50000000       0.003
   0.38888889  0.11111111  0.50000000       0.003
   0.44444444  0.11111111  0.50000000       0.002
   0.16666667  0.16666667  0.50000000       0.002
   0.22222222  0.16666667  0.50000000       0.003
   0.27777778  0.16666667  0.50000000       0.003
   0.33333333  0.16666667  0.50000000       0.003
   0.38888889  0.16666667  0.50000000       0.003
   0.22222222  0.22222222  0.50000000       0.002
   0.27777778  0.22222222  0.50000000       0.003
   0.33333333  0.22222222  0.50000000       0.003
   0.38888889  0.22222222  0.50000000       0.002
   0.27777778  0.27777778  0.50000000       0.002
   0.33333333  0.27777778  0.50000000       0.003
   0.33333333  0.33333333  0.50000000       0.001
 
 position of ions in fractional coordinates (direct lattice) 
   0.33333333  0.66666667  0.25000000
   0.66666667  0.33333333  0.75000000
 
 position of ions in cartesian coordinates  (Angst):
   1.23599995  0.71360490  1.00528602
   1.23599995 -0.71360490  3.01585806
 


--------------------------------------------------------------------------------------------------------


 k-point   1 :   0.0000 0.0000 0.0000  plane waves:     391
 k-point   2 :   0.0556-0.0000 0.0000  plane waves:     405
 k-point   3 :   0.1111-0.0000 0.0000  plane waves:     411
 k-point   4 :   0.1667-0.0000 0.0000  plane waves:     409
 k-point   5 :   0.2222 0.0000 0.0000  plane waves:     421
 k-point   6 :   0.2778 0.0000 0.0000  plane waves:     423
 k-point   7 :   0.3333 0.0000 0.0000  plane waves:     427
 k-point   8 :   0.3889-0.0000 0.0000  plane waves:     429
 k-point   9 :   0.4444 0.0000 0.0000  plane waves:     428
 k-point  10 :   0.5000 0.0000 0.0000  plane waves:     428
 k-point  11 :   0.0556 0.0556 0.0000  plane waves:     411
 k-point  12 :   0.1111 0.0556 0.0000  plane waves:     415
 k-point  13 :   0.1667 0.0556 0.0000  plane waves:     418
 k-point  14 :   0.2222 0.0556 0.0000  plane waves:     423
 k-point  15 :   0.2778 0.0556 0.0000  plane waves:     421
 k-point  16 :   0.3333 0.0556 0.0000  plane waves:     429
 k-point  17 :   0.3889 0.0556 0.0000  plane waves:     430
 k-point  18 :   0.4444 0.0556 0.0000  plane waves:     430
 k-point  19 :   0.1111 0.1111 0.0000  plane waves:     418
 k-point  20 :   0.1667 0.1111 0.0000  plane waves:     427
 k-point  21 :   0.2222 0.1111 0.0000  plane waves:     416
 k-point  22 :   0.2778 0.1111 0.0000  plane waves:     418
 k-point  23 :   0.3333 0.1111 0.0000  plane waves:     426
 k-point  24 :   0.3889 0.1111 0.0000  plane waves:     429
 k-point  25 :   0.4444 0.1111 0.0000  plane waves:     432
 k-point  26 :   0.1667 0.1667 0.0000  plane waves:     422
 k-point  27 :   0.2222 0.1667 0.0000  plane waves:     422
 k-point  28 :   0.2778 0.1667 0.0000  plane waves:     424
 k-point  29 :   0.3333 0.1667 0.0000  plane waves:     428
 k-point  30 :   0.3889 0.1667 0.0000  plane waves:     428
 k-point  31 :   0.2222 0.2222 0.0000  plane waves:     422
 k-point  32 :   0.2778 0.2222 0.0000  plane waves:     430
 k-point  33 :   0.3333 0.2222 0.0000  plane waves:     427
 k-point  34 :   0.3889 0.2222 0.0000  plane waves:     428
 k-point  35 :   0.2778 0.2778 0.0000  plane waves:     428
 k-point  36 :   0.3333 0.2778 0.0000  plane waves:     430
 k-point  37 :   0.3333 0.3333 0.0000  plane waves:     438
 k-point  38 :   0.0000 0.0000 0.0833  plane waves:     397
 k-point  39 :   0.0556-0.0000 0.0833  plane waves:     409
 k-point  40 :   0.1111-0.0000 0.0833  plane waves:     412
 k-point  41 :   0.1667-0.0000 0.0833  plane waves:     413
 k-point  42 :   0.2222 0.0000 0.0833  plane waves:     420
 k-point  43 :   0.2778 0.0000 0.0833  plane waves:     426
 k-point  44 :   0.3333 0.0000 0.0833  plane waves:     428
 k-point  45 :   0.3889-0.0000 0.0833  plane waves:     427
 k-point  46 :   0.4444 0.0000 0.0833  plane waves:     431
 k-point  47 :   0.5000 0.0000 0.0833  plane waves:     428
 k-point  48 :   0.0556 0.0556 0.0833  plane waves:     415
 k-point  49 :   0.1111 0.0556 0.0833  plane waves:     414
 k-point  50 :   0.1667 0.0556 0.0833  plane waves:     420
 k-point  51 :   0.2222 0.0556 0.0833  plane waves:     421
 k-point  52 :   0.2778 0.0556 0.0833  plane waves:     425
 k-point  53 :   0.3333 0.0556 0.0833  plane waves:     427
 k-point  54 :   0.3889 0.0556 0.0833  plane waves:     429
 k-point  55 :   0.4444 0.0556 0.0833  plane waves:     430
 k-point  56 :   0.1111 0.1111 0.0833  plane waves:     422
 k-point  57 :   0.1667 0.1111 0.0833  plane waves:     419
 k-point  58 :   0.2222 0.1111 0.0833  plane waves:     420
 k-point  59 :   0.2778 0.1111 0.0833  plane waves:     420
 k-point  60 :   0.3333 0.1111 0.0833  plane waves:     425
 k-point  61 :   0.3889 0.1111 0.0833  plane waves:     430
 k-point  62 :   0.4444 0.1111 0.0833  plane waves:     430
 k-point  63 :   0.1667 0.1667 0.0833  plane waves:     424
 k-point  64 :   0.2222 0.1667 0.0833  plane waves:     422
 k-point  65 :   0.2778 0.1667 0.0833  plane waves:     423
 k-point  66 :   0.3333 0.1667 0.0833  plane waves:     427
 k-point  67 :   0.3889 0.1667 0.0833  plane waves:     429
 k-point  68 :   0.2222 0.2222 0.0833  plane waves:     424
 k-point  69 :   0.2778 0.2222 0.0833  plane waves:     425
 k-point  70 :   0.3333 0.2222 0.0833  plane waves:     426
 k-point  71 :   0.3889 0.2222 0.0833  plane waves:     425
 k-point  72 :   0.2778 0.2778 0.0833  plane waves:     426
 k-point  73 :   0.3333 0.2778 0.0833  plane waves:     427
 k-point  74 :   0.3333 0.3333 0.0833  plane waves:     429
 k-point  75 :   0.0000 0.0000 0.1667  plane waves:     397
 k-point  76 :   0.0556-0.0000 0.1667  plane waves:     410
 k-point  77 :   0.1111-0.0000 0.1667  plane waves:     414
 k-point  78 :   0.1667-0.0000 0.1667  plane waves:     417
 k-point  79 :   0.2222 0.0000 0.1667  plane waves:     421
 k-point  80 :   0.2778 0.0000 0.1667  plane waves:     422
 k-point  81 :   0.3333 0.0000 0.1667  plane waves:     423
 k-point  82 :   0.3889-0.0000 0.1667  plane waves:     429
 k-point  83 :   0.4444 0.0000 0.1667  plane waves:     430
 k-point  84 :   0.5000 0.0000 0.1667  plane waves:     432
 k-point  85 :   0.0556 0.0556 0.1667  plane waves:     415
 k-point  86 :   0.1111 0.0556 0.1667  plane waves:     415
 k-point  87 :   0.1667 0.0556 0.1667  plane waves:     419
 k-point  88 :   0.2222 0.0556 0.1667  plane waves:     422
 k-point  89 :   0.2778 0.0556 0.1667  plane waves:     424
 k-point  90 :   0.3333 0.0556 0.1667  plane waves:     427
 k-point  91 :   0.3889 0.0556 0.1667  plane waves:     427
 k-point  92 :   0.4444 0.0556 0.1667  plane waves:     431
 k-point  93 :   0.1111 0.1111 0.1667  plane waves:     415
 k-point  94 :   0.1667 0.1111 0.1667  plane waves:     421
 k-point  95 :   0.2222 0.1111 0.1667  plane waves:     423
 k-point  96 :   0.2778 0.1111 0.1667  plane waves:     423
 k-point  97 :   0.3333 0.1111 0.1667  plane waves:     424
 k-point  98 :   0.3889 0.1111 0.1667  plane waves:     428
 k-point  99 :   0.4444 0.1111 0.1667  plane waves:     429
 k-point 100 :   0.1667 0.1667 0.1667  plane waves:     422
 k-point 101 :   0.2222 0.1667 0.1667  plane waves:     420
 k-point 102 :   0.2778 0.1667 0.1667  plane waves:     422
 k-point 103 :   0.3333 0.1667 0.1667  plane waves:     424
 k-point 104 :   0.3889 0.1667 0.1667  plane waves:     426
 k-point 105 :   0.2222 0.2222 0.1667  plane waves:     422
 k-point 106 :   0.2778 0.2222 0.1667  plane waves:     421
 k-point 107 :   0.3333 0.2222 0.1667  plane waves:     425
 k-point 108 :   0.3889 0.2222 0.1667  plane waves:     425
 k-point 109 :   0.2778 0.2778 0.1667  plane waves:     422
 k-point 110 :   0.3333 0.2778 0.1667  plane waves:     428
 k-point 111 :   0.3333 0.3333 0.1667  plane waves:     423
 k-point 112 :   0.0000 0.0000 0.2500  plane waves:     404
 k-point 113 :   0.0556-0.0000 0.2500  plane waves:     415
 k-point 114 :   0.1111-0.0000 0.2500  plane waves:     424
 k-point 115 :   0.1667-0.0000 0.2500  plane waves:     421
 k-point 116 :   0.2222 0.0000 0.2500  plane waves:     423
 k-point 117 :   0.2778 0.0000 0.2500  plane waves:     424
 k-point 118 :   0.3333 0.0000 0.2500  plane waves:     425
 k-point 119 :   0.3889-0.0000 0.2500  plane waves:     424
 k-point 120 :   0.4444 0.0000 0.2500  plane waves:     428
 k-point 121 :   0.5000 0.0000 0.2500  plane waves:     432
 k-point 122 :   0.0556 0.0556 0.2500  plane waves:     417
 k-point 123 :   0.1111 0.0556 0.2500  plane waves:     423
 k-point 124 :   0.1667 0.0556 0.2500  plane waves:     419
 k-point 125 :   0.2222 0.0556 0.2500  plane waves:     422
 k-point 126 :   0.2778 0.0556 0.2500  plane waves:     422
 k-point 127 :   0.3333 0.0556 0.2500  plane waves:     427
 k-point 128 :   0.3889 0.0556 0.2500  plane waves:     425
 k-point 129 :   0.4444 0.0556 0.2500  plane waves:     430
 k-point 130 :   0.1111 0.1111 0.2500  plane waves:     422
 k-point 131 :   0.1667 0.1111 0.2500  plane waves:     424
 k-point 132 :   0.2222 0.1111 0.2500  plane waves:     422
 k-point 133 :   0.2778 0.1111 0.2500  plane waves:     424
 k-point 134 :   0.3333 0.1111 0.2500  plane waves:     422
 k-point 135 :   0.3889 0.1111 0.2500  plane waves:     425
 k-point 136 :   0.4444 0.1111 0.2500  plane waves:     427
 k-point 137 :   0.1667 0.1667 0.2500  plane waves:     418
 k-point 138 :   0.2222 0.1667 0.2500  plane waves:     422
 k-point 139 :   0.2778 0.1667 0.2500  plane waves:     421
 k-point 140 :   0.3333 0.1667 0.2500  plane waves:     421
 k-point 141 :   0.3889 0.1667 0.2500  plane waves:     427
 k-point 142 :   0.2222 0.2222 0.2500  plane waves:     422
 k-point 143 :   0.2778 0.2222 0.2500  plane waves:     420
 k-point 144 :   0.3333 0.2222 0.2500  plane waves:     424
 k-point 145 :   0.3889 0.2222 0.2500  plane waves:     425
 k-point 146 :   0.2778 0.2778 0.2500  plane waves:     427
 k-point 147 :   0.3333 0.2778 0.2500  plane waves:     425
 k-point 148 :   0.3333 0.3333 0.2500  plane waves:     426
 k-point 149 :   0.0000 0.0000 0.3333  plane waves:     410
 k-point 150 :   0.0556-0.0000 0.3333  plane waves:     418
 k-point 151 :   0.1111-0.0000 0.3333  plane waves:     426
 k-point 152 :   0.1667-0.0000 0.3333  plane waves:     421
 k-point 153 :   0.2222 0.0000 0.3333  plane waves:     424
 k-point 154 :   0.2778 0.0000 0.3333  plane waves:     422
 k-point 155 :   0.3333 0.0000 0.3333  plane waves:     425
 k-point 156 :   0.3889-0.0000 0.3333  plane waves:     426
 k-point 157 :   0.4444 0.0000 0.3333  plane waves:     424
 k-point 158 :   0.5000 0.0000 0.3333  plane waves:     428
 k-point 159 :   0.0556 0.0556 0.3333  plane waves:     423
 k-point 160 :   0.1111 0.0556 0.3333  plane waves:     422
 k-point 161 :   0.1667 0.0556 0.3333  plane waves:     421
 k-point 162 :   0.2222 0.0556 0.3333  plane waves:     425
 k-point 163 :   0.2778 0.0556 0.3333  plane waves:     426
 k-point 164 :   0.3333 0.0556 0.3333  plane waves:     424
 k-point 165 :   0.3889 0.0556 0.3333  plane waves:     425
 k-point 166 :   0.4444 0.0556 0.3333  plane waves:     426
 k-point 167 :   0.1111 0.1111 0.3333  plane waves:     426
[...]

 k-point   251 :       0.3333    0.1667    0.5000
  band No.  band energies     occupation 
      1       6.8694      1.00000
      2       6.8694      1.00000
      3       8.3213      1.00000
      4       8.3213      1.00000
      5       9.2381      1.00000
      6       9.2381      1.00000
      7      10.4371      0.99532
      8      10.4371      0.99532
      9      11.7576      0.00000
     10      11.7576      0.00000
     11      13.8208      0.00000
     12      13.8208      0.00000
     13      20.3428      0.00000
     14      20.3428      0.00000
     15      24.7211      0.00000
     16      24.7211      0.00000

 k-point   252 :       0.3889    0.1667    0.5000
  band No.  band energies     occupation 
      1       6.9317      1.00000
      2       6.9317      1.00000
      3       8.3083      1.00000
      4       8.3083      1.00000
      5       9.2915      1.00000
      6       9.2915      1.00000
      7      10.5847      0.05762
      8      10.5847      0.05762
      9      11.7025      0.00000
     10      11.7025      0.00000
     11      14.4785      0.00000
     12      14.4785      0.00000
     13      19.2123      0.00000
     14      19.2123      0.00000
     15      24.5019      0.00000
     16      24.5019      0.00000

 k-point   253 :       0.2222    0.2222    0.5000
  band No.  band energies     occupation 
      1       6.7645      1.00000
      2       6.7645      1.00000
      3       8.3981      1.00000
      4       8.3981      1.00000
      5       8.9407      1.00000
      6       8.9407      1.00000
      7      10.2508      1.00000
      8      10.2508      1.00000
      9      11.7977      0.00000
     10      11.7977      0.00000
     11      13.0852      0.00000
     12      13.0852      0.00000
     13      23.0216      0.00000
     14      23.0216      0.00000
     15      23.9867      0.00000
     16      23.9867      0.00000

 k-point   254 :       0.2778    0.2222    0.5000
  band No.  band energies     occupation 
      1       7.0430      1.00000
      2       7.0430      1.00000
      3       8.3929      1.00000
      4       8.3929      1.00000
      5       8.9245      1.00000
      6       8.9245      1.00000
      7      10.2818      1.00000
      8      10.2818      1.00000
      9      11.7792      0.00000
     10      11.7792      0.00000
     11      14.0131      0.00000
     12      14.0131      0.00000
     13      21.3700      0.00000
     14      21.3700      0.00000
     15      23.2031      0.00000
     16      23.2031      0.00000

 k-point   255 :       0.3333    0.2222    0.5000
  band No.  band energies     occupation 
      1       7.1999      1.00000
      2       7.1999      1.00000
      3       8.3847      1.00000
      4       8.3847      1.00000
      5       8.9117      1.00000
      6       8.9117      1.00000
      7      10.3866      0.99997
      8      10.3866      0.99997
      9      11.7122      0.00000
     10      11.7122      0.00000
     11      14.9834      0.00000
     12      14.9834      0.00000
     13      19.8279      0.00000
     14      19.8279      0.00000
     15      22.8518      0.00000
     16      22.8518      0.00000

 k-point   256 :       0.3889    0.2222    0.5000
  band No.  band energies     occupation 
      1       7.2489      1.00000
      2       7.2489      1.00000
      3       8.3841      1.00000
      4       8.3841      1.00000
      5       8.9001      1.00000
      6       8.9001      1.00000
      7      10.4505      0.98684
      8      10.4505      0.98684
      9      11.6722      0.00000
     10      11.6722      0.00000
     11      15.5057      0.00000
     12      15.5057      0.00000
     13      19.1066      0.00000
     14      19.1066      0.00000
     15      22.7392      0.00000
     16      22.7392      0.00000

 k-point   257 :       0.2778    0.2778    0.5000
  band No.  band energies     occupation 
      1       7.3427      1.00000
      2       7.3427      1.00000
      3       8.3609      1.00000
      4       8.3609      1.00000
      5       8.7940      1.00000
      6       8.7940      1.00000
      7      10.3005      1.00000
      8      10.3005      1.00000
      9      11.7172      0.00000
     10      11.7172      0.00000
     11      15.1590      0.00000
     12      15.1590      0.00000
     13      20.4169      0.00000
     14      20.4169      0.00000
     15      21.9128      0.00000
     16      21.9128      0.00000

 k-point   258 :       0.3333    0.2778    0.5000
  band No.  band energies     occupation 
      1       7.5531      1.00000
      2       7.5531      1.00000
      3       8.2540      1.00000
      4       8.2540      1.00000
      5       8.7562      1.00000
      6       8.7562      1.00000
      7      10.3428      1.00000
      8      10.3428      1.00000
      9      11.6550      0.00000
     10      11.6550      0.00000
     11      16.2220      0.00000
     12      16.2220      0.00000
     13      19.2398      0.00000
     14      19.2398      0.00000
     15      21.4754      0.00000
     16      21.4754      0.00000

 k-point   259 :       0.3333    0.3333    0.5000
  band No.  band energies     occupation 
      1       7.8833      1.00000
      2       7.8833      1.00000
      3       7.9555      1.00000
      4       7.9555      1.00000
      5       8.7533      1.00000
      6       8.7533      1.00000
      7      10.3256      1.00000
      8      10.3256      1.00000
      9      11.6295      0.00000
     10      11.6295      0.00000
     11      17.0093      0.00000
     12      17.0093      0.00000
     13      18.6977      0.00000
     14      18.6977      0.00000
     15      20.9892      0.00000
     16      20.9892      0.00000


--------------------------------------------------------------------------------------------------------


 soft charge-density along one line, spin component           1
         0         1         2         3         4         5         6         7         8         9
 total charge-density along one line
 
 soft charge-density along one line, spin component           2
         0         1         2         3         4         5         6         7         8         9
 total charge-density along one line
 
 pseudopotential strength for first ion, spin component:           1
 -0.433  -0.000  -0.000   0.000   0.000  -1.074  -0.000  -0.000
 -0.000  -0.437   0.000  -0.000  -0.000  -0.000  -1.078   0.000
 -0.000   0.000  -0.433  -0.000   0.000  -0.000   0.000  -1.073
  0.000  -0.000  -0.000  -0.437  -0.000   0.000  -0.000  -0.000
  0.000  -0.000   0.000  -0.000  -0.433   0.000  -0.000   0.000
 -1.074  -0.000  -0.000   0.000   0.000  -1.655  -0.000  -0.000
 -0.000  -1.078   0.000  -0.000  -0.000  -0.000  -1.659   0.000
 -0.000   0.000  -1.073  -0.000   0.000  -0.000   0.000  -1.655
  0.000  -0.000  -0.000  -1.078  -0.000   0.000  -0.000  -0.000
  0.000  -0.000   0.000  -0.000  -1.074   0.000  -0.000   0.000
 -0.000  -0.000   0.000   0.000   0.000  -0.000  -0.000   0.000
 -0.000  -0.000   0.001   0.000   0.000  -0.000  -0.000   0.001
 -0.000  -0.000  -0.000  -0.000   0.001  -0.000  -0.000  -0.000
 -0.000   0.000  -0.000  -0.000   0.000  -0.000   0.000  -0.000
  0.001  -0.000   0.000   0.000  -0.000   0.001  -0.000   0.000
 -0.000  -0.000  -0.000  -0.000   0.001  -0.000  -0.000  -0.000
 -0.000   0.000  -0.000  -0.000   0.000  -0.000   0.000  -0.000
  0.001  -0.000   0.000  -0.000  -0.000   0.001  -0.000   0.000
 pseudopotential strength for first ion, spin component:           2
  0.885  -0.000  -0.000   0.000   0.000   0.189  -0.000  -0.000
 -0.000   0.900   0.000  -0.000  -0.000  -0.000   0.203   0.000
 -0.000   0.000   0.877  -0.000   0.000  -0.000   0.000   0.181
  0.000  -0.000  -0.000   0.900  -0.000   0.000  -0.000  -0.000
  0.000  -0.000   0.000  -0.000   0.885   0.000  -0.000   0.000
  0.189  -0.000  -0.000   0.000   0.000  -0.446  -0.000  -0.000
 -0.000   0.203   0.000  -0.000  -0.000  -0.000  -0.432   0.000
 -0.000   0.000   0.181  -0.000   0.000  -0.000   0.000  -0.453
  0.000  -0.000  -0.000   0.203  -0.000   0.000  -0.000  -0.000
  0.000  -0.000   0.000  -0.000   0.189   0.000  -0.000   0.000
 -0.000  -0.000  -0.001   0.000   0.000  -0.000  -0.000  -0.001
 -0.000  -0.000  -0.001   0.000   0.000  -0.000  -0.000  -0.001
 -0.000  -0.000  -0.000  -0.000   0.000  -0.000  -0.000  -0.000
 -0.000   0.000  -0.000  -0.000   0.000  -0.000   0.000  -0.000
  0.000  -0.000   0.000   0.000  -0.000   0.000  -0.000   0.000
 -0.000  -0.000  -0.000  -0.000   0.000  -0.000  -0.000  -0.000
 -0.000   0.000  -0.000  -0.000   0.000  -0.000   0.000  -0.000
  0.000  -0.000   0.000  -0.000  -0.000   0.000  -0.000   0.000
 total augmentation occupancy for first ion, spin component:           1
  2.914   0.000   0.000   0.000   0.000  -1.610   0.000  -0.000  -0.000   0.000  -0.000  -0.000   0.000  -0.000  -0.045   0.000
  0.000   3.088   0.000   0.000   0.000   0.000  -1.697   0.000   0.000  -0.000   0.000   0.000  -0.000  -0.000   0.000   0.000
 -0.000   0.000   2.767   0.000   0.000   0.000  -0.000  -1.552   0.000  -0.000  -0.006   0.002  -0.000   0.000   0.000   0.000
  0.000   0.000  -0.000   3.088  -0.000   0.000   0.000   0.000  -1.697   0.000  -0.000   0.000   0.000   0.000   0.000   0.000
 -0.000   0.000   0.000  -0.000   2.914  -0.000   0.000  -0.000  -0.000  -1.610   0.000  -0.000  -0.045   0.000   0.000   0.003
 -1.610   0.000   0.000   0.000  -0.000   1.858  -0.000   0.000  -0.000   0.000   0.000   0.000   0.000   0.000   0.061  -0.000
  0.000  -1.697  -0.000   0.000  -0.000  -0.000   1.862  -0.000   0.000   0.000   0.000   0.000   0.000  -0.000  -0.000  -0.000
  0.000   0.000  -1.552   0.000  -0.000   0.000   0.000   1.885   0.000   0.000   0.006  -0.002   0.000   0.000   0.000  -0.000
 -0.000   0.000   0.000  -1.697   0.000   0.000   0.000   0.000   1.862   0.000   0.000  -0.000   0.000  -0.000  -0.000  -0.000
 -0.000   0.000  -0.000  -0.000  -1.610   0.000   0.000   0.000   0.000   1.858  -0.000   0.000   0.061   0.000  -0.000  -0.005
 -0.000  -0.000  -0.006   0.000   0.000  -0.000   0.000   0.006  -0.000  -0.000   2.356  -0.282  -0.000   0.000   0.000   0.000
 -0.000  -0.000   0.002  -0.000  -0.000   0.000  -0.000  -0.002   0.000   0.000  -0.282   0.042   0.000  -0.000   0.000   0.000
  0.000  -0.000   0.000  -0.000  -0.045   0.000   0.000  -0.000   0.000   0.061  -0.000   0.000   0.322   0.000   0.000  -0.031
 -0.000  -0.000  -0.000   0.000   0.000   0.000  -0.000   0.000   0.000   0.000   0.000   0.000  -0.000   0.328  -0.000  -0.000
 -0.045   0.000   0.000   0.000   0.000   0.061   0.000  -0.000   0.000   0.000   0.000   0.000  -0.000  -0.000   0.322   0.000
  0.000  -0.000  -0.000   0.000   0.003  -0.000  -0.000   0.000   0.000  -0.005  -0.000   0.000  -0.031   0.000   0.000   0.003
  0.000   0.000  -0.000  -0.000  -0.000   0.000  -0.000   0.000  -0.000   0.000  -0.000  -0.000  -0.000  -0.031   0.000   0.000
  0.003   0.000   0.000  -0.000   0.000  -0.005  -0.000   0.000  -0.000  -0.000   0.000   0.000  -0.000   0.000  -0.031   0.000
 total augmentation occupancy for first ion, spin component:           2
  2.047  -0.000   0.000   0.000   0.000  -0.976  -0.000   0.000  -0.000   0.000   0.000  -0.000  -0.000   0.000   0.001  -0.000
  0.000   2.126   0.000   0.000  -0.000   0.000  -1.027  -0.000  -0.000   0.000   0.000   0.000  -0.000  -0.000   0.000   0.000
  0.000   0.000   2.059  -0.000   0.000   0.000   0.000  -0.981  -0.000  -0.000   0.010   0.002  -0.000   0.000   0.000   0.000
  0.000   0.000   0.000   2.126   0.000   0.000   0.000  -0.000  -1.027   0.000   0.000   0.000   0.000   0.000   0.000   0.000
 -0.000  -0.000   0.000  -0.000   2.047   0.000   0.000  -0.000  -0.000  -0.976  -0.000   0.000   0.001   0.000  -0.000  -0.000
 -0.976   0.000   0.000  -0.000   0.000   0.269   0.000   0.000   0.000  -0.000   0.000   0.000  -0.000   0.000  -0.006  -0.000
  0.000  -1.027  -0.000   0.000   0.000   0.000   0.310   0.000   0.000   0.000   0.000   0.000  -0.000   0.000  -0.000   0.000
  0.000  -0.000  -0.981   0.000  -0.000   0.000  -0.000   0.260  -0.000   0.000  -0.008  -0.001  -0.000   0.000  -0.000   0.000
 -0.000   0.000  -0.000  -1.027  -0.000  -0.000   0.000  -0.000   0.310  -0.000   0.000   0.000  -0.000   0.000  -0.000   0.000
 -0.000  -0.000  -0.000  -0.000  -0.976   0.000   0.000   0.000   0.000   0.269   0.000  -0.000  -0.006  -0.000  -0.000   0.000
  0.000  -0.000   0.010   0.000   0.000   0.000  -0.000  -0.008   0.000   0.000  -0.304   0.092  -0.000  -0.000   0.000  -0.000
 -0.000   0.000   0.002  -0.000  -0.000  -0.000  -0.000  -0.001  -0.000  -0.000   0.092  -0.016  -0.000  -0.000   0.000  -0.000
  0.000  -0.000   0.000   0.000   0.001   0.000   0.000  -0.000  -0.000  -0.006  -0.000  -0.000  -0.036  -0.000   0.000   0.005
  0.000  -0.000   0.000   0.000   0.000   0.000   0.000   0.000   0.000   0.000  -0.000   0.000  -0.000  -0.039   0.000   0.000
  0.001   0.000   0.000   0.000   0.000  -0.006   0.000  -0.000   0.000  -0.000  -0.000  -0.000  -0.000   0.000  -0.036  -0.000
 -0.000   0.000   0.000  -0.000  -0.000   0.000  -0.000  -0.000   0.000   0.000  -0.000   0.000   0.005   0.000   0.000  -0.001
 -0.000   0.000   0.000  -0.000  -0.000   0.000   0.000   0.000   0.000   0.000   0.000   0.000   0.000   0.005   0.000   0.000
 -0.000   0.000   0.000  -0.000  -0.000   0.000  -0.000   0.000   0.000  -0.000   0.000   0.000  -0.000   0.000   0.005   0.000


------------------------ aborting loop because EDIFF is reached ----------------------------------------





 total charge

# of ion       s       p       d       tot
------------------------------------------
    1        0.497   0.538   7.275   8.310
    2        0.497   0.538   7.275   8.310
--------------------------------------------------
tot          0.994   1.077  14.550  16.621



 magnetization (x)

# of ion       s       p       d       tot
------------------------------------------
    1       -0.015  -0.056   1.677   1.607
    2       -0.015  -0.056   1.677   1.607
--------------------------------------------------
tot         -0.031  -0.111   3.355   3.213
 
    CHARGE:  cpu time      0.0468: real time      0.0470
    FORLOC:  cpu time      0.0002: real time      0.0002
    FORNL :  cpu time      0.0583: real time      0.0585
    STRESS:  cpu time      0.1719: real time      0.1726
    FORCOR:  cpu time      0.0047: real time      0.0047
    FORHAR:  cpu time      0.0005: real time      0.0005
    MIXING:  cpu time      0.0003: real time      0.0003
    OFIELD:  cpu time      0.0000: real time      0.0000

  FORCE on cell =-STRESS in cart. coord.  units (eV):
  Direction    XX          YY          ZZ          XY          YZ          ZX
  --------------------------------------------------------------------------------------
  Alpha Z    79.61870    79.61870    79.61870
  Ewald    -511.71047  -511.71047  -508.18277     0.00000     0.00000    -0.00000
  Hartree    86.29978    86.29978    88.10096    -0.00000    -0.00000    -0.00000
  E(xc)     -92.65438   -92.65437   -92.65419    -0.00000     0.00000    -0.00000
  Local     -15.30714   -15.30704   -20.60145    -0.00000     0.00000     0.00000
  n-local   -14.99093    -3.34892    -9.18131     3.38118    -0.64651     2.47705
  augment   310.80982   310.80974   310.74934    -0.00000    -0.00000    -0.00000
  Kinetic   155.39235   149.86805   152.42089    -3.29810    -0.58093     0.54465
  Fock        0.00000     0.00000     0.00000     0.00000     0.00000     0.00000
  -------------------------------------------------------------------------------------
  Total       0.51660     0.51660     0.27017    -0.00000     0.00000    -0.00000
  in kB      38.89440    38.89440    20.34082    -0.00000     0.00000    -0.00000
  external pressure =       32.71 kB  Pullay stress =        0.00 kB


 VOLUME and BASIS-vectors are now :
 -----------------------------------------------------------------------------
  energy-cutoff  :      425.00
  volume of cell :       21.28
      direct lattice vectors                 reciprocal lattice vectors
     1.235999952 -2.140814714  0.000000000     0.404530760 -0.233555943  0.000000000
     1.235999952  2.140814714  0.000000000     0.404530760  0.233555943  0.000000000
     0.000000000  0.000000000  4.021144080     0.000000000  0.000000000  0.248685444

  length of vectors
     2.471999903  2.471999903  4.021144080     0.467111887  0.467111887  0.248685444


 FORCES acting on ions
    electron-ion (+dipol)            ewald-force                    non-local-force                 convergence-correction
 -----------------------------------------------------------------------------------------------
   -.438E-13 -.993E-07 -.888E-12   -.138E-13 0.239E-11 -.240E-13   0.173E-17 -.139E-16 -.434E-18   -.290E-13 -.237E-08 -.717E-13
   0.948E-12 0.994E-07 -.523E-11   0.114E-13 -.239E-11 0.240E-13   0.694E-17 0.208E-16 -.217E-17   0.171E-13 0.237E-08 0.558E-13
 -----------------------------------------------------------------------------------------------
   0.904E-12 0.345E-10 -.612E-11   -.234E-14 0.772E-15 0.000E+00   0.867E-17 0.694E-17 -.260E-17   -.119E-13 -.229E-13 -.158E-13
 
 
 POSITION                                       TOTAL-FORCE (eV/Angst)
 -----------------------------------------------------------------------------------
      1.23600      0.71360      1.00529        -0.000000     -0.000000     -0.000000
      1.23600     -0.71360      3.01586         0.000000      0.000000      0.000000
 -----------------------------------------------------------------------------------
    total drift:                                0.000000      0.000000     -0.000000


--------------------------------------------------------------------------------------------------------



  FREE ENERGIE OF THE ION-ELECTRON SYSTEM (eV)
  ---------------------------------------------------
  free  energy   TOTEN  =       -14.06814624 eV

  energy  without entropy=      -14.06593308  energy(sigma->0) =      -14.06703966
 


--------------------------------------------------------------------------------------------------------


    POTLOK:  cpu time      0.0098: real time      0.0098


--------------------------------------------------------------------------------------------------------


     LOOP+:  cpu time     23.5640: real time     23.7212
    4ORBIT:  cpu time      0.0000: real time      0.0000



 total charge

# of ion       s       p       d       tot
------------------------------------------
    1        0.497   0.538   7.275   8.310
    2        0.497   0.538   7.275   8.310
--------------------------------------------------
tot          0.994   1.077  14.550  16.621



 magnetization (x)

# of ion       s       p       d       tot
------------------------------------------
    1       -0.015  -0.056   1.677   1.607
    2       -0.015  -0.056   1.677   1.607
--------------------------------------------------
tot         -0.031  -0.111   3.355   3.213
 

 total amount of memory used by VASP MPI-rank0    36931. kBytes
=======================================================================

   base      :      30000. kBytes
   nonl-proj :       2986. kBytes
   fftplans  :        178. kBytes
   grid      :        421. kBytes
   one-center:         31. kBytes
   wavefun   :       3315. kBytes
 
  
  
 General timing and accounting informations for this job:
 ========================================================
  
                  Total CPU time used (sec):       24.854
                            User time (sec):       24.331
                          System time (sec):        0.522
                         Elapsed time (sec):       26.213
  
                   Maximum memory used (kb):      230368.
                   Average memory used (kb):          N/A
  
                          Minor page faults:        38668
                          Major page faults:           81
                 Voluntary context switches:         2334
