PROCAR lm decomposed
# of k-points:  259         # of bands:   16         # of ions:    2

 k-point     1 :    0.00000000 0.00000000 0.00000000     weight = 0.00025720

band     1 # energy    1.51369868 # occ.  1.00000000
 
ion      s     py     pz     px    dxy    dyz    dz2    dxz  x2-y2    tot
    1  0.371  0.000  0.000  0.000  0.000  0.000  0.000  0.000  0.000  0.371
    2  0.371  0.000  0.000  0.000  0.000  0.000  0.000  0.000  0.000  0.371
tot    0.741  0.000  0.000  0.000  0.000  0.000  0.000  0.000  0.000  0.741
 
band     2 # energy    5.31105811 # occ.  1.00000000
 
ion      s     py     pz     px    dxy    dyz    dz2    dxz  x2-y2    tot
    1  0.084  0.000  0.000  0.000  0.000  0.000  0.367  0.000  0.000  0.451
    2  0.084  0.000  0.000  0.000  0.000  0.000  0.367  0.000  0.000  0.451
tot    0.168  0.000  0.000  0.000  0.000  0.000  0.734  0.000  0.000  0.901
 
band     3 # energy    7.86903893 # occ.  1.00000000
 
ion      s     py     pz     px    dxy    dyz    dz2    dxz  x2-y2    tot
    1  0.000  0.000  0.000  0.000  0.000  0.000  0.487  0.000  0.000  0.487
    2  0.000  0.000  0.000  0.000  0.000  0.000  0.487  0.000  0.000  0.487
tot    0.000  0.000  0.000  0.000  0.000  0.000  0.973  0.000  0.000  0.973
 
band     4 # energy    7.92315656 # occ.  1.00000000
 
ion      s     py     pz     px    dxy    dyz    dz2    dxz  x2-y2    tot
    1  0.000  0.000  0.000  0.001  0.483  0.000  0.000  0.000  0.000  0.484
    2  0.000  0.000  0.000  0.001  0.483  0.000  0.000  0.000  0.000  0.484
tot    0.000  0.000  0.000  0.001  0.966  0.000  0.000  0.000  0.000  0.968
 
band     5 # energy    7.92315677 # occ.  1.00000000
 
ion      s     py     pz     px    dxy    dyz    dz2    dxz  x2-y2    tot
    1  0.000  0.001  0.000  0.000  0.000  0.000  0.000  0.000  0.483  0.484
    2  0.000  0.001  0.000  0.000  0.000  0.000  0.000  0.000  0.483  0.484
tot    0.000  0.001  0.000  0.000  0.000  0.000  0.000  0.000  0.966  0.968
 
band     6 # energy    8.23857737 # occ.  1.00000000
 
ion      s     py     pz     px    dxy    dyz    dz2    dxz  x2-y2    tot
    1  0.000  0.000  0.000  0.001  0.487  0.000  0.000  0.000  0.000  0.488
    2  0.000  0.000  0.000  0.001  0.487  0.000  0.000  0.000  0.000  0.488
tot    0.000  0.000  0.000  0.001  0.975  0.000  0.000  0.000  0.000  0.976
 
band     7 # energy    8.23857754 # occ.  1.00000000
 
ion      s     py     pz     px    dxy    dyz    dz2    dxz  x2-y2    tot
    1  0.000  0.001  0.000  0.000  0.000  0.000  0.000  0.000  0.487  0.488
    2  0.000  0.001  0.000  0.000  0.000  0.000  0.000  0.000  0.487  0.488
tot    0.000  0.001  0.000  0.000  0.000  0.000  0.000  0.000  0.975  0.976
 
band     8 # energy    8.62293628 # occ.  1.00000000
 
ion      s     py     pz     px    dxy    dyz    dz2    dxz  x2-y2    tot
    1  0.000  0.000  0.000  0.000  0.000  0.000  0.000  0.490  0.000  0.490
    2  0.000  0.000  0.000  0.000  0.000  0.000  0.000  0.490  0.000  0.490
tot    0.000  0.000  0.000  0.000  0.000  0.000  0.000  0.980  0.000  0.980
 
band     9 # energy    8.62293632 # occ.  1.00000000
 
ion      s     py     pz     px    dxy    dyz    dz2    dxz  x2-y2    tot
    1  0.000  0.000  0.000  0.000  0.000  0.490  0.000  0.000  0.000  0.490
    2  0.000  0.000  0.000  0.000  0.000  0.490  0.000  0.000  0.000  0.490
tot    0.000  0.000  0.000  0.000  0.000  0.980  0.000  0.000  0.000  0.980
 
band    10 # energy    9.73257825 # occ.  1.00000000
 
ion      s     py     pz     px    dxy    dyz    dz2    dxz  x2-y2    tot
    1  0.000  0.000  0.000  0.000  0.000  0.000  0.000  0.493  0.000  0.493
    2  0.000  0.000  0.000  0.000  0.000  0.000  0.000  0.493  0.000  0.493
tot    0.000  0.000  0.000  0.000  0.000  0.000  0.000  0.985  0.000  0.985
 
band    11 # energy    9.73257834 # occ.  1.00000000
 
ion      s     py     pz     px    dxy    dyz    dz2    dxz  x2-y2    tot
    1  0.000  0.000  0.000  0.000  0.000  0.493  0.000  0.000  0.000  0.493
    2  0.000  0.000  0.000  0.000  0.000  0.493  0.000  0.000  0.000  0.493
tot    0.000  0.000  0.000  0.000  0.000  0.985  0.000  0.000  0.000  0.985
 
band    12 # energy   10.38723008 # occ.  0.99996965
 
ion      s     py     pz     px    dxy    dyz    dz2    dxz  x2-y2    tot
    1  0.000  0.000  0.352  0.000  0.000  0.000  0.000  0.000  0.000  0.352
    2  0.000  0.000  0.352  0.000  0.000  0.000  0.000  0.000  0.000  0.352
tot    0.000  0.000  0.703  0.000  0.000  0.000  0.000  0.000  0.000  0.703
 
band    13 # energy   16.97777918 # occ.  0.00000000
 
ion      s     py     pz     px    dxy    dyz    dz2    dxz  x2-y2    tot
    1  0.227  0.000  0.000  0.000  0.000  0.000  0.232  0.000  0.000  0.459
    2  0.227  0.000  0.000  0.000  0.000  0.000  0.232  0.000  0.000  0.459
tot    0.454  0.000  0.000  0.000  0.000  0.000  0.464  0.000  0.000  0.918
 
band    14 # energy   32.76003495 # occ.  0.00000000
 
ion      s     py     pz     px    dxy    dyz    dz2    dxz  x2-y2    tot
    1  0.007  0.000  0.000  0.000  0.000  0.000  0.032  0.000  0.000  0.038
    2  0.007  0.000  0.000  0.000  0.000  0.000  0.032  0.000  0.000  0.038
tot    0.013  0.000  0.000  0.000  0.000  0.000  0.064  0.000  0.000  0.077
 
band    15 # energy   35.56684870 # occ.  0.00000000
 
ion      s     py     pz     px    dxy    dyz    dz2    dxz  x2-y2    tot
    1  0.000  0.183  0.000  0.084  0.039  0.000  0.000  0.000  0.085  0.392
    2  0.000  0.183  0.000  0.084  0.039  0.000  0.000  0.000  0.085  0.392
tot    0.000  0.366  0.000  0.168  0.078  0.000  0.000  0.000  0.171  0.784
 
band    16 # energy   35.56716090 # occ.  0.00000000
 
ion      s     py     pz     px    dxy    dyz    dz2    dxz  x2-y2    tot
    1  0.000  0.084  0.000  0.183  0.085  0.000  0.000  0.000  0.039  0.392
    2  0.000  0.084  0.000  0.183  0.085  0.000  0.000  0.000  0.039  0.392
tot    0.000  0.168  0.000  0.366  0.170  0.000  0.000  0.000  0.079  0.783
 

 k-point     2 :    0.05555556-0.00000000 0.00000000     weight = 0.00154321

band     1 # energy    1.62438711 # occ.  1.00000000
 
ion      s     py     pz     px    dxy    dyz    dz2    dxz  x2-y2    tot
    1  0.367  0.001  0.000  0.003  0.000  0.000  0.000  0.000  0.000  0.371
    2  0.367  0.001  0.000  0.003  0.000  0.000  0.000  0.000  0.000  0.371
tot    0.733  0.002  0.000  0.006  0.000  0.000  0.000  0.000  0.000  0.741
 
band     2 # energy    5.37916477 # occ.  1.00000000
 
ion      s     py     pz     px    dxy    dyz    dz2    dxz  x2-y2    tot
    1  0.080  0.001  0.000  0.002  0.001  0.000  0.367  0.000  0.000  0.451
    2  0.080  0.001  0.000  0.002  0.001  0.000  0.367  0.000  0.000  0.451
tot    0.161  0.001  0.000  0.004  0.001  0.000  0.735  0.000  0.000  0.902
 
band     3 # energy    7.75302141 # occ.  1.00000000
 
ion      s     py     pz     px    dxy    dyz    dz2    dxz  x2-y2    tot
    1  0.000  0.000  0.000  0.001  0.191  0.000  0.228  0.000  0.064  0.484
    2  0.000  0.000  0.000  0.001  0.191  0.000  0.228  0.000  0.064  0.484
tot    0.000  0.000  0.000  0.001  0.382  0.000  0.456  0.000  0.127  0.967
 
band     4 # energy    7.97551057 # occ.  1.00000000
 
ion      s     py     pz     px    dxy    dyz    dz2    dxz  x2-y2    tot
    1  0.000  0.001  0.000  0.000  0.121  0.000  0.000  0.000  0.362  0.484
    2  0.000  0.001  0.000  0.000  0.121  0.000  0.000  0.000  0.362  0.484
tot    0.000  0.001  0.000  0.000  0.242  0.000  0.000  0.000  0.725  0.968
 
band     5 # energy    8.02442230 # occ.  1.00000000
 
ion      s     py     pz     px    dxy    dyz    dz2    dxz  x2-y2    tot
    1  0.000  0.000  0.000  0.000  0.171  0.000  0.257  0.000  0.057  0.486
    2  0.000  0.000  0.000  0.000  0.171  0.000  0.257  0.000  0.057  0.486
tot    0.000  0.000  0.000  0.000  0.343  0.000  0.515  0.000  0.114  0.972
 
band     6 # energy    8.21202373 # occ.  1.00000000
 
ion      s     py     pz     px    dxy    dyz    dz2    dxz  x2-y2    tot
    1  0.001  0.000  0.000  0.001  0.363  0.000  0.002  0.000  0.121  0.488
    2  0.001  0.000  0.000  0.001  0.363  0.000  0.002  0.000  0.121  0.488
tot    0.001  0.000  0.000  0.001  0.726  0.000  0.004  0.000  0.242  0.975
 
band     7 # energy    8.28498547 # occ.  1.00000000
 
ion      s     py     pz     px    dxy    dyz    dz2    dxz  x2-y2    tot
    1  0.000  0.001  0.000  0.000  0.122  0.000  0.000  0.000  0.365  0.488
    2  0.000  0.001  0.000  0.000  0.122  0.000  0.000  0.000  0.365  0.488
tot    0.000  0.001  0.000  0.000  0.244  0.000  0.000  0.000  0.731  0.976
 
band     8 # energy    8.56463793 # occ.  1.00000000
 
ion      s     py     pz     px    dxy    dyz    dz2    dxz  x2-y2    tot
    1  0.000  0.000  0.002  0.000  0.000  0.122  0.000  0.365  0.000  0.488
    2  0.000  0.000  0.002  0.000  0.000  0.122  0.000  0.365  0.000  0.488
tot    0.000  0.000  0.004  0.000  0.000  0.243  0.000  0.729  0.000  0.976
 
band     9 # energy    8.58953395 # occ.  1.00000000
 
ion      s     py     pz     px    dxy    dyz    dz2    dxz  x2-y2    tot
    1  0.000  0.000  0.000  0.000  0.000  0.367  0.000  0.122  0.000  0.490
    2  0.000  0.000  0.000  0.000  0.000  0.367  0.000  0.122  0.000  0.490
tot    0.000  0.000  0.000  0.000  0.000  0.734  0.000  0.245  0.000  0.979
 
band    10 # energy    9.20715793 # occ.  1.00000000
 
ion      s     py     pz     px    dxy    dyz    dz2    dxz  x2-y2    tot
    1  0.000  0.000  0.096  0.000  0.000  0.089  0.000  0.266  0.000  0.450
    2  0.000  0.000  0.096  0.000  0.000  0.089  0.000  0.266  0.000  0.450
tot    0.000  0.000  0.192  0.000  0.000  0.177  0.000  0.531  0.000  0.900
 
band    11 # energy    9.74678934 # occ.  1.00000000
 
ion      s     py     pz     px    dxy    dyz    dz2    dxz  x2-y2    tot
    1  0.000  0.000  0.000  0.000  0.000  0.370  0.000  0.123  0.000  0.493
    2  0.000  0.000  0.000  0.000  0.000  0.370  0.000  0.123  0.000  0.493
tot    0.000  0.000  0.000  0.000  0.000  0.739  0.000  0.246  0.000  0.986
 
band    12 # energy   11.04360411 # occ.  0.00000000
 
ion      s     py     pz     px    dxy    dyz    dz2    dxz  x2-y2    tot
    1  0.000  0.000  0.252  0.000  0.000  0.036  0.000  0.108  0.000  0.396
    2  0.000  0.000  0.252  0.000  0.000  0.036  0.000  0.108  0.000  0.396
tot    0.000  0.000  0.504  0.000  0.000  0.072  0.000  0.216  0.000  0.792
 
band    13 # energy   16.99573411 # occ.  0.00000000
 
ion      s     py     pz     px    dxy    dyz    dz2    dxz  x2-y2    tot
    1  0.225  0.001  0.000  0.002  0.000  0.000  0.229  0.000  0.000  0.458
    2  0.225  0.001  0.000  0.002  0.000  0.000  0.229  0.000  0.000  0.458
tot    0.451  0.002  0.000  0.005  0.000  0.000  0.459  0.000  0.000  0.916
 
band    14 # energy   31.99425087 # occ.  0.00000000
 
ion      s     py     pz     px    dxy    dyz    dz2    dxz  x2-y2    tot
    1  0.008  0.010  0.000  0.030  0.075  0.000  0.027  0.000  0.025  0.175
    2  0.008  0.010  0.000  0.030  0.075  0.000  0.027  0.000  0.025  0.175
tot    0.017  0.020  0.000  0.060  0.149  0.000  0.054  0.000  0.050  0.349
 
band    15 # energy   33.85918974 # occ.  0.00000000
 
ion      s     py     pz     px    dxy    dyz    dz2    dxz  x2-y2    tot
    1  0.018  0.035  0.000  0.104  0.070  0.000  0.033  0.000  0.023  0.284
    2  0.018  0.035  0.000  0.104  0.070  0.000  0.033  0.000  0.023  0.284
tot    0.036  0.069  0.000  0.208  0.141  0.000  0.066  0.000  0.047  0.567
 
band    16 # energy   34.24891573 # occ.  0.00000000
 
ion      s     py     pz     px    dxy    dyz    dz2    dxz  x2-y2    tot
    1  0.000  0.172  0.000  0.057  0.045  0.000  0.000  0.000  0.134  0.408
    2  0.000  0.172  0.000  0.057  0.045  0.000  0.000  0.000  0.134  0.408
tot    0.000  0.343  0.000  0.114  0.089  0.000  0.000  0.000  0.268  0.816
 

 k-point     3 :    0.11111111-0.00000000 0.00000000     weight = 0.00154321

band     1 # energy    1.95135176 # occ.  1.00000000
 
ion      s     py     pz     px    dxy    dyz    dz2    dxz  x2-y2    tot
    1  0.355  0.004  0.000  0.011  0.000  0.000  0.000  0.000  0.000  0.371
    2  0.355  0.004  0.000  0.011  0.000  0.000  0.000  0.000  0.000  0.371
tot    0.711  0.008  0.000  0.023  0.001  0.000  0.000  0.000  0.000  0.742
 
band     2 # energy    5.56930713 # occ.  1.00000000
 
ion      s     py     pz     px    dxy    dyz    dz2    dxz  x2-y2    tot
    1  0.070  0.002  0.000  0.007  0.004  0.000  0.367  0.000  0.001  0.452
    2  0.070  0.002  0.000  0.007  0.004  0.000  0.367  0.000  0.001  0.452
tot    0.140  0.004  0.000  0.013  0.009  0.000  0.734  0.000  0.003  0.905
 
band     3 # energy    7.58336084 # occ.  1.00000000
 
ion      s     py     pz     px    dxy    dyz    dz2    dxz  x2-y2    tot
    1  0.000  0.001  0.000  0.002  0.243  0.000  0.154  0.000  0.081  0.480
    2  0.000  0.001  0.000  0.002  0.243  0.000  0.154  0.000  0.081  0.480
tot    0.000  0.001  0.000  0.003  0.487  0.000  0.307  0.000  0.162  0.960
 
band     4 # energy    8.09725301 # occ.  1.00000000
 
ion      s     py     pz     px    dxy    dyz    dz2    dxz  x2-y2    tot
    1  0.001  0.000  0.000  0.001  0.266  0.000  0.128  0.000  0.089  0.486
    2  0.001  0.000  0.000  0.001  0.266  0.000  0.128  0.000  0.089  0.486
tot    0.002  0.001  0.000  0.002  0.533  0.000  0.257  0.000  0.178  0.972
 
band     5 # energy    8.12904061 # occ.  1.00000000
 
ion      s     py     pz     px    dxy    dyz    dz2    dxz  x2-y2    tot
    1  0.000  0.001  0.000  0.000  0.121  0.000  0.000  0.000  0.362  0.484
    2  0.000  0.001  0.000  0.000  0.121  0.000  0.000  0.000  0.362  0.484
tot    0.000  0.002  0.000  0.001  0.241  0.000  0.000  0.000  0.724  0.968
 
band     6 # energy    8.20803418 # occ.  1.00000000
 
ion      s     py     pz     px    dxy    dyz    dz2    dxz  x2-y2    tot
    1  0.001  0.000  0.000  0.000  0.207  0.000  0.208  0.000  0.069  0.486
    2  0.001  0.000  0.000  0.000  0.207  0.000  0.208  0.000  0.069  0.486
tot    0.002  0.000  0.000  0.001  0.415  0.000  0.417  0.000  0.138  0.973
 
band     7 # energy    8.25503414 # occ.  1.00000000
 
ion      s     py     pz     px    dxy    dyz    dz2    dxz  x2-y2    tot
    1  0.000  0.000  0.045  0.000  0.000  0.105  0.000  0.314  0.000  0.465
    2  0.000  0.000  0.045  0.000  0.000  0.105  0.000  0.314  0.000  0.465
tot    0.000  0.000  0.091  0.000  0.000  0.210  0.000  0.629  0.000  0.929
 
band     8 # energy    8.42072426 # occ.  1.00000000
 
ion      s     py     pz     px    dxy    dyz    dz2    dxz  x2-y2    tot
    1  0.000  0.001  0.000  0.000  0.122  0.000  0.000  0.000  0.365  0.488
    2  0.000  0.001  0.000  0.000  0.122  0.000  0.000  0.000  0.365  0.488
tot    0.000  0.002  0.000  0.001  0.243  0.000  0.000  0.000  0.730  0.977
 
band     9 # energy    8.49859377 # occ.  1.00000000
 
ion      s     py     pz     px    dxy    dyz    dz2    dxz  x2-y2    tot
    1  0.000  0.000  0.000  0.000  0.000  0.366  0.000  0.122  0.000  0.489
    2  0.000  0.000  0.000  0.000  0.000  0.366  0.000  0.122  0.000  0.489
tot    0.000  0.000  0.000  0.000  0.000  0.733  0.000  0.244  0.000  0.977
 
band    10 # energy    8.74133134 # occ.  1.00000000
 
ion      s     py     pz     px    dxy    dyz    dz2    dxz  x2-y2    tot
    1  0.000  0.000  0.064  0.000  0.000  0.100  0.000  0.300  0.000  0.463
    2  0.000  0.000  0.064  0.000  0.000  0.100  0.000  0.300  0.000  0.463
tot    0.000  0.000  0.127  0.000  0.000  0.200  0.000  0.599  0.000  0.926
 
band    11 # energy    9.78275743 # occ.  1.00000000
 
ion      s     py     pz     px    dxy    dyz    dz2    dxz  x2-y2    tot
    1  0.000  0.000  0.000  0.000  0.000  0.370  0.000  0.123  0.000  0.494
    2  0.000  0.000  0.000  0.000  0.000  0.370  0.000  0.123  0.000  0.494
tot    0.000  0.000  0.000  0.000  0.000  0.741  0.000  0.247  0.000  0.987
 
band    12 # energy   12.03937818 # occ.  0.00000000
 
ion      s     py     pz     px    dxy    dyz    dz2    dxz  x2-y2    tot
    1  0.000  0.000  0.237  0.000  0.000  0.043  0.000  0.128  0.000  0.407
    2  0.000  0.000  0.237  0.000  0.000  0.043  0.000  0.128  0.000  0.407
tot    0.000  0.000  0.473  0.000  0.000  0.085  0.000  0.256  0.000  0.814
 
band    13 # energy   17.05419177 # occ.  0.00000000
 
ion      s     py     pz     px    dxy    dyz    dz2    dxz  x2-y2    tot
    1  0.220  0.003  0.000  0.010  0.000  0.000  0.221  0.000  0.000  0.455
    2  0.220  0.003  0.000  0.010  0.000  0.000  0.221  0.000  0.000  0.455
tot    0.440  0.007  0.000  0.020  0.001  0.000  0.442  0.000  0.000  0.910
 
band    14 # energy   29.73933686 # occ.  0.00000000
 
ion      s     py     pz     px    dxy    dyz    dz2    dxz  x2-y2    tot
    1  0.021  0.030  0.000  0.090  0.124  0.000  0.024  0.000  0.041  0.330
    2  0.021  0.030  0.000  0.090  0.124  0.000  0.024  0.000  0.041  0.330
tot    0.043  0.060  0.000  0.181  0.248  0.000  0.047  0.000  0.083  0.660
 
band    15 # energy   32.55526588 # occ.  0.00000000
 
ion      s     py     pz     px    dxy    dyz    dz2    dxz  x2-y2    tot
    1  0.000  0.178  0.000  0.059  0.041  0.000  0.000  0.000  0.122  0.400
    2  0.000  0.178  0.000  0.059  0.041  0.000  0.000  0.000  0.122  0.400
tot    0.000  0.356  0.000  0.119  0.081  0.000  0.000  0.000  0.243  0.799
 
band    16 # energy   32.96974981 # occ.  0.00000000
 
ion      s     py     pz     px    dxy    dyz    dz2    dxz  x2-y2    tot
    1  0.024  0.014  0.000  0.041  0.086  0.000  0.045  0.000  0.029  0.238
    2  0.024  0.014  0.000  0.041  0.086  0.000  0.045  0.000  0.029  0.238
tot    0.047  0.027  0.000  0.081  0.173  0.000  0.089  0.000  0.058  0.475
 

 k-point     4 :    0.16666667-0.00000000 0.00000000     weight = 0.00154321

band     1 # energy    2.47773001 # occ.  1.00000000
 
ion      s     py     pz     px    dxy    dyz    dz2    dxz  x2-y2    tot
    1  0.336  0.008  0.000  0.024  0.002  0.000  0.001  0.000  0.001  0.372
    2  0.336  0.008  0.000  0.024  0.002  0.000  0.001  0.000  0.001  0.372
tot    0.672  0.016  0.000  0.048  0.004  0.000  0.002  0.000  0.001  0.744
 
band     2 # energy    5.83159889 # occ.  1.00000000
 
ion      s     py     pz     px    dxy    dyz    dz2    dxz  x2-y2    tot
    1  0.054  0.004  0.000  0.012  0.019  0.000  0.358  0.000  0.006  0.455
    2  0.054  0.004  0.000  0.012  0.019  0.000  0.358  0.000  0.006  0.455
tot    0.109  0.008  0.000  0.025  0.039  0.000  0.716  0.000  0.013  0.910
 
band     3 # energy    7.39906432 # occ.  1.00000000
 
ion      s     py     pz     px    dxy    dyz    dz2    dxz  x2-y2    tot
    1  0.000  0.002  0.000  0.005  0.262  0.000  0.120  0.000  0.087  0.476
    2  0.000  0.002  0.000  0.005  0.262  0.000  0.120  0.000  0.087  0.476
tot    0.001  0.003  0.000  0.009  0.523  0.000  0.241  0.000  0.174  0.951
 
band     4 # energy    7.70482711 # occ.  1.00000000
 
ion      s     py     pz     px    dxy    dyz    dz2    dxz  x2-y2    tot
    1  0.000  0.000  0.067  0.000  0.000  0.096  0.000  0.287  0.000  0.450
    2  0.000  0.000  0.067  0.000  0.000  0.096  0.000  0.287  0.000  0.450
tot    0.000  0.000  0.134  0.000  0.000  0.191  0.000  0.574  0.000  0.899
 
band     5 # energy    8.00441179 # occ.  1.00000000
 
ion      s     py     pz     px    dxy    dyz    dz2    dxz  x2-y2    tot
    1  0.004  0.000  0.000  0.001  0.312  0.000  0.061  0.000  0.104  0.483
    2  0.004  0.000  0.000  0.001  0.312  0.000  0.061  0.000  0.104  0.483
tot    0.008  0.001  0.000  0.003  0.624  0.000  0.123  0.000  0.208  0.967
 
band     6 # energy    8.37062171 # occ.  1.00000000
 
ion      s     py     pz     px    dxy    dyz    dz2    dxz  x2-y2    tot
    1  0.000  0.000  0.000  0.000  0.000  0.365  0.000  0.122  0.000  0.487
    2  0.000  0.000  0.000  0.000  0.000  0.365  0.000  0.122  0.000  0.487
tot    0.000  0.000  0.000  0.000  0.000  0.731  0.000  0.244  0.000  0.974
 
band     7 # energy    8.37110562 # occ.  1.00000000
 
ion      s     py     pz     px    dxy    dyz    dz2    dxz  x2-y2    tot
    1  0.000  0.002  0.000  0.001  0.121  0.000  0.000  0.000  0.362  0.484
    2  0.000  0.002  0.000  0.001  0.121  0.000  0.000  0.000  0.362  0.484
tot    0.000  0.003  0.000  0.001  0.241  0.000  0.000  0.000  0.724  0.969
 
band     8 # energy    8.39434897 # occ.  1.00000000
 
ion      s     py     pz     px    dxy    dyz    dz2    dxz  x2-y2    tot
    1  0.002  0.000  0.000  0.001  0.120  0.000  0.323  0.000  0.040  0.487
    2  0.002  0.000  0.000  0.001  0.120  0.000  0.323  0.000  0.040  0.487
tot    0.003  0.001  0.000  0.003  0.240  0.000  0.646  0.000  0.080  0.973
 
band     9 # energy    8.56038655 # occ.  1.00000000
 
ion      s     py     pz     px    dxy    dyz    dz2    dxz  x2-y2    tot
    1  0.000  0.000  0.034  0.000  0.000  0.110  0.000  0.331  0.000  0.475
    2  0.000  0.000  0.034  0.000  0.000  0.110  0.000  0.331  0.000  0.475
tot    0.000  0.000  0.068  0.000  0.000  0.220  0.000  0.661  0.000  0.950
 
band    10 # energy    8.63386687 # occ.  1.00000000
 
ion      s     py     pz     px    dxy    dyz    dz2    dxz  x2-y2    tot
    1  0.000  0.002  0.000  0.001  0.122  0.000  0.000  0.000  0.365  0.489
    2  0.000  0.002  0.000  0.001  0.122  0.000  0.000  0.000  0.365  0.489
tot    0.000  0.003  0.000  0.001  0.243  0.000  0.000  0.000  0.730  0.978
 
band    11 # energy    9.82699620 # occ.  1.00000000
 
ion      s     py     pz     px    dxy    dyz    dz2    dxz  x2-y2    tot
    1  0.000  0.000  0.000  0.000  0.000  0.371  0.000  0.124  0.000  0.495
    2  0.000  0.000  0.000  0.000  0.000  0.371  0.000  0.124  0.000  0.495
tot    0.000  0.000  0.000  0.000  0.000  0.742  0.000  0.247  0.000  0.989
 
band    12 # energy   13.14523050 # occ.  0.00000000
 
ion      s     py     pz     px    dxy    dyz    dz2    dxz  x2-y2    tot
    1  0.000  0.000  0.237  0.000  0.000  0.043  0.000  0.130  0.000  0.411
    2  0.000  0.000  0.237  0.000  0.000  0.043  0.000  0.130  0.000  0.411
tot    0.000  0.000  0.475  0.000  0.000  0.087  0.000  0.260  0.000  0.821
 
band    13 # energy   17.16543294 # occ.  0.00000000
 
ion      s     py     pz     px    dxy    dyz    dz2    dxz  x2-y2    tot
    1  0.209  0.008  0.000  0.024  0.001  0.000  0.208  0.000  0.000  0.450
    2  0.209  0.008  0.000  0.024  0.001  0.000  0.208  0.000  0.000  0.450
tot    0.418  0.016  0.000  0.048  0.001  0.000  0.415  0.000  0.000  0.899
 
band    14 # energy   27.14551965 # occ.  0.00000000
 
ion      s     py     pz     px    dxy    dyz    dz2    dxz  x2-y2    tot
    1  0.042  0.037  0.000  0.110  0.122  0.000  0.023  0.000  0.041  0.374
    2  0.042  0.037  0.000  0.110  0.122  0.000  0.023  0.000  0.041  0.374
tot    0.084  0.073  0.000  0.220  0.244  0.000  0.046  0.000  0.081  0.749
 
band    15 # energy   30.96057766 # occ.  0.00000000
 
ion      s     py     pz     px    dxy    dyz    dz2    dxz  x2-y2    tot
    1  0.000  0.190  0.000  0.063  0.033  0.000  0.000  0.000  0.100  0.387
    2  0.000  0.190  0.000  0.063  0.033  0.000  0.000  0.000  0.100  0.387
tot    0.000  0.380  0.000  0.127  0.067  0.000  0.000  0.000  0.201  0.774
 
band    16 # energy   32.35550513 # occ.  0.00000000
 
ion      s     py     pz     px    dxy    dyz    dz2    dxz  x2-y2    tot
    1  0.022  0.006  0.000  0.017  0.147  0.000  0.048  0.000  0.049  0.288
    2  0.022  0.006  0.000  0.017  0.147  0.000  0.048  0.000  0.049  0.288
tot    0.043  0.011  0.000  0.033  0.294  0.000  0.096  0.000  0.098  0.576
 

 k-point     5 :    0.22222222 0.00000000 0.00000000     weight = 0.00154321

band     1 # energy    3.16902362 # occ.  1.00000000
 
ion      s     py     pz     px    dxy    dyz    dz2    dxz  x2-y2    tot
    1  0.308  0.013  0.000  0.039  0.008  0.000  0.003  0.000  0.003  0.374
    2  0.308  0.013  0.000  0.039  0.008  0.000  0.003  0.000  0.003  0.374
tot    0.616  0.026  0.000  0.079  0.016  0.000  0.006  0.000  0.005  0.749
 
band     2 # energy    6.06291294 # occ.  1.00000000
 
ion      s     py     pz     px    dxy    dyz    dz2    dxz  x2-y2    tot
    1  0.035  0.005  0.000  0.014  0.066  0.000  0.316  0.000  0.022  0.459
    2  0.035  0.005  0.000  0.014  0.066  0.000  0.316  0.000  0.022  0.459
tot    0.071  0.009  0.000  0.028  0.133  0.000  0.632  0.000  0.044  0.918
 
band     3 # energy    7.18793131 # occ.  1.00000000
 
ion      s     py     pz     px    dxy    dyz    dz2    dxz  x2-y2    tot
    1  0.000  0.000  0.060  0.000  0.000  0.097  0.000  0.290  0.000  0.447
    2  0.000  0.000  0.060  0.000  0.000  0.097  0.000  0.290  0.000  0.447
tot    0.000  0.000  0.121  0.000  0.000  0.193  0.000  0.580  0.000  0.894
 
band     4 # energy    7.26261026 # occ.  1.00000000
 
ion      s     py     pz     px    dxy    dyz    dz2    dxz  x2-y2    tot
    1  0.001  0.004  0.000  0.013  0.247  0.000  0.121  0.000  0.082  0.469
    2  0.001  0.004  0.000  0.013  0.247  0.000  0.121  0.000  0.082  0.469
tot    0.002  0.009  0.000  0.026  0.494  0.000  0.242  0.000  0.165  0.938
 
band     5 # energy    7.91855855 # occ.  1.00000000
 
ion      s     py     pz     px    dxy    dyz    dz2    dxz  x2-y2    tot
    1  0.008  0.001  0.000  0.003  0.280  0.000  0.095  0.000  0.093  0.481
    2  0.008  0.001  0.000  0.003  0.280  0.000  0.095  0.000  0.093  0.481
tot    0.017  0.002  0.000  0.006  0.560  0.000  0.191  0.000  0.187  0.962
 
band     6 # energy    8.22678020 # occ.  1.00000000
 
ion      s     py     pz     px    dxy    dyz    dz2    dxz  x2-y2    tot
    1  0.000  0.000  0.000  0.000  0.000  0.364  0.000  0.121  0.000  0.486
    2  0.000  0.000  0.000  0.000  0.000  0.364  0.000  0.121  0.000  0.486
tot    0.000  0.000  0.000  0.000  0.000  0.729  0.000  0.243  0.000  0.972
 
band     7 # energy    8.41975529 # occ.  1.00000000
 
ion      s     py     pz     px    dxy    dyz    dz2    dxz  x2-y2    tot
    1  0.000  0.000  0.028  0.000  0.000  0.112  0.000  0.336  0.000  0.477
    2  0.000  0.000  0.028  0.000  0.000  0.112  0.000  0.336  0.000  0.477
tot    0.000  0.000  0.056  0.000  0.000  0.224  0.000  0.673  0.000  0.953
 
band     8 # energy    8.66662682 # occ.  1.00000000
 
ion      s     py     pz     px    dxy    dyz    dz2    dxz  x2-y2    tot
    1  0.004  0.001  0.000  0.004  0.105  0.000  0.338  0.000  0.035  0.486
    2  0.004  0.001  0.000  0.004  0.105  0.000  0.338  0.000  0.035  0.486
tot    0.008  0.002  0.000  0.007  0.210  0.000  0.675  0.000  0.070  0.973
 
band     9 # energy    8.68035307 # occ.  1.00000000
 
ion      s     py     pz     px    dxy    dyz    dz2    dxz  x2-y2    tot
    1  0.000  0.002  0.000  0.001  0.121  0.000  0.000  0.000  0.362  0.486
    2  0.000  0.002  0.000  0.001  0.121  0.000  0.000  0.000  0.362  0.486
tot    0.000  0.004  0.000  0.001  0.242  0.000  0.000  0.000  0.725  0.971
 
band    10 # energy    8.90420680 # occ.  1.00000000
 
ion      s     py     pz     px    dxy    dyz    dz2    dxz  x2-y2    tot
    1  0.000  0.002  0.000  0.001  0.122  0.000  0.000  0.000  0.365  0.490
    2  0.000  0.002  0.000  0.001  0.122  0.000  0.000  0.000  0.365  0.490
tot    0.000  0.004  0.000  0.001  0.243  0.000  0.000  0.000  0.730  0.979
 
band    11 # energy    9.86870414 # occ.  1.00000000
 
ion      s     py     pz     px    dxy    dyz    dz2    dxz  x2-y2    tot
    1  0.000  0.000  0.000  0.000  0.000  0.371  0.000  0.124  0.000  0.495
    2  0.000  0.000  0.000  0.000  0.000  0.371  0.000  0.124  0.000  0.495
tot    0.000  0.000  0.000  0.000  0.000  0.743  0.000  0.248  0.000  0.990
 
band    12 # energy   14.34013280 # occ.  0.00000000
 
ion      s     py     pz     px    dxy    dyz    dz2    dxz  x2-y2    tot
    1  0.000  0.000  0.241  0.000  0.000  0.043  0.000  0.129  0.000  0.412
    2  0.000  0.000  0.241  0.000  0.000  0.043  0.000  0.129  0.000  0.412
tot    0.000  0.000  0.481  0.000  0.000  0.086  0.000  0.257  0.000  0.825
 
band    13 # energy   17.34144716 # occ.  0.00000000
 
ion      s     py     pz     px    dxy    dyz    dz2    dxz  x2-y2    tot
    1  0.188  0.016  0.000  0.048  0.001  0.000  0.189  0.000  0.000  0.442
    2  0.188  0.016  0.000  0.048  0.001  0.000  0.189  0.000  0.000  0.442
tot    0.376  0.032  0.000  0.096  0.001  0.000  0.378  0.000  0.000  0.884
 
band    14 # energy   24.60627780 # occ.  0.00000000
 
ion      s     py     pz     px    dxy    dyz    dz2    dxz  x2-y2    tot
    1  0.073  0.037  0.000  0.110  0.114  0.000  0.021  0.000  0.038  0.393
    2  0.073  0.037  0.000  0.110  0.114  0.000  0.021  0.000  0.038  0.393
tot    0.146  0.074  0.000  0.221  0.228  0.000  0.042  0.000  0.076  0.786
 
band    15 # energy   29.50955019 # occ.  0.00000000
 
ion      s     py     pz     px    dxy    dyz    dz2    dxz  x2-y2    tot
    1  0.000  0.202  0.000  0.067  0.026  0.000  0.000  0.000  0.077  0.373
    2  0.000  0.202  0.000  0.067  0.026  0.000  0.000  0.000  0.077  0.373
tot    0.000  0.405  0.000  0.135  0.051  0.000  0.000  0.000  0.154  0.746
 
band    16 # energy   31.62411240 # occ.  0.00000000
 
ion      s     py     pz     px    dxy    dyz    dz2    dxz  x2-y2    tot
    1  0.011  0.006  0.000  0.017  0.204  0.000  0.044  0.000  0.068  0.350
    2  0.011  0.006  0.000  0.017  0.204  0.000  0.044  0.000  0.068  0.350
tot    0.022  0.012  0.000  0.035  0.407  0.000  0.088  0.000  0.136  0.700
 

 k-point     6 :    0.27777778 0.00000000 0.00000000     weight = 0.00154321

band     1 # energy    3.95894269 # occ.  1.00000000
 
ion      s     py     pz     px    dxy    dyz    dz2    dxz  x2-y2    tot
    1  0.268  0.017  0.000  0.052  0.025  0.000  0.008  0.000  0.008  0.380
    2  0.268  0.017  0.000  0.052  0.025  0.000  0.008  0.000  0.008  0.380
tot    0.536  0.035  0.000  0.105  0.051  0.000  0.016  0.000  0.017  0.761
 
band     2 # energy    6.13259882 # occ.  1.00000000
 
ion      s     py     pz     px    dxy    dyz    dz2    dxz  x2-y2    tot
    1  0.020  0.003  0.000  0.009  0.150  0.000  0.231  0.000  0.050  0.463
    2  0.020  0.003  0.000  0.009  0.150  0.000  0.231  0.000  0.050  0.463
tot    0.041  0.006  0.000  0.017  0.301  0.000  0.462  0.000  0.100  0.927