<?xml version="1.0" encoding="ISO-8859-1"?>
<modeling>
 <generator>
  <i name="program" type="string">vasp </i>
  <i name="version" type="string">6.3.2  </i>
  <i name="subversion" type="string">27Jun22 (build Aug 12 2022 00:53:59) complex                          parallel </i>
  <i name="platform" type="string">tv2STD </i>
  <i name="date" type="string">2024 12 02 </i>
  <i name="time" type="string">16:52:53 </i>
 </generator>
 <incar>
  <i type="string" name="SYSTEM">Co-hcc</i>
  <i type="int" name="ISTART">     0</i>
  <i type="string" name="PREC">Accurate      normal | accurate</i>
  <i type="string" name="ALGO">Normal     Normal, Fast, Very_Fast</i>
  <i type="logical" name="ADDGRID"> F  </i>
  <i type="int" name="ISPIN">     2</i>
  <i type="int" name="ICHARG">     2</i>
  <i type="int" name="INIWAV">     1</i>
  <i type="int" name="NELM">   100</i>
  <i type="int" name="IBRION">    -1</i>
  <i name="EDIFF">      0.00000100</i>
  <i name="EDIFFG">     -0.02000000</i>
  <i type="int" name="NSW">     0</i>
  <i type="int" name="ISIF">     2</i>
  <i type="int" name="ISYM">     1</i>
  <i name="ENCUT">    425.00000000</i>
  <v name="MAGMOM">      3.00000000      3.00000000</v>
  <i type="logical" name="LREAL"> F  </i>
  <i type="int" name="ISMEAR">     0</i>
  <i name="SIGMA">      0.05000000</i>
  <i type="int" name="NWRITE">     2</i>
  <i type="logical" name="LWAVE"> F  </i>
  <i type="logical" name="LCHARG"> F  </i>
  <i type="int" name="LORBIT">    11</i>
 </incar>
 <primitive_cell>
  <structure name="primitive_cell" >
   <crystal>
    <varray name="basis" >
     <v>       1.23599995      -2.14081471       0.00000000 </v>
     <v>       1.23599995       2.14081471       0.00000000 </v>
     <v>       0.00000000       0.00000000       4.02114408 </v>
    </varray>
    <i name="volume">     21.28027152 </i>
    <varray name="rec_basis" >
     <v>       0.40453076      -0.23355594       0.00000000 </v>
     <v>       0.40453076       0.23355594       0.00000000 </v>
     <v>       0.00000000       0.00000000       0.24868544 </v>
    </varray>
   </crystal>
   <varray name="positions" >
    <v>       0.33333333       0.66666667       0.25000000 </v>
    <v>       0.66666667       0.33333333       0.75000000 </v>
   </varray>
  </structure>
  <varray name="primitive_index" >
   <v type="int" >        1 </v>
   <v type="int" >        2 </v>
  </varray>
 </primitive_cell>
 <kpoints>
  <generation param="Gamma">
   <v type="int" name="divisions">      18       18       12 </v>
   <v name="usershift">      0.00000000       0.00000000       0.00000000 </v>
   <v name="genvec1">      0.05555556       0.00000000       0.00000000 </v>
   <v name="genvec2">      0.00000000       0.05555556       0.00000000 </v>
   <v name="genvec3">      0.00000000       0.00000000       0.08333333 </v>
   <v name="shift">      0.00000000       0.00000000       0.00000000 </v>
  </generation>
  <varray name="kpointlist" >
   <v>       0.00000000       0.00000000       0.00000000 </v>
   <v>       0.05555556      -0.00000000       0.00000000 </v>
   <v>       0.11111111      -0.00000000       0.00000000 </v>
   <v>       0.16666667      -0.00000000       0.00000000 </v>
   <v>       0.22222222       0.00000000       0.00000000 </v>
   <v>       0.27777778       0.00000000       0.00000000 </v>
   <v>       0.33333333       0.00000000       0.00000000 </v>
   <v>       0.38888889      -0.00000000       0.00000000 </v>
   <v>       0.44444444       0.00000000       0.00000000 </v>
   <v>       0.50000000       0.00000000       0.00000000 </v>
   <v>       0.05555556       0.05555556       0.00000000 </v>
   <v>       0.11111111       0.05555556       0.00000000 </v>
   <v>       0.16666667       0.05555556       0.00000000 </v>
   <v>       0.22222222       0.05555556       0.00000000 </v>
   <v>       0.27777778       0.05555556       0.00000000 </v>
   <v>       0.33333333       0.05555556       0.00000000 </v>
   <v>       0.38888889       0.05555556       0.00000000 </v>
   <v>       0.44444444       0.05555556       0.00000000 </v>
   <v>       0.11111111       0.11111111       0.00000000 </v>
   <v>       0.16666667       0.11111111       0.00000000 </v>
   <v>       0.22222222       0.11111111       0.00000000 </v>
   <v>       0.27777778       0.11111111       0.00000000 </v>
   <v>       0.33333333       0.11111111       0.00000000 </v>
   <v>       0.38888889       0.11111111       0.00000000 </v>
   <v>       0.44444444       0.11111111       0.00000000 </v>
   <v>       0.16666667       0.16666667       0.00000000 </v>
   <v>       0.22222222       0.16666667       0.00000000 </v>
   <v>       0.27777778       0.16666667       0.00000000 </v>
   <v>       0.33333333       0.16666667       0.00000000 </v>
   <v>       0.38888889       0.16666667       0.00000000 </v>
   <v>       0.22222222       0.22222222       0.00000000 </v>
   <v>       0.27777778       0.22222222       0.00000000 </v>
   <v>       0.33333333       0.22222222       0.00000000 </v>
   <v>       0.38888889       0.22222222       0.00000000 </v>
   <v>       0.27777778       0.27777778       0.00000000 </v>
   <v>       0.33333333       0.27777778       0.00000000 </v>
   <v>       0.33333333       0.33333333       0.00000000 </v>
   <v>       0.00000000       0.00000000       0.08333333 </v>
   <v>       0.05555556      -0.00000000       0.08333333 </v>
   <v>       0.11111111      -0.00000000       0.08333333 </v>
   <v>       0.16666667      -0.00000000       0.08333333 </v>
   <v>       0.22222222       0.00000000       0.08333333 </v>
   <v>       0.27777778       0.00000000       0.08333333 </v>
   <v>       0.33333333       0.00000000       0.08333333 </v>
   <v>       0.38888889      -0.00000000       0.08333333 </v>
   <v>       0.44444444       0.00000000       0.08333333 </v>
   <v>       0.50000000       0.00000000       0.08333333 </v>
   <v>       0.05555556       0.05555556       0.08333333 </v>
   <v>       0.11111111       0.05555556       0.08333333 </v>
   <v>       0.16666667       0.05555556       0.08333333 </v>
   <v>       0.22222222       0.05555556       0.08333333 </v>
   <v>       0.27777778       0.05555556       0.08333333 </v>
   <v>       0.33333333       0.05555556       0.08333333 </v>
   <v>       0.38888889       0.05555556       0.08333333 </v>
   <v>       0.44444444       0.05555556       0.08333333 </v>
   <v>       0.11111111       0.11111111       0.08333333 </v>
   <v>       0.16666667       0.11111111       0.08333333 </v>
   <v>       0.22222222       0.11111111       0.08333333 </v>
   <v>       0.27777778       0.11111111       0.08333333 </v>
   <v>       0.33333333       0.11111111       0.08333333 </v>
   <v>       0.38888889       0.11111111       0.08333333 </v>
   <v>       0.44444444       0.11111111       0.08333333 </v>
   <v>       0.16666667       0.16666667       0.08333333 </v>
   <v>       0.22222222       0.16666667       0.08333333 </v>
   <v>       0.27777778       0.16666667       0.08333333 </v>
   <v>       0.33333333       0.16666667       0.08333333 </v>
   <v>       0.38888889       0.16666667       0.08333333 </v>
   <v>       0.22222222       0.22222222       0.08333333 </v>
   <v>       0.27777778       0.22222222       0.08333333 </v>
   <v>       0.33333333       0.22222222       0.08333333 </v>
   <v>       0.38888889       0.22222222       0.08333333 </v>
   <v>       0.27777778       0.27777778       0.08333333 </v>
   <v>       0.33333333       0.27777778       0.08333333 </v>
   <v>       0.33333333       0.33333333       0.08333333 </v>
   <v>       0.00000000       0.00000000       0.16666667 </v>
   <v>       0.05555556      -0.00000000       0.16666667 </v>
   <v>       0.11111111      -0.00000000       0.16666667 </v>
   <v>       0.16666667      -0.00000000       0.16666667 </v>
   <v>       0.22222222       0.00000000       0.16666667 </v>
   <v>       0.27777778       0.00000000       0.16666667 </v>
   <v>       0.33333333       0.00000000       0.16666667 </v>
   <v>       0.38888889      -0.00000000       0.16666667 </v>
   <v>       0.44444444       0.00000000       0.16666667 </v>
   <v>       0.50000000       0.00000000       0.16666667 </v>
   <v>       0.05555556       0.05555556       0.16666667 </v>
   <v>       0.11111111       0.05555556       0.16666667 </v>
   <v>       0.16666667       0.05555556       0.16666667 </v>
   <v>       0.22222222       0.05555556       0.16666667 </v>
   <v>       0.27777778       0.05555556       0.16666667 </v>
   <v>       0.33333333       0.05555556       0.16666667 </v>
   <v>       0.38888889       0.05555556       0.16666667 </v>
   <v>       0.44444444       0.05555556       0.16666667 </v>
   <v>       0.11111111       0.11111111       0.16666667 </v>
   <v>       0.16666667       0.11111111       0.16666667 </v>
   <v>       0.22222222       0.11111111       0.16666667 </v>
   <v>       0.27777778       0.11111111       0.16666667 </v>
   <v>       0.33333333       0.11111111       0.16666667 </v>
   <v>       0.38888889       0.11111111       0.16666667 </v>
   <v>       0.44444444       0.11111111       0.16666667 </v>
   <v>       0.16666667       0.16666667       0.16666667 </v>
   <v>       0.22222222       0.16666667       0.16666667 </v>
   <v>       0.27777778       0.16666667       0.16666667 </v>
   <v>       0.33333333       0.16666667       0.16666667 </v>
   <v>       0.38888889       0.16666667       0.16666667 </v>
   <v>       0.22222222       0.22222222       0.16666667 </v>
   <v>       0.27777778       0.22222222       0.16666667 </v>
   <v>       0.33333333       0.22222222       0.16666667 </v>
   <v>       0.38888889       0.22222222       0.16666667 </v>
   <v>       0.27777778       0.27777778       0.16666667 </v>
   <v>       0.33333333       0.27777778       0.16666667 </v>
   <v>       0.33333333       0.33333333       0.16666667 </v>
   <v>       0.00000000       0.00000000       0.25000000 </v>
   <v>       0.05555556      -0.00000000       0.25000000 </v>
   <v>       0.11111111      -0.00000000       0.25000000 </v>
   <v>       0.16666667      -0.00000000       0.25000000 </v>
   <v>       0.22222222       0.00000000       0.25000000 </v>
   <v>       0.27777778       0.00000000       0.25000000 </v>
   <v>       0.33333333       0.00000000       0.25000000 </v>
   <v>       0.38888889      -0.00000000       0.25000000 </v>
   <v>       0.44444444       0.00000000       0.25000000 </v>
   <v>       0.50000000       0.00000000       0.25000000 </v>
   <v>       0.05555556       0.05555556       0.25000000 </v>
   <v>       0.11111111       0.05555556       0.25000000 </v>
   <v>       0.16666667       0.05555556       0.25000000 </v>
   <v>       0.22222222       0.05555556       0.25000000 </v>
   <v>       0.27777778       0.05555556       0.25000000 </v>
   <v>       0.33333333       0.05555556       0.25000000 </v>
   <v>       0.38888889       0.05555556       0.25000000 </v>
   <v>       0.44444444       0.05555556       0.25000000 </v>
   <v>       0.11111111       0.11111111       0.25000000 </v>
   <v>       0.16666667       0.11111111       0.25000000 </v>
   <v>       0.22222222       0.11111111       0.25000000 </v>
   <v>       0.27777778       0.11111111       0.25000000 </v>
   <v>       0.33333333       0.11111111       0.25000000 </v>
   <v>       0.38888889       0.11111111       0.25000000 </v>
   <v>       0.44444444       0.11111111       0.25000000 </v>
   <v>       0.16666667       0.16666667       0.25000000 </v>
   <v>       0.22222222       0.16666667       0.25000000 </v>
   <v>       0.27777778       0.16666667       0.25000000 </v>
   <v>       0.33333333       0.16666667       0.25000000 </v>
   <v>       0.38888889       0.16666667       0.25000000 </v>
   <v>       0.22222222       0.22222222       0.25000000 </v>
   <v>       0.27777778       0.22222222       0.25000000 </v>
   <v>       0.33333333       0.22222222       0.25000000 </v>
   <v>       0.38888889       0.22222222       0.25000000 </v>
   <v>       0.27777778       0.27777778       0.25000000 </v>
   <v>       0.33333333       0.27777778       0.25000000 </v>
   <v>       0.33333333       0.33333333       0.25000000 </v>
   <v>       0.00000000       0.00000000       0.33333333 </v>
   <v>       0.05555556      -0.00000000       0.33333333 </v>
   <v>       0.11111111      -0.00000000       0.33333333 </v>
   <v>       0.16666667      -0.00000000       0.33333333 </v>
   <v>       0.22222222       0.00000000       0.33333333 </v>
   <v>       0.27777778       0.00000000       0.33333333 </v>
   <v>       0.33333333       0.00000000       0.33333333 </v>
   <v>       0.38888889      -0.00000000       0.33333333 </v>
   <v>       0.44444444       0.00000000       0.33333333 </v>
   <v>       0.50000000       0.00000000       0.33333333 </v>
   <v>       0.05555556       0.05555556       0.33333333 </v>
   <v>       0.11111111       0.05555556       0.33333333 </v>
   <v>       0.16666667       0.05555556       0.33333333 </v>
   <v>       0.22222222       0.05555556       0.33333333 </v>
   <v>       0.27777778       0.05555556       0.33333333 </v>
   <v>       0.33333333       0.05555556       0.33333333 </v>
   <v>       0.38888889       0.05555556       0.33333333 </v>
   <v>       0.44444444       0.05555556       0.33333333 </v>
   <v>       0.11111111       0.11111111       0.33333333 </v>
   <v>       0.16666667       0.11111111       0.33333333 </v>
   <v>       0.22222222       0.11111111       0.33333333 </v>
   <v>       0.27777778       0.11111111       0.33333333 </v>
   <v>       0.33333333       0.11111111       0.33333333 </v>
   <v>       0.38888889       0.11111111       0.33333333 </v>
   <v>       0.44444444       0.11111111       0.33333333 </v>
   <v>       0.16666667       0.16666667       0.33333333 </v>
   <v>       0.22222222       0.16666667       0.33333333 </v>
   <v>       0.27777778       0.16666667       0.33333333 </v>
   <v>       0.33333333       0.16666667       0.33333333 </v>
   <v>       0.38888889       0.16666667       0.33333333 </v>
   <v>       0.22222222       0.22222222       0.33333333 </v>
   <v>       0.27777778       0.22222222       0.33333333 </v>
   <v>       0.33333333       0.22222222       0.33333333 </v>
   <v>       0.38888889       0.22222222       0.33333333 </v>
   <v>       0.27777778       0.27777778       0.33333333 </v>
   <v>       0.33333333       0.27777778       0.33333333 </v>
   <v>       0.33333333       0.33333333       0.33333333 </v>
   <v>       0.00000000       0.00000000       0.41666667 </v>
   <v>       0.05555556      -0.00000000       0.41666667 </v>
   <v>       0.11111111      -0.00000000       0.41666667 </v>
   <v>       0.16666667      -0.00000000       0.41666667 </v>
   <v>       0.22222222       0.00000000       0.41666667 </v>
   <v>       0.27777778       0.00000000       0.41666667 </v>
   <v>       0.33333333       0.00000000       0.41666667 </v>
   <v>       0.38888889      -0.00000000       0.41666667 </v>
   <v>       0.44444444       0.00000000       0.41666667 </v>
   <v>       0.50000000       0.00000000       0.41666667 </v>
   <v>       0.05555556       0.05555556       0.41666667 </v>
   <v>       0.11111111       0.05555556       0.41666667 </v>
   <v>       0.16666667       0.05555556       0.41666667 </v>
   <v>       0.22222222       0.05555556       0.41666667 </v>
   <v>       0.27777778       0.05555556       0.41666667 </v>
   <v>       0.33333333       0.05555556       0.41666667 </v>
   <v>       0.38888889       0.05555556       0.41666667 </v>
   <v>       0.44444444       0.05555556       0.41666667 </v>
   <v>       0.11111111       0.11111111       0.41666667 </v>
   <v>       0.16666667       0.11111111       0.41666667 </v>
   <v>       0.22222222       0.11111111       0.41666667 </v>
   <v>       0.27777778       0.11111111       0.41666667 </v>
   <v>       0.33333333       0.11111111       0.41666667 </v>
   <v>       0.38888889       0.11111111       0.41666667 </v>
   <v>       0.44444444       0.11111111       0.41666667 </v>
   <v>       0.16666667       0.16666667       0.41666667 </v>
   <v>       0.22222222       0.16666667       0.41666667 </v>
   <v>       0.27777778       0.16666667       0.41666667 </v>
   <v>       0.33333333       0.16666667       0.41666667 </v>
   <v>       0.38888889       0.16666667       0.41666667 </v>
   <v>       0.22222222       0.22222222       0.41666667 </v>
   <v>       0.27777778       0.22222222       0.41666667 </v>
   <v>       0.33333333       0.22222222       0.41666667 </v>
   <v>       0.38888889       0.22222222       0.41666667 </v>
   <v>       0.27777778       0.27777778       0.41666667 </v>
   <v>       0.33333333       0.27777778       0.41666667 </v>
   <v>       0.33333333       0.33333333       0.41666667 </v>
   <v>       0.00000000       0.00000000       0.50000000 </v>
   <v>       0.05555556      -0.00000000       0.50000000 </v>
   <v>       0.11111111      -0.00000000       0.50000000 </v>
   <v>       0.16666667      -0.00000000       0.50000000 </v>
   <v>       0.22222222       0.00000000       0.50000000 </v>
   <v>       0.27777778       0.00000000       0.50000000 </v>
   <v>       0.33333333       0.00000000       0.50000000 </v>
   <v>       0.38888889      -0.00000000       0.50000000 </v>
   <v>       0.44444444       0.00000000       0.50000000 </v>
   <v>       0.50000000       0.00000000       0.50000000 </v>
   <v>       0.05555556       0.05555556       0.50000000 </v>
   <v>       0.11111111       0.05555556       0.50000000 </v>
   <v>       0.16666667       0.05555556       0.50000000 </v>
   <v>       0.22222222       0.05555556       0.50000000 </v>
   <v>       0.27777778       0.05555556       0.50000000 </v>
   <v>       0.33333333       0.05555556       0.50000000 </v>
   <v>       0.38888889       0.05555556       0.50000000 </v>
   <v>       0.44444444       0.05555556       0.50000000 </v>
   <v>       0.11111111       0.11111111       0.50000000 </v>
   <v>       0.16666667       0.11111111       0.50000000 </v>
   <v>       0.22222222       0.11111111       0.50000000 </v>
   <v>       0.27777778       0.11111111       0.50000000 </v>
   <v>       0.33333333       0.11111111       0.50000000 </v>
   <v>       0.38888889       0.11111111       0.50000000 </v>
   <v>       0.44444444       0.11111111       0.50000000 </v>
   <v>       0.16666667       0.16666667       0.50000000 </v>
   <v>       0.22222222       0.16666667       0.50000000 </v>
   <v>       0.27777778       0.16666667       0.50000000 </v>
   <v>       0.33333333       0.16666667       0.50000000 </v>
   <v>       0.38888889       0.16666667       0.50000000 </v>
   <v>       0.22222222       0.22222222       0.50000000 </v>
   <v>       0.27777778       0.22222222       0.50000000 </v>
   <v>       0.33333333       0.22222222       0.50000000 </v>
   <v>       0.38888889       0.22222222       0.50000000 </v>
   <v>       0.27777778       0.27777778       0.50000000 </v>
   <v>       0.33333333       0.27777778       0.50000000 </v>
   <v>       0.33333333       0.33333333       0.50000000 </v>
  </varray>
  <varray name="weights" >
   <v>       0.00025720 </v>
   <v>       0.00154321 </v>
   <v>       0.00154321 </v>
   <v>       0.00154321 </v>
   <v>       0.00154321 </v>
   <v>       0.00154321 </v>
   <v>       0.00154321 </v>
   <v>       0.00154321 </v>
   <v>       0.00154321 </v>
   <v>       0.00077160 </v>
   <v>       0.00154321 </v>
   <v>       0.00308642 </v>
   <v>       0.00308642 </v>
   <v>       0.00308642 </v>
   <v>       0.00308642 </v>
   <v>       0.00308642 </v>
   <v>       0.00308642 </v>
   <v>       0.00308642 </v>
   <v>       0.00154321 </v>
   <v>       0.00308642 </v>
   <v>       0.00308642 </v>
   <v>       0.00308642 </v>
   <v>       0.00308642 </v>
   <v>       0.00308642 </v>
   <v>       0.00154321 </v>
   <v>       0.00154321 </v>
   <v>       0.00308642 </v>
   <v>       0.00308642 </v>
   <v>       0.00308642 </v>
   <v>       0.00308642 </v>
   <v>       0.00154321 </v>
   <v>       0.00308642 </v>
   <v>       0.00308642 </v>
   <v>       0.00154321 </v>
   <v>       0.00154321 </v>
   <v>       0.00308642 </v>
   <v>       0.00051440 </v>
   <v>       0.00051440 </v>
   <v>       0.00308642 </v>
   <v>       0.00308642 </v>
   <v>       0.00308642 </v>
   <v>       0.00308642 </v>
   <v>       0.00308642 </v>
   <v>       0.00308642 </v>
   <v>       0.00308642 </v>
   <v>       0.00308642 </v>
   <v>       0.00154321 </v>
   <v>       0.00308642 </v>
   <v>       0.00617284 </v>
   <v>       0.00617284 </v>
   <v>       0.00617284 </v>
   <v>       0.00617284 </v>
   <v>       0.00617284 </v>
   <v>       0.00617284 </v>
   <v>       0.00617284 </v>
   <v>       0.00308642 </v>
   <v>       0.00617284 </v>
   <v>       0.00617284 </v>
   <v>       0.00617284 </v>
   <v>       0.00617284 </v>
   <v>       0.00617284 </v>
   <v>       0.00308642 </v>
   <v>       0.00308642 </v>
   <v>       0.00617284 </v>
   <v>       0.00617284 </v>
   <v>       0.00617284 </v>
   <v>       0.00617284 </v>
   <v>       0.00308642 </v>
   <v>       0.00617284 </v>
   <v>       0.00617284 </v>
   <v>       0.00308642 </v>
   <v>       0.00308642 </v>
   <v>       0.00617284 </v>
   <v>       0.00102881 </v>
   <v>       0.00051440 </v>
   <v>       0.00308642 </v>
   <v>       0.00308642 </v>
   <v>       0.00308642 </v>
   <v>       0.00308642 </v>
   <v>       0.00308642 </v>
   <v>       0.00308642 </v>
   <v>       0.00308642 </v>
   <v>       0.00308642 </v>
   <v>       0.00154321 </v>
   <v>       0.00308642 </v>
   <v>       0.00617284 </v>
   <v>       0.00617284 </v>
   <v>       0.00617284 </v>
   <v>       0.00617284 </v>
   <v>       0.00617284 </v>
   <v>       0.00617284 </v>
   <v>       0.00617284 </v>
   <v>       0.00308642 </v>
   <v>       0.00617284 </v>
   <v>       0.00617284 </v>
   <v>       0.00617284 </v>
   <v>       0.00617284 </v>
   <v>       0.00617284 </v>
   <v>       0.00308642 </v>
   <v>       0.00308642 </v>
   <v>       0.00617284 </v>
   <v>       0.00617284 </v>
   <v>       0.00617284 </v>
   <v>       0.00617284 </v>
   <v>       0.00308642 </v>
   <v>       0.00617284 </v>
   <v>       0.00617284 </v>
   <v>       0.00308642 </v>
   <v>       0.00308642 </v>
   <v>       0.00617284 </v>
   <v>       0.00102881 </v>
   <v>       0.00051440 </v>
   <v>       0.00308642 </v>
   <v>       0.00308642 </v>
   <v>       0.00308642 </v>
   <v>       0.00308642 </v>
   <v>       0.00308642 </v>
   <v>       0.00308642 </v>
   <v>       0.00308642 </v>
   <v>       0.00308642 </v>
   <v>       0.00154321 </v>
   <v>       0.00308642 </v>
   <v>       0.00617284 </v>
   <v>       0.00617284 </v>
   <v>       0.00617284 </v>
   <v>       0.00617284 </v>
   <v>       0.00617284 </v>
   <v>       0.00617284 </v>
   <v>       0.00617284 </v>
   <v>       0.00308642 </v>
   <v>       0.00617284 </v>
   <v>       0.00617284 </v>
   <v>       0.00617284 </v>
   <v>       0.00617284 </v>
   <v>       0.00617284 </v>
   <v>       0.00308642 </v>
   <v>       0.00308642 </v>
   <v>       0.00617284 </v>
   <v>       0.00617284 </v>
   <v>       0.00617284 </v>
   <v>       0.00617284 </v>
   <v>       0.00308642 </v>
   <v>       0.00617284 </v>
   <v>       0.00617284 </v>
   <v>       0.00308642 </v>
   <v>       0.00308642 </v>
   <v>       0.00617284 </v>
   <v>       0.00102881 </v>
   <v>       0.00051440 </v>
   <v>       0.00308642 </v>
   <v>       0.00308642 </v>
   <v>       0.00308642 </v>
   <v>       0.00308642 </v>
   <v>       0.00308642 </v>
   <v>       0.00308642 </v>
   <v>       0.00308642 </v>
   <v>       0.00308642 </v>
   <v>       0.00154321 </v>
   <v>       0.00308642 </v>
   <v>       0.00617284 </v>
   <v>       0.00617284 </v>
   <v>       0.00617284 </v>
   <v>       0.00617284 </v>
   <v>       0.00617284 </v>
   <v>       0.00617284 </v>
   <v>       0.00617284 </v>
   <v>       0.00308642 </v>
   <v>       0.00617284 </v>
   <v>       0.00617284 </v>
   <v>       0.00617284 </v>
   <v>       0.00617284 </v>
   <v>       0.00617284 </v>
   <v>       0.00308642 </v>
   <v>       0.00308642 </v>
   <v>       0.00617284 </v>
   <v>       0.00617284 </v>
   <v>       0.00617284 </v>
   <v>       0.00617284 </v>
   <v>       0.00308642 </v>
   <v>       0.00617284 </v>
   <v>       0.00617284 </v>
   <v>       0.00308642 </v>
   <v>       0.00308642 </v>
   <v>       0.00617284 </v>
   <v>       0.00102881 </v>
   <v>       0.00051440 </v>
   <v>       0.00308642 </v>
   <v>       0.00308642 </v>
   <v>       0.00308642 </v>
   <v>       0.00308642 </v>
   <v>       0.00308642 </v>
   <v>       0.00308642 </v>
   <v>       0.00308642 </v>
   <v>       0.00308642 </v>
   <v>       0.00154321 </v>
   <v>       0.00308642 </v>
   <v>       0.00617284 </v>
   <v>       0.00617284 </v>
   <v>       0.00617284 </v>
   <v>       0.00617284 </v>
   <v>       0.00617284 </v>
   <v>       0.00617284 </v>
   <v>       0.00617284 </v>
   <v>       0.00308642 </v>
   <v>       0.00617284 </v>
   <v>       0.00617284 </v>
   <v>       0.00617284 </v>
   <v>       0.00617284 </v>
   <v>       0.00617284 </v>
   <v>       0.00308642 </v>
   <v>       0.00308642 </v>
   <v>       0.00617284 </v>
   <v>       0.00617284 </v>
   <v>       0.00617284 </v>
   <v>       0.00617284 </v>
   <v>       0.00308642 </v>
   <v>       0.00617284 </v>
   <v>       0.00617284 </v>
   <v>       0.00308642 </v>
   <v>       0.00308642 </v>
   <v>       0.00617284 </v>
   <v>       0.00102881 </v>
   <v>       0.00025720 </v>
   <v>       0.00154321 </v>
   <v>       0.00154321 </v>
   <v>       0.00154321 </v>
   <v>       0.00154321 </v>
   <v>       0.00154321 </v>
   <v>       0.00154321 </v>
   <v>       0.00154321 </v>
   <v>       0.00154321 </v>
   <v>       0.00077160 </v>
   <v>       0.00154321 </v>
   <v>       0.00308642 </v>
   <v>       0.00308642 </v>
   <v>       0.00308642 </v>
   <v>       0.00308642 </v>
   <v>       0.00308642 </v>
   <v>       0.00308642 </v>
   <v>       0.00308642 </v>
   <v>       0.00154321 </v>
   <v>       0.00308642 </v>
   <v>       0.00308642 </v>
   <v>       0.00308642 </v>
   <v>       0.00308642 </v>
   <v>       0.00308642 </v>
   <v>       0.00154321 </v>
   <v>       0.00154321 </v>
   <v>       0.00308642 </v>
   <v>       0.00308642 </v>
   <v>       0.00308642 </v>
   <v>       0.00308642 </v>
   <v>       0.00154321 </v>
   <v>       0.00308642 </v>
   <v>       0.00308642 </v>
   <v>       0.00154321 </v>
   <v>       0.00154321 </v>
   <v>       0.00308642 </v>
   <v>       0.00051440 </v>
  </varray>
 </kpoints>
 <parameters>
  <separator name="general" >
   <i type="string" name="SYSTEM">Co-hcc</i>
   <i type="logical" name="LCOMPAT"> F  </i>
  </separator>
  <separator name="electronic" >
   <i type="string" name="PREC">accura</i>
   <i name="ENMAX">    425.00000000</i>
   <i name="ENAUG">    477.81800000</i>
   <i name="EDIFF">      0.00000100</i>
   <i type="int" name="IALGO">    38</i>
   <i type="int" name="IWAVPR">    10</i>
   <i type="int" name="NBANDS">    16</i>
   <i type="int" name="NBANDSLOW">    -1</i>
   <i type="int" name="NBANDSHIGH">    -1</i>
   <i name="NELECT">     18.00000000</i>
   <i type="int" name="TURBO">     0</i>
   <i type="int" name="IRESTART">     0</i>
   <i type="int" name="NREBOOT">     0</i>
   <i type="int" name="NMIN">     0</i>
   <i name="EREF">      0.00000000</i>
   <separator name="electronic smearing" >
    <i type="int" name="ISMEAR">     0</i>
    <i name="SIGMA">      0.05000000</i>
    <i name="KSPACING">      0.50000000</i>
    <i type="logical" name="KGAMMA"> T  </i>
    <i type="logical" name="KBLOWUP"> T  </i>
   </separator>
   <separator name="electronic projectors" >
    <i type="logical" name="LREAL"> F  </i>
    <v name="ROPT">      0.00000000</v>
    <i type="int" name="LMAXPAW">  -100</i>
    <i type="int" name="LMAXMIX">     2</i>
    <i type="logical" name="NLSPLINE"> F  </i>
   </separator>
   <separator name="electronic startup" >
    <i type="int" name="ISTART">     0</i>
    <i type="int" name="ICHARG">     2</i>
    <i type="int" name="INIWAV">     1</i>
   </separator>
   <separator name="electronic spin" >
    <i type="int" name="ISPIN">     2</i>
    <i type="logical" name="LNONCOLLINEAR"> F  </i>
    <v name="MAGMOM">      3.00000000      3.00000000</v>
    <i name="NUPDOWN">     -1.00000000</i>
    <i type="logical" name="LSORBIT"> F  </i>
    <v name="SAXIS">      0.00000000      0.00000000      1.00000000</v>
    <i type="logical" name="LSPIRAL"> F  </i>
    <v name="QSPIRAL">      0.00000000      0.00000000      0.00000000</v>
    <i type="logical" name="LZEROZ"> F  </i>
   </separator>
   <separator name="electronic exchange-correlation" >
    <i type="logical" name="LASPH"> F  </i>
    <i type="logical" name="LMETAGGA"> F  </i>
   </separator>
   <separator name="electronic convergence" >
    <i type="int" name="NELM">   100</i>
    <i type="int" name="NELMDL">    -5</i>
    <i type="int" name="NELMIN">     2</i>
    <i name="ENINI">    425.00000000</i>
    <separator name="electronic convergence detail" >
     <i type="logical" name="LDIAG"> T  </i>
     <i type="logical" name="LSUBROT"> F  </i>
     <i name="WEIMIN">      0.00000000</i>
     <i name="EBREAK">      0.00000002</i>
     <i name="DEPER">      0.30000000</i>
     <i type="int" name="NRMM">     4</i>
     <i name="TIME">      0.40000000</i>
    </separator>
   </separator>
   <separator name="electronic mixer" >
    <i name="AMIX">      0.40000000</i>
    <i name="BMIX">      1.00000000</i>
    <i name="AMIN">      0.10000000</i>
    <i name="AMIX_MAG">      1.60000000</i>
    <i name="BMIX_MAG">      1.00000000</i>
    <separator name="electronic mixer details" >
     <i type="int" name="IMIX">     4</i>
     <i type="logical" name="MIXFIRST"> F  </i>
     <i type="int" name="MAXMIX">   -45</i>
     <i name="WC">    100.00000000</i>
     <i type="int" name="INIMIX">     1</i>
     <i type="int" name="MIXPRE">     1</i>
     <i type="int" name="MREMOVE">     5</i>
    </separator>
   </separator>
   <separator name="electronic dipolcorrection" >
    <i type="logical" name="LDIPOL"> F  </i>
    <i type="logical" name="LMONO"> F  </i>
    <i type="int" name="IDIPOL">     0</i>
    <i name="EPSILON">      1.00000000</i>
    <v name="DIPOL">   -100.00000000   -100.00000000   -100.00000000</v>
    <i name="EFIELD">      0.00000000</i>
   </separator>
  </separator>
  <separator name="grids" >
   <i type="int" name="NGX">    18</i>
   <i type="int" name="NGY">    18</i>
   <i type="int" name="NGZ">    28</i>
   <i type="int" name="NGXF">    36</i>
   <i type="int" name="NGYF">    36</i>
   <i type="int" name="NGZF">    56</i>
   <i type="logical" name="ADDGRID"> F  </i>
  </separator>
  <separator name="ionic" >
   <i type="int" name="NSW">     0</i>
   <i type="int" name="IBRION">    -1</i>
   <i type="int" name="MDALGO">     0</i>
   <i type="int" name="ISIF">     2</i>
   <i name="PSTRESS">      0.00000000</i>
   <i name="EDIFFG">     -0.02000000</i>
   <i type="int" name="NFREE">     0</i>
   <i name="POTIM">      0.50000000</i>
   <i name="SMASS">     -3.00000000</i>
   <i name="SCALEE">      1.00000000</i>
  </separator>
  <separator name="ionic md" >
   <i name="TEBEG">      0.00010000</i>
   <i name="TEEND">      0.00010000</i>
   <i type="int" name="NBLOCK">     1</i>
   <i type="int" name="KBLOCK">     1</i>
   <i type="int" name="NPACO">   256</i>
   <i name="APACO">     10.00000000</i>
  </separator>
  <separator name="symmetry" >
   <i type="int" name="ISYM">     1</i>
   <i name="SYMPREC">      0.00001000</i>
  </separator>
  <separator name="dos" >
   <i type="int" name="LORBIT">    11</i>
   <v name="RWIGS">     -1.00000000</v>
   <i type="int" name="NEDOS">   301</i>
   <i name="EMIN">     10.00000000</i>
   <i name="EMAX">    -10.00000000</i>
   <i name="EFERMI">      0.00000000</i>
  </separator>
  <separator name="writing" >
   <i type="int" name="NWRITE">     2</i>
   <i type="logical" name="LWAVE"> F  </i>
   <i type="logical" name="LDOWNSAMPLE"> F  </i>
   <i type="logical" name="LCHARG"> F  </i>
   <i type="logical" name="LPARD"> F  </i>
   <i type="logical" name="LVTOT"> F  </i>
   <i type="logical" name="LVHAR"> F  </i>
   <i type="logical" name="LELF"> F  </i>
   <i type="logical" name="LOPTICS"> F  </i>
   <v name="STM">      0.00000000      0.00000000      0.00000000      0.00000000      0.00000000      0.00000000      0.00000000</v>
  </separator>
  <separator name="performance" >
   <i type="int" name="NPAR">     4</i>
   <i type="int" name="NSIM">     4</i>
   <i type="int" name="NBLK">    -1</i>
   <i type="logical" name="LPLANE"> T  </i>
   <i type="logical" name="LSCALAPACK"> T  </i>
   <i type="logical" name="LSCAAWARE"> F  </i>
   <i type="logical" name="LSCALU"> F  </i>
   <i type="logical" name="LASYNC"> F  </i>
   <i type="logical" name="LORBITALREAL"> F  </i>
  </separator>
  <separator name="miscellaneous" >
   <i type="int" name="IDIOT">     3</i>
   <i type="int" name="PHON_NSTRUCT">    -1</i>
   <i type="logical" name="LMUSIC"> F  </i>
   <v name="POMASS">     58.93300000</v>
   <v name="DARWINR">      0.00000000</v>
   <v name="DARWINV">      1.00000000</v>
   <i type="logical" name="LCORR"> T  </i>
  </separator>
  <i type="logical" name="GGA_COMPAT"> T  </i>
  <i type="logical" name="LBERRY"> F  </i>
  <i type="int" name="ICORELEVEL">     0</i>
  <i type="logical" name="LDAU"> F  </i>
  <i type="int" name="I_CONSTRAINED_M">     0</i>
  <separator name="electronic exchange-correlation" >
   <i type="string" name="GGA">--</i>
   <i type="int" name="VOSKOWN">     0</i>
   <i type="logical" name="LHFCALC"> F  </i>
   <i type="string" name="PRECFOCK"></i>
   <i type="logical" name="LSYMGRAD"> F  </i>
   <i type="logical" name="LHFONE"> F  </i>
   <i type="logical" name="LRHFCALC"> F  </i>
   <i type="logical" name="LTHOMAS"> F  </i>
   <i type="logical" name="LMODELHF"> F  </i>
   <i type="logical" name="LFOCKACE"> F  </i>
   <i name="ENCUT4O">     -1.00000000</i>
   <i type="int" name="EXXOEP">     0</i>
   <i type="int" name="FOURORBIT">     0</i>
   <i name="AEXX">      0.00000000</i>
   <i name="HFALPHA">      0.00000000</i>
   <i name="MCALPHA">      0.00000000</i>
   <i name="ALDAX">      1.00000000</i>
   <i name="AGGAX">      1.00000000</i>
   <i name="ALDAC">      1.00000000</i>
   <i name="AGGAC">      1.00000000</i>
   <i type="int" name="NKREDX">     1</i>
   <i type="int" name="NKREDY">     1</i>
   <i type="int" name="NKREDZ">     1</i>
   <i type="logical" name="SHIFTRED"> F  </i>
   <i type="logical" name="ODDONLY"> F  </i>
   <i type="logical" name="EVENONLY"> F  </i>
   <i type="int" name="LMAXFOCK">     0</i>
   <i type="int" name="NMAXFOCKAE">     0</i>
   <i type="logical" name="LFOCKAEDFT"> F  </i>
   <i name="HFSCREEN">      0.00000000</i>
   <i name="HFSCREENC">      0.00000000</i>
   <i type="int" name="NBANDSGWLOW">     0</i>
  </separator>
  <separator name="vdW DFT" >
   <i type="logical" name="LUSE_VDW"> F  </i>
   <i name="Zab_VDW">     -0.84910000</i>
   <i name="PARAM1">      0.12340000</i>
   <i name="PARAM2">      1.00000000</i>
   <i name="PARAM3">      0.00000000</i>
  </separator>
  <separator name="model GW" >
   <i type="int" name="MODEL_GW">     0</i>
   <i name="MODEL_EPS0">      6.38408146</i>
   <i name="MODEL_ALPHA">      1.00000000</i>
  </separator>
  <separator name="linear response parameters" >
   <i type="logical" name="LEPSILON"> F  </i>
   <i type="logical" name="LRPA"> F  </i>
   <i type="logical" name="LNABLA"> F  </i>
   <i type="logical" name="LVEL"> F  </i>
   <i name="CSHIFT">      0.10000000</i>
   <i name="OMEGAMAX">     -1.00000000</i>
   <i name="DEG_THRESHOLD">      0.00200000</i>
   <i name="RTIME">     -0.10000000</i>
   <i name="WPLASMAI">      0.00000000</i>
   <v name="DFIELD">      0.00000000      0.00000000      0.00000000</v>
   <v name="WPLASMA">      0.00000000      0.00000000      0.00000000      0.00000000      0.00000000      0.00000000      0.00000000      0.00000000      0.00000000</v>
  </separator>
  <separator name="orbital magnetization" >
   <i type="logical" name="NUCIND"> F  </i>
   <v name="MAGPOS">      0.00000000      0.00000000      0.00000000</v>
   <i type="logical" name="LNICSALL"> T  </i>
   <i type="logical" name="ORBITALMAG"> F  </i>
   <i type="logical" name="LMAGBLOCH"> F  </i>
   <i type="logical" name="LCHIMAG"> F  </i>
   <i type="logical" name="LGAUGE"> T  </i>
   <i type="int" name="MAGATOM">     0</i>
   <v name="MAGDIPOL">      0.00000000      0.00000000      0.00000000</v>
   <v name="AVECCONST">      0.00000000      0.00000000      0.00000000</v>
  </separator>
  <separator name="response functions" >
   <i type="logical" name="LFINITE_TEMPERATURE"> F  </i>
   <i type="logical" name="LADDER"> F  </i>
   <i type="logical" name="LRPAFORCE"> F  </i>
   <i type="logical" name="LFXC"> F  </i>
   <i type="logical" name="LHARTREE"> T  </i>
   <i type="int" name="IBSE">     0</i>
   <v type="int" name="KPOINT">    -1     0     0     0</v>
   <i type="logical" name="LTCTC"> F  </i>
   <i type="logical" name="LTCTE"> F  </i>
   <i type="logical" name="LTETE"> F  </i>
   <i type="logical" name="LTRIPLET"> F  </i>
   <i type="logical" name="LFXCEPS"> F  </i>
   <i type="logical" name="LFXHEG"> F  </i>
   <i type="int" name="NATURALO">     2</i>
   <i type="logical" name="LHOLEGF"> F  </i>
   <i type="logical" name="L2ORDER"> F  </i>
   <i type="logical" name="LDMP1"> F  </i>
   <i type="logical" name="LMP2LT"> F  </i>
   <i type="logical" name="LSMP2LT"> F  </i>
   <i type="logical" name="LGWLF"> F  </i>
   <i name="ENCUTGW">     -2.00000000</i>
   <i name="ENCUTGWSOFT">     -2.00000000</i>
   <i name="ENCUTLF">     -1.00000000</i>
   <i type="logical" name="LESF_SPLINES"> F  </i>
   <i type="int" name="LMAXMP2">    -1</i>
   <i name="SCISSOR">      0.00000000</i>
   <i type="int" name="NOMEGA">     0</i>
   <i type="int" name="NOMEGAR">     0</i>
   <i type="int" name="NBANDSGW">    -1</i>
   <i type="int" name="NBANDSO">    -1</i>
   <i type="int" name="NBANDSV">    -1</i>
   <i type="int" name="NELMGW">     1</i>
   <i type="int" name="NELMHF">     1</i>
   <i type="int" name="DIM">     3</i>
   <i type="int" name="IESPILON">     4</i>
   <i type="int" name="ANTIRES">     0</i>
   <i name="OMEGAMAX">    -30.00000000</i>
   <i name="OMEGAMIN">    -30.00000000</i>
   <i name="OMEGATL">   -200.00000000</i>
   <i type="int" name="OMEGAGRID">     0</i>
   <i name="CSHIFT">     -0.10000000</i>
   <i type="logical" name="LSELFENERGY"> F  </i>
   <i type="logical" name="LSPECTRAL"> F  </i>
   <i type="logical" name="LSPECTRALGW"> F  </i>
   <i type="logical" name="LSINGLES"> F  </i>
   <i type="logical" name="LFERMIGW"> F  </i>
   <i type="logical" name="ODDONLYGW"> F  </i>
   <i type="logical" name="EVENONLYGW"> F  </i>
   <i type="int" name="NKREDLFX">     1</i>
   <i type="int" name="NKREDLFY">     1</i>
   <i type="int" name="NKREDLFZ">     1</i>
   <i type="int" name="MAXMEM">  2800</i>
   <i type="int" name="TELESCOPE">     0</i>
   <i type="int" name="NTAUPAR">    -1</i>
   <i type="int" name="NOMEGAPAR">    -1</i>
   <i name="DAMP_NEWTON">      0.80000001</i>
   <i name="LAMBDA">      1.00000000</i>
  </separator>
  <separator name="External order field" >
   <i name="OFIELD_KAPPA">      0.00000000</i>
   <v name="OFIELD_K">      0.00000000      0.00000000      0.00000000</v>
   <i name="OFIELD_Q6_NEAR">      0.00000000</i>
   <i name="OFIELD_Q6_FAR">      0.00000000</i>
   <i name="OFIELD_A">      0.00000000</i>
  </separator>
  <separator name="optional k-points parameters" >
   <i type="int" name="KPOINTS_OPT_MODE">     1</i>
   <i type="logical" name="LKPOINTS_OPT"> F  </i>
  </separator>
 </parameters>
 <atominfo>
  <atoms>       2 </atoms>
  <types>       1 </types>
  <array name="atoms" >
   <dimension dim="1">ion</dimension>
   <field type="string">element</field>
   <field type="int">atomtype</field>
   <set>
    <rc><c>Co</c><c>   1</c></rc>
    <rc><c>Co</c><c>   1</c></rc>
   </set>
  </array>
  <array name="atomtypes" >
   <dimension dim="1">type</dimension>
   <field type="int">atomspertype</field>
   <field type="string">element</field>
   <field>mass</field>
   <field>valence</field>
   <field type="string">pseudopotential</field>
   <set>
    <rc><c>   2</c><c>Co</c><c>     58.93300000</c><c>      9.00000000</c><c>  PAW_PBE Co 02Aug2007                  </c></rc>
   </set>
  </array>
 </atominfo>
 <structure name="initialpos" >
  <crystal>
   <varray name="basis" >
    <v>       1.23599995      -2.14081471       0.00000000 </v>
    <v>       1.23599995       2.14081471       0.00000000 </v>
    <v>       0.00000000       0.00000000       4.02114408 </v>
   </varray>
   <i name="volume">     21.28027152 </i>
   <varray name="rec_basis" >
    <v>       0.40453076      -0.23355594       0.00000000 </v>
    <v>       0.40453076       0.23355594       0.00000000 </v>
    <v>       0.00000000       0.00000000       0.24868544 </v>
   </varray>
  </crystal>
  <varray name="positions" >
   <v>       0.33333333       0.66666667       0.25000000 </v>
   <v>       0.66666667       0.33333333       0.75000000 </v>
  </varray>
 </structure>
 <calculation>
  <scstep>
   <time name="dav">    1.54    1.55</time>
   <time name="total">    1.56    1.57</time>
   <energy>
    <i name="alphaZ">     79.61870385 </i>
    <i name="ewald">  -1531.60263765 </i>
    <i name="hartreedc">   -295.86427829 </i>
    <i name="XCdc">     35.75670864 </i>
    <i name="pawpsdc">   1439.98163886 </i>
    <i name="pawaedc">  -1545.88690193 </i>
    <i name="eentropy">     -0.00242156 </i>
    <i name="bandstr">    260.89803750 </i>
    <i name="atom">   1626.72322989 </i>
    <i name="e_fr_energy">     69.62207930 </i>
    <i name="e_wo_entrp">     69.62450086 </i>
    <i name="e_0_energy">     69.62329008 </i>
   </energy>
  </scstep>
  <scstep>
   <time name="dav">    1.48    1.49</time>
   <time name="total">    1.49    1.50</time>
   <energy>
    <i name="e_fr_energy">    -13.66605572 </i>
    <i name="e_wo_entrp">    -13.66388010 </i>
    <i name="e_0_energy">    -13.66496791 </i>
   </energy>
  </scstep>
  <scstep>
   <time name="dav">    1.80    1.81</time>
   <time name="total">    1.81    1.82</time>
   <energy>
    <i name="e_fr_energy">    -15.57949724 </i>
    <i name="e_wo_entrp">    -15.57774994 </i>
    <i name="e_0_energy">    -15.57862359 </i>
   </energy>
  </scstep>
  <scstep>
   <time name="dav">    1.96    1.98</time>
   <time name="total">    1.97    1.98</time>
   <energy>
    <i name="e_fr_energy">    -15.61077599 </i>
    <i name="e_wo_entrp">    -15.60903054 </i>
    <i name="e_0_energy">    -15.60990327 </i>
   </energy>
  </scstep>
  <scstep>
   <time name="dav">    1.82    1.83</time>
   <time name="total">    1.87    1.88</time>
   <energy>
    <i name="e_fr_energy">    -15.61099369 </i>
    <i name="e_wo_entrp">    -15.60924851 </i>
    <i name="e_0_energy">    -15.61012110 </i>
   </energy>
  </scstep>
  <scstep>
   <time name="dav">    1.56    1.57</time>
   <time name="total">    1.62    1.63</time>
   <energy>
    <i name="e_fr_energy">    -14.41862384 </i>
    <i name="e_wo_entrp">    -14.41620089 </i>
    <i name="e_0_energy">    -14.41741236 </i>
   </energy>
  </scstep>
  <scstep>
   <time name="dav">    1.67    1.68</time>
   <time name="total">    1.73    1.74</time>
   <energy>
    <i name="e_fr_energy">    -14.10596986 </i>
    <i name="e_wo_entrp">    -14.10380696 </i>
    <i name="e_0_energy">    -14.10488841 </i>
   </energy>
  </scstep>
  <scstep>
   <time name="dav">    2.01    2.02</time>
   <time name="total">    2.07    2.08</time>
   <energy>
    <i name="e_fr_energy">    -14.08262865 </i>
    <i name="e_wo_entrp">    -14.08047531 </i>
    <i name="e_0_energy">    -14.08155198 </i>
   </energy>
  </scstep>
  <scstep>
   <time name="dav">    2.11    2.12</time>
   <time name="total">    2.17    2.18</time>
   <energy>
    <i name="e_fr_energy">    -14.06917740 </i>
    <i name="e_wo_entrp">    -14.06699905 </i>
    <i name="e_0_energy">    -14.06808823 </i>
   </energy>
  </scstep>
  <scstep>
   <time name="dav">    1.91    1.92</time>
   <time name="total">    1.97    1.98</time>
   <energy>
    <i name="e_fr_energy">    -14.06814256 </i>
    <i name="e_wo_entrp">    -14.06594226 </i>
    <i name="e_0_energy">    -14.06704241 </i>
   </energy>
  </scstep>
  <scstep>
   <time name="dav">    2.09    2.10</time>
   <time name="total">    2.15    2.16</time>
   <energy>
    <i name="e_fr_energy">    -14.06814802 </i>
    <i name="e_wo_entrp">    -14.06593490 </i>
    <i name="e_0_energy">    -14.06704146 </i>
   </energy>
  </scstep>
  <scstep>
   <time name="dav">    1.56    1.57</time>
   <time name="total">    1.62    1.63</time>
   <energy>
    <i name="e_fr_energy">    -14.06814591 </i>
    <i name="e_wo_entrp">    -14.06593381 </i>
    <i name="e_0_energy">    -14.06703986 </i>
   </energy>
  </scstep>
  <scstep>
   <time name="dav">    1.20    1.21</time>
   <time name="total">    1.22    1.22</time>
   <energy>
    <i name="alphaZ">     79.61870385 </i>
    <i name="ewald">  -1531.60263765 </i>
    <i name="hartreedc">   -260.69508044 </i>
    <i name="XCdc">     32.93488816 </i>
    <i name="pawpsdc">   1827.88480218 </i>
    <i name="pawaedc">  -1934.02561002 </i>
    <i name="eentropy">     -0.00221316 </i>
    <i name="bandstr">    145.09577096 </i>
    <i name="atom">   1626.72322989 </i>
    <i name="e_fr_energy">    -14.06814624 </i>
    <i name="e_wo_entrp">    -14.06593308 </i>
    <i name="e_0_energy">    -14.06703966 </i>
   </energy>
  </scstep>
  <structure>
   <crystal>
    <varray name="basis" >
     <v>       1.23599995      -2.14081471       0.00000000 </v>
     <v>       1.23599995       2.14081471       0.00000000 </v>
     <v>       0.00000000       0.00000000       4.02114408 </v>
    </varray>
    <i name="volume">     21.28027152 </i>
    <varray name="rec_basis" >
     <v>       0.40453076      -0.23355594       0.00000000 </v>
     <v>       0.40453076       0.23355594       0.00000000 </v>
     <v>       0.00000000       0.00000000       0.24868544 </v>
    </varray>
   </crystal>
   <varray name="positions" >
    <v>       0.33333333       0.66666667       0.25000000 </v>
    <v>       0.66666667       0.33333333       0.75000000 </v>
   </varray>
  </structure>
  <varray name="forces" >
   <v>      -0.00000000      -0.00000000      -0.00000000 </v>
   <v>       0.00000000       0.00000000       0.00000000 </v>
  </varray>
  <varray name="stress" >
   <v>      38.89439759      -0.00000000      -0.00000000 </v>
   <v>      -0.00000000      38.89439759       0.00000000 </v>
   <v>      -0.00000000       0.00000000      20.34082418 </v>
  </varray>
  <energy>
   <i name="e_fr_energy">    -14.06814624 </i>
   <i name="e_wo_entrp">    -14.06593308 </i>
   <i name="e_0_energy">    -14.06703966 </i>
  </energy>
  <time name="totalsc">   23.56   23.72</time>
  <eigenvalues>
   <array>
    <dimension dim="1">band</dimension>
    <dimension dim="2">kpoint</dimension>
    <dimension dim="3">spin</dimension>
    <field>eigene</field>
    <field>occ</field>
    <set>
     <set comment="spin 1">
      <set comment="kpoint 1">
       <r>    1.5137    1.0000 </r>
       <r>    5.3111    1.0000 </r>
       <r>    7.8690    1.0000 </r>
       <r>    7.9232    1.0000 </r>
       <r>    7.9232    1.0000 </r>
       <r>    8.2386    1.0000 </r>
       <r>    8.2386    1.0000 </r>
       <r>    8.6229    1.0000 </r>
       <r>    8.6229    1.0000 </r>
       <r>    9.7326    1.0000 </r>
       <r>    9.7326    1.0000 </r>
       <r>   10.3872    1.0000 </r>
       <r>   16.9778    0.0000 </r>
       <r>   32.7600    0.0000 </r>
       <r>   35.5668    0.0000 </r>
       <r>   35.5672    0.0000 </r>
      </set>
      <set comment="kpoint 2">
       <r>    1.6244    1.0000 </r>
       <r>    5.3792    1.0000 </r>
       <r>    7.7530    1.0000 </r>
       <r>    7.9755    1.0000 </r>
       <r>    8.0244    1.0000 </r>
       <r>    8.2120    1.0000 </r>
       <r>    8.2850    1.0000 </r>
       <r>    8.5646    1.0000 </r>
       <r>    8.5895    1.0000 </r>
       <r>    9.2072    1.0000 </r>
       <r>    9.7468    1.0000 </r>
       <r>   11.0436    0.0000 </r>
       <r>   16.9957    0.0000 </r>
       <r>   31.9943    0.0000 </r>
       <r>   33.8592    0.0000 </r>
       <r>   34.2489    0.0000 </r>
      </set>
      <set comment="kpoint 3">
       <r>    1.9514    1.0000 </r>
       <r>    5.5693    1.0000 </r>
       <r>    7.5834    1.0000 </r>
       <r>    8.0973    1.0000 </r>
       <r>    8.1290    1.0000 </r>
       <r>    8.2080    1.0000 </r>
       <r>    8.2550    1.0000 </r>
       <r>    8.4207    1.0000 </r>
       <r>    8.4986    1.0000 </r>
       <r>    8.7413    1.0000 </r>
       <r>    9.7828    1.0000 </r>
       <r>   12.0394    0.0000 </r>
       <r>   17.0542    0.0000 </r>
       <r>   29.7393    0.0000 </r>
       <r>   32.5553    0.0000 </r>
       <r>   32.9697    0.0000 </r>
      </set>
      <set comment="kpoint 4">
       <r>    2.4777    1.0000 </r>
       <r>    5.8316    1.0000 </r>
       <r>    7.3991    1.0000 </r>
       <r>    7.7048    1.0000 </r>
       <r>    8.0044    1.0000 </r>
       <r>    8.3706    1.0000 </r>
       <r>    8.3711    1.0000 </r>
       <r>    8.3943    1.0000 </r>
       <r>    8.5604    1.0000 </r>
       <r>    8.6339    1.0000 </r>
       <r>    9.8270    1.0000 </r>
       <r>   13.1452    0.0000 </r>
       <r>   17.1654    0.0000 </r>
       <r>   27.1455    0.0000 </r>
       <r>   30.9606    0.0000 </r>
       <r>   32.3555    0.0000 </r>
      </set>
      <set comment="kpoint 5">
       <r>    3.1690    1.0000 </r>
       <r>    6.0629    1.0000 </r>
       <r>    7.1879    1.0000 </r>
       <r>    7.2626    1.0000 </r>
       <r>    7.9186    1.0000 </r>
       <r>    8.2268    1.0000 </r>
       <r>    8.4198    1.0000 </r>
       <r>    8.6666    1.0000 </r>
       <r>    8.6804    1.0000 </r>
       <r>    8.9042    1.0000 </r>
       <r>    9.8687    1.0000 </r>
       <r>   14.3401    0.0000 </r>
       <r>   17.3414    0.0000 </r>
       <r>   24.6063    0.0000 </r>
       <r>   29.5096    0.0000 </r>
       <r>   31.6241    0.0000 </r>
      </set>
      <set comment="kpoint 6">
       <r>    3.9589    1.0000 </r>
       <r>    6.1326    1.0000 </r>
       <r>    6.7579    1.0000 </r>
       <r>    7.2513    1.0000 </r>
       <r>    7.9195    1.0000 </r>
       <r>    8.0853    1.0000 </r>
       <r>    8.2848    1.0000 </r>
       <r>    9.0249    1.0000 </r>
       <r>    9.0397    1.0000 </r>
       <r>    9.2054    1.0000 </r>
       <r>    9.9025    1.0000 </r>
       <r>   15.6135    0.0000 </r>
       <r>   17.5571    0.0000 </r>
       <r>   22.2660    0.0000 </r>
       <r>   28.2339    0.0000 </r>
       <r>   29.7227    0.0000 </r>
      </set>
      <set comment="kpoint 7">
       <r>    4.7240    1.0000 </r>
       <r>    6.0451    1.0000 </r>
       <r>    6.4227    1.0000 </r>
       <r>    7.3653    1.0000 </r>
       <r>    7.9604    1.0000 </r>
       <r>    8.0338    1.0000 </r>
       <r>    8.1631    1.0000 </r>
       <r>    9.3618    1.0000 </r>
       <r>    9.5065    1.0000 </r>
       <r>    9.5531    1.0000 </r>
       <r>    9.9270    1.0000 </r>
       <r>   16.9520    0.0000 </r>
       <r>   17.5440    0.0000 </r>
       <r>   20.4751    0.0000 </r>
       <r>   27.1698    0.0000 </r>
       <r>   27.6887    0.0000 </r>
      </set>
      <set comment="kpoint 8">
       <r>    5.2908    1.0000 </r>
       <r>    5.9127    1.0000 </r>
       <r>    6.1838    1.0000 </r>
       <r>    7.6022    1.0000 </r>
       <r>    7.8633    1.0000 </r>
       <r>    8.0661    1.0000 </r>
       <r>    8.1851    1.0000 </r>
       <r>    9.6407    1.0000 </r>
       <r>    9.7735    1.0000 </r>
       <r>    9.9429    1.0000 </r>
       <r>   10.2651    1.0000 </r>
       <r>   16.5204    0.0000 </r>
       <r>   18.3269    0.0000 </r>
       <r>   20.0744    0.0000 </r>
       <r>   25.8240    0.0000 </r>
       <r>   26.3606    0.0000 </r>
      </set>
      <set comment="kpoint 9">
       <r>    5.5846    1.0000 </r>
       <r>    5.8018    1.0000 </r>
       <r>    6.0411    1.0000 </r>
       <r>    7.8018    1.0000 </r>
       <r>    7.8825    1.0000 </r>
       <r>    8.0035    1.0000 </r>
       <r>    8.2908    1.0000 </r>
       <r>    9.8213    1.0000 </r>
       <r>    9.9517    1.0000 </r>
       <r>    9.9632    1.0000 </r>
       <r>   11.2049    0.0000 </r>
       <r>   14.9356    0.0000 </r>
       <r>   19.6331    0.0000 </r>
       <r>   20.6185    0.0000 </r>
       <r>   24.2271    0.0000 </r>
       <r>   25.4333    0.0000 </r>
      </set>
      <set comment="kpoint 10">
       <r>    5.6937    1.0000 </r>
       <r>    5.7325    1.0000 </r>
       <r>    5.9936    1.0000 </r>
       <r>    7.7807    1.0000 </r>
       <r>    7.9819    1.0000 </r>
       <r>    8.0089    1.0000 </r>
       <r>    8.3236    1.0000 </r>
       <r>    9.8836    1.0000 </r>
       <r>    9.9544    1.0000 </r>
       <r>   10.0324    1.0000 </r>
       <r>   11.9077    0.0000 </r>
       <r>   13.9736    0.0000 </r>
       <r>   20.3439    0.0000 </r>
       <r>   21.0191    0.0000 </r>
       <r>   23.4200    0.0000 </r>
       <r>   24.7173    0.0000 </r>
      </set>
      <set comment="kpoint 11">
       <r>    1.8433    1.0000 </r>
       <r>    5.5088    1.0000 </r>
       <r>    7.6294    1.0000 </r>
       <r>    8.0804    1.0000 </r>
       <r>    8.1187    1.0000 </r>
       <r>    8.1614    1.0000 </r>
       <r>    8.3828    1.0000 </r>
       <r>    8.4069    1.0000 </r>
       <r>    8.4840    1.0000 </r>
       <r>    8.8404    1.0000 </r>
       <r>    9.7693    1.0000 </r>
       <r>   11.7606    0.0000 </r>
       <r>   17.0341    0.0000 </r>
       <r>   30.7156    0.0000 </r>
       <r>   31.7287    0.0000 </r>
       <r>   34.6396    0.0000 </r>
      </set>
      <set comment="kpoint 12">
       <r>    2.2706    1.0000 </r>
       <r>    5.7395    1.0000 </r>
       <r>    7.4511    1.0000 </r>
       <r>    7.9225    1.0000 </r>
       <r>    8.0629    1.0000 </r>
       <r>    8.2646    1.0000 </r>
       <r>    8.2906    1.0000 </r>
       <r>    8.3515    1.0000 </r>
       <r>    8.5753    1.0000 </r>
       <r>    8.6669    1.0000 </r>
       <r>    9.8040    1.0000 </r>
       <r>   12.7444    0.0000 </r>
       <r>   17.1204    0.0000 </r>
       <r>   28.4570    0.0000 </r>
       <r>   30.1056    0.0000 </r>
       <r>   34.1985    0.0000 </r>
      </set>
      <set comment="kpoint 13">
       <r>    2.8821    1.0000 </r>
       <r>    6.0015    1.0000 </r>
       <r>    7.2721    1.0000 </r>
       <r>    7.3990    1.0000 </r>
       <r>    7.9628    1.0000 </r>
       <r>    8.2082    1.0000 </r>
       <r>    8.4706    1.0000 </r>
       <r>    8.5409    1.0000 </r>
       <r>    8.5754    1.0000 </r>
       <r>    8.8443    1.0000 </r>
       <r>    9.8417    1.0000 </r>
       <r>   13.8627    0.0000 </r>
       <r>   17.2699    0.0000 </r>
       <r>   25.8989    0.0000 </r>
       <r>   28.8416    0.0000 </r>
       <r>   33.0490    0.0000 </r>
      </set>
      <set comment="kpoint 14">
       <r>    3.6303    1.0000 </r>
       <r>    6.1679    1.0000 </r>
       <r>    6.9425    1.0000 </r>
       <r>    7.1772    1.0000 </r>
       <r>    7.9140    1.0000 </r>
       <r>    8.0686    1.0000 </r>
       <r>    8.4046    1.0000 </r>
       <r>    8.7463    1.0000 </r>
       <r>    8.9114    1.0000 </r>
       <r>    9.1746    1.0000 </r>
       <r>    9.8753    1.0000 </r>
       <r>   15.0801    0.0000 </r>
       <r>   17.4874    0.0000 </r>
       <r>   23.4405    0.0000 </r>
       <r>   27.6854    0.0000 </r>
       <r>   30.8352    0.0000 </r>
      </set>
      <set comment="kpoint 15">
       <r>    4.4244    1.0000 </r>
       <r>    6.1464    1.0000 </r>
       <r>    6.5728    1.0000 </r>
       <r>    7.2247    1.0000 </r>
       <r>    7.9470    1.0000 </r>
       <r>    7.9730    1.0000 </r>
       <r>    8.2647    1.0000 </r>
       <r>    9.0960    1.0000 </r>
       <r>    9.2548    1.0000 </r>
       <r>    9.5692    1.0000 </r>
       <r>    9.9013    1.0000 </r>
       <r>   16.3782    0.0000 </r>
       <r>   17.6816    0.0000 </r>
       <r>   21.2877    0.0000 </r>
       <r>   26.6549    0.0000 </r>
       <r>   28.7396    0.0000 </r>
      </set>
      <set comment="kpoint 16">
       <r>    5.1078    1.0000 </r>
       <r>    6.0212    1.0000 </r>
       <r>    6.2949    1.0000 </r>
       <r>    7.3966    1.0000 </r>
       <r>    7.8536    1.0000 </r>
       <r>    8.1147    1.0000 </r>
       <r>    8.1362    1.0000 </r>
       <r>    9.4722    1.0000 </r>
       <r>    9.5624    1.0000 </r>
       <r>    9.9192    1.0000 </r>
       <r>   10.0892    1.0000 </r>
       <r>   17.2652    0.0000 </r>
       <r>   17.7361    0.0000 </r>
       <r>   20.1031    0.0000 </r>
       <r>   25.7916    0.0000 </r>
       <r>   26.7896    0.0000 </r>
      </set>
      <set comment="kpoint 17">
       <r>    5.5283    1.0000 </r>
       <r>    5.8948    1.0000 </r>
       <r>    6.1099    1.0000 </r>
       <r>    7.6714    1.0000 </r>
       <r>    7.7936    1.0000 </r>
       <r>    8.0356    1.0000 </r>
       <r>    8.2500    1.0000 </r>
       <r>    9.7457    1.0000 </r>
       <r>    9.8147    1.0000 </r>
       <r>    9.9299    1.0000 </r>
       <r>   10.8600    0.0000 </r>
       <r>   15.8120    0.0000 </r>
       <r>   19.1018    0.0000 </r>
       <r>   20.3497    0.0000 </r>
       <r>   25.0339    0.0000 </r>
       <r>   25.1079    0.0000 </r>
      </set>
      <set comment="kpoint 18">
       <r>    5.7096    1.0000 </r>
       <r>    5.8056    1.0000 </r>
       <r>    6.0176    1.0000 </r>
       <r>    7.7660    1.0000 </r>
       <r>    7.8920    1.0000 </r>
       <r>    7.9790    1.0000 </r>
       <r>    8.3226    1.0000 </r>
       <r>    9.8730    1.0000 </r>
       <r>    9.9349    1.0000 </r>
       <r>    9.9644    1.0000 </r>
       <r>   11.8057    0.0000 </r>
       <r>   14.3504    0.0000 </r>
       <r>   20.2427    0.0000 </r>
       <r>   20.9747    0.0000 </r>
       <r>   23.6996    0.0000 </r>
       <r>   24.5171    0.0000 </r>
      </set>
      <set comment="kpoint 19">
       <r>    2.7849    1.0000 </r>
       <r>    5.9820    1.0000 </r>
       <r>    7.2632    1.0000 </r>
       <r>    7.4922    1.0000 </r>
       <r>    7.9993    1.0000 </r>
       <r>    8.1669    1.0000 </r>
       <r>    8.3704    1.0000 </r>
       <r>    8.5480    1.0000 </r>
       <r>    8.6098    1.0000 </r>
       <r>    8.8390    1.0000 </r>
       <r>    9.8242    1.0000 </r>
       <r>   13.6968    0.0000 </r>
       <r>   17.2489    0.0000 </r>
       <r>   27.0423    0.0000 </r>
       <r>   27.6779    0.0000 </r>
       <r>   33.9239    0.0000 </r>
      </set>
      <set comment="kpoint 20">
       <r>    3.4610    1.0000 </r>
       <r>    6.2166    1.0000 </r>
       <r>    7.0705    1.0000 </r>
       <r>    7.0816    1.0000 </r>
       <r>    7.9424    1.0000 </r>
       <r>    8.0048    1.0000 </r>
       <r>    8.5119    1.0000 </r>
       <r>    8.5445    1.0000 </r>
       <r>    8.8758    1.0000 </r>
       <r>    9.1826    1.0000 </r>
       <r>    9.8435    1.0000 </r>
       <r>   14.8057    0.0000 </r>
       <r>   17.4588    0.0000 </r>
       <r>   24.7541    0.0000 </r>
       <r>   26.3064    0.0000 </r>
       <r>   31.9790    0.0000 </r>
      </set>
      <set comment="kpoint 21">
       <r>    4.2352    1.0000 </r>
       <r>    6.3050    1.0000 </r>
       <r>    6.7061    1.0000 </r>
       <r>    7.0146    1.0000 </r>
       <r>    7.8731    1.0000 </r>
       <r>    7.9546    1.0000 </r>
       <r>    8.3805    1.0000 </r>
       <r>    8.7898    1.0000 </r>
       <r>    9.2240    1.0000 </r>
       <r>    9.5997    1.0000 </r>
       <r>    9.8604    1.0000 </r>
       <r>   16.0295    0.0000 </r>
       <r>   17.7384    0.0000 </r>
       <r>   22.4154    0.0000 </r>
       <r>   25.2885    0.0000 </r>
       <r>   29.9069    0.0000 </r>
      </set>
      <set comment="kpoint 22">
       <r>    4.9864    1.0000 </r>
       <r>    6.2110    1.0000 </r>
       <r>    6.4163    1.0000 </r>
       <r>    7.1108    1.0000 </r>
       <r>    7.7790    1.0000 </r>
       <r>    8.0616    1.0000 </r>
       <r>    8.2343    1.0000 </r>
       <r>    9.0994    1.0000 </r>
       <r>    9.5387    1.0000 </r>
       <r>    9.8728    1.0000 </r>
       <r>   10.1100    1.0000 </r>
       <r>   17.3414    0.0000 </r>
       <r>   17.8399    0.0000 </r>
       <r>   20.5734    0.0000 </r>
       <r>   24.4292    0.0000 </r>
       <r>   27.9104    0.0000 </r>
      </set>
      <set comment="kpoint 23">
       <r>    5.5361    1.0000 </r>
       <r>    6.0711    1.0000 </r>
       <r>    6.2076    1.0000 </r>
       <r>    7.3308    1.0000 </r>
       <r>    7.7269    1.0000 </r>
       <r>    8.0944    1.0000 </r>
       <r>    8.2069    1.0000 </r>
       <r>    9.4351    1.0000 </r>
       <r>    9.7729    1.0000 </r>
       <r>    9.8807    1.0000 </r>
       <r>   10.7823    0.0000 </r>
       <r>   16.8625    0.0000 </r>
       <r>   18.7087    0.0000 </r>
       <r>   20.1994    0.0000 </r>
       <r>   23.7423    0.0000 </r>
       <r>   26.0529    0.0000 </r>
      </set>
      <set comment="kpoint 24">
       <r>    5.8013    1.0000 </r>
       <r>    5.9660    1.0000 </r>
       <r>    6.0823    1.0000 </r>
       <r>    7.5924    1.0000 </r>
       <r>    7.7126    1.0000 </r>
       <r>    7.9849    1.0000 </r>
       <r>    8.3170    1.0000 </r>
       <r>    9.7148    1.0000 </r>
       <r>    9.8848    1.0000 </r>
       <r>    9.8924    1.0000 </r>
       <r>   11.6893    0.0000 </r>
       <r>   15.2558    0.0000 </r>
       <r>   20.0326    0.0000 </r>
       <r>   20.8490    0.0000 </r>
       <r>   23.2344    0.0000 </r>
       <r>   24.4363    0.0000 </r>
      </set>
      <set comment="kpoint 25">
       <r>    5.8762    1.0000 </r>
       <r>    5.9215    1.0000 </r>
       <r>    6.0405    1.0000 </r>
       <r>    7.7085    1.0000 </r>
       <r>    7.7149    1.0000 </r>
       <r>    7.9400    1.0000 </r>
       <r>    8.3562    1.0000 </r>
       <r>    9.8598    1.0000 </r>
       <r>    9.8860    1.0000 </r>
       <r>    9.8889    1.0000 </r>
       <r>   12.4053    0.0000 </r>
       <r>   14.2613    0.0000 </r>
       <r>   20.7800    0.0000 </r>
       <r>   21.3356    0.0000 </r>
       <r>   22.9712    0.0000 </r>
       <r>   23.5916    0.0000 </r>
      </set>
      <set comment="kpoint 26">
       <r>    4.1706    1.0000 </r>
       <r>    6.4139    1.0000 </r>
       <r>    6.7626    1.0000 </r>
       <r>    6.8820    1.0000 </r>
       <r>    7.8345    1.0000 </r>
       <r>    7.9585    1.0000 </r>
       <r>    8.4286    1.0000 </r>
       <r>    8.6735    1.0000 </r>
       <r>    9.2207    1.0000 </r>
       <r>    9.6104    1.0000 </r>
       <r>    9.8398    1.0000 </r>
       <r>   15.9127    0.0000 </r>
       <r>   17.7540    0.0000 </r>
       <r>   23.5461    0.0000 </r>
       <r>   24.0408    0.0000 </r>
       <r>   30.8429    0.0000 </r>
      </set>
      <set comment="kpoint 27">
       <r>    4.9268    1.0000 </r>
       <r>    6.4510    1.0000 </r>
       <r>    6.5012    1.0000 </r>
       <r>    6.8157    1.0000 </r>
       <r>    7.7130    1.0000 </r>
       <r>    8.0408    1.0000 </r>
       <r>    8.3010    1.0000 </r>
       <r>    8.8714    1.0000 </r>
       <r>    9.5408    1.0000 </r>
       <r>    9.8349    1.0000 </r>
       <r>   10.1348    1.0000 </r>
       <r>   17.1448    0.0000 </r>
       <r>   18.1040    0.0000 </r>
       <r>   21.5217    0.0000 </r>
       <r>   22.9762    0.0000 </r>
       <r>   29.1301    0.0000 </r>
      </set>
      <set comment="kpoint 28">
       <r>    5.5774    1.0000 </r>
       <r>    6.2998    1.0000 </r>
       <r>    6.3127    1.0000 </r>
       <r>    6.9567    1.0000 </r>
       <r>    7.6457    1.0000 </r>
       <r>    8.1514    1.0000 </r>
       <r>    8.1792    1.0000 </r>
       <r>    9.1319    1.0000 </r>
       <r>    9.7768    1.0000 </r>
       <r>    9.8302    1.0000 </r>
       <r>   10.7961    0.0000 </r>
       <r>   17.9139    0.0000 </r>
       <r>   18.4716    0.0000 </r>
       <r>   20.2151    0.0000 </r>
       <r>   22.2677    0.0000 </r>
       <r>   27.2423    0.0000 </r>
      </set>
      <set comment="kpoint 29">
       <r>    5.9541    1.0000 </r>
       <r>    6.1640    1.0000 </r>
       <r>    6.1810    1.0000 </r>
       <r>    7.2034    1.0000 </r>
       <r>    7.6306    1.0000 </r>
       <r>    8.0063    1.0000 </r>
       <r>    8.3142    1.0000 </r>
       <r>    9.4212    1.0000 </r>
       <r>    9.8264    1.0000 </r>
       <r>    9.8919    1.0000 </r>
       <r>   11.6623    0.0000 </r>
       <r>   16.4494    0.0000 </r>
       <r>   19.8444    0.0000 </r>
       <r>   20.5255    0.0000 </r>
       <r>   21.7959    0.0000 </r>
       <r>   25.4764    0.0000 </r>
      </set>
      <set comment="kpoint 30">
       <r>    6.0745    1.0000 </r>
       <r>    6.0960    1.0000 </r>
       <r>    6.1183    1.0000 </r>
       <r>    7.4055    1.0000 </r>
       <r>    7.6492    1.0000 </r>
       <r>    7.9029    1.0000 </r>
       <r>    8.3927    1.0000 </r>
       <r>    9.6612    1.0000 </r>
       <r>    9.8242    1.0000 </r>
       <r>    9.8828    1.0000 </r>
       <r>   12.6880    0.0000 </r>
       <r>   14.9167    0.0000 </r>
       <r>   21.0567    0.0000 </r>
       <r>   21.0687    0.0000 </r>
       <r>   21.6834    0.0000 </r>
       <r>   24.0664    0.0000 </r>
      </set>
      <set comment="kpoint 31">
       <r>    5.6010    1.0000 </r>
       <r>    6.3392    1.0000 </r>
       <r>    6.5798    1.0000 </r>
       <r>    6.6398    1.0000 </r>
       <r>    7.6088    1.0000 </r>
       <r>    8.1712    1.0000 </r>
       <r>    8.1748    1.0000 </r>
       <r>    9.0111    1.0000 </r>
       <r>    9.7806    1.0000 </r>
       <r>    9.8088    1.0000 </r>
       <r>   10.8079    0.0000 </r>
       <r>   18.3927    0.0000 </r>
       <r>   18.4463    0.0000 </r>
       <r>   20.4204    0.0000 </r>
       <r>   21.3803    0.0000 </r>
       <r>   28.4222    0.0000 </r>
      </set>
      <set comment="kpoint 32">
       <r>    6.0834    1.0000 </r>
       <r>    6.2236    1.0000 </r>
       <r>    6.4539    1.0000 </r>
       <r>    6.8059    1.0000 </r>
       <r>    7.5671    1.0000 </r>
       <r>    8.0250    1.0000 </r>
       <r>    8.3188    1.0000 </r>
       <r>    9.2100    1.0000 </r>
       <r>    9.7874    1.0000 </r>
       <r>    9.8956    1.0000 </r>
       <r>   11.6697    0.0000 </r>
       <r>   17.7865    0.0000 </r>
       <r>   19.4661    0.0000 </r>
       <r>   19.7405    0.0000 </r>
       <r>   21.1990    0.0000 </r>
       <r>   26.7255    0.0000 </r>
      </set>
      <set comment="kpoint 33">
       <r>    6.1550    1.0000 </r>
       <r>    6.2779    1.0000 </r>
       <r>    6.3505    1.0000 </r>
       <r>    7.0525    1.0000 </r>
       <r>    7.5813    1.0000 </r>
       <r>    7.8845    1.0000 </r>
       <r>    8.4330    1.0000 </r>
       <r>    9.4411    1.0000 </r>
       <r>    9.7736    1.0000 </r>
       <r>    9.8793    1.0000 </r>
       <r>   12.7522    0.0000 </r>
       <r>   16.1185    0.0000 </r>
       <r>   19.3031    0.0000 </r>
       <r>   21.1152    0.0000 </r>
       <r>   21.7706    0.0000 </r>
       <r>   25.0407    0.0000 </r>
      </set>
      <set comment="kpoint 34">
       <r>    6.1322    1.0000 </r>
       <r>    6.3117    1.0000 </r>
       <r>    6.3221    1.0000 </r>
       <r>    7.1617    1.0000 </r>
       <r>    7.6078    1.0000 </r>
       <r>    7.8139    1.0000 </r>
       <r>    8.4749    1.0000 </r>
       <r>    9.5894    1.0000 </r>
       <r>    9.7688    1.0000 </r>
       <r>    9.8092    1.0000 </r>
       <r>   13.6618    0.0000 </r>
       <r>   14.9651    0.0000 </r>
       <r>   19.2421    0.0000 </r>
       <r>   21.9957    0.0000 </r>
       <r>   22.2279    0.0000 </r>
       <r>   24.0560    0.0000 </r>
      </set>
      <set comment="kpoint 35">
       <r>    6.1809    1.0000 </r>
       <r>    6.3475    1.0000 </r>
       <r>    6.6106    1.0000 </r>
       <r>    6.7581    1.0000 </r>
       <r>    7.5511    1.0000 </r>
       <r>    7.8800    1.0000 </r>
       <r>    8.4555    1.0000 </r>
       <r>    9.3403    1.0000 </r>
       <r>    9.7541    1.0000 </r>
       <r>    9.8785    1.0000 </r>
       <r>   12.7635    0.0000 </r>
       <r>   17.4942    0.0000 </r>
       <r>   17.7401    0.0000 </r>
       <r>   21.1156    0.0000 </r>
       <r>   21.8005    0.0000 </r>
       <r>   26.0883    0.0000 </r>
      </set>
      <set comment="kpoint 36">
       <r>    6.1625    1.0000 </r>
       <r>    6.4544    1.0000 </r>
       <r>    6.5445    1.0000 </r>
       <r>    6.9123    1.0000 </r>
       <r>    7.5870    1.0000 </r>
       <r>    7.7553    1.0000 </r>
       <r>    8.5426    1.0000 </r>
       <r>    9.5035    1.0000 </r>
       <r>    9.7362    1.0000 </r>
       <r>    9.7646    1.0000 </r>
       <r>   14.0411    0.0000 </r>
       <r>   15.9150    0.0000 </r>
       <r>   17.4616    0.0000 </r>
       <r>   22.4800    0.0000 </r>
       <r>   22.6109    0.0000 </r>
       <r>   24.6435    0.0000 </r>
      </set>
      <set comment="kpoint 37">
       <r>    6.1678    1.0000 </r>
       <r>    6.5729    1.0000 </r>
       <r>    6.5729    1.0000 </r>
       <r>    6.8458    1.0000 </r>
       <r>    7.6484    1.0000 </r>
       <r>    7.6484    1.0000 </r>
       <r>    8.5911    1.0000 </r>
       <r>    9.6176    1.0000 </r>
       <r>    9.6176    1.0000 </r>
       <r>    9.7227    1.0000 </r>
       <r>   15.1437    0.0000 </r>
       <r>   16.0038    0.0000 </r>
       <r>   16.0038    0.0000 </r>
       <r>   23.0666    0.0000 </r>
       <r>   23.8114    0.0000 </r>
       <r>   23.8114    0.0000 </r>
      </set>
      <set comment="kpoint 38">
       <r>    1.5844    1.0000 </r>
       <r>    5.2982    1.0000 </r>
       <r>    7.8504    1.0000 </r>
       <r>    7.9035    1.0000 </r>
       <r>    7.9035    1.0000 </r>
       <r>    8.2193    1.0000 </r>
       <r>    8.2193    1.0000 </r>
       <r>    8.6676    1.0000 </r>
       <r>    8.6676    1.0000 </r>
       <r>    9.7289    1.0000 </r>
       <r>    9.7289    1.0000 </r>
       <r>   10.0946    1.0000 </r>
       <r>   17.4080    0.0000 </r>
       <r>   32.7320    0.0000 </r>
       <r>   35.4164    0.0000 </r>
       <r>   35.6819    0.0000 </r>
      </set>
      <set comment="kpoint 39">
       <r>    1.6946    1.0000 </r>
       <r>    5.3680    1.0000 </r>
       <r>    7.7472    1.0000 </r>
       <r>    7.9535    1.0000 </r>
       <r>    7.9847    1.0000 </r>
       <r>    8.1835    1.0000 </r>
       <r>    8.2646    1.0000 </r>
       <r>    8.6188    1.0000 </r>
       <r>    8.6383    1.0000 </r>
       <r>    9.1452    1.0000 </r>
       <r>    9.7422    1.0000 </r>
       <r>   10.8029    0.0000 </r>
       <r>   17.4379    0.0000 </r>
       <r>   32.0030    0.0000 </r>
       <r>   33.8655    0.0000 </r>
       <r>   34.3120    0.0000 </r>
      </set>
      <set comment="kpoint 40">
       <r>    2.0200    1.0000 </r>
       <r>    5.5632    1.0000 </r>
       <r>    7.5863    1.0000 </r>
       <r>    8.0443    1.0000 </r>
       <r>    8.0638    1.0000 </r>
       <r>    8.0953    1.0000 </r>
       <r>    8.3734    1.0000 </r>
       <r>    8.3932    1.0000 </r>
       <r>    8.5675    1.0000 </r>
       <r>    8.7446    1.0000 </r>
       <r>    9.7757    1.0000 </r>
       <r>   11.7470    0.0000 </r>
       <r>   17.5342    0.0000 </r>
       <r>   29.7860    0.0000 </r>
       <r>   32.6271    0.0000 </r>
       <r>   32.9414    0.0000 </r>
      </set>
      <set comment="kpoint 41">
       <r>    2.5432    1.0000 </r>
       <r>    5.8339    1.0000 </r>
       <r>    7.4069    1.0000 </r>
       <r>    7.6239    1.0000 </r>
       <r>    7.9856    1.0000 </r>
       <r>    8.2638    1.0000 </r>
       <r>    8.3410    1.0000 </r>
       <r>    8.4905    1.0000 </r>
       <r>    8.6304    1.0000 </r>
       <r>    8.6469    1.0000 </r>
       <r>    9.8168    1.0000 </r>
       <r>   12.7604    0.0000 </r>
       <r>   17.7162    0.0000 </r>
       <r>   27.2027    0.0000 </r>
       <r>   31.0409    0.0000 </r>
       <r>   32.2262    0.0000 </r>
      </set>
      <set comment="kpoint 42">
       <r>    3.2283    1.0000 </r>
       <r>    6.0748    1.0000 </r>
       <r>    7.1344    1.0000 </r>
       <r>    7.2800    1.0000 </r>
       <r>    7.8810    1.0000 </r>
       <r>    8.2241    1.0000 </r>
       <r>    8.3825    1.0000 </r>
       <r>    8.7066    1.0000 </r>
       <r>    8.7344    1.0000 </r>
       <r>    8.8905    1.0000 </r>
       <r>    9.8556    1.0000 </r>
       <r>   13.8160    0.0000 </r>
       <r>   18.0084    0.0000 </r>
       <r>   24.6680    0.0000 </r>
       <r>   29.5978    0.0000 </r>
       <r>   30.9534    0.0000 </r>
      </set>
      <set comment="kpoint 43">
       <r>    4.0061    1.0000 </r>
       <r>    6.1491    1.0000 </r>
       <r>    6.7328    1.0000 </r>
       <r>    7.2569    1.0000 </r>
       <r>    7.8669    1.0000 </r>
       <r>    8.1014    1.0000 </r>
       <r>    8.3285    1.0000 </r>
       <r>    9.0365    1.0000 </r>
       <r>    9.0488    1.0000 </r>
       <r>    9.1867    1.0000 </r>
       <r>    9.8873    1.0000 </r>
       <r>   14.8780    0.0000 </r>
       <r>   18.4077    0.0000 </r>
       <r>   22.3324    0.0000 </r>
       <r>   28.3292    0.0000 </r>
       <r>   28.9863    0.0000 </r>
      </set>
      <set comment="kpoint 44">
       <r>    4.7474    1.0000 </r>
       <r>    6.0576    1.0000 </r>
       <r>    6.4361    1.0000 </r>
       <r>    7.3068    1.0000 </r>
       <r>    7.9841    1.0000 </r>
       <r>    7.9928    1.0000 </r>
       <r>    8.2900    1.0000 </r>
       <r>    9.3694    1.0000 </r>
       <r>    9.4811    1.0000 </r>
       <r>    9.5340    1.0000 </r>
       <r>    9.9120    1.0000 </r>
       <r>   15.8420    0.0000 </r>
       <r>   18.6549    0.0000 </r>
       <r>   20.6222    0.0000 </r>
       <r>   26.9851    0.0000 </r>
       <r>   27.2713    0.0000 </r>
      </set>
      <set comment="kpoint 45">
       <r>    5.2733    1.0000 </r>
       <r>    5.9095    1.0000 </r>
       <r>    6.2612    1.0000 </r>
       <r>    7.3958    1.0000 </r>
       <r>    7.8910    1.0000 </r>
       <r>    8.1752    1.0000 </r>
       <r>    8.3277    1.0000 </r>
       <r>    9.6447    1.0000 </r>
       <r>    9.7376    1.0000 </r>
       <r>    9.9354    1.0000 </r>
       <r>   10.2292    1.0000 </r>
       <r>   16.0433    0.0000 </r>
       <r>   18.3775    0.0000 </r>
       <r>   20.5682    0.0000 </r>
       <r>   25.1971    0.0000 </r>
       <r>   26.4671    0.0000 </r>
      </set>
      <set comment="kpoint 46">
       <r>    5.5202    1.0000 </r>
       <r>    5.7768    1.0000 </r>
       <r>    6.1915    1.0000 </r>
       <r>    7.4768    1.0000 </r>
       <r>    7.8316    1.0000 </r>
       <r>    8.2888    1.0000 </r>
       <r>    8.4604    1.0000 </r>
       <r>    9.8122    1.0000 </r>
       <r>    9.8966    1.0000 </r>
       <r>    9.9838    1.0000 </r>
       <r>   11.1609    0.0000 </r>
       <r>   14.8319    0.0000 </r>
       <r>   19.1410    0.0000 </r>
       <r>   20.9548    0.0000 </r>
       <r>   24.0360    0.0000 </r>
       <r>   25.9607    0.0000 </r>
      </set>
      <set comment="kpoint 47">
       <r>    5.5970    1.0000 </r>
       <r>    5.7087    1.0000 </r>
       <r>    6.1766    1.0000 </r>
       <r>    7.5037    1.0000 </r>
       <r>    7.8112    1.0000 </r>
       <r>    8.3235    1.0000 </r>
       <r>    8.5352    1.0000 </r>
       <r>    9.8586    1.0000 </r>
       <r>    9.9364    1.0000 </r>
       <r>   10.0305    1.0000 </r>
       <r>   11.8541    0.0000 </r>
       <r>   13.9302    0.0000 </r>
       <r>   20.0649    0.0000 </r>
       <r>   20.5571    0.0000 </r>
       <r>   24.0122    0.0000 </r>
       <r>   25.1415    0.0000 </r>
      </set>
      <set comment="kpoint 48">
       <r>    1.9125    1.0000 </r>
       <r>    5.5010    1.0000 </r>
       <r>    7.6304    1.0000 </r>
       <r>    8.0499    1.0000 </r>
       <r>    8.0537    1.0000 </r>
       <r>    8.1016    1.0000 </r>
       <r>    8.3535    1.0000 </r>
       <r>    8.4578    1.0000 </r>
       <r>    8.5680    1.0000 </r>
       <r>    8.8196    1.0000 </r>
       <r>    9.7632    1.0000 </r>
       <r>   11.4865    0.0000 </r>
       <r>   17.5012    0.0000 </r>
       <r>   30.7490    0.0000 </r>
       <r>   31.7834    0.0000 </r>
       <r>   34.5773    0.0000 </r>
      </set>
      <set comment="kpoint 49">
       <r>    2.3375    1.0000 </r>
       <r>    5.7386    1.0000 </r>
       <r>    7.4578    1.0000 </r>
       <r>    7.8065    1.0000 </r>
       <r>    8.0655    1.0000 </r>
       <r>    8.1843    1.0000 </r>
       <r>    8.2774    1.0000 </r>
       <r>    8.4435    1.0000 </r>
       <r>    8.5931    1.0000 </r>
       <r>    8.7015    1.0000 </r>
       <r>    9.7957    1.0000 </r>
       <r>   12.3972    0.0000 </r>
       <r>   17.6416    0.0000 </r>
       <r>   28.5098    0.0000 </r>
       <r>   30.1641    0.0000 </r>
       <r>   33.9771    0.0000 </r>
      </set>
      <set comment="kpoint 50">
       <r>    2.9444    1.0000 </r>
       <r>    6.0103    1.0000 </r>
       <r>    7.2779    1.0000 </r>
       <r>    7.3397    1.0000 </r>
       <r>    7.9397    1.0000 </r>
       <r>    8.1877    1.0000 </r>
       <r>    8.4085    1.0000 </r>
       <r>    8.5465    1.0000 </r>
       <r>    8.6924    1.0000 </r>
       <r>    8.8382    1.0000 </r>
       <r>    9.8311    1.0000 </r>
       <r>   13.4011    0.0000 </r>
       <r>   17.8840    0.0000 </r>
       <r>   25.9591    0.0000 </r>
       <r>   28.9068    0.0000 </r>
       <r>   32.2989    0.0000 </r>
      </set>
      <set comment="kpoint 51">
       <r>    3.6840    1.0000 </r>
       <r>    6.1848    1.0000 </r>
       <r>    6.9006    1.0000 </r>
       <r>    7.1943    1.0000 </r>
       <r>    7.8575    1.0000 </r>
       <r>    8.1092    1.0000 </r>
       <r>    8.3796    1.0000 </r>
       <r>    8.7697    1.0000 </r>
       <r>    8.9431    1.0000 </r>
       <r>    9.1585    1.0000 </r>
       <r>    9.8638    1.0000 </r>
       <r>   14.4475    0.0000 </r>
       <r>   18.2491    0.0000 </r>
       <r>   23.5045    0.0000 </r>
       <r>   27.7562    0.0000 </r>
       <r>   30.1870    0.0000 </r>
      </set>
      <set comment="kpoint 52">
       <r>    4.4611    1.0000 </r>
       <r>    6.1641    1.0000 </r>
       <r>    6.5609    1.0000 </r>
       <r>    7.2177    1.0000 </r>
       <r>    7.8755    1.0000 </r>
       <r>    8.0430    1.0000 </r>
       <r>    8.2989    1.0000 </r>
       <r>    9.0917    1.0000 </r>
       <r>    9.2722    1.0000 </r>
       <r>    9.5359    1.0000 </r>
       <r>    9.8969    1.0000 </r>
       <r>   15.4778    0.0000 </r>
       <r>   18.6694    0.0000 </r>
       <r>   21.3678    0.0000 </r>
       <r>   26.7223    0.0000 </r>
       <r>   28.1054    0.0000 </r>
      </set>
      <set comment="kpoint 53">
       <r>    5.1120    1.0000 </r>
       <r>    6.0293    1.0000 </r>
       <r>    6.3342    1.0000 </r>
[...]
       </set>
       <set comment="band 12">
        <r>  0.0751  0.0051  0.0026  0.1842  0.0196  0.0003  0.0020  0.0049  0.3622 </r>
        <r>  0.0027  0.0002  0.0730  0.0066  0.0007  0.0072  0.0001  0.1373  0.0130 </r>
       </set>
       <set comment="band 13">
        <r>  0.0802  0.2024  0.0080  0.0278  0.2312  0.0080  0.0112  0.0115  0.0027 </r>
        <r>  0.0135  0.0341  0.0474  0.0047  0.0390  0.0477  0.0019  0.0684  0.0004 </r>
       </set>
       <set comment="band 14">
        <r>  0.0135  0.0341  0.0474  0.0047  0.0390  0.0477  0.0019  0.0684  0.0004 </r>
        <r>  0.0802  0.2024  0.0080  0.0278  0.2312  0.0080  0.0112  0.0115  0.0027 </r>
       </set>
       <set comment="band 15">
        <r>  0.1883  0.0520  0.0049  0.0955  0.0398  0.0367  0.0366  0.0262  0.0001 </r>
        <r>  0.0918  0.0253  0.0100  0.0465  0.0194  0.0753  0.0179  0.0538  0.0001 </r>
       </set>
       <set comment="band 16">
        <r>  0.0918  0.0253  0.0100  0.0465  0.0194  0.0753  0.0179  0.0538  0.0001 </r>
        <r>  0.1883  0.0520  0.0049  0.0955  0.0398  0.0367  0.0366  0.0262  0.0001 </r>
       </set>
      </set>
      <set comment="kpoint 255">
       <set comment="band 1">
        <r>  0.0416  0.0106  0.0034  0.0207  0.0643  0.0204  0.0311  0.2048  0.0347 </r>
        <r>  0.0379  0.0097  0.0037  0.0189  0.0587  0.0223  0.0284  0.2243  0.0316 </r>
       </set>
       <set comment="band 2">
        <r>  0.0379  0.0097  0.0037  0.0189  0.0587  0.0223  0.0284  0.2243  0.0316 </r>
        <r>  0.0416  0.0106  0.0034  0.0207  0.0643  0.0204  0.0311  0.2048  0.0347 </r>
       </set>
       <set comment="band 3">
        <r>  0.0018  0.0088  0.0123  0.0012  0.0796  0.0878  0.0302  0.0747  0.0092 </r>
        <r>  0.0081  0.0388  0.0028  0.0054  0.3522  0.0198  0.1337  0.0169  0.0409 </r>
       </set>
       <set comment="band 4">
        <r>  0.0081  0.0388  0.0028  0.0054  0.3522  0.0198  0.1337  0.0169  0.0409 </r>
        <r>  0.0018  0.0088  0.0123  0.0012  0.0796  0.0878  0.0302  0.0747  0.0092 </r>
       </set>
       <set comment="band 5">
        <r>  0.0023  0.0037  0.0269  0.0219  0.0175  0.2348  0.0204  0.0060  0.0387 </r>
        <r>  0.0099  0.0164  0.0061  0.0957  0.0765  0.0537  0.0894  0.0014  0.1693 </r>
       </set>
       <set comment="band 6">
        <r>  0.0099  0.0164  0.0061  0.0957  0.0765  0.0537  0.0894  0.0014  0.1693 </r>
        <r>  0.0023  0.0037  0.0269  0.0219  0.0175  0.2348  0.0204  0.0060  0.0387 </r>
       </set>
       <set comment="band 7">
        <r>  0.0009  0.0008  0.0017  0.0027  0.0288  0.2932  0.0061  0.0897  0.0539 </r>
        <r>  0.0040  0.0034  0.0004  0.0112  0.1216  0.0694  0.0259  0.0212  0.2277 </r>
       </set>
       <set comment="band 8">
        <r>  0.0040  0.0034  0.0004  0.0112  0.1216  0.0694  0.0259  0.0212  0.2277 </r>
        <r>  0.0009  0.0008  0.0017  0.0027  0.0288  0.2932  0.0061  0.0897  0.0539 </r>
       </set>
       <set comment="band 9">
        <r>  0.0001  0.0001  0.0012  0.0010  0.0051  0.0598  0.2297  0.1193  0.0326 </r>
        <r>  0.0002  0.0001  0.0008  0.0016  0.0081  0.0378  0.3633  0.0754  0.0515 </r>
       </set>
       <set comment="band 10">
        <r>  0.0002  0.0001  0.0008  0.0016  0.0081  0.0378  0.3633  0.0754  0.0515 </r>
        <r>  0.0001  0.0001  0.0012  0.0010  0.0051  0.0598  0.2297  0.1193  0.0326 </r>
       </set>
       <set comment="band 11">
        <r>  0.0445  0.0229  0.0035  0.2394  0.0327  0.0004  0.0030  0.0031  0.3172 </r>
        <r>  0.0017  0.0009  0.0920  0.0091  0.0012  0.0096  0.0001  0.0819  0.0121 </r>
       </set>
       <set comment="band 12">
        <r>  0.0017  0.0009  0.0920  0.0091  0.0012  0.0096  0.0001  0.0819  0.0121 </r>
        <r>  0.0445  0.0229  0.0035  0.2394  0.0327  0.0004  0.0030  0.0031  0.3172 </r>
       </set>
       <set comment="band 13">
        <r>  0.0416  0.0409  0.0326  0.0039  0.0527  0.0479  0.0029  0.0854  0.0028 </r>
        <r>  0.1442  0.1416  0.0094  0.0136  0.1828  0.0138  0.0101  0.0246  0.0097 </r>
       </set>
       <set comment="band 14">
        <r>  0.1442  0.1416  0.0094  0.0136  0.1828  0.0138  0.0101  0.0246  0.0097 </r>
        <r>  0.0416  0.0409  0.0326  0.0039  0.0527  0.0479  0.0029  0.0854  0.0028 </r>
       </set>
       <set comment="band 15">
        <r>  0.0965  0.0467  0.0117  0.0328  0.0253  0.0776  0.0158  0.0435  0.0021 </r>
        <r>  0.1717  0.0832  0.0066  0.0583  0.0450  0.0436  0.0282  0.0244  0.0037 </r>
       </set>
       <set comment="band 16">
        <r>  0.1717  0.0832  0.0066  0.0583  0.0450  0.0436  0.0282  0.0244  0.0037 </r>
        <r>  0.0965  0.0467  0.0117  0.0328  0.0253  0.0776  0.0158  0.0435  0.0021 </r>
       </set>
      </set>
      <set comment="kpoint 256">
       <set comment="band 1">
        <r>  0.0559  0.0259  0.0005  0.0191  0.1306  0.0218  0.0483  0.0655  0.0501 </r>
        <r>  0.0130  0.0060  0.0020  0.0044  0.0302  0.0943  0.0112  0.2828  0.0116 </r>
       </set>
       <set comment="band 2">
        <r>  0.0130  0.0060  0.0020  0.0044  0.0302  0.0943  0.0112  0.2828  0.0116 </r>
        <r>  0.0559  0.0259  0.0005  0.0191  0.1306  0.0218  0.0483  0.0655  0.0501 </r>
       </set>
       <set comment="band 3">
        <r>  0.0031  0.0232  0.0018  0.0085  0.2010  0.0463  0.1591  0.0318  0.0690 </r>
        <r>  0.0013  0.0100  0.0043  0.0037  0.0867  0.1073  0.0686  0.0737  0.0297 </r>
       </set>
       <set comment="band 4">
        <r>  0.0013  0.0100  0.0043  0.0037  0.0867  0.1073  0.0686  0.0737  0.0297 </r>
        <r>  0.0031  0.0232  0.0018  0.0085  0.2010  0.0463  0.1591  0.0318  0.0690 </r>
       </set>
       <set comment="band 5">
        <r>  0.0140  0.0332  0.0051  0.0969  0.1204  0.0259  0.0195  0.0102  0.1937 </r>
        <r>  0.0019  0.0046  0.0369  0.0134  0.0166  0.1874  0.0027  0.0739  0.0268 </r>
       </set>
       <set comment="band 6">
        <r>  0.0019  0.0046  0.0369  0.0134  0.0166  0.1874  0.0027  0.0739  0.0268 </r>
        <r>  0.0140  0.0332  0.0051  0.0969  0.1204  0.0259  0.0195  0.0102  0.1937 </r>
       </set>
       <set comment="band 7">
        <r>  0.0005  0.0032  0.0019  0.0091  0.0736  0.1499  0.0053  0.0832  0.1504 </r>
        <r>  0.0005  0.0038  0.0016  0.0108  0.0875  0.1261  0.0063  0.0700  0.1788 </r>
       </set>
       <set comment="band 8">
        <r>  0.0005  0.0038  0.0016  0.0108  0.0875  0.1261  0.0063  0.0700  0.1788 </r>
        <r>  0.0005  0.0032  0.0019  0.0091  0.0736  0.1499  0.0053  0.0832  0.1504 </r>
       </set>
       <set comment="band 9">
        <r>  0.0010  0.0009  0.0000  0.0003  0.0312  0.0048  0.6131  0.0064  0.0241 </r>
        <r>  0.0000  0.0000  0.0010  0.0000  0.0013  0.1187  0.0250  0.1582  0.0010 </r>
       </set>
       <set comment="band 10">
        <r>  0.0000  0.0000  0.0010  0.0000  0.0013  0.1187  0.0250  0.1582  0.0010 </r>
        <r>  0.0010  0.0009  0.0000  0.0003  0.0312  0.0048  0.6131  0.0064  0.0241 </r>
       </set>
       <set comment="band 11">
        <r>  0.0015  0.0153  0.0911  0.0427  0.0183  0.0264  0.0008  0.0228  0.0431 </r>
        <r>  0.0068  0.0717  0.0195  0.1995  0.0856  0.0057  0.0039  0.0049  0.2015 </r>
       </set>
       <set comment="band 12">
        <r>  0.0068  0.0717  0.0195  0.1995  0.0856  0.0057  0.0039  0.0049  0.2015 </r>
        <r>  0.0015  0.0153  0.0911  0.0427  0.0183  0.0264  0.0008  0.0228  0.0431 </r>
       </set>
       <set comment="band 13">
        <r>  0.2311  0.0922  0.0014  0.0471  0.1701  0.0023  0.0109  0.0069  0.0626 </r>
        <r>  0.0111  0.0044  0.0286  0.0023  0.0082  0.0478  0.0005  0.1435  0.0030 </r>
       </set>
       <set comment="band 14">
        <r>  0.0111  0.0044  0.0286  0.0023  0.0082  0.0478  0.0005  0.1435  0.0030 </r>
        <r>  0.2311  0.0922  0.0014  0.0471  0.1701  0.0023  0.0109  0.0069  0.0626 </r>
       </set>
       <set comment="band 15">
        <r>  0.0379  0.0236  0.0161  0.0079  0.0083  0.1116  0.0059  0.0506  0.0028 </r>
        <r>  0.2289  0.1422  0.0027  0.0477  0.0500  0.0185  0.0354  0.0084  0.0168 </r>
       </set>
       <set comment="band 16">
        <r>  0.2289  0.1422  0.0027  0.0477  0.0500  0.0185  0.0354  0.0084  0.0168 </r>
        <r>  0.0379  0.0236  0.0161  0.0079  0.0083  0.1116  0.0059  0.0506  0.0028 </r>
       </set>
      </set>
      <set comment="kpoint 257">
       <set comment="band 1">
        <r>  0.0399  0.0110  0.0037  0.0270  0.0393  0.0001  0.0419  0.2292  0.0337 </r>
        <r>  0.0333  0.0092  0.0044  0.0225  0.0328  0.0002  0.0350  0.2743  0.0282 </r>
       </set>
       <set comment="band 2">
        <r>  0.0333  0.0092  0.0044  0.0225  0.0328  0.0002  0.0350  0.2743  0.0282 </r>
        <r>  0.0399  0.0110  0.0037  0.0270  0.0393  0.0001  0.0419  0.2292  0.0337 </r>
       </set>
       <set comment="band 3">
        <r>  0.0103  0.0283  0.0104  0.0000  0.2056  0.1299  0.0377  0.0063  0.0022 </r>
        <r>  0.0132  0.0364  0.0081  0.0000  0.2646  0.1010  0.0485  0.0049  0.0028 </r>
       </set>
       <set comment="band 4">
        <r>  0.0132  0.0364  0.0081  0.0000  0.2646  0.1010  0.0485  0.0049  0.0028 </r>
        <r>  0.0103  0.0283  0.0104  0.0000  0.2056  0.1299  0.0377  0.0063  0.0022 </r>
       </set>
       <set comment="band 5">
        <r>  0.0004  0.0032  0.0175  0.0469  0.0480  0.1133  0.0647  0.0021  0.1049 </r>
        <r>  0.0007  0.0050  0.0112  0.0731  0.0749  0.0726  0.1010  0.0013  0.1637 </r>
       </set>
       <set comment="band 6">
        <r>  0.0007  0.0050  0.0112  0.0731  0.0749  0.0726  0.1010  0.0013  0.1637 </r>
        <r>  0.0004  0.0032  0.0175  0.0469  0.0480  0.1133  0.0647  0.0021  0.1049 </r>
       </set>
       <set comment="band 7">
        <r>  0.0067  0.0002  0.0000  0.0063  0.1404  0.0150  0.0320  0.0046  0.2581 </r>
        <r>  0.0003  0.0000  0.0002  0.0003  0.0057  0.3693  0.0013  0.1130  0.0105 </r>
       </set>
       <set comment="band 8">
        <r>  0.0003  0.0000  0.0002  0.0003  0.0057  0.3693  0.0013  0.1130  0.0105 </r>
        <r>  0.0067  0.0002  0.0000  0.0063  0.1404  0.0150  0.0320  0.0046  0.2581 </r>
       </set>
       <set comment="band 9">
        <r>  0.0002  0.0000  0.0011  0.0013  0.0028  0.0553  0.2606  0.1114  0.0359 </r>
        <r>  0.0003  0.0000  0.0008  0.0017  0.0036  0.0426  0.3382  0.0858  0.0465 </r>
       </set>
       <set comment="band 10">
        <r>  0.0003  0.0000  0.0008  0.0017  0.0036  0.0426  0.3382  0.0858  0.0465 </r>
        <r>  0.0002  0.0000  0.0011  0.0013  0.0028  0.0553  0.2606  0.1114  0.0359 </r>
       </set>
       <set comment="band 11">
        <r>  0.0599  0.0074  0.0030  0.2385  0.0213  0.0002  0.0001  0.0030  0.3336 </r>
        <r>  0.0019  0.0002  0.0927  0.0078  0.0007  0.0060  0.0000  0.0933  0.0109 </r>
       </set>
       <set comment="band 12">
        <r>  0.0019  0.0002  0.0927  0.0078  0.0007  0.0060  0.0000  0.0933  0.0109 </r>
        <r>  0.0599  0.0074  0.0030  0.2385  0.0213  0.0002  0.0001  0.0030  0.3336 </r>
       </set>
       <set comment="band 13">
        <r>  0.0022  0.2622  0.0118  0.0081  0.2527  0.0081  0.0004  0.0154  0.0033 </r>
        <r>  0.0005  0.0635  0.0488  0.0020  0.0612  0.0335  0.0001  0.0634  0.0008 </r>
       </set>
       <set comment="band 14">
        <r>  0.0005  0.0635  0.0488  0.0020  0.0612  0.0335  0.0001  0.0634  0.0008 </r>
        <r>  0.0022  0.2622  0.0118  0.0081  0.2527  0.0081  0.0004  0.0154  0.0033 </r>
       </set>
       <set comment="band 15">
        <r>  0.1444  0.0000  0.0021  0.0338  0.0000  0.0967  0.0183  0.0599  0.0003 </r>
        <r>  0.2964  0.0000  0.0010  0.0693  0.0000  0.0471  0.0376  0.0292  0.0007 </r>
       </set>
       <set comment="band 16">
        <r>  0.2964  0.0000  0.0010  0.0693  0.0000  0.0471  0.0376  0.0292  0.0007 </r>
        <r>  0.1444  0.0000  0.0021  0.0338  0.0000  0.0967  0.0183  0.0599  0.0003 </r>
       </set>
      </set>
      <set comment="kpoint 258">
       <set comment="band 1">
        <r>  0.0000  0.0000  0.0015  0.0000  0.0000  0.0393  0.0000  0.4570  0.0000 </r>
        <r>  0.0501  0.0322  0.0000  0.0365  0.1094  0.0000  0.0854  0.0001  0.0637 </r>
       </set>
       <set comment="band 2">
        <r>  0.0501  0.0322  0.0000  0.0365  0.1094  0.0000  0.0854  0.0001  0.0637 </r>
        <r>  0.0000  0.0000  0.0015  0.0000  0.0000  0.0393  0.0000  0.4570  0.0000 </r>
       </set>
       <set comment="band 3">
        <r>  0.0026  0.0046  0.0021  0.0013  0.0205  0.3339  0.0192  0.0547  0.0020 </r>
        <r>  0.0215  0.0384  0.0002  0.0105  0.1719  0.0399  0.1608  0.0065  0.0166 </r>
       </set>
       <set comment="band 4">
        <r>  0.0215  0.0384  0.0002  0.0105  0.1719  0.0399  0.1608  0.0065  0.0166 </r>
        <r>  0.0026  0.0046  0.0021  0.0013  0.0205  0.3339  0.0192  0.0547  0.0020 </r>
       </set>
       <set comment="band 5">
        <r>  0.0008  0.0111  0.0322  0.0302  0.0857  0.0437  0.0059  0.0044  0.0926 </r>
        <r>  0.0021  0.0275  0.0130  0.0750  0.2130  0.0176  0.0146  0.0018  0.2303 </r>
       </set>
       <set comment="band 6">
        <r>  0.0021  0.0275  0.0130  0.0750  0.2130  0.0176  0.0146  0.0018  0.2303 </r>
        <r>  0.0008  0.0111  0.0322  0.0302  0.0857  0.0437  0.0059  0.0044  0.0926 </r>
       </set>
       <set comment="band 7">
        <r>  0.0017  0.0019  0.0000  0.0094  0.1781  0.0105  0.0093  0.0057  0.2948 </r>
        <r>  0.0001  0.0001  0.0007  0.0004  0.0066  0.2807  0.0003  0.1532  0.0110 </r>
       </set>
       <set comment="band 8">
        <r>  0.0001  0.0001  0.0007  0.0004  0.0066  0.2807  0.0003  0.1532  0.0110 </r>
        <r>  0.0017  0.0019  0.0000  0.0094  0.1781  0.0105  0.0093  0.0057  0.2948 </r>
       </set>
       <set comment="band 9">
        <r>  0.0006  0.0000  0.0004  0.0002  0.0015  0.0862  0.1805  0.1246  0.0057 </r>
        <r>  0.0016  0.0001  0.0001  0.0006  0.0041  0.0320  0.4866  0.0462  0.0155 </r>
       </set>
       <set comment="band 10">
        <r>  0.0016  0.0001  0.0001  0.0006  0.0041  0.0320  0.4866  0.0462  0.0155 </r>
        <r>  0.0006  0.0000  0.0004  0.0002  0.0015  0.0862  0.1805  0.1246  0.0057 </r>
       </set>
       <set comment="band 11">
        <r>  0.0014  0.0026  0.1166  0.0181  0.0036  0.0091  0.0001  0.0400  0.0194 </r>
        <r>  0.0196  0.0369  0.0082  0.2584  0.0508  0.0006  0.0009  0.0028  0.2777 </r>
       </set>
       <set comment="band 12">
        <r>  0.0196  0.0369  0.0082  0.2584  0.0508  0.0006  0.0009  0.0028  0.2777 </r>
        <r>  0.0014  0.0026  0.1166  0.0181  0.0036  0.0091  0.0001  0.0400  0.0194 </r>
       </set>
       <set comment="band 13">
        <r>  0.0299  0.1199  0.0194  0.0152  0.1169  0.0288  0.0013  0.0581  0.0122 </r>
        <r>  0.0359  0.1441  0.0162  0.0183  0.1405  0.0240  0.0016  0.0484  0.0146 </r>
       </set>
       <set comment="band 14">
        <r>  0.0359  0.1441  0.0162  0.0183  0.1405  0.0240  0.0016  0.0484  0.0146 </r>
        <r>  0.0299  0.1199  0.0194  0.0152  0.1169  0.0288  0.0013  0.0581  0.0122 </r>
       </set>
       <set comment="band 15">
        <r>  0.1813  0.0165  0.0036  0.0173  0.0070  0.0867  0.0193  0.0535  0.0019 </r>
        <r>  0.2658  0.0241  0.0025  0.0253  0.0102  0.0591  0.0282  0.0365  0.0028 </r>
       </set>
       <set comment="band 16">
        <r>  0.2658  0.0241  0.0025  0.0253  0.0102  0.0591  0.0282  0.0365  0.0028 </r>
        <r>  0.1813  0.0165  0.0036  0.0173  0.0070  0.0867  0.0193  0.0535  0.0019 </r>
       </set>
      </set>
      <set comment="kpoint 259">
       <set comment="band 1">
        <r>  0.0000  0.0421  0.0000  0.0421  0.0968  0.0750  0.0000  0.0750  0.0968 </r>
        <r>  0.0000  0.0236  0.0000  0.0236  0.0541  0.1341  0.0000  0.1341  0.0541 </r>
       </set>
       <set comment="band 2">
        <r>  0.0000  0.0236  0.0000  0.0236  0.0541  0.1341  0.0000  0.1341  0.0541 </r>
        <r>  0.0000  0.0421  0.0000  0.0421  0.0968  0.0750  0.0000  0.0750  0.0968 </r>
       </set>
       <set comment="band 3">
        <r>  0.0256  0.0000  0.0000  0.0000  0.0000  0.1850  0.0999  0.1850  0.0000 </r>
        <r>  0.0431  0.0000  0.0000  0.0000  0.0000  0.1099  0.1682  0.1099  0.0000 </r>
       </set>
       <set comment="band 4">
        <r>  0.0431  0.0000  0.0000  0.0000  0.0000  0.1099  0.1682  0.1099  0.0000 </r>
        <r>  0.0256  0.0000  0.0000  0.0000  0.0000  0.1850  0.0999  0.1850  0.0000 </r>
       </set>
       <set comment="band 5">
        <r>  0.0000  0.0591  0.0081  0.0591  0.2965  0.0000  0.0000  0.0000  0.2965 </r>
        <r>  0.0000  0.0123  0.0391  0.0123  0.0616  0.0000  0.0000  0.0000  0.0616 </r>
       </set>
       <set comment="band 6">
        <r>  0.0000  0.0123  0.0391  0.0123  0.0616  0.0000  0.0000  0.0000  0.0616 </r>
        <r>  0.0000  0.0591  0.0081  0.0591  0.2965  0.0000  0.0000  0.0000  0.2965 </r>
       </set>
       <set comment="band 7">
        <r>  0.0000  0.0039  0.0000  0.0039  0.2338  0.0195  0.0000  0.0195  0.2338 </r>
        <r>  0.0000  0.0004  0.0000  0.0004  0.0226  0.2025  0.0000  0.2025  0.0226 </r>
       </set>
       <set comment="band 8">
        <r>  0.0000  0.0004  0.0000  0.0004  0.0226  0.2025  0.0000  0.2025  0.0226 </r>
        <r>  0.0000  0.0039  0.0000  0.0039  0.2338  0.0195  0.0000  0.0195  0.2338 </r>
       </set>
       <set comment="band 9">
        <r>  0.0031  0.0000  0.0000  0.0000  0.0000  0.0140  0.6275  0.0140  0.0000 </r>
        <r>  0.0003  0.0000  0.0000  0.0000  0.0000  0.1296  0.0680  0.1296  0.0000 </r>
       </set>
       <set comment="band 10">
        <r>  0.0003  0.0000  0.0000  0.0000  0.0000  0.1296  0.0680  0.1296  0.0000 </r>
        <r>  0.0031  0.0000  0.0000  0.0000  0.0000  0.0140  0.6275  0.0140  0.0000 </r>
       </set>
       <set comment="band 11">
        <r>  0.0000  0.0713  0.0975  0.0713  0.0781  0.0000  0.0000  0.0000  0.0781 </r>
        <r>  0.0000  0.0957  0.0726  0.0957  0.1049  0.0000  0.0000  0.0000  0.1049 </r>
       </set>
       <set comment="band 12">
        <r>  0.0000  0.0957  0.0726  0.0957  0.1049  0.0000  0.0000  0.0000  0.1049 </r>
        <r>  0.0000  0.0713  0.0975  0.0713  0.0781  0.0000  0.0000  0.0000  0.0781 </r>
       </set>
       <set comment="band 13">
        <r>  0.0000  0.0857  0.0000  0.0857  0.0662  0.0483  0.0000  0.0483  0.0662 </r>
        <r>  0.0000  0.0961  0.0000  0.0961  0.0742  0.0431  0.0000  0.0431  0.0742 </r>
       </set>
       <set comment="band 14">
        <r>  0.0000  0.0961  0.0000  0.0961  0.0742  0.0431  0.0000  0.0431  0.0742 </r>
        <r>  0.0000  0.0857  0.0000  0.0857  0.0662  0.0483  0.0000  0.0483  0.0662 </r>
       </set>
       <set comment="band 15">
        <r>  0.3896  0.0000  0.0000  0.0000  0.0000  0.0375  0.0349  0.0375  0.0000 </r>
        <r>  0.1556  0.0000  0.0000  0.0000  0.0000  0.0939  0.0140  0.0939  0.0000 </r>
       </set>
       <set comment="band 16">
        <r>  0.1556  0.0000  0.0000  0.0000  0.0000  0.0939  0.0140  0.0939  0.0000 </r>
        <r>  0.3896  0.0000  0.0000  0.0000  0.0000  0.0375  0.0349  0.0375  0.0000 </r>
       </set>
      </set>
     </set>
    </set>
   </array>
  </projected>
 </calculation>
 <structure name="finalpos" >
  <crystal>
   <varray name="basis" >
    <v>       1.23599995      -2.14081471       0.00000000 </v>
    <v>       1.23599995       2.14081471       0.00000000 </v>
    <v>       0.00000000       0.00000000       4.02114408 </v>
   </varray>
   <i name="volume">     21.28027152 </i>
   <varray name="rec_basis" >
    <v>       0.40453076      -0.23355594       0.00000000 </v>
    <v>       0.40453076       0.23355594       0.00000000 </v>
    <v>       0.00000000       0.00000000       0.24868544 </v>
   </varray>
  </crystal>
  <varray name="positions" >
   <v>       0.33333333       0.66666667       0.25000000 </v>
   <v>       0.66666667       0.33333333       0.75000000 </v>
  </varray>
 </structure>
</modeling>
