   2   2   0   0
  0.1579990E+02  0.2760000E-09  0.2760000E-09  0.4790000E-09  0.5000000E-15
  1.000000000000000E-004
  CAR 
 Pt-hcp                                  
     35.86268624    -45.37753519  301     11.12408273      1.00000000
    -45.378  0.0000E+00  0.0000E+00
    -45.107  0.0000E+00  0.0000E+00
    -44.836  0.0000E+00  0.0000E+00
    -44.565  0.0000E+00  0.0000E+00
    -44.294  0.0000E+00  0.0000E+00
    -44.024  0.0000E+00  0.0000E+00
    -43.753  0.0000E+00  0.0000E+00
    -43.482  0.0000E+00  0.0000E+00
    -43.211  0.0000E+00  0.0000E+00
    -42.940  0.0000E+00  0.0000E+00
    -42.670  0.0000E+00  0.0000E+00
    -42.399  0.0000E+00  0.0000E+00
    -42.128  0.0000E+00  0.0000E+00
    -41.857  0.1242E-06  0.3363E-07
    -41.586  0.6775E+01  0.1835E+01
    -41.316  0.2325E+02  0.8131E+01
    -41.045  0.1429E+02  0.1200E+02
    -40.774  0.4641E-03  0.1200E+02
    -40.503  0.0000E+00  0.1200E+02
    -40.232  0.0000E+00  0.1200E+02
    -39.962  0.0000E+00  0.1200E+02
    -39.691  0.0000E+00  0.1200E+02
    -39.420  0.0000E+00  0.1200E+02
    -39.149  0.0000E+00  0.1200E+02
    -38.878  0.0000E+00  0.1200E+02
    -38.608  0.0000E+00  0.1200E+02
    -38.337  0.0000E+00  0.1200E+02
    -38.066  0.0000E+00  0.1200E+02
    -37.795  0.0000E+00  0.1200E+02
    -37.524  0.0000E+00  0.1200E+02
    -37.254  0.0000E+00  0.1200E+02
    -36.983  0.0000E+00  0.1200E+02
    -36.712  0.0000E+00  0.1200E+02
    -36.441  0.0000E+00  0.1200E+02
    -36.170  0.0000E+00  0.1200E+02
    -35.900  0.0000E+00  0.1200E+02
    -35.629  0.0000E+00  0.1200E+02
    -35.358  0.0000E+00  0.1200E+02
    -35.087  0.0000E+00  0.1200E+02
    -34.816  0.0000E+00  0.1200E+02
    -34.546  0.0000E+00  0.1200E+02
    -34.275  0.0000E+00  0.1200E+02
    -34.004  0.0000E+00  0.1200E+02
    -33.733  0.0000E+00  0.1200E+02
    -33.462  0.0000E+00  0.1200E+02
    -33.192  0.0000E+00  0.1200E+02
    -32.921  0.0000E+00  0.1200E+02
    -32.650  0.0000E+00  0.1200E+02
    -32.379  0.0000E+00  0.1200E+02
    -32.108  0.0000E+00  0.1200E+02
    -31.837  0.0000E+00  0.1200E+02
    -31.567  0.0000E+00  0.1200E+02
    -31.296  0.0000E+00  0.1200E+02
    -31.025  0.0000E+00  0.1200E+02
    -30.754  0.0000E+00  0.1200E+02
    -30.483  0.0000E+00  0.1200E+02
    -30.213  0.0000E+00  0.1200E+02
    -29.942  0.0000E+00  0.1200E+02
    -29.671  0.0000E+00  0.1200E+02
    -29.400  0.0000E+00  0.1200E+02
    -29.129  0.0000E+00  0.1200E+02
    -28.859  0.0000E+00  0.1200E+02
    -28.588  0.0000E+00  0.1200E+02
    -28.317  0.0000E+00  0.1200E+02
    -28.046  0.0000E+00  0.1200E+02
    -27.775  0.0000E+00  0.1200E+02
    -27.505  0.0000E+00  0.1200E+02
    -27.234  0.0000E+00  0.1200E+02
    -26.963  0.0000E+00  0.1200E+02
    -26.692  0.0000E+00  0.1200E+02
    -26.421  0.0000E+00  0.1200E+02
    -26.151  0.0000E+00  0.1200E+02
    -25.880  0.0000E+00  0.1200E+02
    -25.609  0.0000E+00  0.1200E+02
    -25.338  0.0000E+00  0.1200E+02
    -25.067  0.0000E+00  0.1200E+02
    -24.797  0.0000E+00  0.1200E+02
    -24.526  0.0000E+00  0.1200E+02
    -24.255  0.0000E+00  0.1200E+02
    -23.984  0.0000E+00  0.1200E+02
    -23.713  0.0000E+00  0.1200E+02
    -23.443  0.0000E+00  0.1200E+02
    -23.172  0.0000E+00  0.1200E+02
    -22.901  0.0000E+00  0.1200E+02
    -22.630  0.0000E+00  0.1200E+02
    -22.359  0.0000E+00  0.1200E+02
    -22.089  0.0000E+00  0.1200E+02
    -21.818  0.0000E+00  0.1200E+02
    -21.547  0.0000E+00  0.1200E+02
    -21.276  0.0000E+00  0.1200E+02
    -21.005  0.0000E+00  0.1200E+02
    -20.735  0.0000E+00  0.1200E+02
    -20.464  0.0000E+00  0.1200E+02
    -20.193  0.0000E+00  0.1200E+02
    -19.922  0.0000E+00  0.1200E+02
    -19.651  0.0000E+00  0.1200E+02
    -19.381  0.0000E+00  0.1200E+02
    -19.110  0.0000E+00  0.1200E+02
    -18.839  0.0000E+00  0.1200E+02
    -18.568  0.0000E+00  0.1200E+02
    -18.297  0.0000E+00  0.1200E+02
    -18.027  0.0000E+00  0.1200E+02
    -17.756  0.0000E+00  0.1200E+02
    -17.485  0.0000E+00  0.1200E+02
    -17.214  0.0000E+00  0.1200E+02
    -16.943  0.0000E+00  0.1200E+02
    -16.673  0.0000E+00  0.1200E+02
    -16.402  0.0000E+00  0.1200E+02
    -16.131  0.0000E+00  0.1200E+02
    -15.860  0.0000E+00  0.1200E+02
    -15.589  0.0000E+00  0.1200E+02
    -15.319  0.0000E+00  0.1200E+02
    -15.048  0.0000E+00  0.1200E+02
    -14.777  0.0000E+00  0.1200E+02
    -14.506  0.0000E+00  0.1200E+02
    -14.235  0.0000E+00  0.1200E+02
    -13.965  0.0000E+00  0.1200E+02
    -13.694  0.0000E+00  0.1200E+02
    -13.423  0.0000E+00  0.1200E+02
    -13.152  0.0000E+00  0.1200E+02
    -12.881  0.0000E+00  0.1200E+02
    -12.611  0.0000E+00  0.1200E+02
    -12.340  0.0000E+00  0.1200E+02
    -12.069  0.0000E+00  0.1200E+02
    -11.798  0.0000E+00  0.1200E+02
    -11.527  0.0000E+00  0.1200E+02
    -11.257  0.0000E+00  0.1200E+02
    -10.986  0.0000E+00  0.1200E+02
    -10.715  0.0000E+00  0.1200E+02
    -10.444  0.0000E+00  0.1200E+02
    -10.173  0.0000E+00  0.1200E+02
     -9.903  0.0000E+00  0.1200E+02
     -9.632  0.0000E+00  0.1200E+02
     -9.361  0.0000E+00  0.1200E+02
     -9.090  0.0000E+00  0.1200E+02
     -8.819  0.0000E+00  0.1200E+02
     -8.549  0.0000E+00  0.1200E+02
     -8.278  0.0000E+00  0.1200E+02
     -8.007  0.0000E+00  0.1200E+02
     -7.736  0.0000E+00  0.1200E+02
     -7.465  0.0000E+00  0.1200E+02
     -7.195  0.0000E+00  0.1200E+02
     -6.924  0.0000E+00  0.1200E+02
     -6.653  0.0000E+00  0.1200E+02
     -6.382  0.0000E+00  0.1200E+02
     -6.111  0.0000E+00  0.1200E+02
     -5.841  0.0000E+00  0.1200E+02
     -5.570  0.0000E+00  0.1200E+02
     -5.299  0.0000E+00  0.1200E+02
     -5.028  0.0000E+00  0.1200E+02
     -4.757  0.0000E+00  0.1200E+02
     -4.487  0.0000E+00  0.1200E+02
     -4.216  0.0000E+00  0.1200E+02
     -3.945  0.0000E+00  0.1200E+02
     -3.674  0.0000E+00  0.1200E+02
     -3.403  0.0000E+00  0.1200E+02
     -3.133  0.0000E+00  0.1200E+02
     -2.862  0.0000E+00  0.1200E+02
     -2.591  0.0000E+00  0.1200E+02
     -2.320  0.0000E+00  0.1200E+02
     -2.049  0.0000E+00  0.1200E+02
     -1.779  0.0000E+00  0.1200E+02
     -1.508  0.0000E+00  0.1200E+02
     -1.237  0.0000E+00  0.1200E+02
     -0.966  0.0000E+00  0.1200E+02
     -0.695  0.0000E+00  0.1200E+02
     -0.425  0.0000E+00  0.1200E+02
     -0.154  0.0000E+00  0.1200E+02
      0.117  0.0000E+00  0.1200E+02
      0.388  0.0000E+00  0.1200E+02
      0.659  0.0000E+00  0.1200E+02
      0.929  0.0000E+00  0.1200E+02
      1.200  0.2107E-11  0.1200E+02
      1.471  0.8695E-02  0.1200E+02
      1.742  0.2610E-01  0.1201E+02
      2.013  0.1770E+00  0.1206E+02
      2.283  0.4738E-01  0.1207E+02
      2.554  0.1552E+00  0.1211E+02
      2.825  0.1691E+00  0.1216E+02
      3.096  0.3128E+00  0.1224E+02
      3.367  0.1285E+00  0.1228E+02
      3.637  0.2871E+00  0.1236E+02
      3.908  0.4031E+00  0.1246E+02
      4.179  0.6880E+00  0.1265E+02
      4.450  0.7541E+00  0.1285E+02
      4.721  0.1586E+01  0.1328E+02
      4.991  0.2539E+01  0.1397E+02
      5.262  0.1867E+01  0.1448E+02
      5.533  0.2500E+01  0.1515E+02
      5.804  0.1860E+01  0.1566E+02
      6.075  0.3307E+01  0.1655E+02
      6.345  0.3292E+01  0.1745E+02
      6.616  0.2615E+01  0.1815E+02
      6.887  0.3315E+01  0.1905E+02
      7.158  0.2611E+01  0.1976E+02
      7.429  0.2716E+01  0.2049E+02
      7.699  0.3636E+01  0.2148E+02
      7.970  0.3687E+01  0.2248E+02
      8.241  0.3132E+01  0.2332E+02
      8.512  0.4193E+01  0.2446E+02
      8.783  0.3127E+01  0.2531E+02
      9.053  0.3033E+01  0.2613E+02
      9.324  0.1901E+01  0.2664E+02
      9.595  0.2564E+01  0.2734E+02
      9.866  0.2528E+01  0.2802E+02
     10.137  0.2754E+01  0.2877E+02
     10.407  0.2430E+01  0.2943E+02
     10.678  0.2589E+01  0.3013E+02
     10.949  0.3861E+01  0.3117E+02
     11.220  0.4390E+01  0.3236E+02
     11.491  0.2475E+01  0.3303E+02
     11.761  0.1345E+01  0.3340E+02
     12.032  0.7017E+00  0.3359E+02
     12.303  0.3278E+00  0.3367E+02
     12.574  0.1658E+00  0.3372E+02
     12.845  0.2061E+00  0.3378E+02
     13.115  0.1045E+01  0.3406E+02
     13.386  0.1082E+01  0.3435E+02
     13.657  0.5693E+00  0.3451E+02
     13.928  0.1196E+00  0.3454E+02
     14.199  0.3810E+00  0.3464E+02
     14.469  0.7016E+00  0.3483E+02
     14.740  0.1949E+00  0.3488E+02
     15.011  0.7418E+00  0.3509E+02
     15.282  0.4529E+00  0.3521E+02
     15.553  0.4925E+00  0.3534E+02
     15.823  0.9484E+00  0.3560E+02
     16.094  0.4484E+00  0.3572E+02
     16.365  0.4851E+00  0.3585E+02
     16.636  0.2866E+00  0.3593E+02
     16.907  0.2373E+00  0.3599E+02
     17.177  0.2294E+00  0.3605E+02
     17.448  0.5195E+00  0.3620E+02
     17.719  0.1076E+01  0.3649E+02
     17.990  0.9215E+00  0.3674E+02
     18.261  0.8818E+00  0.3698E+02
     18.531  0.7091E+00  0.3717E+02
     18.802  0.8527E+00  0.3740E+02
     19.073  0.7515E+00  0.3760E+02
     19.344  0.4331E+00  0.3772E+02
     19.615  0.5323E+00  0.3786E+02
     19.885  0.6990E+00  0.3805E+02
     20.156  0.1028E+01  0.3833E+02
     20.427  0.9414E+00  0.3859E+02
     20.698  0.5996E+00  0.3875E+02
     20.969  0.2856E+00  0.3883E+02
     21.239  0.6834E+00  0.3901E+02
     21.510  0.1030E+01  0.3929E+02
     21.781  0.6857E+00  0.3947E+02
     22.052  0.5474E+00  0.3962E+02
     22.323  0.3176E+00  0.3971E+02
     22.593  0.1050E+01  0.3999E+02
     22.864  0.3319E+00  0.4008E+02
     23.135  0.3797E+00  0.4019E+02
     23.406  0.1176E+01  0.4050E+02
     23.677  0.1176E+01  0.4082E+02
     23.947  0.9743E+00  0.4109E+02
     24.218  0.6521E+00  0.4126E+02
     24.489  0.7826E+00  0.4148E+02
     24.760  0.3951E+00  0.4158E+02
     25.031  0.9090E+00  0.4183E+02
     25.301  0.2072E+01  0.4239E+02
     25.572  0.1877E+01  0.4290E+02
     25.843  0.1394E+01  0.4328E+02
     26.114  0.1542E+01  0.4369E+02
     26.385  0.1095E+01  0.4399E+02
     26.655  0.1137E+01  0.4430E+02
     26.926  0.1175E+01  0.4462E+02
     27.197  0.1943E+01  0.4514E+02
     27.468  0.1977E+01  0.4568E+02
     27.739  0.9969E+00  0.4595E+02
     28.009  0.1320E+01  0.4630E+02
     28.280  0.1235E+01  0.4664E+02
     28.551  0.7867E+00  0.4685E+02
     28.822  0.8708E+00  0.4709E+02
     29.093  0.5877E+00  0.4725E+02
     29.363  0.6861E+00  0.4743E+02
     29.634  0.1873E+00  0.4748E+02
     29.905  0.6082E+00  0.4765E+02
     30.176  0.3639E+00  0.4775E+02
     30.447  0.1271E+00  0.4778E+02
     30.717  0.5921E+00  0.4794E+02
     30.988  0.6849E-01  0.4796E+02
     31.259  0.7286E-01  0.4798E+02
     31.530  0.1697E-01  0.4798E+02
     31.801  0.3842E-01  0.4799E+02
     32.071  0.4938E-04  0.4800E+02
     32.342  0.1841E-01  0.4800E+02
     32.613  0.0000E+00  0.4800E+02
     32.884  0.0000E+00  0.4800E+02
     33.155  0.0000E+00  0.4800E+02
     33.425  0.0000E+00  0.4800E+02
     33.696  0.0000E+00  0.4800E+02
     33.967  0.0000E+00  0.4800E+02
     34.238  0.0000E+00  0.4800E+02
     34.509  0.0000E+00  0.4800E+02
     34.779  0.0000E+00  0.4800E+02
     35.050  0.0000E+00  0.4800E+02
     35.321  0.0000E+00  0.4800E+02
     35.592  0.0000E+00  0.4800E+02
     35.863  0.0000E+00  0.4800E+02
