Co-fcc                                  
   1.00000000000000     
     0.000000    1.613926    1.613926
     1.613926    0.000000    1.613926
     1.613926    1.613926    0.000000
   Co
     1
Direct
  0.000000  0.000000  0.000000
 
   32   32   32
  79.329      77.844      73.563      66.964      58.731      49.629      40.389      31.629      23.819      17.274    
  12.157      8.4837      6.1259      4.8319      4.2625      4.0495      3.9807      4.0495      4.2625      4.8319    
  6.1259      8.4837      12.157      17.274      23.819      31.629      40.389      49.629      58.731      66.964    
  73.563      77.844      77.844      74.962      69.527      62.124      53.485      44.356      35.412      27.191    
  20.085      14.329      10.011      7.0726      5.3217      4.4575      4.1191      3.9850      3.9850      4.1191    
  4.4575      5.3217      7.0726      10.011      14.329      20.085      27.191      35.412      44.356      53.485    
  62.124      69.527      74.962      77.844      73.563      69.527      63.300      55.523      46.918      38.174    
  29.882      22.494      16.316      11.505      8.0731      5.8920      4.7114      4.1980      3.9971      3.9302    
  3.9971      4.1980      4.7114      5.8920      8.0731      11.505      16.316      22.494      29.882      38.174    
  46.918      55.523      63.300      69.527      73.563      74.962      66.964      62.124      55.523      47.804    
  39.633      31.618      24.258      17.913      12.807      9.0174      6.4812      5.0059      4.2984      4.0150    
  3.8882      3.8882      4.0150      4.2984      5.0059      6.4812      9.0174      12.807      17.913      24.258    
  31.618      39.633      47.804      55.523      62.124      66.964      69.527      69.527      58.731      53.485    
  46.918      39.633      32.219      25.190      18.949      13.770      9.7925      7.0149      5.3043      4.4163    
  4.0365      3.8596      3.7986      3.8596      4.0365      4.4163      5.3043      7.0149      9.7925      13.770    
  18.949      25.190      32.219      39.633      46.918      53.485      58.731      62.124      63.300      62.124    
  49.629      44.356      38.174      31.618      25.190      19.308      14.283      10.302      7.4199      5.5617    
  4.5347      4.0629      3.8430      3.7310      3.7310      3.8431      4.0629      4.5347      5.5617      7.4199    
  10.302      14.283      19.308      25.190      31.618      38.174      44.356      49.629      53.485      55.523    
  55.523      53.485      40.389      35.412      29.882      24.258      18.949      14.283      10.479      7.6383    
  5.7362      4.6313      4.0909      3.8354      3.6844      3.6329      3.6844      3.8354      4.0910      4.6313    
  5.7362      7.6382      10.479      14.283      18.949      24.258      29.882      35.412      40.389      44.356    
  46.918      47.804      46.918      44.356      31.629      27.191      22.494      17.913      13.770      10.302    
  7.6383      5.7979      4.6855      4.1127      3.8329      3.6555      3.5647      3.5647      3.6555      3.8329    
  4.1127      4.6855      5.7979      7.6382      10.302      13.770      17.913      22.494      27.191      31.629    
  35.412      38.174      39.633      39.633      38.174      35.412      23.819      20.085      16.316      12.807    
  9.7925      7.4199      5.7362      4.6855      4.1209      3.8326      3.6404      3.5228      3.4834      3.5228    
  3.6404      3.8327      4.1209      4.6855      5.7362      7.4199      9.7925      12.807      16.316      20.085    
  23.819      27.191      29.882      31.618      32.219      31.618      29.882      27.191      17.274      14.329    
  11.505      9.0174      7.0149      5.5617      4.6313      4.1127      3.8326      3.6357      3.5031      3.4370    
  3.4370      3.5031      3.6357      3.8327      4.1127      4.6313      5.5618      7.0149      9.0174      11.505    
  14.329      17.274      20.085      22.494      24.258      25.190      25.190      24.258      22.494      20.085    
  12.157      10.011      8.0731      6.4812      5.3043      4.5347      4.0909      3.8329      3.6404      3.5031    
  3.4220      3.3953      3.4220      3.5031      3.6404      3.8329      4.0910      4.5347      5.3043      6.4813    
  8.0731      10.011      12.157      14.329      16.316      17.913      18.949      19.308      18.949      17.913    
  16.316      14.329      8.4837      7.0726      5.8920      5.0059      4.4163      4.0629      3.8354      3.6555    
  3.5228      3.4370      3.3953      3.3953      3.4370      3.5228      3.6555      3.8354      4.0629      4.4163    
  5.0059      5.8920      7.0726      8.4838      10.011      11.505      12.807      13.770      14.283      14.283    
  13.770      12.807      11.505      10.011      6.1259      5.3217      4.7114      4.2984      4.0365      3.8430    
  3.6844      3.5647      3.4834      3.4370      3.4220      3.4370      3.4834      3.5647      3.6844      3.8430    
  4.0365      4.2984      4.7114      5.3218      6.1259      7.0726      8.0731      9.0174      9.7925      10.302    
  10.479      10.302      9.7925      9.0174      8.0731      7.0726      4.8319      4.4575      4.1980      4.0150    
  3.8596      3.7310      3.6329      3.5647      3.5228      3.5031      3.5031      3.5228      3.5647      3.6329    
  3.7310      3.8596      4.0150      4.1980      4.4575      4.8319      5.3218      5.8920      6.4813      7.0149    
  7.4199      7.6382      7.6382      7.4199      7.0149      6.4812      5.8920      5.3217      4.2625      4.1191    
  3.9971      3.8882      3.7986      3.7310      3.6844      3.6555      3.6404      3.6357      3.6404      3.6555    
  3.6844      3.7310      3.7986      3.8882      3.9971      4.1191      4.2625      4.4575      4.7114      5.0059    
  5.3043      5.5618      5.7362      5.7979      5.7362      5.5617      5.3043      5.0059      4.7114      4.4575    
  4.0495      3.9850      3.9302      3.8882      3.8596      3.8431      3.8354      3.8329      3.8327      3.8327    
  3.8329      3.8354      3.8430      3.8596      3.8882      3.9302      3.9850      4.0495      4.1191      4.1980    
  4.2984      4.4163      4.5347      4.6313      4.6855      4.6855      4.6313      4.5347      4.4163      4.2984    
  4.1980      4.1191      3.9807      3.9850      3.9971      4.0150      4.0365      4.0629      4.0910      4.1127    
  4.1209      4.1127      4.0910      4.0629      4.0365      4.0150      3.9971      3.9850      3.9807      3.9850    
  3.9971      4.0150      4.0365      4.0629      4.0910      4.1127      4.1209      4.1127      4.0910      4.0629    
  4.0365      4.0150      3.9971      3.9850      4.0495      4.1191      4.1980      4.2984      4.4163      4.5347    
  4.6313      4.6855      4.6855      4.6313      4.5347      4.4163      4.2984      4.1980      4.1191      4.0495    
  3.9850      3.9302      3.8882      3.8596      3.8430      3.8354      3.8329      3.8327      3.8327      3.8329    
  3.8354      3.8431      3.8596      3.8882      3.9302      3.9850      4.2625      4.4575      4.7114      5.0059    
  5.3043      5.5617      5.7362      5.7979      5.7362      5.5618      5.3043      5.0059      4.7114      4.4575    
  4.2625      4.1191      3.9971      3.8882      3.7986      3.7310      3.6844      3.6555      3.6404      3.6357    
  3.6404      3.6555      3.6844      3.7310      3.7986      3.8882      3.9971      4.1191      4.8319      5.3217    
  5.8920      6.4812      7.0149      7.4199      7.6382      7.6382      7.4199      7.0149      6.4813      5.8920    
  5.3218      4.8319      4.4575      4.1980      4.0150      3.8596      3.7310      3.6329      3.5647      3.5228    
  3.5031      3.5031      3.5228      3.5647      3.6329      3.7310      3.8596      4.0150      4.1980      4.4575    
  6.1259      7.0726      8.0731      9.0174      9.7925      10.302      10.479      10.302      9.7925      9.0174    
  8.0731      7.0726      6.1259      5.3218      4.7114      4.2984      4.0365      3.8430      3.6844      3.5647    
  3.4834      3.4370      3.4220      3.4370      3.4834      3.5647      3.6844      3.8430      4.0365      4.2984    
  4.7114      5.3217      8.4837      10.011      11.505      12.807      13.770      14.283      14.283      13.770    
  12.807      11.505      10.011      8.4838      7.0726      5.8920      5.0059      4.4163      4.0629      3.8354    
  3.6555      3.5228      3.4370      3.3953      3.3953      3.4370      3.5228      3.6555      3.8354      4.0629    
  4.4163      5.0059      5.8920      7.0726      12.157      14.329      16.316      17.913      18.949      19.308    
  18.949      17.913      16.316      14.329      12.157      10.011      8.0731      6.4813      5.3043      4.5347    
  4.0910      3.8329      3.6404      3.5031      3.4220      3.3953      3.4220      3.5031      3.6404      3.8329    
  4.0909      4.5347      5.3043      6.4812      8.0731      10.011      17.274      20.085      22.494      24.258    
  25.190      25.190      24.258      22.494      20.085      17.274      14.329      11.505      9.0174      7.0149    
  5.5618      4.6313      4.1127      3.8327      3.6357      3.5031      3.4370      3.4370      3.5031      3.6357    
  3.8326      4.1127      4.6313      5.5617      7.0149      9.0174      11.505      14.329      23.819      27.191    
  29.882      31.618      32.219      31.618      29.882      27.191      23.819      20.085      16.316      12.807    
  9.7925      7.4199      5.7362      4.6855      4.1209      3.8327      3.6404      3.5228      3.4834      3.5228    
  3.6404      3.8326      4.1209      4.6855      5.7362      7.4199      9.7925      12.807      16.316      20.085    
  31.629      35.412      38.174      39.633      39.633      38.174      35.412      31.629      27.191      22.494    
  17.913      13.770      10.302      7.6382      5.7979      4.6855      4.1127      3.8329      3.6555      3.5647    
  3.5647      3.6555      3.8329      4.1127      4.6855      5.7979      7.6383      10.302      13.770      17.913    
  22.494      27.191      40.389      44.356      46.918      47.804      46.918      44.356      40.389      35.412    
  29.882      24.258      18.949      14.283      10.479      7.6382      5.7362      4.6313      4.0910      3.8354    
  3.6844      3.6329      3.6844      3.8354      4.0909      4.6313      5.7362      7.6383      10.479      14.283    
  18.949      24.258      29.882      35.412      49.629      53.485      55.523      55.523      53.485      49.629    
  44.356      38.174      31.618      25.190      19.308      14.283      10.302      7.4199      5.5617      4.5347    
  4.0629      3.8431      3.7310      3.7310      3.8430      4.0629      4.5347      5.5617      7.4199      10.302    
  14.283      19.308      25.190      31.618      38.174      44.356      58.731      62.124      63.300      62.124    
  58.731      53.485      46.918      39.633      32.219      25.190      18.949      13.770      9.7925      7.0149    
  5.3043      4.4163      4.0365      3.8596      3.7986      3.8596      4.0365      4.4163      5.3043      7.0149    
  9.7925      13.770      18.949      25.190      32.219      39.633      46.918      53.485      66.964      69.527    
  69.527      66.964      62.124      55.523      47.804      39.633      31.618      24.258      17.913      12.807    
  9.0174      6.4812      5.0059      4.2984      4.0150      3.8882      3.8882      4.0150      4.2984      5.0059    
  6.4812      9.0174      12.807      17.913      24.258      31.618      39.633      47.804      55.523      62.124    
  73.563      74.962      73.563      69.527      63.300      55.523      46.918      38.174      29.882      22.494    
  16.316      11.505      8.0731      5.8920      4.7114      4.1980      3.9971      3.9302      3.9971      4.1980    
  4.7114      5.8920      8.0731      11.505      16.316      22.494      29.882      38.174      46.918      55.523    
  63.300      69.527      77.844      77.844      74.962      69.527      62.124      53.485      44.356      35.412    
  27.191      20.085      14.329      10.011      7.0726      5.3217      4.4575      4.1191      3.9850      3.9850    
  4.1191      4.4575      5.3217      7.0726      10.011      14.329      20.085      27.191      35.412      44.356    
  53.485      62.124      69.527      74.962      77.844      74.962      69.527      62.124      53.485      44.356    
  35.412      27.191      20.085      14.329      10.011      7.0726      5.3217      4.4575      4.1191      3.9850    
  3.9850      4.1191      4.4575      5.3217      7.0726      10.011      14.329      20.085      27.191      35.412    
  44.356      53.485      62.124      69.527      74.962      77.844      74.962      70.841      64.486      56.554    
  47.782      38.875      30.431      22.910      16.617      11.712      8.2055      5.9697      4.7539      4.2233    
  4.0189      3.9514      4.0189      4.2233      4.7539      5.9697      8.2055      11.712      16.617      22.910    
  30.431      38.875      47.782      56.554      64.486      70.841      74.962      76.391      69.527      64.486    
  57.615      49.591      41.107      32.795      25.163      18.583      13.278      9.3276      6.6695      5.1105    
  4.3559      4.0571      3.9282      3.9282      4.0571      4.3559      5.1105      6.6695      9.3276      13.278    
  18.583      25.163      32.795      41.107      49.591      57.615      64.486      69.527      72.198      72.198    
  62.124      56.554      49.591      41.878      34.041      26.618      20.024      14.542      10.313      7.3401    
  5.4894      4.5154      4.0983      3.9156      3.8529      3.9156      4.0983      4.5154      5.4895      7.3401    
  10.313      14.542      20.024      26.618      34.042      41.879      49.591      56.554      62.124      65.733    
  66.983      65.733      53.485      47.782      41.107      34.041      27.120      20.786      15.363      11.046    
  7.8963      5.8397      4.6833      4.1465      3.9120      3.7956      3.7956      3.9120      4.1466      4.6833    
  5.8397      7.8963      11.046      15.363      20.786      27.120      34.042      41.107      47.782      53.485    
  57.661      59.872      59.872      57.661      44.356      38.875      32.795      26.618      20.786      15.647    
  11.437      8.2639      6.1091      4.8326      4.1981      3.9146      3.7562      3.7019      3.7562      3.9146    
  4.1981      4.8326      6.1091      8.2639      11.437      15.647      20.786      26.618      32.795      38.875    
  44.356      48.733      51.562      52.542      51.562      48.733      35.412      30.431      25.163      20.024    
  15.363      11.437      8.3923      6.2555      4.9357      4.2424      3.9198      3.7319      3.6349      3.6349    
  3.7319      3.9198      4.2424      4.9357      6.2555      8.3923      11.437      15.363      20.024      25.163    
  30.431      35.412      39.662      42.771      44.414      44.414      42.771      39.662      27.191      22.910    
  18.583      14.542      11.046      8.2639      6.2555      4.9725      4.2681      3.9248      3.7189      3.5917    
  3.5488      3.5917      3.7189      3.9248      4.2681      4.9725      6.2555      8.2639      11.046      14.542    
  18.583      22.910      27.191      31.059      34.146      36.141      36.831      36.141      34.146      31.059    
  20.085      16.617      13.278      10.313      7.8963      6.1091      4.9357      4.2681      3.9268      3.7135    
  3.5681      3.4950      3.4950      3.5681      3.7135      3.9268      4.2681      4.9357      6.1091      7.8964    
  10.313      13.278      16.617      20.085      23.387      26.215      28.286      29.381      29.381      28.286    
  26.215      23.387      14.329      11.712      9.3276      7.3401      5.8397      4.8326      4.2424      3.9248    
  3.7135      3.5607      3.4694      3.4392      3.4694      3.5607      3.7135      3.9248      4.2424      4.8326    
  5.8397      7.3401      9.3276      11.712      14.329      16.960      19.360      21.287      22.535      22.967    
  22.535      21.287      19.360      16.960      10.011      8.2055      6.6695      5.4894      4.6833      4.1981    
  3.9198      3.7189      3.5681      3.4694      3.4211      3.4211      3.4694      3.5681      3.7189      3.9198    
  4.1981      4.6833      5.4895      6.6695      8.2055      10.011      11.941      13.816      15.442      16.642    
  17.279      17.279      16.642      15.442      13.816      11.941      7.0726      5.9697      5.1105      4.5154    
  4.1465      3.9146      3.7319      3.5917      3.4950      3.4392      3.4211      3.4392      3.4950      3.5917    
  3.7319      3.9146      4.1466      4.5154      5.1105      5.9697      7.0726      8.3445      9.6691      10.907    
  11.916      12.577      12.807      12.577      11.916      10.907      9.6691      8.3445      5.3217      4.7539    
  4.3559      4.0983      3.9120      3.7562      3.6349      3.5488      3.4950      3.4694      3.4694      3.4950    
  3.5488      3.6349      3.7562      3.9120      4.0983      4.3559      4.7539      5.3217      6.0435      6.8625    
  7.6927      8.4345      8.9926      9.2921      9.2921      8.9926      8.4345      7.6927      6.8625      6.0435    
  4.4575      4.2233      4.0571      3.9156      3.7956      3.7019      3.6349      3.5917      3.5681      3.5607    
  3.5681      3.5917      3.6349      3.7019      3.7956      3.9156      4.0571      4.2233      4.4575      4.7865    
  5.2030      5.6701      6.1308      6.5208      6.7819      6.8737      6.7819      6.5208      6.1308      5.6701    
  5.2030      4.7864      4.1191      4.0189      3.9282      3.8529      3.7956      3.7562      3.7319      3.7189    
  3.7135      3.7135      3.7189      3.7319      3.7562      3.7956      3.8529      3.9282      4.0189      4.1191    
  4.2357      4.3919      4.5904      4.8126      5.0264      5.1953      5.2885      5.2885      5.1953      5.0264    
  4.8126      4.5904      4.3919      4.2357      3.9850      3.9514      3.9282      3.9156      3.9120      3.9146    
  3.9198      3.9248      3.9268      3.9248      3.9198      3.9146      3.9120      3.9156      3.9282      3.9514    
  3.9850      4.0267      4.0731      4.1254      4.1915      4.2678      4.3404      4.3928      4.4119      4.3928    
  4.3404      4.2678      4.1915      4.1254      4.0731      4.0267      3.9850      4.0189      4.0571      4.0983    
  4.1466      4.1981      4.2424      4.2681      4.2681      4.2424      4.1981      4.1466      4.0983      4.0571    
  4.0189      3.9850      3.9584      3.9412      3.9334      3.9337      3.9397      3.9492      3.9599      3.9671    
  3.9671      3.9599      3.9492      3.9397      3.9337      3.9334      3.9412      3.9584      4.1191      4.2233    
  4.3559      4.5154      4.6833      4.8326      4.9357      4.9725      4.9357      4.8326      4.6833      4.5154    
  4.3559      4.2233      4.1191      4.0267      3.9412      3.8682      3.8113      3.7710      3.7454      3.7312    
  3.7245      3.7226      3.7245      3.7312      3.7454      3.7710      3.8113      3.8682      3.9412      4.0267    
  4.4575      4.7539      5.1105      5.4895      5.8397      6.1091      6.2555      6.2555      6.1091      5.8397    
  5.4895      5.1105      4.7539      4.4575      4.2357      4.0731      3.9334      3.8113      3.7129      3.6400    
  3.5907      3.5613      3.5478      3.5478      3.5613      3.5907      3.6400      3.7129      3.8113      3.9334    
  4.0731      4.2357      5.3217      5.9697      6.6695      7.3401      7.8963      8.2639      8.3923      8.2639    
  7.8964      7.3401      6.6695      5.9697      5.3217      4.7865      4.3919      4.1254      3.9337      3.7710    
  3.6400      3.5432      3.4786      3.4423      3.4306      3.4423      3.4786      3.5432      3.6400      3.7710    
  3.9337      4.1253      4.3919      4.7864      7.0726      8.2055      9.3276      10.313      11.046      11.437    
  11.437      11.046      10.313      9.3276      8.2055      7.0726      6.0435      5.2030      4.5904      4.1915    
  3.9397      3.7454      3.5907      3.4786      3.4072      3.3727      3.3727      3.4072      3.4786      3.5907    
  3.7454      3.9397      4.1915      4.5904      5.2030      6.0435      10.011      11.712      13.278      14.542    
  15.363      15.647      15.363      14.542      13.278      11.712      10.011      8.3445      6.8625      5.6701    
  4.8126      4.2678      3.9492      3.7312      3.5613      3.4423      3.3727      3.3500      3.3727      3.4423    
  3.5613      3.7312      3.9492      4.2678      4.8126      5.6701      6.8625      8.3445      14.329      16.617    
  18.583      20.024      20.786      20.786      20.024      18.583      16.617      14.329      11.941      9.6691    
  7.6927      6.1308      5.0264      4.3404      3.9599      3.7245      3.5478      3.4306      3.3727      3.3727    
  3.4306      3.5478      3.7245      3.9599      4.3404      5.0264      6.1308      7.6927      9.6691      11.941    
  20.085      22.910      25.163      26.618      27.120      26.618      25.163      22.910      20.085      16.960    
  13.816      10.907      8.4345      6.5208      5.1953      4.3928      3.9671      3.7226      3.5478      3.4423    
  3.4072      3.4423      3.5478      3.7226      3.9671      4.3928      5.1953      6.5208      8.4346      10.907    
  13.816      16.960      27.191      30.431      32.795      34.042      34.042      32.795      30.431      27.191    
  23.387      19.360      15.442      11.916      8.9926      6.7819      5.2885      4.4119      3.9671      3.7245    
  3.5613      3.4786      3.4786      3.5613      3.7245      3.9671      4.4119      5.2885      6.7819      8.9926    
  11.917      15.442      19.360      23.387      35.412      38.875      41.107      41.879      41.107      38.875    
  35.412      31.059      26.215      21.287      16.642      12.577      9.2921      6.8737      5.2885      4.3928    
  3.9599      3.7312      3.5907      3.5432      3.5907      3.7312      3.9599      4.3928      5.2885      6.8737    
  9.2921      12.577      16.642      21.287      26.215      31.059      44.356      47.782      49.591      49.591    
  47.782      44.356      39.662      34.146      28.286      22.535      17.279      12.807      9.2921      6.7819    
  5.1953      4.3404      3.9492      3.7454      3.6400      3.6400      3.7454      3.9492      4.3404      5.1953    
  6.7819      9.2921      12.807      17.279      22.535      28.286      34.146      39.662      53.485      56.554    
  57.615      56.554      53.485      48.733      42.771      36.141      29.381      22.967      17.279      12.577    
  8.9926      6.5208      5.0264      4.2678      3.9397      3.7710      3.7129      3.7710      3.9397      4.2678    
  5.0264      6.5208      8.9926      12.577      17.279      22.967      29.381      36.141      42.771      48.733    
  62.124      64.486      64.486      62.124      57.661      51.562      44.414      36.831      29.381      22.535    
  16.642      11.916      8.4345      6.1308      4.8126      4.1915      3.9337      3.8113      3.8113      3.9337    
  4.1915      4.8126      6.1308      8.4346      11.917      16.642      22.535      29.381      36.831      44.414    
  51.562      57.661      69.527      70.841      69.527      65.733      59.872      52.542      44.414      36.141    
  28.286      21.287      15.442      10.907      7.6927      5.6701      4.5904      4.1254      3.9334      3.8682    
  3.9334      4.1253      4.5904      5.6701      7.6927      10.907      15.442      21.287      28.286      36.141    
  44.414      52.542      59.872      65.733      74.962      74.962      72.198      66.983      59.872      51.562    
  42.771      34.146      26.215      19.360      13.816      9.6691      6.8625      5.2030      4.3919      4.0731    
  3.9412      3.9412      4.0731      4.3919      5.2030      6.8625      9.6691      13.816      19.360      26.215    
  34.146      42.771      51.562      59.872      66.982      72.198      77.844      76.391      72.198      65.733    
  57.661      48.733      39.662      31.059      23.387      16.960      11.941      8.3445      6.0435      4.7864    
  4.2357      4.0267      3.9584      4.0267      4.2357      4.7864      6.0435      8.3445      11.941      16.960    
  23.387      31.059      39.662      48.733      57.661      65.733      72.198      76.391      73.563      69.527    
  63.300      55.523      46.918      38.174      29.882      22.494      16.316      11.505      8.0731      5.8920    
  4.7114      4.1980      3.9971      3.9302      3.9971      4.1980      4.7114      5.8920      8.0731      11.505    
  16.316      22.494      29.882      38.174      46.918      55.523      63.300      69.527      73.563      74.962    
  69.527      64.486      57.615      49.591      41.107      32.795      25.163      18.583      13.278      9.3276    
  6.6695      5.1105      4.3559      4.0571      3.9282      3.9282      4.0571      4.3559      5.1105      6.6695    
  9.3276      13.278      18.583      25.163      32.795      41.107      49.591      57.615      64.486      69.527    
  72.198      72.198      63.300      57.615      50.514      42.654      34.670      27.110      20.395      14.808    
  10.494      7.4535      5.5544      4.5502      4.1196      3.9348      3.8714      3.9348      4.1196      4.5502    
  5.5544      7.4535      10.494      14.808      20.395      27.110      34.670      42.654      50.514      57.615    
  63.300      66.983      68.259      66.982      55.523      49.591      42.654      35.318      28.136      21.564    
  15.933      11.441      8.1509      5.9895      4.7640      4.1912      3.9477      3.8292      3.8292      3.9477    
  4.1912      4.7640      5.9895      8.1509      11.441      15.933      21.564      28.136      35.318      42.654    
  49.591      55.523      59.872      62.175      62.175      59.872      46.918      41.107      34.670      28.136    
  21.968      16.528      12.059      8.6735      6.3561      4.9674      4.2690      3.9641      3.8014      3.7454    
  3.8014      3.9641      4.2690      4.9674      6.3561      8.6735      12.059      16.528      21.968      28.136    
  34.670      41.107      46.918      51.562      54.568      55.609      54.568      51.562      38.174      32.795    
  27.110      21.564      16.528      12.273      8.9532      6.6007      5.1272      4.3411      3.9808      3.7858    
  3.6846      3.6846      3.7858      3.9809      4.3411      5.1272      6.6007      8.9533      12.273      16.528    
  21.564      27.110      32.795      38.174      42.771      46.136      47.917      47.917      46.136      42.771    
  29.882      25.163      20.395      15.933      12.059      8.9532      6.6866      5.2151      4.3923      3.9957    
  3.7787      3.6445      3.5992      3.6445      3.7787      3.9957      4.3923      5.2151      6.6866      8.9533    
  12.059      15.933      20.395      25.163      29.882      34.146      37.554      39.758      40.521      39.758    
  37.554      34.146      22.494      18.583      14.808      11.441      8.6735      6.6007      5.2151      4.4109    
  4.0047      3.7763      3.6213      3.5428      3.5428      3.6213      3.7763      4.0047      4.4109      5.2151    
  6.6007      8.6735      11.441      14.808      18.583      22.494      26.215      29.403      31.739      32.974    
  32.974      31.739      29.403      26.215      16.316      13.278      10.494      8.1509      6.3561      5.1272    
  4.3923      4.0047      3.7759      3.6109      3.5114      3.4783      3.5114      3.6108      3.7759      4.0047    
  4.3923      5.1272      6.3561      8.1509      10.494      13.278      16.316      19.360      22.132      24.357    
  25.799      26.298      25.799      24.357      22.132      19.360      11.505      9.3276      7.4535      5.9895    
  4.9674      4.3411      3.9957      3.7763      3.6109      3.5014      3.4474      3.4474      3.5014      3.6108    
  3.7763      3.9957      4.3411      4.9674      5.9895      7.4535      9.3276      11.505      13.816      16.050    
  17.983      19.407      20.163      20.163      19.407      17.983      16.050      13.816      8.0731      6.6695    
  5.5544      4.7640      4.2690      3.9808      3.7787      3.6213      3.5114      3.4474      3.4265      3.4474    
  3.5114      3.6213      3.7787      3.9809      4.2690      4.7640      5.5544      6.6695      8.0731      9.6691    
  11.315      12.844      14.086      14.897      15.179      14.897      14.086      12.844      11.315      9.6691    
  5.8920      5.1105      4.5502      4.1912      3.9641      3.7858      3.6445      3.5428      3.4783      3.4474    
  3.4474      3.4783      3.5428      3.6445      3.7858      3.9641      4.1912      4.5502      5.1105      5.8920    
  6.8625      7.9442      9.0268      9.9859      10.703      11.087      11.087      10.703      9.9859      9.0268    
  7.9442      6.8625      4.7114      4.3559      4.1196      3.9477      3.8014      3.6846      3.5992      3.5428    
  3.5114      3.5014      3.5114      3.5428      3.5992      3.6846      3.8014      3.9477      4.1196      4.3559    