Co-fcc                                  
   1.00000000000000     
     0.000000    1.613926    1.613926
     1.613926    0.000000    1.613926
     1.613926    1.613926    0.000000
   Co
     1
Direct
  0.000000  0.000000  0.000000
 
   32   32   32
 0.79328831227E+02 0.77844425418E+02 0.73563262859E+02 0.66963658637E+02 0.58730561577E+02
 0.49628948857E+02 0.40389046951E+02 0.31628978250E+02 0.23818976331E+02 0.17274059203E+02
 0.12157345855E+02 0.84837464174E+01 0.61259049907E+01 0.48318843883E+01 0.42624621730E+01
 0.40494856814E+01 0.39806812009E+01 0.40494856814E+01 0.42624621730E+01 0.48318843883E+01
 0.61259049907E+01 0.84837464174E+01 0.12157345855E+02 0.17274059203E+02 0.23818976331E+02
 0.31628978250E+02 0.40389046951E+02 0.49628948857E+02 0.58730561577E+02 0.66963658637E+02
 0.73563262859E+02 0.77844425418E+02 0.77844425418E+02 0.74962291996E+02 0.69526714246E+02
 0.62124466911E+02 0.53484679298E+02 0.44356250648E+02 0.35411581015E+02 0.27191345070E+02
 0.20084755833E+02 0.14328617344E+02 0.10010547617E+02 0.70725653855E+01 0.53217348900E+01
 0.44574550293E+01 0.41190631899E+01 0.39849639639E+01 0.39849648977E+01 0.41190654718E+01
 0.44574573144E+01 0.53217355701E+01 0.70725632942E+01 0.10010542612E+02 0.14328610541E+02
 0.20084749384E+02 0.27191341525E+02 0.35411582486E+02 0.44356258026E+02 0.53484691813E+02
 0.62124482198E+02 0.69526728914E+02 0.74962302551E+02 0.77844429257E+02 0.73563262859E+02
 0.69526714246E+02 0.63299540890E+02 0.55523334765E+02 0.46917706731E+02 0.38173864556E+02
 0.29881650643E+02 0.22493766863E+02 0.16315538472E+02 0.11504733873E+02 0.80730772587E+01
 0.58919855958E+01 0.47113584642E+01 0.41980276873E+01 0.39970727789E+01 0.39301955292E+01
 0.39970761474E+01 0.41980325679E+01 0.47113618999E+01 0.58919847657E+01 0.80730707407E+01
 0.11504722456E+02 0.16315525192E+02 0.22493756202E+02 0.29881647118E+02 0.38173871162E+02
 0.46917723761E+02 0.55523359424E+02 0.63299567874E+02 0.69526737150E+02 0.73563275982E+02
 0.74962302551E+02 0.66963658637E+02 0.62124466911E+02 0.55523334765E+02 0.47803527568E+02
 0.39632607122E+02 0.31618379386E+02 0.24257625033E+02 0.17913245653E+02 0.12806994235E+02
 0.90173641938E+01 0.64812498099E+01 0.50058564668E+01 0.42983962475E+01 0.40149602988E+01
 0.38881892000E+01 0.38881917475E+01 0.40149666214E+01 0.42984029078E+01 0.50058592892E+01
 0.64812456174E+01 0.90173522646E+01 0.12806976929E+02 0.17913227936E+02 0.24257613004E+02
 0.31618378280E+02 0.39632619437E+02 0.47803551974E+02 0.55523366187E+02 0.62124497817E+02
 0.66963681159E+02 0.69526737150E+02 0.69526728914E+02 0.58730561577E+02 0.53484679298E+02
 0.46917706731E+02 0.39632607122E+02 0.32218799759E+02 0.25190101024E+02 0.18949148977E+02
 0.13770477278E+02 0.97925489566E+01 0.70149177895E+01 0.53042734017E+01 0.44162688686E+01
 0.40364861996E+01 0.38596416439E+01 0.37986157048E+01 0.38596473570E+01 0.40364947854E+01
 0.44162757427E+01 0.53042740390E+01 0.70149095852E+01 0.97925324686E+01 0.13770456376E+02
 0.18949129793E+02 0.25190090027E+02 0.32218801575E+02 0.39632622833E+02 0.46917733254E+02
 0.53484710087E+02 0.58730588466E+02 0.62124497817E+02 0.63299567874E+02 0.62124482198E+02
 0.49628948857E+02 0.44356250648E+02 0.38173864556E+02 0.31618379386E+02 0.25190101024E+02
 0.19307959621E+02 0.14282704644E+02 0.10301540293E+02 0.74198633152E+01 0.55617476126E+01
 0.45347253960E+01 0.40629278081E+01 0.38430483856E+01 0.37309721783E+01 0.37309754107E+01
 0.38430566058E+01 0.40629371348E+01 0.45347310005E+01 0.55617455689E+01 0.74198521890E+01
 0.10301521893E+02 0.14282683644E+02 0.19307942152E+02 0.25190092677E+02 0.31618383307E+02
 0.38173880262E+02 0.44356274002E+02 0.49628973232E+02 0.53484710087E+02 0.55523366187E+02
 0.55523359424E+02 0.53484691813E+02 0.40389046951E+02 0.35411581015E+02 0.29881650643E+02
 0.24257625033E+02 0.18949148977E+02 0.14282704644E+02 0.10478896591E+02 0.76382543430E+01
 0.57361793648E+01 0.46312610094E+01 0.40909439097E+01 0.38353567027E+01 0.36843672544E+01
 0.36328985918E+01 0.36843730992E+01 0.38353659386E+01 0.40909525137E+01 0.46312648508E+01
 0.57361757373E+01 0.76382430318E+01 0.10478880093E+02 0.14282687446E+02 0.18949136127E+02
 0.24257620463E+02 0.29881655823E+02 0.35411594389E+02 0.40389064363E+02 0.44356274002E+02
 0.46917733254E+02 0.47803551974E+02 0.46917723761E+02 0.44356258026E+02 0.31628978250E+02
 0.27191345070E+02 0.22493766863E+02 0.17913245653E+02 0.13770477278E+02 0.10301540293E+02
 0.76382543430E+01 0.57978819957E+01 0.46855026245E+01 0.41126733944E+01 0.38329408483E+01
 0.36555177436E+01 0.35646841632E+01 0.35646868416E+01 0.36555248020E+01 0.38329496963E+01
 0.41126807305E+01 0.46855055933E+01 0.57978792030E+01 0.76382463790E+01 0.10301529579E+02
 0.13770467280E+02 0.17913239731E+02 0.22493767125E+02 0.27191351642E+02 0.31628989190E+02
 0.35411594389E+02 0.38173880262E+02 0.39632622833E+02 0.39632619437E+02 0.38173871162E+02
 0.35411582486E+02 0.23818976331E+02 0.20084755833E+02 0.16315538472E+02 0.12806994235E+02
 0.97925489566E+01 0.74198633152E+01 0.57361793648E+01 0.46855026245E+01 0.41208732994E+01
 0.38326443116E+01 0.36403742255E+01 0.35227817360E+01 0.34834015340E+01 0.35227858245E+01
 0.36403811964E+01 0.38326521627E+01 0.41208799118E+01 0.46855064810E+01 0.57361800587E+01
 0.74198616781E+01 0.97925467546E+01 0.12806993536E+02 0.16315540900E+02 0.20084761956E+02
 0.23818985396E+02 0.27191351642E+02 0.29881655823E+02 0.31618383307E+02 0.32218801575E+02
 0.31618378280E+02 0.29881647118E+02 0.27191341525E+02 0.17274059203E+02 0.14328617344E+02
 0.11504733873E+02 0.90173641938E+01 0.70149177895E+01 0.55617476126E+01 0.46312610094E+01
 0.41126733944E+01 0.38326443116E+01 0.36357292831E+01 0.35031274526E+01 0.34370207060E+01
 0.34370222401E+01 0.35031317311E+01 0.36357354476E+01 0.38326512701E+01 0.41126802006E+01
 0.46312671882E+01 0.55617533078E+01 0.70149236814E+01 0.90173712026E+01 0.11504742748E+02
 0.14328628282E+02 0.17274071623E+02 0.20084761956E+02 0.22493767125E+02 0.24257620463E+02
 0.25190092677E+02 0.25190090027E+02 0.24257613004E+02 0.22493756202E+02 0.20084749384E+02
 0.12157345855E+02 0.10010547617E+02 0.80730772587E+01 0.64812498099E+01 0.53042734017E+01
 0.45347253960E+01 0.40909439097E+01 0.38329408483E+01 0.36403742255E+01 0.35031274526E+01
 0.34220345905E+01 0.33953379324E+01 0.34220364757E+01 0.35031310272E+01 0.36403791927E+01
 0.38329469636E+01 0.40909511195E+01 0.45347339025E+01 0.53042836052E+01 0.64812621349E+01
 0.80730919109E+01 0.10010564343E+02 0.12157363805E+02 0.14328628282E+02 0.16315540900E+02
 0.17913239731E+02 0.18949136127E+02 0.19307942152E+02 0.18949129793E+02 0.17913227936E+02
 0.16315525192E+02 0.14328610541E+02 0.84837464174E+01 0.70725653855E+01 0.58919855958E+01
 0.50058564668E+01 0.44162688686E+01 0.40629278081E+01 0.38353567027E+01 0.36555177436E+01
 0.35227817360E+01 0.34370207060E+01 0.33953379324E+01 0.33953383170E+01 0.34370218783E+01
 0.35227837777E+01 0.36555208539E+01 0.38353612527E+01 0.40629343393E+01 0.44162780132E+01
 0.50058687790E+01 0.58920013252E+01 0.70725842631E+01 0.84837675146E+01 0.10010564343E+02
 0.11504742748E+02 0.12806993536E+02 0.13770467280E+02 0.14282687446E+02 0.14282683644E+02
 0.13770456376E+02 0.12806976929E+02 0.11504722456E+02 0.10010542612E+02 0.61259049907E+01
 0.53217348900E+01 0.47113584642E+01 0.42983962475E+01 0.40364861996E+01 0.38430483856E+01
 0.36843672544E+01 0.35646841632E+01 0.34834015340E+01 0.34370222401E+01 0.34220364757E+01
 0.34370218783E+01 0.34834009498E+01 0.35646836729E+01 0.36843673955E+01 0.38430499261E+01
 0.40364900700E+01 0.42984033725E+01 0.47113695270E+01 0.53217500627E+01 0.61259237302E+01
 0.70725842631E+01 0.80730919109E+01 0.90173712026E+01 0.97925467546E+01 0.10301529579E+02
 0.10478880093E+02 0.10301521893E+02 0.97925324686E+01 0.90173522646E+01 0.80730707407E+01
 0.70725632942E+01 0.48318843883E+01 0.44574550293E+01 0.41980276873E+01 0.40149602988E+01
 0.38596416439E+01 0.37309721783E+01 0.36328985918E+01 0.35646868416E+01 0.35227858245E+01
 0.35031317311E+01 0.35031310272E+01 0.35227837777E+01 0.35646836729E+01 0.36328947440E+01
 0.37309683723E+01 0.38596388709E+01 0.40149597146E+01 0.41980303910E+01 0.44574617839E+01
 0.48318953403E+01 0.53217500627E+01 0.58920013252E+01 0.64812621349E+01 0.70149236814E+01
 0.74198616781E+01 0.76382463790E+01 0.76382430318E+01 0.74198521890E+01 0.70149095852E+01
 0.64812456174E+01 0.58919847657E+01 0.53217355701E+01 0.42624621730E+01 0.41190631899E+01
 0.39970727789E+01 0.38881892000E+01 0.37986157048E+01 0.37309754107E+01 0.36843730992E+01
 0.36555248020E+01 0.36403811964E+01 0.36357354476E+01 0.36403791927E+01 0.36555208539E+01
 0.36843673955E+01 0.37309683723E+01 0.37986080627E+01 0.38881819825E+01 0.39970671895E+01
 0.41190603695E+01 0.42624629085E+01 0.44574617839E+01 0.47113695270E+01 0.50058687790E+01
 0.53042836052E+01 0.55617533078E+01 0.57361800587E+01 0.57978792030E+01 0.57361757373E+01
 0.55617455689E+01 0.53042740390E+01 0.50058592892E+01 0.47113618999E+01 0.44574573144E+01
 0.40494856814E+01 0.39849639639E+01 0.39301955292E+01 0.38881917475E+01 0.38596473570E+01
 0.38430566058E+01 0.38353659386E+01 0.38329496963E+01 0.38326521627E+01 0.38326512701E+01
 0.38329469636E+01 0.38353612527E+01 0.38430499261E+01 0.38596388709E+01 0.38881819825E+01
 0.39301853570E+01 0.39849544782E+01 0.40494779762E+01 0.41190603695E+01 0.41980303910E+01
 0.42984033725E+01 0.44162780132E+01 0.45347339025E+01 0.46312671882E+01 0.46855064810E+01
 0.46855055933E+01 0.46312648508E+01 0.45347310005E+01 0.44162757427E+01 0.42984029078E+01
 0.41980325679E+01 0.41190654718E+01 0.39806812009E+01 0.39849648977E+01 0.39970761474E+01
 0.40149666214E+01 0.40364947854E+01 0.40629371348E+01 0.40909525137E+01 0.41126807305E+01
 0.41208799118E+01 0.41126802006E+01 0.40909511195E+01 0.40629343393E+01 0.40364900700E+01
 0.40149597146E+01 0.39970671895E+01 0.39849544782E+01 0.39806702520E+01 0.39849544782E+01
 0.39970671895E+01 0.40149597146E+01 0.40364900700E+01 0.40629343393E+01 0.40909511195E+01
 0.41126802006E+01 0.41208799118E+01 0.41126807305E+01 0.40909525137E+01 0.40629371348E+01
 0.40364947854E+01 0.40149666214E+01 0.39970761474E+01 0.39849648977E+01 0.40494856814E+01
 0.41190654718E+01 0.41980325679E+01 0.42984029078E+01 0.44162757427E+01 0.45347310005E+01
 0.46312648508E+01 0.46855055933E+01 0.46855064810E+01 0.46312671882E+01 0.45347339025E+01
 0.44162780132E+01 0.42984033725E+01 0.41980303910E+01 0.41190603695E+01 0.40494779762E+01
 0.39849544782E+01 0.39301853570E+01 0.38881819825E+01 0.38596388709E+01 0.38430499261E+01
 0.38353612527E+01 0.38329469636E+01 0.38326512701E+01 0.38326521627E+01 0.38329496963E+01
 0.38353659386E+01 0.38430566058E+01 0.38596473570E+01 0.38881917475E+01 0.39301955292E+01
 0.39849639639E+01 0.42624621730E+01 0.44574573144E+01 0.47113618999E+01 0.50058592892E+01
 0.53042740390E+01 0.55617455689E+01 0.57361757373E+01 0.57978792030E+01 0.57361800587E+01
 0.55617533078E+01 0.53042836052E+01 0.50058687790E+01 0.47113695270E+01 0.44574617839E+01
 0.42624629085E+01 0.41190603695E+01 0.39970671895E+01 0.38881819825E+01 0.37986080627E+01
 0.37309683723E+01 0.36843673955E+01 0.36555208539E+01 0.36403791927E+01 0.36357354476E+01
 0.36403811964E+01 0.36555248020E+01 0.36843730992E+01 0.37309754107E+01 0.37986157048E+01
 0.38881892000E+01 0.39970727789E+01 0.41190631899E+01 0.48318843883E+01 0.53217355701E+01
 0.58919847657E+01 0.64812456174E+01 0.70149095852E+01 0.74198521890E+01 0.76382430318E+01
 0.76382463790E+01 0.74198616781E+01 0.70149236814E+01 0.64812621349E+01 0.58920013252E+01
 0.53217500627E+01 0.48318953403E+01 0.44574617839E+01 0.41980303910E+01 0.40149597146E+01
 0.38596388709E+01 0.37309683723E+01 0.36328947440E+01 0.35646836729E+01 0.35227837777E+01
 0.35031310272E+01 0.35031317311E+01 0.35227858245E+01 0.35646868416E+01 0.36328985918E+01
 0.37309721783E+01 0.38596416439E+01 0.40149602988E+01 0.41980276873E+01 0.44574550293E+01
 0.61259049907E+01 0.70725632942E+01 0.80730707407E+01 0.90173522646E+01 0.97925324686E+01
 0.10301521893E+02 0.10478880093E+02 0.10301529579E+02 0.97925467546E+01 0.90173712026E+01
 0.80730919109E+01 0.70725842631E+01 0.61259237302E+01 0.53217500627E+01 0.47113695270E+01
 0.42984033725E+01 0.40364900700E+01 0.38430499261E+01 0.36843673955E+01 0.35646836729E+01
 0.34834009498E+01 0.34370218783E+01 0.34220364757E+01 0.34370222401E+01 0.34834015340E+01
 0.35646841632E+01 0.36843672544E+01 0.38430483856E+01 0.40364861996E+01 0.42983962475E+01
 0.47113584642E+01 0.53217348900E+01 0.84837464174E+01 0.10010542612E+02 0.11504722456E+02
 0.12806976929E+02 0.13770456376E+02 0.14282683644E+02 0.14282687446E+02 0.13770467280E+02
 0.12806993536E+02 0.11504742748E+02 0.10010564343E+02 0.84837675146E+01 0.70725842631E+01
 0.58920013252E+01 0.50058687790E+01 0.44162780132E+01 0.40629343393E+01 0.38353612527E+01
 0.36555208539E+01 0.35227837777E+01 0.34370218783E+01 0.33953383170E+01 0.33953379324E+01
 0.34370207060E+01 0.35227817360E+01 0.36555177436E+01 0.38353567027E+01 0.40629278081E+01
 0.44162688686E+01 0.50058564668E+01 0.58919855958E+01 0.70725653855E+01 0.12157345855E+02
 0.14328610541E+02 0.16315525192E+02 0.17913227936E+02 0.18949129793E+02 0.19307942152E+02
 0.18949136127E+02 0.17913239731E+02 0.16315540900E+02 0.14328628282E+02 0.12157363805E+02
 0.10010564343E+02 0.80730919109E+01 0.64812621349E+01 0.53042836052E+01 0.45347339025E+01
 0.40909511195E+01 0.38329469636E+01 0.36403791927E+01 0.35031310272E+01 0.34220364757E+01
 0.33953379324E+01 0.34220345905E+01 0.35031274526E+01 0.36403742255E+01 0.38329408483E+01
 0.40909439097E+01 0.45347253960E+01 0.53042734017E+01 0.64812498099E+01 0.80730772587E+01
 0.10010547617E+02 0.17274059203E+02 0.20084749384E+02 0.22493756202E+02 0.24257613004E+02
 0.25190090027E+02 0.25190092677E+02 0.24257620463E+02 0.22493767125E+02 0.20084761956E+02
 0.17274071623E+02 0.14328628282E+02 0.11504742748E+02 0.90173712026E+01 0.70149236814E+01
 0.55617533078E+01 0.46312671882E+01 0.41126802006E+01 0.38326512701E+01 0.36357354476E+01
 0.35031317311E+01 0.34370222401E+01 0.34370207060E+01 0.35031274526E+01 0.36357292831E+01
 0.38326443116E+01 0.41126733944E+01 0.46312610094E+01 0.55617476126E+01 0.70149177895E+01
 0.90173641938E+01 0.11504733873E+02 0.14328617344E+02 0.23818976331E+02 0.27191341525E+02
 0.29881647118E+02 0.31618378280E+02 0.32218801575E+02 0.31618383307E+02 0.29881655823E+02
 0.27191351642E+02 0.23818985396E+02 0.20084761956E+02 0.16315540900E+02 0.12806993536E+02
 0.97925467546E+01 0.74198616781E+01 0.57361800587E+01 0.46855064810E+01 0.41208799118E+01
 0.38326521627E+01 0.36403811964E+01 0.35227858245E+01 0.34834015340E+01 0.35227817360E+01
 0.36403742255E+01 0.38326443116E+01 0.41208732994E+01 0.46855026245E+01 0.57361793648E+01
 0.74198633152E+01 0.97925489566E+01 0.12806994235E+02 0.16315538472E+02 0.20084755833E+02
 0.31628978250E+02 0.35411582486E+02 0.38173871162E+02 0.39632619437E+02 0.39632622833E+02
 0.38173880262E+02 0.35411594389E+02 0.31628989190E+02 0.27191351642E+02 0.22493767125E+02
 0.17913239731E+02 0.13770467280E+02 0.10301529579E+02 0.76382463790E+01 0.57978792030E+01
 0.46855055933E+01 0.41126807305E+01 0.38329496963E+01 0.36555248020E+01 0.35646868416E+01
 0.35646841632E+01 0.36555177436E+01 0.38329408483E+01 0.41126733944E+01 0.46855026245E+01
 0.57978819957E+01 0.76382543430E+01 0.10301540293E+02 0.13770477278E+02 0.17913245653E+02
 0.22493766863E+02 0.27191345070E+02 0.40389046951E+02 0.44356258026E+02 0.46917723761E+02
 0.47803551974E+02 0.46917733254E+02 0.44356274002E+02 0.40389064363E+02 0.35411594389E+02
 0.29881655823E+02 0.24257620463E+02 0.18949136127E+02 0.14282687446E+02 0.10478880093E+02
 0.76382430318E+01 0.57361757373E+01 0.46312648508E+01 0.40909525137E+01 0.38353659386E+01
 0.36843730992E+01 0.36328985918E+01 0.36843672544E+01 0.38353567027E+01 0.40909439097E+01
 0.46312610094E+01 0.57361793648E+01 0.76382543430E+01 0.10478896591E+02 0.14282704644E+02
 0.18949148977E+02 0.24257625033E+02 0.29881650643E+02 0.35411581015E+02 0.49628948857E+02
 0.53484691813E+02 0.55523359424E+02 0.55523366187E+02 0.53484710087E+02 0.49628973232E+02
 0.44356274002E+02 0.38173880262E+02 0.31618383307E+02 0.25190092677E+02 0.19307942152E+02
 0.14282683644E+02 0.10301521893E+02 0.74198521890E+01 0.55617455689E+01 0.45347310005E+01
 0.40629371348E+01 0.38430566058E+01 0.37309754107E+01 0.37309721783E+01 0.38430483856E+01
 0.40629278081E+01 0.45347253960E+01 0.55617476126E+01 0.74198633152E+01 0.10301540293E+02
 0.14282704644E+02 0.19307959621E+02 0.25190101024E+02 0.31618379386E+02 0.38173864556E+02
 0.44356250648E+02 0.58730561577E+02 0.62124482198E+02 0.63299567874E+02 0.62124497817E+02
 0.58730588466E+02 0.53484710087E+02 0.46917733254E+02 0.39632622833E+02 0.32218801575E+02
 0.25190090027E+02 0.18949129793E+02 0.13770456376E+02 0.97925324686E+01 0.70149095852E+01
 0.53042740390E+01 0.44162757427E+01 0.40364947854E+01 0.38596473570E+01 0.37986157048E+01
 0.38596416439E+01 0.40364861996E+01 0.44162688686E+01 0.53042734017E+01 0.70149177895E+01
 0.97925489566E+01 0.13770477278E+02 0.18949148977E+02 0.25190101024E+02 0.32218799759E+02
 0.39632607122E+02 0.46917706731E+02 0.53484679298E+02 0.66963658637E+02 0.69526728914E+02
 0.69526737150E+02 0.66963681159E+02 0.62124497817E+02 0.55523366187E+02 0.47803551974E+02
 0.39632619437E+02 0.31618378280E+02 0.24257613004E+02 0.17913227936E+02 0.12806976929E+02
 0.90173522646E+01 0.64812456174E+01 0.50058592892E+01 0.42984029078E+01 0.40149666214E+01
 0.38881917475E+01 0.38881892000E+01 0.40149602988E+01 0.42983962475E+01 0.50058564668E+01
 0.64812498099E+01 0.90173641938E+01 0.12806994235E+02 0.17913245653E+02 0.24257625033E+02
 0.31618379386E+02 0.39632607122E+02 0.47803527568E+02 0.55523334765E+02 0.62124466911E+02
 0.73563262859E+02 0.74962302551E+02 0.73563275982E+02 0.69526737150E+02 0.63299567874E+02
 0.55523359424E+02 0.46917723761E+02 0.38173871162E+02 0.29881647118E+02 0.22493756202E+02
 0.16315525192E+02 0.11504722456E+02 0.80730707407E+01 0.58919847657E+01 0.47113618999E+01
 0.41980325679E+01 0.39970761474E+01 0.39301955292E+01 0.39970727789E+01 0.41980276873E+01
 0.47113584642E+01 0.58919855958E+01 0.80730772587E+01 0.11504733873E+02 0.16315538472E+02
 0.22493766863E+02 0.29881650643E+02 0.38173864556E+02 0.46917706731E+02 0.55523334765E+02
 0.63299540890E+02 0.69526714246E+02 0.77844425418E+02 0.77844429257E+02 0.74962302551E+02
 0.69526728914E+02 0.62124482198E+02 0.53484691813E+02 0.44356258026E+02 0.35411582486E+02
 0.27191341525E+02 0.20084749384E+02 0.14328610541E+02 0.10010542612E+02 0.70725632942E+01
 0.53217355701E+01 0.44574573144E+01 0.41190654718E+01 0.39849648977E+01 0.39849639639E+01
 0.41190631899E+01 0.44574550293E+01 0.53217348900E+01 0.70725653855E+01 0.10010547617E+02
 0.14328617344E+02 0.20084755833E+02 0.27191345070E+02 0.35411581015E+02 0.44356250648E+02
 0.53484679298E+02 0.62124466911E+02 0.69526714246E+02 0.74962291996E+02 0.77844425418E+02
 0.74962291996E+02 0.69526714246E+02 0.62124466911E+02 0.53484679298E+02 0.44356250648E+02
 0.35411581015E+02 0.27191345070E+02 0.20084755833E+02 0.14328617344E+02 0.10010547617E+02
 0.70725653855E+01 0.53217348900E+01 0.44574550293E+01 0.41190631899E+01 0.39849639639E+01
 0.39849648977E+01 0.41190654718E+01 0.44574573144E+01 0.53217355701E+01 0.70725632942E+01
 0.10010542612E+02 0.14328610541E+02 0.20084749384E+02 0.27191341525E+02 0.35411582486E+02
 0.44356258026E+02 0.53484691813E+02 0.62124482198E+02 0.69526728914E+02 0.74962302551E+02
 0.77844429257E+02 0.74962291996E+02 0.70840901260E+02 0.64485504000E+02 0.56553756247E+02
 0.47781804644E+02 0.38874627380E+02 0.30431405048E+02 0.22909838708E+02 0.16617214600E+02
 0.11711811692E+02 0.82055017006E+01 0.59697302882E+01 0.47539085871E+01 0.42232885436E+01
 0.40188873483E+01 0.39514481762E+01 0.40188907721E+01 0.42232936364E+01 0.47539125648E+01
 0.59697305212E+01 0.82054969170E+01 0.11711802742E+02 0.16617204464E+02 0.22909831700E+02
 0.30431405438E+02 0.38874637879E+02 0.47781825272E+02 0.56553783986E+02 0.64485533390E+02
 0.70840925802E+02 0.74962305946E+02 0.76391049318E+02 0.69526714246E+02 0.64485504000E+02
 0.57615396121E+02 0.49590540170E+02 0.41107108718E+02 0.32794652852E+02 0.25163454195E+02
 0.18583099173E+02 0.13277975896E+02 0.93276216037E+01 0.66694834870E+01 0.51105317225E+01
 0.43559404557E+01 0.40571144770E+01 0.39282456310E+01 0.39282481999E+01 0.40571210116E+01
 0.43559479161E+01 0.51105364577E+01 0.66694828080E+01 0.93276150845E+01 0.13277965894E+02
 0.18583090329E+02 0.25163452017E+02 0.32794661835E+02 0.41107130610E+02 0.49590573005E+02
 0.57615434370E+02 0.64485539871E+02 0.69526739765E+02 0.72198440479E+02 0.72198431244E+02
 0.62124466911E+02 0.56553756247E+02 0.49590540170E+02 0.41878490387E+02 0.34041491917E+02
 0.26617641239E+02 0.20023840069E+02 0.14541768803E+02 0.10313358443E+02 0.73401190243E+01
 0.54894475112E+01 0.45153743531E+01 0.40982767021E+01 0.39156146401E+01 0.38528565829E+01
 0.39156202888E+01 0.40982856687E+01 0.45153829122E+01 0.54894520739E+01 0.73401176996E+01
 0.10313352040E+02 0.14541760869E+02 0.20023835888E+02 0.26617646086E+02 0.34041509131E+02
 0.41878519919E+02 0.49590578131E+02 0.56553795662E+02 0.62124499494E+02 0.65732561848E+02
 0.66982511145E+02 0.65732543418E+02 0.53484679298E+02 0.47781804644E+02 0.41107108718E+02
 0.34041491917E+02 0.27120208970E+02 0.20785718446E+02 0.15362700110E+02 0.11046214846E+02
 0.78963495347E+01 0.58396933070E+01 0.46833296334E+01 0.41465480296E+01 0.39120141174E+01
 0.37955940919E+01 0.37955970266E+01 0.39120218303E+01 0.41465576734E+01 0.46833377274E+01
 0.58396971500E+01 0.78963483857E+01 0.11046210425E+02 0.15362696197E+02 0.20785719673E+02
 0.27120219186E+02 0.34041512675E+02 0.41107138402E+02 0.47781838578E+02 0.53484710848E+02
 0.57661476895E+02 0.59872136937E+02 0.59872128862E+02 0.57661454545E+02 0.44356250648E+02
 0.38874627380E+02 0.32794652852E+02 0.26617641239E+02 0.20785718446E+02 0.15647274010E+02
 0.11436847878E+02 0.82638687967E+01 0.61090991709E+01 0.48326066740E+01 0.41981016402E+01
 0.39145720803E+01 0.37561958262E+01 0.37019073845E+01 0.37562004477E+01 0.39145798110E+01
 0.41981100285E+01 0.48326132698E+01 0.61091024943E+01 0.82638689784E+01 0.11436846724E+02
 0.15647274443E+02 0.20785723486E+02 0.26617652864E+02 0.32794671128E+02 0.38874650159E+02
 0.44356273989E+02 0.48732809337E+02 0.51562403706E+02 0.52541679218E+02 0.51562392891E+02
 0.48732790163E+02 0.35411581015E+02 0.30431405048E+02 0.25163454195E+02 0.20023840069E+02
 0.15362700110E+02 0.11436847878E+02 0.83923083766E+01 0.62555196163E+01 0.49356908317E+01
 0.42423771949E+01 0.39198317741E+01 0.37319436826E+01 0.36349039163E+01 0.36349054828E+01
 0.37319479695E+01 0.39198376918E+01 0.42423833701E+01 0.49356961049E+01 0.62555234666E+01
 0.83923111186E+01 0.11436850552E+02 0.15362704097E+02 0.20023846549E+02 0.25163463638E+02
 0.30431416919E+02 0.35411593787E+02 0.39662386539E+02 0.42770834743E+02 0.44414000941E+02
 0.44413998063E+02 0.42770826719E+02 0.39662375029E+02 0.27191345070E+02 0.22909838708E+02
 0.18583099173E+02 0.14541768803E+02 0.11046214846E+02 0.82638687967E+01 0.62555196163E+01
 0.49724949454E+01 0.42680538582E+01 0.39247714629E+01 0.37189328581E+01 0.35916953325E+01
 0.35488397764E+01 0.35916966657E+01 0.37189354406E+01 0.39247751449E+01 0.42680584541E+01
 0.49725002654E+01 0.62555254876E+01 0.82638750703E+01 0.11046221382E+02 0.14541775447E+02
 0.18583105730E+02 0.22909844923E+02 0.27191350635E+02 0.31058649633E+02 0.34146245820E+02
 0.36141139492E+02 0.36831170741E+02 0.36141137787E+02 0.34146242552E+02 0.31058645055E+02
 0.20084755833E+02 0.16617214600E+02 0.13277975896E+02 0.10313358443E+02 0.78963495347E+01
 0.61090991709E+01 0.49356908317E+01 0.42680538582E+01 0.39268167349E+01 0.37135136504E+01
 0.35681126474E+01 0.34950149943E+01 0.34950150068E+01 0.35681129065E+01 0.37135147383E+01
 0.39268193725E+01 0.42680586217E+01 0.49356979037E+01 0.61091082102E+01 0.78963597155E+01
 0.10313368647E+02 0.13277985002E+02 0.16617221771E+02 0.20084760714E+02 0.23386764341E+02
 0.26215055239E+02 0.28286066200E+02 0.29381207796E+02 0.29381207760E+02 0.28286065875E+02
 0.26215054052E+02 0.23386761586E+02 0.14328617344E+02 0.11711811692E+02 0.93276216037E+01
 0.73401190243E+01 0.58396933070E+01 0.48326066740E+01 0.42423771949E+01 0.39247714629E+01
 0.37135136504E+01 0.35606937665E+01 0.34694342847E+01 0.34392286245E+01 0.34694338583E+01
 0.35606935436E+01 0.37135146734E+01 0.39247748246E+01 0.42423836470E+01 0.48326163396E+01
 0.58397055818E+01 0.73401327066E+01 0.93276351987E+01 0.11711823796E+02 0.14328626982E+02
 0.16959900768E+02 0.19359911568E+02 0.21286640432E+02 0.22535004238E+02 0.22967306719E+02
 0.22535003345E+02 0.21286638216E+02 0.19359907359E+02 0.16959893958E+02 0.10010547617E+02
 0.82055017006E+01 0.66694834870E+01 0.54894475112E+01 0.46833296334E+01 0.41981016402E+01
 0.39198317741E+01 0.37189328581E+01 0.35681126474E+01 0.34694342847E+01 0.34210921323E+01
 0.34210919587E+01 0.34694340492E+01 0.35681131193E+01 0.37189350562E+01 0.39198366568E+01
 0.41981098069E+01 0.46833411306E+01 0.54894617837E+01 0.66694994912E+01 0.82055181302E+01
 0.10010563166E+02 0.11940840873E+02 0.13815552753E+02 0.15441776100E+02 0.16641680517E+02
 0.17278725432E+02 0.17278723873E+02 0.16641675820E+02 0.15441768246E+02 0.13815541848E+02
 0.11940827283E+02 0.70725653855E+01 0.59697302882E+01 0.51105317225E+01 0.45153743531E+01
 0.41465480296E+01 0.39145720803E+01 0.37319436826E+01 0.35916953325E+01 0.34950149943E+01
 0.34392286245E+01 0.34210919587E+01 0.34392287689E+01 0.34950155669E+01 0.35916968492E+01
 0.37319467923E+01 0.39145774392E+01 0.41465561577E+01 0.45153855077E+01 0.51105457983E+01
 0.59697467678E+01 0.70725833533E+01 0.83444866222E+01 0.96691479096E+01 0.10906923613E+02
 0.11916488986E+02 0.12576850462E+02 0.12806545081E+02 0.12576844993E+02 0.11916478574E+02
 0.10906909241E+02 0.96691308848E+01 0.83444684077E+01 0.53217348900E+01 0.47539085871E+01
 0.43559404557E+01 0.40982767021E+01 0.39120141174E+01 0.37561958262E+01 0.36349039163E+01
 0.35488397764E+01 0.34950150068E+01 0.34694338583E+01 0.34694340492E+01 0.34950155669E+01
 0.35488407009E+01 0.36349053028E+01 0.37561979664E+01 0.39120175439E+01 0.40982821281E+01
 0.43559486075E+01 0.47539199604E+01 0.53217494876E+01 0.60435114879E+01 0.68625080233E+01
 0.76927031986E+01 0.84345492225E+01 0.89925824896E+01 0.92920748564E+01 0.92920714446E+01
 0.89925727572E+01 0.84345345702E+01 0.76926856199E+01 0.68624896905E+01 0.60434943347E+01
 0.44574550293E+01 0.42232885436E+01 0.40571144770E+01 0.39156146401E+01 0.37955940919E+01
 0.37019073845E+01 0.36349054828E+01 0.35916966657E+01 0.35681129065E+01 0.35606935436E+01
 0.35681131193E+01 0.35916968492E+01 0.36349053028E+01 0.37019066545E+01 0.37955929956E+01
 0.39156138353E+01 0.40571150166E+01 0.42232916005E+01 0.44574615176E+01 0.47864580814E+01
 0.52029856584E+01 0.56700912940E+01 0.61307963424E+01 0.65207964420E+01 0.67818786300E+01
 0.68737043412E+01 0.67818724680E+01 0.65207852663E+01 0.61307821601E+01 0.56700764780E+01
 0.52029723918E+01 0.47864478924E+01 0.41190631899E+01 0.40188873483E+01 0.39282456310E+01
 0.38528565829E+01 0.37955970266E+01 0.37562004477E+01 0.37319479695E+01 0.37189354406E+01
 0.37135147383E+01 0.37135146734E+01 0.37189350562E+01 0.37319467923E+01 0.37561979664E+01
 0.37955929956E+01 0.38528512593E+01 0.39282398409E+01 0.40188823454E+01 0.41190603211E+01
 0.42356502858E+01 0.43918921319E+01 0.45904065236E+01 0.48126434812E+01 0.50263763359E+01
 0.51952684786E+01 0.52884965641E+01 0.52884944955E+01 0.51952627873E+01 0.50263684201E+01
 0.48126352365E+01 0.45903998292E+01 0.43918883639E+01 0.42356500005E+01 0.39849639639E+01
 0.39514481762E+01 0.39282481999E+01 0.39156202888E+01 0.39120218303E+01 0.39145798110E+01
 0.39198376918E+01 0.39247751449E+01 0.39268193725E+01 0.39247748246E+01 0.39198366568E+01
 0.39145774392E+01 0.39120175439E+01 0.39156138353E+01 0.39282398409E+01 0.39514387038E+01
 0.39849545367E+01 0.40266827815E+01 0.40730970719E+01 0.41253511468E+01 0.41915356929E+01
 0.42677716771E+01 0.43404035192E+01 0.43928154041E+01 0.44119253018E+01 0.43928144036E+01
 0.43404021134E+01 0.42677708602E+01 0.41915365277E+01 0.41253544102E+01 0.40731029893E+01
 0.40266909335E+01 0.39849648977E+01 0.40188907721E+01 0.40571210116E+01 0.40982856687E+01
 0.41465576734E+01 0.41981100285E+01 0.42423833701E+01 0.42680584541E+01 0.42680586217E+01
 0.42423836470E+01 0.41981098069E+01 0.41465561577E+01 0.40982821281E+01 0.40571150166E+01
 0.40188823454E+01 0.39849545367E+01 0.39584319682E+01 0.39411580207E+01 0.39333667781E+01
 0.39337134770E+01 0.39396637609E+01 0.39492000633E+01 0.39599207722E+01 0.39670693919E+01
 0.39670702981E+01 0.39599235536E+01 0.39492048618E+01 0.39396706753E+01 0.39337224171E+01
 0.39333773515E+01 0.39411695059E+01 0.39584434026E+01 0.41190654718E+01 0.42232936364E+01
 0.43559479161E+01 0.45153829122E+01 0.46833377274E+01 0.48326132698E+01 0.49356961049E+01
 0.49725002654E+01 0.49356979037E+01 0.48326163396E+01 0.46833411306E+01 0.45153855077E+01
 0.43559486075E+01 0.42232916005E+01 0.41190603211E+01 0.40266827815E+01 0.39411580207E+01
 0.38682111998E+01 0.38112849125E+01 0.37709831890E+01 0.37454200638E+01 0.37311703669E+01
 0.37245153819E+01 0.37226451495E+01 0.37245190006E+01 0.37311773075E+01 0.37454297399E+01
 0.37709947503E+01 0.38112972997E+01 0.38682232451E+01 0.39411685895E+01 0.40266909335E+01
 0.44574573144E+01 0.47539125648E+01 0.51105364577E+01 0.54894520739E+01 0.58396971500E+01
 0.61091024943E+01 0.62555234666E+01 0.62555254876E+01 0.61091082102E+01 0.58397055818E+01
 0.54894617837E+01 0.51105457983E+01 0.47539199604E+01 0.44574615176E+01 0.42356502858E+01
 0.40730970719E+01 0.39333667781E+01 0.38112849125E+01 0.37129041015E+01 0.36399892365E+01
 0.35907208693E+01 0.35612898730E+01 0.35477818488E+01 0.35477838528E+01 0.35612956195E+01
 0.35907295919E+01 0.36399997622E+01 0.37129149962E+01 0.38112946722E+01 0.39333740378E+01