   1   1   1   0
  0.8407773E+01  0.2282436E-09  0.2282436E-09  0.2282436E-09  0.5000000E-15
  1.000000000000000E-004
  CAR 
 Co-fcc                                  
     59.12715673      1.48218767  301     14.42691808      1.00000000
      1.482  0.0000E+00  0.0000E+00  0.0000E+00  0.0000E+00
      1.674  0.0000E+00  0.0000E+00  0.0000E+00  0.0000E+00
      1.866  0.0000E+00  0.0000E+00  0.0000E+00  0.0000E+00
      2.059  0.0000E+00  0.0000E+00  0.0000E+00  0.0000E+00
      2.251  0.0000E+00  0.0000E+00  0.0000E+00  0.0000E+00
      2.443  0.0000E+00  0.0000E+00  0.0000E+00  0.0000E+00
      2.635  0.0000E+00  0.0000E+00  0.0000E+00  0.0000E+00
      2.827  0.0000E+00  0.0000E+00  0.0000E+00  0.0000E+00
      3.019  0.0000E+00  0.0000E+00  0.0000E+00  0.0000E+00
      3.212  0.0000E+00  0.0000E+00  0.0000E+00  0.0000E+00
      3.404  0.0000E+00  0.0000E+00  0.0000E+00  0.0000E+00
      3.596  0.0000E+00  0.0000E+00  0.0000E+00  0.0000E+00
      3.788  0.0000E+00  0.0000E+00  0.0000E+00  0.0000E+00
      3.980  0.5521E-07  0.2094E-09  0.1061E-07  0.4023E-10
      4.172  0.1983E-03  0.1533E-03  0.3812E-04  0.2946E-04
      4.364  0.4891E-05  0.5000E-04  0.3906E-04  0.3906E-04
      4.557  0.7685E-04  0.3611E-05  0.5383E-04  0.3976E-04
      4.749  0.5330E-03  0.6052E-03  0.1562E-03  0.1560E-03
      4.941  0.8475E-07  0.1074E-05  0.1563E-03  0.1563E-03
      5.133  0.5870E-03  0.3694E-03  0.2691E-03  0.2272E-03
      5.325  0.2276E-04  0.2405E-03  0.2734E-03  0.2734E-03
      5.517  0.3823E-03  0.3006E-04  0.3469E-03  0.2792E-03
      5.709  0.4309E-03  0.7830E-03  0.4297E-03  0.4297E-03
      5.902  0.8669E-04  0.4701E-06  0.4463E-03  0.4298E-03
      6.094  0.1133E-02  0.1191E-02  0.6641E-03  0.6585E-03
      6.286  0.9801E-04  0.2880E-04  0.6829E-03  0.6641E-03
      6.478  0.5119E-03  0.5882E-03  0.7812E-03  0.7771E-03
      6.670  0.1085E-03  0.2165E-04  0.8021E-03  0.7813E-03
      6.862  0.1111E-02  0.9822E-03  0.1016E-02  0.9700E-03
      7.055  0.8931E-03  0.2467E-03  0.1187E-02  0.1017E-02
      7.247  0.9393E-03  0.1692E-02  0.1368E-02  0.1342E-02
      7.439  0.8025E-03  0.1447E-03  0.1522E-02  0.1370E-02
      7.631  0.1497E-04  0.6851E-03  0.1525E-02  0.1502E-02
      7.823  0.3599E-02  0.1204E-03  0.2216E-02  0.1525E-02
      8.015  0.2156E-02  0.2055E-02  0.2631E-02  0.1920E-02
      8.207  0.4047E-02  0.1059E-02  0.3408E-02  0.2123E-02
      8.400  0.5460E-02  0.1709E-02  0.4457E-02  0.2452E-02
      8.592  0.4924E-02  0.2433E-02  0.5403E-02  0.2919E-02
      8.784  0.6471E-02  0.2501E-02  0.6647E-02  0.3400E-02
      8.976  0.7342E-02  0.7474E-02  0.8058E-02  0.4836E-02
      9.168  0.6332E-02  0.2246E-02  0.9274E-02  0.5268E-02
      9.360  0.7477E-02  0.3174E-02  0.1071E-01  0.5877E-02
      9.552  0.6372E-02  0.6145E-02  0.1194E-01  0.7058E-02
      9.745  0.5674E-02  0.6230E-02  0.1303E-01  0.8255E-02
      9.937  0.5726E-02  0.5555E-02  0.1413E-01  0.9323E-02
     10.129  0.7137E-02  0.6384E-02  0.1550E-01  0.1055E-01
     10.321  0.3833E-02  0.6481E-02  0.1623E-01  0.1179E-01
     10.513  0.6610E-02  0.4267E-02  0.1750E-01  0.1261E-01
     10.705  0.6037E-02  0.6595E-02  0.1866E-01  0.1388E-01
     10.898  0.8312E-02  0.5788E-02  0.2026E-01  0.1499E-01
     11.090  0.6589E-02  0.3664E-02  0.2153E-01  0.1570E-01
     11.282  0.8584E-02  0.6001E-02  0.2318E-01  0.1685E-01
     11.474  0.8975E-02  0.4809E-02  0.2490E-01  0.1778E-01
     11.666  0.1217E-01  0.6675E-02  0.2724E-01  0.1906E-01
     11.858  0.9949E-02  0.8323E-02  0.2915E-01  0.2066E-01
     12.050  0.9429E-02  0.6324E-02  0.3096E-01  0.2187E-01
     12.243  0.6006E-02  0.8483E-02  0.3212E-01  0.2350E-01
     12.435  0.7728E-02  0.6572E-02  0.3360E-01  0.2477E-01
     12.627  0.4096E-02  0.8872E-02  0.3439E-01  0.2647E-01
     12.819  0.8976E-02  0.1018E-01  0.3611E-01  0.2843E-01
     13.011  0.1007E-01  0.9209E-02  0.3805E-01  0.3020E-01
     13.203  0.7676E-02  0.7919E-02  0.3952E-01  0.3172E-01
     13.395  0.6157E-02  0.3012E-02  0.4071E-01  0.3230E-01
     13.588  0.1051E-01  0.8044E-02  0.4273E-01  0.3384E-01
     13.780  0.2994E-02  0.4871E-02  0.4330E-01  0.3478E-01
     13.972  0.1111E-01  0.7131E-02  0.4544E-01  0.3615E-01
     14.164  0.7437E-02  0.8648E-02  0.4687E-01  0.3781E-01
     14.356  0.1297E-01  0.7699E-02  0.4936E-01  0.3929E-01
     14.548  0.1034E-01  0.4578E-02  0.5134E-01  0.4017E-01
     14.741  0.7261E-02  0.1020E-01  0.5274E-01  0.4213E-01
     14.933  0.5876E-03  0.4908E-02  0.5285E-01  0.4307E-01
     15.125  0.5821E-07  0.5879E-02  0.5285E-01  0.4420E-01
     15.317  0.5098E-03  0.1002E-01  0.5295E-01  0.4613E-01
     15.509  0.2436E-02  0.6729E-02  0.5342E-01  0.4742E-01
     15.701  0.2050E-02  0.1666E-01  0.5381E-01  0.5062E-01
     15.893  0.1104E-02  0.8058E-02  0.5402E-01  0.5217E-01
     16.086  0.1092E-02  0.3543E-02  0.5423E-01  0.5285E-01
     16.278  0.7801E-03  0.2751E-04  0.5438E-01  0.5286E-01
     16.470  0.7207E-03  0.1980E-02  0.5452E-01  0.5324E-01
     16.662  0.1118E-02  0.2364E-02  0.5474E-01  0.5369E-01
     16.854  0.1200E-02  0.2092E-02  0.5497E-01  0.5409E-01
     17.046  0.1117E-02  0.1476E-02  0.5518E-01  0.5438E-01
     17.238  0.1484E-02  0.5988E-03  0.5547E-01  0.5449E-01
     17.431  0.4176E-03  0.2502E-03  0.5555E-01  0.5454E-01
     17.623  0.1763E-02  0.1052E-02  0.5589E-01  0.5474E-01
     17.815  0.8923E-03  0.1745E-02  0.5606E-01  0.5508E-01
     18.007  0.1613E-02  0.1408E-02  0.5637E-01  0.5535E-01
     18.199  0.5970E-03  0.1734E-02  0.5648E-01  0.5568E-01
     18.391  0.1869E-02  0.1739E-02  0.5684E-01  0.5602E-01
     18.584  0.1193E-02  0.1373E-02  0.5707E-01  0.5628E-01
     18.776  0.4645E-08  0.4574E-03  0.5707E-01  0.5637E-01
     18.968  0.3135E-06  0.3319E-03  0.5707E-01  0.5643E-01
     19.160  0.1189E-02  0.2159E-02  0.5730E-01  0.5685E-01
     19.352  0.1538E-02  0.1168E-02  0.5759E-01  0.5707E-01
     19.544  0.1884E-02  0.1139E-06  0.5796E-01  0.5707E-01
     19.736  0.2672E-03  0.1102E-02  0.5801E-01  0.5728E-01
     19.929  0.8677E-03  0.1345E-02  0.5817E-01  0.5754E-01
     20.121  0.9619E-03  0.1357E-02  0.5836E-01  0.5780E-01
     20.313  0.2412E-03  0.1075E-02  0.5841E-01  0.5801E-01
     20.505  0.6451E-03  0.4394E-03  0.5853E-01  0.5809E-01
     20.697  0.1999E-02  0.1359E-02  0.5891E-01  0.5835E-01
     20.889  0.1645E-03  0.6303E-03  0.5895E-01  0.5847E-01
     21.081  0.3268E-03  0.1120E-03  0.5901E-01  0.5850E-01
     21.274  0.8929E-03  0.1653E-02  0.5918E-01  0.5881E-01
     21.466  0.9021E-09  0.6858E-03  0.5918E-01  0.5895E-01
     21.658  0.2725E-03  0.1185E-02  0.5923E-01  0.5917E-01
     21.850  0.1195E-02  0.3468E-04  0.5946E-01  0.5918E-01
     22.042  0.3627E-03  0.2413E-09  0.5953E-01  0.5918E-01
     22.234  0.1179E-02  0.4225E-03  0.5976E-01  0.5926E-01
     22.427  0.4087E-04  0.1396E-02  0.5977E-01  0.5953E-01
     22.619  0.0000E+00  0.1432E-04  0.5977E-01  0.5953E-01
     22.811  0.8922E-12  0.1212E-02  0.5977E-01  0.5976E-01
     23.003  0.3290E-03  0.4557E-05  0.5983E-01  0.5977E-01
     23.195  0.8907E-03  0.0000E+00  0.6000E-01  0.5977E-01
     23.387  0.5704E-04  0.3576E-06  0.6001E-01  0.5977E-01
     23.579  0.2221E-02  0.1191E-02  0.6044E-01  0.5999E-01
     23.772  0.2356E-02  0.2795E-04  0.6089E-01  0.6000E-01
     23.964  0.8935E-03  0.1625E-10  0.6106E-01  0.6000E-01
     24.156  0.1747E-02  0.5597E-03  0.6140E-01  0.6011E-01
     24.348  0.9119E-03  0.3799E-02  0.6157E-01  0.6084E-01
     24.540  0.1811E-02  0.1544E-02  0.6192E-01  0.6113E-01
     24.732  0.1169E-02  0.1416E-02  0.6215E-01  0.6141E-01
     24.924  0.1232E-02  0.1201E-02  0.6238E-01  0.6164E-01
     25.117  0.6438E-03  0.1485E-02  0.6251E-01  0.6192E-01
     25.309  0.1919E-02  0.1152E-02  0.6287E-01  0.6214E-01
     25.501  0.1099E-02  0.1304E-02  0.6309E-01  0.6239E-01
     25.693  0.4563E-03  0.1590E-02  0.6317E-01  0.6270E-01
     25.885  0.1577E-02  0.1977E-02  0.6348E-01  0.6308E-01
     26.077  0.6547E-03  0.3342E-04  0.6360E-01  0.6309E-01
     26.270  0.1016E-02  0.5681E-03  0.6380E-01  0.6320E-01
     26.462  0.8144E-03  0.1850E-02  0.6395E-01  0.6355E-01
     26.654  0.9873E-03  0.8244E-03  0.6414E-01  0.6371E-01
     26.846  0.1703E-02  0.1024E-02  0.6447E-01  0.6391E-01
     27.038  0.1105E-02  0.1202E-02  0.6468E-01  0.6414E-01
     27.230  0.2253E-03  0.8478E-03  0.6473E-01  0.6430E-01
     27.422  0.1866E-02  0.1113E-02  0.6509E-01  0.6451E-01
     27.615  0.1196E-02  0.1109E-02  0.6531E-01  0.6473E-01
     27.807  0.1595E-02  0.5950E-03  0.6562E-01  0.6484E-01
     27.999  0.2133E-02  0.1443E-02  0.6603E-01  0.6512E-01
     28.191  0.1117E-02  0.2338E-02  0.6625E-01  0.6557E-01
     28.383  0.1650E-02  0.1377E-02  0.6656E-01  0.6583E-01
     28.575  0.2298E-02  0.1575E-02  0.6700E-01  0.6613E-01
     28.767  0.5019E-03  0.1258E-02  0.6710E-01  0.6638E-01
     28.960  0.2452E-02  0.3072E-02  0.6757E-01  0.6697E-01
     29.152  0.4391E-03  0.5403E-03  0.6766E-01  0.6707E-01
     29.344  0.3253E-03  0.2361E-02  0.6772E-01  0.6752E-01
     29.536  0.3403E-02  0.6874E-03  0.6837E-01  0.6766E-01
     29.728  0.3018E-02  0.2081E-03  0.6895E-01  0.6770E-01
     29.920  0.1661E-03  0.3661E-02  0.6898E-01  0.6840E-01
     30.113  0.7522E-03  0.2444E-02  0.6913E-01  0.6887E-01
     30.305  0.2300E-02  0.5981E-03  0.6957E-01  0.6898E-01
     30.497  0.2773E-02  0.6194E-03  0.7010E-01  0.6910E-01
     30.689  0.2707E-02  0.2800E-02  0.7062E-01  0.6964E-01
     30.881  0.4230E-03  0.2440E-02  0.7071E-01  0.7011E-01
     31.073  0.2179E-02  0.2677E-02  0.7112E-01  0.7062E-01
     31.265  0.1064E-02  0.4320E-03  0.7133E-01  0.7071E-01
     31.458  0.1810E-02  0.3141E-02  0.7168E-01  0.7131E-01
     31.650  0.1294E-02  0.6372E-03  0.7192E-01  0.7143E-01
     31.842  0.1858E-02  0.1829E-02  0.7228E-01  0.7179E-01
     32.034  0.2032E-02  0.1227E-02  0.7267E-01  0.7202E-01
     32.226  0.4031E-02  0.2076E-02  0.7345E-01  0.7242E-01
     32.418  0.1763E-02  0.3147E-02  0.7379E-01  0.7302E-01
     32.610  0.2208E-02  0.2847E-02  0.7421E-01  0.7357E-01
     32.803  0.2518E-03  0.1809E-02  0.7426E-01  0.7392E-01
     32.995  0.1262E-02  0.1760E-02  0.7450E-01  0.7426E-01
     33.187  0.2828E-02  0.3504E-03  0.7504E-01  0.7432E-01
     33.379  0.2681E-02  0.2534E-02  0.7556E-01  0.7481E-01
     33.571  0.1287E-02  0.1754E-02  0.7581E-01  0.7515E-01
     33.763  0.2237E-02  0.3291E-02  0.7624E-01  0.7578E-01
     33.956  0.2389E-02  0.6876E-03  0.7670E-01  0.7591E-01
     34.148  0.1301E-02  0.2703E-02  0.7695E-01  0.7643E-01
     34.340  0.1872E-02  0.1695E-02  0.7730E-01  0.7676E-01
     34.532  0.4968E-05  0.2594E-02  0.7731E-01  0.7726E-01
     34.724  0.3895E-02  0.2492E-03  0.7805E-01  0.7730E-01
     34.916  0.3872E-02  0.1950E-02  0.7880E-01  0.7768E-01
     35.108  0.1214E-02  0.4715E-02  0.7903E-01  0.7859E-01
     35.301  0.1976E-02  0.1900E-02  0.7941E-01  0.7895E-01
     35.493  0.1173E-03  0.2408E-02  0.7943E-01  0.7941E-01
     35.685  0.1305E-02  0.5747E-05  0.7968E-01  0.7941E-01
     35.877  0.3099E-04  0.1188E-02  0.7969E-01  0.7964E-01
     36.069  0.3079E-02  0.2377E-03  0.8028E-01  0.7969E-01
     36.261  0.3518E-02  0.3108E-02  0.8096E-01  0.8029E-01
     36.453  0.2890E-03  0.2622E-02  0.8101E-01  0.8079E-01
     36.646  0.1292E-02  0.1003E-02  0.8126E-01  0.8098E-01
     36.838  0.2284E-02  0.1349E-02  0.8170E-01  0.8124E-01
     37.030  0.3531E-02  0.3305E-02  0.8238E-01  0.8188E-01
     37.222  0.1694E-02  0.2633E-02  0.8270E-01  0.8238E-01
     37.414  0.1665E-03  0.1338E-02  0.8274E-01  0.8264E-01
     37.606  0.1819E-02  0.8002E-03  0.8309E-01  0.8279E-01
     37.799  0.2402E-02  0.2200E-02  0.8355E-01  0.8322E-01
     37.991  0.4921E-03  0.2168E-02  0.8364E-01  0.8363E-01
     38.183  0.1376E-02  0.5253E-03  0.8391E-01  0.8373E-01
     38.375  0.1369E-02  0.7554E-03  0.8417E-01  0.8388E-01
     38.567  0.1710E-02  0.1090E-02  0.8450E-01  0.8409E-01
     38.759  0.2831E-02  0.3621E-02  0.8504E-01  0.8478E-01
     38.951  0.1950E-02  0.1901E-02  0.8542E-01  0.8515E-01
     39.144  0.2084E-02  0.2126E-02  0.8582E-01  0.8556E-01
     39.336  0.1166E-02  0.7228E-03  0.8604E-01  0.8570E-01
     39.528  0.1693E-02  0.1301E-02  0.8637E-01  0.8595E-01
     39.720  0.1126E-02  0.2185E-02  0.8658E-01  0.8637E-01
     39.912  0.7161E-03  0.1182E-02  0.8672E-01  0.8659E-01
     40.104  0.8692E-03  0.1263E-02  0.8689E-01  0.8684E-01
     40.296  0.2020E-02  0.3934E-03  0.8728E-01  0.8691E-01
     40.489  0.2738E-02  0.1820E-02  0.8780E-01  0.8726E-01
     40.681  0.1645E-02  0.2188E-02  0.8812E-01  0.8768E-01
     40.873  0.3300E-02  0.1819E-02  0.8875E-01  0.8803E-01
     41.065  0.3007E-02  0.3311E-02  0.8933E-01  0.8867E-01
     41.257  0.1641E-02  0.4029E-02  0.8964E-01  0.8944E-01
     41.449  0.1443E-02  0.1053E-02  0.8992E-01  0.8964E-01
     41.642  0.3369E-03  0.1450E-02  0.8999E-01  0.8992E-01
     41.834  0.3942E-02  0.5912E-04  0.9074E-01  0.8993E-01
     42.026  0.1781E-02  0.3897E-02  0.9109E-01  0.9068E-01
     42.218  0.2471E-02  0.2802E-02  0.9156E-01  0.9122E-01
     42.410  0.2970E-02  0.2358E-02  0.9213E-01  0.9167E-01
     42.602  0.5961E-03  0.1790E-02  0.9225E-01  0.9202E-01
     42.794  0.4121E-02  0.1873E-02  0.9304E-01  0.9238E-01
     42.987  0.1385E-02  0.3672E-02  0.9330E-01  0.9308E-01
     43.179  0.6919E-03  0.3973E-03  0.9344E-01  0.9316E-01
     43.371  0.2658E-02  0.1390E-02  0.9395E-01  0.9343E-01
     43.563  0.3136E-02  0.2958E-02  0.9455E-01  0.9399E-01
     43.755  0.1642E-02  0.3165E-02  0.9487E-01  0.9460E-01
     43.947  0.1103E-02  0.1422E-02  0.9508E-01  0.9488E-01
     44.139  0.2026E-02  0.1091E-02  0.9547E-01  0.9509E-01
     44.332  0.1696E-02  0.2023E-02  0.9579E-01  0.9547E-01
     44.524  0.2629E-02  0.1804E-02  0.9630E-01  0.9582E-01
     44.716  0.8431E-03  0.2626E-02  0.9646E-01  0.9633E-01
     44.908  0.4380E-02  0.1471E-02  0.9730E-01  0.9661E-01
     45.100  0.2834E-02  0.3113E-02  0.9785E-01  0.9721E-01
     45.292  0.1169E-02  0.2580E-02  0.9807E-01  0.9770E-01
     45.485  0.2354E-02  0.1117E-02  0.9852E-01  0.9792E-01
     45.677  0.1694E-02  0.3998E-02  0.9885E-01  0.9869E-01
     45.869  0.1277E-03  0.3378E-03  0.9887E-01  0.9875E-01
     46.061  0.1554E-02  0.5720E-03  0.9917E-01  0.9886E-01
     46.253  0.1255E-02  0.1935E-02  0.9941E-01  0.9923E-01
     46.445  0.3144E-05  0.9493E-03  0.9941E-01  0.9941E-01
     46.637  0.3276E-13  0.1847E-08  0.9941E-01  0.9941E-01
     46.830  0.2198E-03  0.3017E-05  0.9946E-01  0.9941E-01
     47.022  0.2825E-02  0.6056E-03  0.1000E+00  0.9953E-01
     47.214  0.4267E-02  0.2237E-02  0.1008E+00  0.9996E-01
     47.406  0.1019E-02  0.2557E-02  0.1010E+00  0.1005E+00
     47.598  0.6236E-03  0.2701E-02  0.1011E+00  0.1010E+00
     47.790  0.1820E-02  0.5404E-03  0.1015E+00  0.1011E+00
     47.982  0.6093E-06  0.9052E-03  0.1015E+00  0.1012E+00
     48.175  0.6033E-03  0.1133E-02  0.1016E+00  0.1015E+00
     48.367  0.1175E-02  0.6904E-03  0.1018E+00  0.1016E+00
     48.559  0.1753E-02  0.1172E-02  0.1022E+00  0.1018E+00
     48.751  0.3317E-02  0.2202E-02  0.1028E+00  0.1022E+00
     48.943  0.1728E-02  0.1234E-02  0.1031E+00  0.1025E+00
     49.135  0.7038E-02  0.2447E-02  0.1045E+00  0.1030E+00
     49.328  0.4303E-02  0.7564E-02  0.1053E+00  0.1044E+00
     49.520  0.1471E-02  0.2436E-02  0.1056E+00  0.1049E+00
     49.712  0.2921E-02  0.1194E-02  0.1062E+00  0.1051E+00
     49.904  0.2319E-02  0.2331E-02  0.1066E+00  0.1056E+00
     50.096  0.1111E-02  0.1823E-02  0.1068E+00  0.1059E+00
     50.288  0.3260E-02  0.2632E-02  0.1074E+00  0.1064E+00
     50.480  0.1653E-02  0.3072E-02  0.1078E+00  0.1070E+00
     50.673  0.2260E-02  0.1959E-02  0.1082E+00  0.1074E+00
     50.865  0.3273E-02  0.1471E-02  0.1088E+00  0.1077E+00
     51.057  0.8467E-02  0.1639E-02  0.1104E+00  0.1080E+00
     51.249  0.1125E-01  0.5969E-02  0.1126E+00  0.1091E+00
     51.441  0.1017E-01  0.2201E-02  0.1146E+00  0.1095E+00
     51.633  0.3868E-02  0.7912E-03  0.1153E+00  0.1097E+00
     51.825  0.1925E-02  0.1364E-02  0.1157E+00  0.1100E+00
     52.018  0.5017E-02  0.1532E-02  0.1166E+00  0.1103E+00
     52.210  0.5749E-02  0.1125E-02  0.1177E+00  0.1105E+00
     52.402  0.4355E-02  0.3136E-02  0.1186E+00  0.1111E+00
     52.594  0.2632E-02  0.5023E-02  0.1191E+00  0.1120E+00
     52.786  0.4639E-03  0.2453E-02  0.1192E+00  0.1125E+00
     52.978  0.1637E-03  0.7324E-03  0.1192E+00  0.1126E+00
     53.171  0.1213E-02  0.2777E-02  0.1194E+00  0.1132E+00
     53.363  0.4531E-03  0.3167E-02  0.1195E+00  0.1138E+00
     53.555  0.5277E-09  0.3723E-02  0.1195E+00  0.1145E+00
     53.747  0.5306E-04  0.6996E-02  0.1195E+00  0.1159E+00
     53.939  0.1167E-02  0.7884E-02  0.1198E+00  0.1174E+00
     54.131  0.1199E-06  0.1514E-02  0.1198E+00  0.1177E+00
     54.323  0.0000E+00  0.2342E-02  0.1198E+00  0.1181E+00
     54.516  0.0000E+00  0.5434E-02  0.1198E+00  0.1192E+00
     54.708  0.1067E-07  0.1983E-02  0.1198E+00  0.1195E+00
     54.900  0.5505E-03  0.1280E-02  0.1199E+00  0.1198E+00
     55.092  0.5939E-04  0.5489E-03  0.1199E+00  0.1199E+00
     55.284  0.0000E+00  0.6041E-08  0.1199E+00  0.1199E+00
     55.476  0.0000E+00  0.0000E+00  0.1199E+00  0.1199E+00
     55.668  0.0000E+00  0.0000E+00  0.1199E+00  0.1199E+00
     55.861  0.0000E+00  0.0000E+00  0.1199E+00  0.1199E+00
     56.053  0.0000E+00  0.0000E+00  0.1199E+00  0.1199E+00
     56.245  0.1200E-06  0.3819E-16  0.1199E+00  0.1199E+00
     56.437  0.5919E-03  0.1467E-04  0.1200E+00  0.1199E+00
     56.629  0.1790E-04  0.5950E-03  0.1200E+00  0.1200E+00
     56.821  0.0000E+00  0.1656E-06  0.1200E+00  0.1200E+00
     57.014  0.0000E+00  0.0000E+00  0.1200E+00  0.1200E+00
     57.206  0.0000E+00  0.0000E+00  0.1200E+00  0.1200E+00
     57.398  0.0000E+00  0.0000E+00  0.1200E+00  0.1200E+00
     57.590  0.0000E+00  0.0000E+00  0.1200E+00  0.1200E+00
     57.782  0.0000E+00  0.0000E+00  0.1200E+00  0.1200E+00
     57.974  0.0000E+00  0.0000E+00  0.1200E+00  0.1200E+00
     58.166  0.0000E+00  0.0000E+00  0.1200E+00  0.1200E+00
     58.359  0.0000E+00  0.0000E+00  0.1200E+00  0.1200E+00
     58.551  0.0000E+00  0.0000E+00  0.1200E+00  0.1200E+00
     58.743  0.0000E+00  0.0000E+00  0.1200E+00  0.1200E+00
     58.935  0.0000E+00  0.0000E+00  0.1200E+00  0.1200E+00
     59.127  0.0000E+00  0.0000E+00  0.1200E+00  0.1200E+00
     59.12715673      1.48218767  301     14.42691808      1.00000000
      1.482  0.0000E+00  0.0000E+00  0.0000E+00  0.0000E+00  0.0000E+00  0.0000E+00  0.0000E+00  0.0000E+00  0.0000E+00  0.0000E+00  0.0000E+00  0.0000E+00  0.0000E+00  0.0000E+00  0.0000E+00  0.0000E+00  0.0000E+00  0.0000E+00
      1.674  0.0000E+00  0.0000E+00  0.0000E+00  0.0000E+00  0.0000E+00  0.0000E+00  0.0000E+00  0.0000E+00  0.0000E+00  0.0000E+00  0.0000E+00  0.0000E+00  0.0000E+00  0.0000E+00  0.0000E+00  0.0000E+00  0.0000E+00  0.0000E+00
      1.866  0.0000E+00  0.0000E+00  0.0000E+00  0.0000E+00  0.0000E+00  0.0000E+00  0.0000E+00  0.0000E+00  0.0000E+00  0.0000E+00  0.0000E+00  0.0000E+00  0.0000E+00  0.0000E+00  0.0000E+00  0.0000E+00  0.0000E+00  0.0000E+00
      2.059  0.0000E+00  0.0000E+00  0.0000E+00  0.0000E+00  0.0000E+00  0.0000E+00  0.0000E+00  0.0000E+00  0.0000E+00  0.0000E+00  0.0000E+00  0.0000E+00  0.0000E+00  0.0000E+00  0.0000E+00  0.0000E+00  0.0000E+00  0.0000E+00
      2.251  0.0000E+00  0.0000E+00  0.0000E+00  0.0000E+00  0.0000E+00  0.0000E+00  0.0000E+00  0.0000E+00  0.0000E+00  0.0000E+00  0.0000E+00  0.0000E+00  0.0000E+00  0.0000E+00  0.0000E+00  0.0000E+00  0.0000E+00  0.0000E+00
      2.443  0.0000E+00  0.0000E+00  0.0000E+00  0.0000E+00  0.0000E+00  0.0000E+00  0.0000E+00  0.0000E+00  0.0000E+00  0.0000E+00  0.0000E+00  0.0000E+00  0.0000E+00  0.0000E+00  0.0000E+00  0.0000E+00  0.0000E+00  0.0000E+00
      2.635  0.0000E+00  0.0000E+00  0.0000E+00  0.0000E+00  0.0000E+00  0.0000E+00  0.0000E+00  0.0000E+00  0.0000E+00  0.0000E+00  0.0000E+00  0.0000E+00  0.0000E+00  0.0000E+00  0.0000E+00  0.0000E+00  0.0000E+00  0.0000E+00
      2.827  0.0000E+00  0.0000E+00  0.0000E+00  0.0000E+00  0.0000E+00  0.0000E+00  0.0000E+00  0.0000E+00  0.0000E+00  0.0000E+00  0.0000E+00  0.0000E+00  0.0000E+00  0.0000E+00  0.0000E+00  0.0000E+00  0.0000E+00  0.0000E+00
      3.019  0.0000E+00  0.0000E+00  0.0000E+00  0.0000E+00  0.0000E+00  0.0000E+00  0.0000E+00  0.0000E+00  0.0000E+00  0.0000E+00  0.0000E+00  0.0000E+00  0.0000E+00  0.0000E+00  0.0000E+00  0.0000E+00  0.0000E+00  0.0000E+00
      3.212  0.0000E+00  0.0000E+00  0.0000E+00  0.0000E+00  0.0000E+00  0.0000E+00  0.0000E+00  0.0000E+00  0.0000E+00  0.0000E+00  0.0000E+00  0.0000E+00  0.0000E+00  0.0000E+00  0.0000E+00  0.0000E+00  0.0000E+00  0.0000E+00
      3.404  0.0000E+00  0.0000E+00  0.0000E+00  0.0000E+00  0.0000E+00  0.0000E+00  0.0000E+00  0.0000E+00  0.0000E+00  0.0000E+00  0.0000E+00  0.0000E+00  0.0000E+00  0.0000E+00  0.0000E+00  0.0000E+00  0.0000E+00  0.0000E+00
      3.596  0.0000E+00  0.0000E+00  0.0000E+00  0.0000E+00  0.0000E+00  0.0000E+00  0.0000E+00  0.0000E+00  0.0000E+00  0.0000E+00  0.0000E+00  0.0000E+00  0.0000E+00  0.0000E+00  0.0000E+00  0.0000E+00  0.0000E+00  0.0000E+00
      3.788  0.0000E+00  0.0000E+00  0.0000E+00  0.0000E+00  0.0000E+00  0.0000E+00  0.0000E+00  0.0000E+00  0.0000E+00  0.0000E+00  0.0000E+00  0.0000E+00  0.0000E+00  0.0000E+00  0.0000E+00  0.0000E+00  0.0000E+00  0.0000E+00
      3.980  0.5343E-05  0.2037E-07  0.3095E-07  0.1180E-09  0.3095E-07  0.1180E-09  0.3095E-07  0.1180E-09  0.4693E-09  0.1520E-11  0.4693E-09  0.1520E-11  0.5158E-22  0.1849E-26  0.4693E-09  0.1520E-11  0.5158E-22  0.1849E-26
      4.172  0.1920E-01  0.1491E-01  0.1112E-03  0.8638E-04  0.1112E-03  0.8638E-04  0.1112E-03  0.8638E-04  0.1686E-05  0.1113E-05  0.1686E-05  0.1113E-05  0.1853E-18  0.1354E-20  0.1686E-05  0.1113E-05  0.1853E-18  0.1354E-20
      4.364  0.4734E-03  0.4864E-02  0.2742E-05  0.2817E-04  0.2742E-05  0.2817E-04  0.2742E-05  0.2817E-04  0.4158E-07  0.3629E-06  0.4158E-07  0.3629E-06  0.1031E-14  0.3638E-19  0.4158E-07  0.3629E-06  0.1031E-14  0.3638E-19
      4.557  0.7094E-02  0.3351E-03  0.1528E-03  0.7223E-05  0.1528E-03  0.7223E-05  0.1528E-03  0.7223E-05  0.4240E-05  0.1682E-06  0.4240E-05  0.1682E-06  0.5531E-05  0.2255E-06  0.4240E-05  0.1682E-06  0.5531E-05  0.2255E-06
      4.749  0.4920E-01  0.5616E-01  0.1059E-02  0.1211E-02  0.1059E-02  0.1211E-02  0.1059E-02  0.1211E-02  0.2941E-04  0.2819E-04  0.2941E-04  0.2819E-04  0.3836E-04  0.3779E-04  0.2941E-04  0.2819E-04  0.3836E-04  0.3779E-04
      4.941  0.7472E-05  0.9970E-04  0.2692E-06  0.2149E-05  0.2692E-06  0.2149E-05  0.2692E-06  0.2149E-05  0.2435E-07  0.5007E-07  0.2435E-07  0.5007E-07  0.5503E-08  0.6708E-07  0.2435E-07  0.5007E-07  0.5503E-08  0.6708E-07
      5.133  0.5158E-01  0.3266E-01  0.1913E-02  0.1217E-02  0.1913E-02  0.1217E-02  0.1913E-02  0.1217E-02  0.1780E-03  0.9317E-04  0.1780E-03  0.9317E-04  0.3783E-04  0.2083E-04  0.1780E-03  0.9317E-04  0.3783E-04  0.2083E-04
      5.325  0.2000E-02  0.2126E-01  0.7417E-04  0.7919E-03  0.7417E-04  0.7919E-03  0.7417E-04  0.7919E-03  0.6903E-05  0.6065E-04  0.6903E-05  0.6065E-04  0.1467E-05  0.1356E-04  0.6903E-05  0.6065E-04  0.1467E-05  0.1356E-04
      5.517  0.3177E-01  0.2519E-02  0.1699E-02  0.1350E-03  0.1699E-02  0.1350E-03  0.1699E-02  0.1350E-03  0.1517E-03  0.1112E-04  0.1517E-03  0.1112E-04  0.2062E-03  0.1205E-04  0.1517E-03  0.1112E-04  0.2062E-03  0.1205E-04
      5.709  0.3580E-01  0.6557E-01  0.1931E-02  0.3543E-02  0.1931E-02  0.3543E-02  0.1931E-02  0.3543E-02  0.1293E-03  0.2171E-03  0.1293E-03  0.2171E-03  0.2742E-03  0.3900E-03  0.1293E-03  0.2171E-03  0.2742E-03  0.3900E-03
      5.902  0.6823E-02  0.3790E-04  0.4775E-03  0.2504E-05  0.4775E-03  0.2504E-05  0.4775E-03  0.2504E-05  0.7107E-04  0.2517E-06  0.7107E-04  0.2517E-06  0.4885E-04  0.2391E-06  0.7107E-04  0.2517E-06  0.4885E-04  0.2391E-06
      6.094  0.8918E-01  0.9463E-01  0.6241E-02  0.6679E-02  0.6241E-02  0.6679E-02  0.6241E-02  0.6679E-02  0.9288E-03  0.7946E-03  0.9288E-03  0.7946E-03  0.6385E-03  0.5650E-03  0.9288E-03  0.7946E-03  0.6385E-03  0.5650E-03
      6.286  0.7233E-02  0.2289E-02  0.5786E-03  0.1616E-03  0.5786E-03  0.1616E-03  0.5786E-03  0.1616E-03  0.2277E-03  0.1932E-04  0.2277E-03  0.1932E-04  0.3157E-04  0.1365E-04  0.2277E-03  0.1932E-04  0.3157E-04  0.1365E-04
      6.478  0.3777E-01  0.4414E-01  0.3022E-02  0.3626E-02  0.3022E-02  0.3626E-02  0.3022E-02  0.3626E-02  0.1190E-02  0.1063E-02  0.1190E-02  0.1063E-02  0.1648E-03  0.1601E-03  0.1190E-02  0.1063E-02  0.1648E-03  0.1601E-03
      6.670  0.7344E-02  0.1625E-02  0.7808E-03  0.1335E-03  0.7808E-03  0.1335E-03  0.7808E-03  0.1335E-03  0.4750E-04  0.3910E-04  0.4750E-04  0.3910E-04  0.4321E-03  0.5950E-05  0.4750E-04  0.3910E-04  0.4321E-03  0.5950E-05
      6.862  0.7632E-01  0.6862E-01  0.7967E-02  0.7289E-02  0.7967E-02  0.7289E-02  0.7967E-02  0.7289E-02  0.1509E-02  0.8857E-03  0.1509E-02  0.8857E-03  0.2517E-02  0.2118E-02  0.1509E-02  0.8857E-03  0.2517E-02  0.2118E-02
      7.055  0.5674E-01  0.1736E-01  0.6090E-02  0.1822E-02  0.6090E-02  0.1822E-02  0.6090E-02  0.1822E-02  0.3787E-02  0.3940E-03  0.3787E-02  0.3940E-03  0.1160E-02  0.2540E-03  0.3787E-02  0.3940E-03  0.1160E-02  0.2540E-03
      7.247  0.5972E-01  0.1109E+00  0.7345E-02  0.1310E-01  0.7345E-02  0.1310E-01  0.7345E-02  0.1310E-01  0.1484E-02  0.3886E-02  0.1484E-02  0.3886E-02  0.3256E-02  0.3164E-02  0.1484E-02  0.3886E-02  0.3256E-02  0.3164E-02
      7.439  0.4554E-01  0.9385E-02  0.5393E-02  0.1179E-02  0.5393E-02  0.1179E-02  0.5393E-02  0.1179E-02  0.5012E-02  0.2146E-03  0.5012E-02  0.2146E-03  0.1542E-02  0.3914E-03  0.5012E-02  0.2146E-03  0.1542E-02  0.3914E-03
      7.631  0.7388E-03  0.4133E-01  0.9449E-04  0.5298E-02  0.9449E-04  0.5298E-02  0.9449E-04  0.5298E-02  0.8737E-04  0.2864E-02  0.8737E-04  0.2864E-02  0.9930E-04  0.1243E-02  0.8737E-04  0.2864E-02  0.9930E-04  0.1243E-02
      7.823  0.1583E+00  0.6770E-02  0.2268E-01  0.7474E-03  0.2268E-01  0.7474E-03  0.2268E-01  0.7474E-03  0.2107E-01  0.1024E-02  0.2107E-01  0.1024E-02  0.3306E-01  0.1570E-04  0.2107E-01  0.1024E-02  0.3306E-01  0.1570E-04
      8.015  0.5315E-01  0.1112E+00  0.5227E-02  0.1789E-01  0.5227E-02  0.1789E-01  0.5227E-02  0.1789E-01  0.2340E-01  0.7121E-02  0.2340E-01  0.7121E-02  0.3711E-01  0.8930E-02  0.2340E-01  0.7121E-02  0.3711E-01  0.8930E-02
      8.207  0.9216E-01  0.5393E-01  0.1412E-01  0.7687E-02  0.1412E-01  0.7687E-02  0.1412E-01  0.7687E-02  0.2583E-01  0.8150E-02  0.2583E-01  0.8150E-02  0.9194E-01  0.2325E-02  0.2583E-01  0.8150E-02  0.9194E-01  0.2325E-02
      8.400  0.1069E+00  0.7531E-01  0.1498E-01  0.1296E-01  0.1498E-01  0.1296E-01  0.1498E-01  0.1296E-01  0.6440E-01  0.9641E-02  0.6440E-01  0.9641E-02  0.9708E-01  0.1325E-01  0.6440E-01  0.9641E-02  0.9708E-01  0.1325E-01
      8.592  0.9721E-01  0.6313E-01  0.1953E-01  0.8488E-02  0.1953E-01  0.8488E-02  0.1953E-01  0.8488E-02  0.5210E-01  0.1945E-01  0.5210E-01  0.1945E-01  0.8634E-01  0.4662E-01  0.5210E-01  0.1945E-01  0.8634E-01  0.4662E-01
      8.784  0.9820E-01  0.7127E-01  0.2044E-01  0.1040E-01  0.2044E-01  0.1040E-01  0.2044E-01  0.1040E-01  0.1060E+00  0.2776E-01  0.1060E+00  0.2776E-01  0.8262E-01  0.3176E-01  0.1060E+00  0.2776E-01  0.8262E-01  0.3176E-01
      8.976  0.5714E-01  0.1806E+00  0.1748E-01  0.3436E-01  0.1748E-01  0.3436E-01  0.1748E-01  0.3436E-01  0.1141E+00  0.6356E-01  0.1141E+00  0.6356E-01  0.1359E+00  0.1317E+00  0.1141E+00  0.6356E-01  0.1359E+00  0.1317E+00
      9.168  0.4446E-01  0.4086E-01  0.1684E-01  0.7570E-02  0.1684E-01  0.7570E-02  0.1684E-01  0.7570E-02  0.1287E+00  0.2145E-01  0.1287E+00  0.2145E-01  0.7423E-01  0.4665E-01  0.1287E+00  0.2145E-01  0.7423E-01  0.4665E-01
      9.360  0.3191E-01  0.5111E-01  0.2074E-01  0.1090E-01  0.2074E-01  0.1090E-01  0.2074E-01  0.1090E-01  0.1355E+00  0.3584E-01  0.1355E+00  0.3584E-01  0.1188E+00  0.6107E-01  0.1355E+00  0.3584E-01  0.1188E+00  0.6107E-01
      9.552  0.2687E-01  0.8026E-01  0.2438E-01  0.2248E-01  0.2438E-01  0.2248E-01  0.2438E-01  0.2248E-01  0.1351E+00  0.8170E-01  0.1351E+00  0.8170E-01  0.6416E-01  0.1075E+00  0.1351E+00  0.8170E-01  0.6416E-01  0.1075E+00
      9.745  0.1233E-01  0.6226E-01  0.1600E-01  0.2128E-01  0.1600E-01  0.2128E-01  0.1600E-01  0.2128E-01  0.1323E+00  0.1012E+00  0.1323E+00  0.1012E+00  0.5332E-01  0.9421E-01  0.1323E+00  0.1012E+00  0.5332E-01  0.9421E-01
      9.937  0.8579E-02  0.3472E-01  0.2616E-01  0.1471E-01  0.2616E-01  0.1471E-01  0.2616E-01  0.1471E-01  0.1017E+00  0.1177E+00  0.1017E+00  0.1177E+00  0.8609E-01  0.6177E-01  0.1017E+00  0.1177E+00  0.8609E-01  0.6177E-01
     10.129  0.4626E-02  0.3056E-01  0.2368E-01  0.2409E-01  0.2368E-01  0.2409E-01  0.2368E-01  0.2409E-01  0.1406E+00  0.9436E-01  0.1406E+00  0.9436E-01  0.1031E+00  0.1213E+00  0.1406E+00  0.9436E-01  0.1031E+00  0.1213E+00
     10.321  0.5673E-03  0.1760E-01  0.8991E-02  0.2220E-01  0.8991E-02  0.2220E-01  0.8991E-02  0.2220E-01  0.6800E-01  0.1563E+00  0.6800E-01  0.1563E+00  0.7164E-01  0.4826E-01  0.6800E-01  0.1563E+00  0.7164E-01  0.4826E-01
     10.513  0.1020E-01  0.1442E-01  0.2568E-01  0.2090E-01  0.2568E-01  0.2090E-01  0.2568E-01  0.2090E-01  0.1321E+00  0.9556E-01  0.1321E+00  0.9556E-01  0.8345E-01  0.3171E-01  0.1321E+00  0.9556E-01  0.8345E-01  0.3171E-01
     10.705  0.7700E-02  0.6637E-02  0.1396E-01  0.2404E-01  0.1396E-01  0.2404E-01  0.1396E-01  0.2404E-01  0.1334E+00  0.1309E+00  0.1334E+00  0.1309E+00  0.7345E-01  0.9037E-01  0.1334E+00  0.1309E+00  0.7345E-01  0.9037E-01
     10.898  0.1122E-01  0.3579E-02  0.3581E-01  0.2463E-01  0.3581E-01  0.2463E-01  0.3581E-01  0.2463E-01  0.1866E+00  0.1261E+00  0.1866E+00  0.1261E+00  0.7190E-01  0.5963E-01  0.1866E+00  0.1261E+00  0.7190E-01  0.5963E-01
     11.090  0.9255E-02  0.8567E-03  0.1775E-01  0.1566E-01  0.1775E-01  0.1566E-01  0.1775E-01  0.1566E-01  0.1333E+00  0.5085E-01  0.1333E+00  0.5085E-01  0.9486E-01  0.7853E-01  0.1333E+00  0.5085E-01  0.9486E-01  0.7853E-01