    1    1  100    2
  0.8407773E+01  0.2282436E-09  0.2282436E-09  0.2282436E-09  0.5000000E-15
  1.000000000000000E-004
  CAR 
 Co-fcc                                  
      9     60     12
 
  0.6250000E-01  0.6250000E-01  0.6250000E-01  0.3906250E-02
      1          4.102414        4.147985   1.000000   1.000000
      2         11.337747       12.417703   1.000000   1.000000
      3         11.462003       12.555246   1.000000   1.000000
      4         11.462003       12.555246   1.000000   1.000000
      5         13.124250       14.409110   1.000000   0.692757
      6         13.124250       14.409110   1.000000   0.692757
      7         39.450017       39.337271   0.000000   0.000000
      8         44.091242       44.170512   0.000000   0.000000
      9         45.917776       46.030634   0.000000   0.000000
     10         45.917776       46.030634   0.000000   0.000000
     11         50.812898       51.223843   0.000000   0.000000
     12         51.191395       51.442133   0.000000   0.000000
 
  0.1875000E+00  0.6250000E-01  0.6250000E-01  0.1171875E-01
      1          5.070010        5.123554   1.000000   1.000000
      2         11.004918       12.035345   1.000000   1.000000
      3         11.702603       12.804551   1.000000   1.000000
      4         11.703305       12.811598   1.000000   1.000000
      5         12.874383       14.132589   1.000000   1.000000
      6         13.243143       14.522406   1.000000   0.003459
      7         37.676384       37.827563   0.000000   0.000000
      8         40.372614       40.412505   0.000000   0.000000
      9         44.515165       44.633448   0.000000   0.000000
     10         47.107131       47.231311   0.000000   0.000000
     11         49.125283       49.221613   0.000000   0.000000
     12         51.192163       51.432763   0.000000   0.000000
 
  0.3125000E+00  0.6250000E-01  0.6250000E-01  0.1171875E-01
      1          6.978983        7.131244   1.000000   1.000000
      2         10.839336       11.692520   1.000000   1.000000
      3         11.644552       12.756559   1.000000   1.000000
      4         11.760903       12.895330   1.000000   1.000000
      5         13.138377       14.375512   1.000000   0.927024
      6         13.795784       15.053219   1.000000   0.000000
      7         31.450509       31.822562   0.000000   0.000000
      8         38.971673       38.988541   0.000000   0.000000
      9         43.618409       43.799208   0.000000   0.000000
     10         47.312717       47.528552   0.000000   0.000000
     11         48.716584       48.978850   0.000000   0.000000
     12         48.997585       49.137544   0.000000   0.000000
 
  0.4375000E+00  0.6250000E-01  0.6250000E-01  0.1171875E-01
      1          8.001780        8.533401   1.000000   1.000000
      2         11.309822       12.384303   1.000000   1.000000
      3         11.466821       12.591019   1.000000   1.000000
      4         12.269606       12.737372   1.000000   1.000000
      5         13.957528       15.232520   1.000000   0.000000
      6         14.800382       15.947777   0.000000   0.000000
      7         25.669430       26.246727   0.000000   0.000000
      8         37.970830       37.922047   0.000000   0.000000
      9         42.576148       42.796117   0.000000   0.000000
     10         45.136731       45.394203   0.000000   0.000000
     11         47.650166       47.898927   0.000000   0.000000
     12         49.122216       49.353219   0.000000   0.000000
 
 -0.4375000E+00  0.6250000E-01  0.6250000E-01  0.1171875E-01
      1          8.066943        8.707500   1.000000   1.000000
      2         11.168453       12.246596   1.000000   1.000000
      3         11.387970       12.505757   1.000000   1.000000
      4         13.077999       13.569575   1.000000   1.000000
      5         14.390347       15.695807   0.849523   0.000000
      6         15.467852       16.337698   0.000000   0.000000
      7         23.434425       24.156126   0.000000   0.000000
      8         37.740931       37.653257   0.000000   0.000000
      9         42.943669       43.201476   0.000000   0.000000
     10         43.085784       43.328293   0.000000   0.000000
     11         48.459753       48.685955   0.000000   0.000000
     12         48.564425       48.795198   0.000000   0.000000
 
 -0.3125000E+00  0.6250000E-01  0.6250000E-01  0.1171875E-01
      1          7.839743        8.248941   1.000000   1.000000
      2         11.358624       12.114841   1.000000   1.000000
      3         11.595145       12.520785   1.000000   1.000000
      4         11.598544       12.720602   1.000000   1.000000
      5         14.087380       15.257610   1.000000   0.000000
      6         14.090141       15.380176   1.000000   0.000000
      7         27.410571       27.911008   0.000000   0.000000
      8         38.585528       38.509610   0.000000   0.000000
      9         42.369979       42.651094   0.000000   0.000000
     10         45.253038       45.522473   0.000000   0.000000
     11         48.092155       48.293159   0.000000   0.000000
     12         50.292820       50.475375   0.000000   0.000000
 
 -0.1875000E+00  0.6250000E-01  0.6250000E-01  0.1171875E-01
      1          6.321003        6.414241   1.000000   1.000000
      2         10.763279       11.704333   1.000000   1.000000
      3         11.735146       12.856262   1.000000   1.000000
      4         11.819041       12.941836   1.000000   1.000000
      5         13.040591       14.261015   1.000000   0.999999
      6         13.456478       14.734482   1.000000   0.000000
      7         33.599603       33.911626   0.000000   0.000000
      8         39.990185       39.936846   0.000000   0.000000
      9         42.917797       43.190749   0.000000   0.000000
     10         47.135729       47.231717   0.000000   0.000000
     11         48.335453       48.604042   0.000000   0.000000
     12         51.204554       52.502832   0.000000   0.000000
 
 -0.6250000E-01  0.6250000E-01  0.6250000E-01  0.1171875E-01
      1          4.597083        4.645570   1.000000   1.000000
      2         11.114863       12.170574   1.000000   1.000000
      3         11.624222       12.723311   1.000000   1.000000
      4         11.631448       12.731254   1.000000   1.000000
      5         12.909171       14.171245   1.000000   1.000000
      6         13.222445       14.512058   1.000000   0.008018
      7         38.988208       38.989927   0.000000   0.000000
      8         42.067462       42.113504   0.000000   0.000000
      9         44.172528       44.377414   0.000000   0.000000
     10         45.568841       45.666282   0.000000   0.000000
     11         50.898639       51.083924   0.000000   0.000000
     12         51.117465       52.562563   0.000000   0.000000
 
  0.1875000E+00  0.1875000E+00  0.6250000E-01  0.1171875E-01
      1          5.523645        5.583852   1.000000   1.000000
      2         10.690150       11.705282   1.000000   1.000000
      3         11.922303       13.037494   1.000000   1.000000
      4         11.961517       13.075505   1.000000   1.000000
      5         12.604199       13.811168   1.000000   1.000000
      6         13.405174       14.703399   1.000000   0.000000
      7         38.055800       38.213902   0.000000   0.000000
      8         40.256219       40.284178   0.000000   0.000000
      9         41.781282       42.038535   0.000000   0.000000
     10         43.440348       43.566002   0.000000   0.000000
     11         50.708441       52.291058   0.000000   0.000000
     12         52.586597       53.207069   0.000000   0.000000
 
  0.3125000E+00  0.1875000E+00  0.6250000E-01  0.2343750E-01
      1          7.079472        7.202402   1.000000   1.000000
      2         10.237361       11.188150   1.000000   1.000000
      3         11.629820       12.733165   1.000000   1.000000
      4         12.363352       13.506754   1.000000   1.000000
      5         12.963275       14.121299   1.000000   1.000000
      6         13.924915       15.193438   1.000000   0.000000
      7         34.202883       34.502733   0.000000   0.000000
      8         36.887644       37.088615   0.000000   0.000000
      9         41.041524       41.215816   0.000000   0.000000
     10         43.312469       43.454362   0.000000   0.000000
     11         50.120621       51.087674   0.000000   0.000000
     12         51.999322       52.612996   0.000000   0.000000
 
  0.4375000E+00  0.1875000E+00  0.6250000E-01  0.2343750E-01
      1          8.462040        8.910947   1.000000   1.000000
      2         10.444943       11.222971   1.000000   1.000000
      3         11.162764       12.169050   1.000000   1.000000
      4         12.156719       13.303203   1.000000   1.000000
      5         14.015900       15.257814   1.000000   0.000000
      6         15.457180       16.496236   0.000000   0.000000
      7         27.903413       28.363443   0.000000   0.000000
      8         35.991843       36.173118   0.000000   0.000000
      9         38.855679       39.102606   0.000000   0.000000
     10         43.284587       43.482599   0.000000   0.000000
     11         50.598648       50.830375   0.000000   0.000000
     12         51.307138       53.466469   0.000000   0.000000
 
 -0.4375000E+00  0.1875000E+00  0.6250000E-01  0.2343750E-01
      1          8.695957        9.381649   1.000000   1.000000
      2         10.503632       11.402707   1.000000   1.000000
      3         11.743295       12.530452   1.000000   1.000000
      4         11.923575       13.061864   1.000000   1.000000
      5         14.324704       15.619006   0.998080   0.000000
      6         17.825630       18.514753   0.000000   0.000000
      7         23.539619       24.205880   0.000000   0.000000
      8         35.221684       35.399828   0.000000   0.000000
      9         38.325186       38.606677   0.000000   0.000000
     10         42.761806       42.904757   0.000000   0.000000
     11         49.775315       50.092158   0.000000   0.000000
     12         51.490309       53.732611   0.000000   0.000000
 
 -0.3125000E+00  0.1875000E+00  0.6250000E-01  0.2343750E-01
      1          8.692035        9.256455   1.000000   1.000000
      2         10.721431       11.577938   1.000000   1.000000
      3         11.224757       12.073396   1.000000   1.000000
      4         11.994950       13.136687   1.000000   1.000000
      5         13.826845       15.074167   1.000000   0.000000
      6         16.510419       17.459771   0.000000   0.000000
      7         26.106705       26.639496   0.000000   0.000000
      8         34.626478       34.857677   0.000000   0.000000
      9         39.674965       39.877035   0.000000   0.000000
     10         44.088275       44.248256   0.000000   0.000000
     11         49.032658       49.276724   0.000000   0.000000
     12         51.405983       53.187767   0.000000   0.000000
 
 -0.1875000E+00  0.1875000E+00  0.6250000E-01  0.2343750E-01
      1          7.742086        7.910239   1.000000   1.000000
      2         10.355914       11.271240   1.000000   1.000000
      3         11.355189       12.433664   1.000000   1.000000
      4         12.292915       13.453189   1.000000   1.000000
      5         12.847497       14.034168   1.000000   1.000000
      6         14.618592       15.828535   0.000000   0.000000
      7         32.058531       32.417514   0.000000   0.000000
      8         34.910307       35.160036   0.000000   0.000000
      9         42.216100       42.360757   0.000000   0.000000
     10         45.997283       46.092304   0.000000   0.000000
     11         48.362289       48.513394   0.000000   0.000000
     12         51.115308       52.591218   0.000000   0.000000
 
 -0.6250000E-01  0.1875000E+00  0.6250000E-01  0.2343750E-01
      1          5.953531        6.023587   1.000000   1.000000
      2         10.686473       11.679541   1.000000   1.000000
      3         11.781391       12.891896   1.000000   1.000000
      4         11.968934       13.091515   1.000000   1.000000
      5         12.718213       13.935492   1.000000   1.000000
      6         13.511942       14.790445   1.000000   0.000000
      7         35.957822       36.205523   0.000000   0.000000
      8         38.604255       38.720783   0.000000   0.000000
      9         43.539738       43.667038   0.000000   0.000000
     10         45.480794       45.575249   0.000000   0.000000
     11         50.080956       50.271015   0.000000   0.000000
     12         51.094179       52.225575   0.000000   0.000000
 
  0.3125000E+00  0.3125000E+00  0.6250000E-01  0.1171875E-01
      1          7.713728        7.981942   1.000000   1.000000
      2          9.612119       10.535851   1.000000   1.000000
      3         12.129033       13.068461   1.000000   1.000000
      4         12.994224       14.167720   1.000000   1.000000
      5         13.473770       14.571573   1.000000   0.000021
      6         13.919389       15.237906   1.000000   0.000000
      7         34.744116       35.002771   0.000000   0.000000
      8         36.470654       36.705384   0.000000   0.000000
      9         36.917244       37.172915   0.000000   0.000000
     10         39.781111       40.007887   0.000000   0.000000
     11         46.904945       47.489884   0.000000   0.000000
     12         52.027115       54.347733   0.000000   0.000000
 
  0.4375000E+00  0.3125000E+00  0.6250000E-01  0.2343750E-01
      1          8.383702        8.926472   1.000000   1.000000
      2          9.319383       10.199399   1.000000   1.000000
      3         12.000590       12.865405   1.000000   1.000000
      4         13.396762       14.600715   1.000000   0.000000
      5         14.094498       15.345169   1.000000   0.000000
      6         15.747575       16.681743   0.000000   0.000000
      7         30.978874       31.310071   0.000000   0.000000
      8         33.065037       33.381611   0.000000   0.000000
      9         34.659330       34.941657   0.000000   0.000000
     10         41.280630       41.503917   0.000000   0.000000
     11         47.609155       48.123856   0.000000   0.000000
     12         52.032263       54.278879   0.000000   0.000000
 
 -0.4375000E+00  0.3125000E+00  0.6250000E-01  0.2343750E-01
      1          8.913826        9.678837   1.000000   1.000000
      2          9.549954       10.351808   1.000000   1.000000
      3         11.526007       12.383309   1.000000   1.000000
      4         12.995632       14.205858   1.000000   1.000000
      5         14.406819       15.695734   0.715148   0.000000
      6         19.516858       20.162165   0.000000   0.000000
      7         25.354127       25.817325   0.000000   0.000000
      8         30.895825       31.289316   0.000000   0.000000
      9         34.729849       35.002102   0.000000   0.000000
     10         41.855484       42.055037   0.000000   0.000000
     11         51.004498       52.563240   0.000000   0.000000
     12         53.017482       53.918279   0.000000   0.000000
 
 -0.3125000E+00  0.3125000E+00  0.6250000E-01  0.2343750E-01
      1          9.618163       10.397634   1.000000   1.000000
      2          9.821009       10.591508   1.000000   1.000000
      3         10.847800       11.704069   1.000000   1.000000
      4         12.710876       13.917912   1.000000   1.000000
      5         13.904042       15.145451   1.000000   0.000000
      6         19.952900       20.628283   0.000000   0.000000
      7         25.201214       25.706510   0.000000   0.000000
      8         29.493673       29.903204   0.000000   0.000000
      9         36.696011       36.969479   0.000000   0.000000
     10         42.724838       42.884889   0.000000   0.000000
     11         51.316944       52.349207   0.000000   0.000000
     12         52.316264       53.839082   0.000000   0.000000
 
 -0.1875000E+00  0.3125000E+00  0.6250000E-01  0.2343750E-01
      1          9.168510        9.600792   1.000000   1.000000
      2         10.395407       11.222814   1.000000   1.000000
      3         10.634555       11.635438   1.000000   1.000000
      4         12.437530       13.615073   1.000000   1.000000
      5         13.342484       14.549210   1.000000   0.000271
      6         16.722936       17.712543   0.000000   0.000000
      7         28.463361       28.914071   0.000000   0.000000
      8         31.711096       32.039526   0.000000   0.000000
      9         39.421578       39.631240   0.000000   0.000000
     10         44.761874       44.925687   0.000000   0.000000
     11         49.099673       49.197643   0.000000   0.000000
     12         51.298116       53.723764   0.000000   0.000000
 
 -0.6250000E-01  0.3125000E+00  0.6250000E-01  0.2343750E-01
      1          7.767073        8.035908   1.000000   1.000000
      2         10.782451       11.557101   1.000000   1.000000
      3         11.388605       12.487437   1.000000   1.000000
      4         11.864539       13.001474   1.000000   1.000000
      5         13.462500       14.673910   1.000000   0.000000
      6         14.416990       15.631722   0.610574   0.000000
      7         29.557159       29.981667   0.000000   0.000000
      8         37.528528       37.635701   0.000000   0.000000
      9         41.806995       41.980430   0.000000   0.000000
     10         45.404013       45.626494   0.000000   0.000000
     11         49.110674       49.314008   0.000000   0.000000
     12         50.874347       51.083950   0.000000   0.000000
 
  0.4375000E+00  0.4375000E+00  0.6250000E-01  0.1171875E-01
      1          7.944536        8.617809   1.000000   1.000000
      2          8.777158        9.639757   1.000000   1.000000
      3         13.801970       14.753186   1.000000   0.000000
      4         14.019985       15.311388   1.000000   0.000000
      5         14.450329       15.755079   0.253937   0.000000
      6         16.279549       16.849842   0.000000   0.000000
      7         29.706800       30.185727   0.000000   0.000000
      8         32.188278       32.421645   0.000000   0.000000
      9         33.397349       33.584642   0.000000   0.000000
     10         39.076346       39.403909   0.000000   0.000000
     11         45.036807       45.492542   0.000000   0.000000
     12         52.078176       54.460407   0.000000   0.000000
 
 -0.4375000E+00  0.4375000E+00  0.6250000E-01  0.2343750E-01
      1          8.095288        8.833718   1.000000   1.000000
      2          8.825584        9.673060   1.000000   1.000000
      3         13.170604       14.106046   1.000000   1.000000
      4         13.961187       15.268101   1.000000   0.000000
      5         14.629245       15.914605   0.000000   0.000000
      6         19.282946       19.728551   0.000000   0.000000
      7         27.405100       27.983159   0.000000   0.000000
      8         29.553731       29.849587   0.000000   0.000000
      9         32.216429       32.433537   0.000000   0.000000
     10         40.689471       40.961706   0.000000   0.000000
     11         46.870056       47.355236   0.000000   0.000000
     12         52.206135       54.522762   0.000000   0.000000
 
 -0.3125000E+00  0.4375000E+00  0.6250000E-01  0.2343750E-01
      1          8.806899        9.606880   1.000000   1.000000
      2          9.417089       10.219541   1.000000   1.000000
      3         11.760503       12.625940   1.000000   1.000000
      4         13.287166       14.536316   1.000000   0.000987
      5         14.365730       15.635908   0.958245   0.000000
      6         21.831250       22.342668   0.000000   0.000000
      7         24.435510       24.894212   0.000000   0.000000
      8         28.394305       28.885924   0.000000   0.000000
      9         34.127965       34.394446   0.000000   0.000000
     10         41.706824       41.919666   0.000000   0.000000
     11         50.925869       52.595322   0.000000   0.000000
     12         53.807467       54.818553   0.000000   0.000000
 
 -0.1875000E+00  0.4375000E+00  0.6250000E-01  0.2343750E-01
      1          9.191545        9.924678   1.000000   1.000000
      2         10.052950       10.880454   1.000000   1.000000
      3         11.278772       12.115898   1.000000   1.000000
      4         12.331414       13.505460   1.000000   1.000000
      5         14.159108       15.432875   1.000000   0.000000
      6         19.374729       20.016775   0.000000   0.000000
      7         23.712097       24.328891   0.000000   0.000000
      8         32.344437       32.661820   0.000000   0.000000
      9         37.137539       37.405850   0.000000   0.000000
     10         42.672140       42.816287   0.000000   0.000000
     11         50.797313       51.293715   0.000000   0.000000
     12         51.742267       53.849604   0.000000   0.000000
 
 -0.6250000E-01  0.4375000E+00  0.6250000E-01  0.2343750E-01
      1          8.286076        8.907311   1.000000   1.000000
      2         10.984746       11.985658   1.000000   1.000000
      3         11.596156       12.713015   1.000000   1.000000
      4         12.181661       12.829287   1.000000   1.000000
      5         14.240619       15.525423   1.000000   0.000000
      6         16.041177       16.923617   0.000000   0.000000
      7         24.344664       24.984086   0.000000   0.000000
      8         36.954763       36.995703   0.000000   0.000000
      9         40.733235       40.983364   0.000000   0.000000
     10         43.397835       43.598787   0.000000   0.000000
     11         48.780608       49.046787   0.000000   0.000000
     12         50.937810       51.168621   0.000000   0.000000
 
 -0.4375000E+00 -0.4375000E+00  0.6250000E-01  0.1171875E-01
      1          7.801715        8.523552   1.000000   1.000000
      2          8.590599        9.440477   1.000000   1.000000
      3         14.233363       15.331540   1.000000   0.000000
      4         14.247357       15.573984   1.000000   0.000000
      5         14.649825       15.938901   0.000000   0.000000
      6         17.890181       18.187268   0.000000   0.000000
      7         27.472514       28.090056   0.000000   0.000000
      8         31.403989       31.604080   0.000000   0.000000
      9         32.588439       32.749339   0.000000   0.000000
     10         38.991368       39.340058   0.000000   0.000000
     11         44.825168       45.271188   0.000000   0.000000
     12         52.156992       54.544235   0.000000   0.000000
 
 -0.3125000E+00 -0.4375000E+00  0.6250000E-01  0.2343750E-01
      1          8.251444        8.943750   1.000000   1.000000
      2          8.995593        9.854200   1.000000   1.000000
      3         12.693635       13.577619   1.000000   1.000000
      4         13.814093       15.072538   1.000000   0.000000
      5         14.419865       15.702594   0.579058   0.000000
      6         17.563683       18.222626   0.000000   0.000000
      7         29.388540       29.785113   0.000000   0.000000
      8         30.598386       30.966391   0.000000   0.000000
      9         32.967428       33.206853   0.000000   0.000000
     10         40.869447       41.124312   0.000000   0.000000
     11         47.070257       47.559220   0.000000   0.000000
     12         52.104412       54.405044   0.000000   0.000000
 
 -0.1875000E+00 -0.4375000E+00  0.6250000E-01  0.2343750E-01
      1          8.861884        9.503992   1.000000   1.000000
      2          9.923501       10.731111   1.000000   1.000000
      3         11.249712       12.140581   1.000000   1.000000
      4         12.569449       13.740760   1.000000   1.000000
      5         14.331853       15.620133   0.996415   0.000000
      6         17.224084       18.040784   0.000000   0.000000
      7         26.490887       26.962645   0.000000   0.000000
      8         33.893150       34.165407   0.000000   0.000000
      9         36.129076       36.417475   0.000000   0.000000
     10         42.280182       42.466456   0.000000   0.000000
     11         51.134729       52.023836   0.000000   0.000000
     12         51.900304       53.395358   0.000000   0.000000
 
 -0.3125000E+00 -0.3125000E+00  0.6250000E-01  0.1171875E-01
      1          8.056042        8.580793   1.000000   1.000000
      2          9.131137       10.018761   1.000000   1.000000
      3         12.947800       13.744524   1.000000   1.000000
      4         13.569040       14.793285   1.000000   0.000000
      5         14.190892       15.511489   1.000000   0.000000
      6         14.585153       15.523299   0.000004   0.000000
      7         32.570775       32.890070   0.000000   0.000000
      8         33.803522       34.095630   0.000000   0.000000
      9         34.897764       35.122220   0.000000   0.000000
     10         39.288963       39.574126   0.000000   0.000000
     11         45.640412       46.129593   0.000000   0.000000
     12         52.065012       54.432073   0.000000   0.000000
 
 -0.1875000E+00 -0.3125000E+00  0.6250000E-01  0.2343750E-01
      1          8.054233        8.337296   1.000000   1.000000
      2          9.755679       10.666630   1.000000   1.000000
      3         11.544199       12.540965   1.000000   1.000000
      4         12.858323       14.025971   1.000000   1.000000
      5         13.574263       14.741193   1.000000   0.000000
      6         14.548394       15.730874   0.000295   0.000000
      7         32.524964       32.850900   0.000000   0.000000
      8         35.120457       35.373992   0.000000   0.000000
      9         37.706547       37.955100   0.000000   0.000000
     10         42.033964       42.218429   0.000000   0.000000
     11         48.656149       49.268167   0.000000   0.000000
     12         51.977501       53.995474   0.000000   0.000000
 
 -0.1875000E+00 -0.1875000E+00  0.6250000E-01  0.1171875E-01
      1          6.704989        6.812216   1.000000   1.000000
      2         10.158614       11.126765   1.000000   1.000000
      3         11.979611       13.089192   1.000000   1.000000
      4         12.430681       13.568421   1.000000   1.000000
      5         12.762645       13.891963   1.000000   1.000000
      6         13.647959       14.956887   1.000000   0.000000
      7         36.562933       36.802112   0.000000   0.000000
      8         38.753123       38.853908   0.000000   0.000000
      9         39.275890       39.545710   0.000000   0.000000
     10         41.118944       41.292218   0.000000   0.000000
     11         48.952813       49.789855   0.000000   0.000000
     12         52.185312       54.323219   0.000000   0.000000
 
  0.1875000E+00  0.1875000E+00  0.1875000E+00  0.3906250E-02
      1          5.509030        5.572912   1.000000   1.000000
      2         10.960288       11.952097   1.000000   1.000000
      3         11.719267       12.832846   1.000000   1.000000
      4         11.719267       12.832846   1.000000   1.000000
      5         13.099705       14.364289   1.000000   0.961755
      6         13.099705       14.364289   1.000000   0.961755
      7         35.635426       35.882947   0.000000   0.000000
      8         40.851304       40.748411   0.000000   0.000000
      9         45.373785       45.598902   0.000000   0.000000
     10         45.373785       45.598902   0.000000   0.000000
     11         50.674696       50.770591   0.000000   0.000000
     12         51.487900       51.644077   0.000000   0.000000
 
  0.3125000E+00  0.1875000E+00  0.1875000E+00  0.1171875E-01
      1          6.746809        6.845004   1.000000   1.000000
      2         10.590178       11.545941   1.000000   1.000000
      3         11.648453       12.742236   1.000000   1.000000
      4         12.074731       13.217072   1.000000   1.000000
      5         12.638663       13.856487   1.000000   1.000000
      6         13.953575       15.205092   1.000000   0.000000
      7         33.914596       34.223820   0.000000   0.000000
      8         36.669713       36.860689   0.000000   0.000000
      9         44.772854       44.835238   0.000000   0.000000
     10         46.876573       46.920765   0.000000   0.000000
     11         47.629387       47.789811   0.000000   0.000000
     12         50.885141       51.168940   0.000000   0.000000
 
  0.4375000E+00  0.1875000E+00  0.1875000E+00  0.1171875E-01
      1          8.511224        8.781318   1.000000   1.000000
      2         10.438561       11.307068   1.000000   1.000000
      3         11.083961       12.116042   1.000000   1.000000
      4         12.212927       13.394929   1.000000   1.000000
      5         12.945763       14.138888   1.000000   1.000000
      6         15.523453       16.656861   0.000000   0.000000
      7         30.151515       30.564625   0.000000   0.000000
      8         33.167657       33.460521   0.000000   0.000000
      9         42.676142       42.743442   0.000000   0.000000
     10         44.405244       44.679054   0.000000   0.000000
     11         48.934356       48.954292   0.000000   0.000000
     12         51.339268       52.347691   0.000000   0.000000
 
 -0.4375000E+00  0.1875000E+00  0.1875000E+00  0.1171875E-01
      1          8.923100        9.581212   1.000000   1.000000
      2         10.488423       11.377124   1.000000   1.000000
      3         11.410856       12.192564   1.000000   1.000000
      4         12.027528       13.187152   1.000000   1.000000
      5         13.919986       15.181459   1.000000   0.000000
      6         17.808104       18.601891   0.000000   0.000000
      7         24.667800       25.259737   0.000000   0.000000
      8         33.355873       33.632874   0.000000   0.000000
      9         40.883356       41.065511   0.000000   0.000000
     10         40.966602       41.165230   0.000000   0.000000