 vasp.6.3.2 27Jun22 (build Aug 12 2022 00:53:59) complex                        
  
 executed on               tv2STD date 2024.12.03  01:40:41
 running   28 mpi-ranks, with    1 threads/rank
 distrk:  each k-point on   28 cores,    1 groups
 distr:  one band on NCORE=   7 cores,    4 groups


--------------------------------------------------------------------------------------------------------


 INCAR:
   SYSTEM = Co-fcc
   NWRITE = 2    write-flag
   ISTART = 0    job   : 0-new, 1-cont, 2-samecut
   ICHARG = 2    charge: 0-wave, 1-file, 2-atom, >10-const
   INIWAV = 1    electr: 0-lowe 1-rand  2-diag
   ENCUT = 400.0     energy cutoff in eV
   PREC = Accurate      normal | accurate
   ADDGRID = .FALSE.  (use fine grid)
   NELM = 100     number of ELM steps
   EDIFF = 1E-06    energy stopping-criterion for ELM
   LREAL = .FALSE.      real-space projection (.FALSE., .TRUE., On, Auto)
   ALGO = Normal     Normal, Fast, Very_Fast
   LWAVE = .TRUE.
   LCHARG = .TRUE.
   NSW = 100       max number of geometry steps
   IBRION = 2     ionic relax: 0-MD, 1-quasi-Newton, 2-CG, 3-Damped MD
   EDIFFG = -0.02  force (eV/A) stopping-criterion for geometry steps
   ISIF = 2     (1:force\=y stress\=trace only ions\=y shape\=n volume\=n)
   ISYM = 1     (1-use symmetry, 0-no symmetry)
   ISMEAR = 0     (-1-Fermi, 1-Methfessel/Paxton)
   SIGMA = 0.05   broadening in eV
   LORBIT = 11
   NPAR = 4
   ISPIN = 2
   MAGMOM = 1*3

 POTCAR:    PAW_PBE Co 02Aug2007                  
 POTCAR:    PAW_PBE Co 02Aug2007                  
   SHA256 =  0e690c60710354995174544f52f9f2c30879afabeffe3b3fbd4001cb294e56d4 Co/POTCAR             
   COPYR  = (c) Copyright 02Aug2007 Georg Kresse                                                    
   COPYR  = This file is part of the software VASP. Any use, copying, and all other rights are regul
   COPYR  = If you do not have a valid VASP license, you may not use, copy or distribute this file. 
   VRHFIN =Co: d8 s1                                                                                
   LEXCH  = PE                                                                                      
   EATOM  =   813.3670 eV,   59.7808 Ry                                                             
                                                                                                    
   TITEL  = PAW_PBE Co 02Aug2007                                                                    
   LULTRA =        F    use ultrasoft PP ?                                                          
   IUNSCR =        1    unscreen: 0-lin 1-nonlin 2-no                                               
   RPACOR =    2.000    partial core radius                                                         
   POMASS =   58.933; ZVAL   =    9.000    mass and valenz                                          
   RCORE  =    2.300    outmost cutoff radius                                                       
   RWIGS  =    2.460; RWIGS  =    1.302    wigner-seitz radius (au A)                               
   ENMAX  =  267.968; ENMIN  =  200.976 eV                                                          
   RCLOC  =    1.203    cutoff for local pot                                                        
   LCOR   =        T    correct aug charges                                                         
   LPAW   =        T    paw PP                                                                      
   EAUG   =  477.818                                                                                
   DEXC   =    0.000                                                                                
   RMAX   =    2.360    core radius for proj-oper                                                   
   RAUG   =    1.300    factor for augmentation sphere                                              
   RDEP   =    2.393    radius for radial grids                                                     
   RDEPT  =    1.864    core radius for aug-charge                                                  
                                                                                                    
   Atomic configuration                                                                             
    9 entries                                                                                       
     n  l   j            E        occ.                                                              
     1  0  0.50     -7587.6674   2.0000                                                             
     2  0  0.50      -893.6084   2.0000                                                             
     2  1  1.50      -764.5805   6.0000                                                             
     3  0  0.50       -97.5973   2.0000                                                             
     3  1  1.50       -60.9648   6.0000                                                             
     3  2  2.50        -4.2382   8.0000                                                             
     4  0  0.50        -4.3746   1.0000                                                             
     4  1  1.50        -4.0817   0.0000                                                             
     4  3  2.50        -1.3606   0.0000                                                             
   Description                                                                                      
     l       E           TYP  RCUT    TYP  RCUT                                                     
     2     -4.2382362     23  2.300                                                                 
     2     -5.5988188     23  2.300                                                                 
     0     -4.3745797     23  2.300                                                                 
     0      5.7660125     23  2.300                                                                 
     1     -2.7211652     23  2.300                                                                 
     1     16.9860234     23  2.300                                                                 
  local pseudopotential read in
  partial core-charges read in
  partial kinetic energy density read in
  atomic valenz-charges read in
  non local Contribution for L=           2  read in
    real space projection operators read in
  non local Contribution for L=           2  read in
    real space projection operators read in
  non local Contribution for L=           0  read in
    real space projection operators read in
  non local Contribution for L=           0  read in
    real space projection operators read in
  non local Contribution for L=           1  read in
    real space projection operators read in
  non local Contribution for L=           1  read in
    real space projection operators read in
    PAW grid and wavefunctions read in
 
   number of l-projection  operators is LMAX  =           6
   number of lm-projection operators is LMMAX =          18
 
  PAW_PBE Co 02Aug2007                  :
 energy of atom  1       EATOM= -813.3670
 kinetic energy error for atom=    0.0093 (will be added to EATOM!!)
 
 
 POSCAR: Co
  positions in cartesian coordinates
  No initial velocities read in
 exchange correlation table for  LEXCH =        8
   RHO(1)=    0.500       N(1)  =     2000
   RHO(2)=  100.500       N(2)  =     4000
 


--------------------------------------------------------------------------------------------------------


 ion  position               nearest neighbor table
   1  0.000  0.000  0.000-
 
  LATTYP: Found a face centered cubic cell.
 ALAT       =     3.2278523043
  
  Lattice vectors:
  
 A1 = (   0.0000000000,   1.6139261522,   1.6139261522)
 A2 = (   1.6139261522,   0.0000000000,   1.6139261522)
 A3 = (   1.6139261522,   1.6139261522,   0.0000000000)


Analysis of symmetry for initial positions (statically):
=====================================================================
 Subroutine PRICEL returns:
 Original cell was already a primitive cell.
 

 Routine SETGRP: Setting up the symmetry group for a 
 face centered cubic supercell.


 Subroutine GETGRP returns: Found 48 space group operations
 (whereof 48 operations were pure point group operations)
 out of a pool of 48 trial point group operations.


The static configuration has the point symmetry O_h .


Analysis of symmetry for dynamics (positions and initial velocities):
=====================================================================
 Subroutine PRICEL returns:
 Original cell was already a primitive cell.
 

 Routine SETGRP: Setting up the symmetry group for a 
 face centered cubic supercell.


 Subroutine GETGRP returns: Found 48 space group operations
 (whereof 48 operations were pure point group operations)
 out of a pool of 48 trial point group operations.


The dynamic configuration has the point symmetry O_h .


Analysis of structural, dynamic, and magnetic symmetry:
=====================================================================
 Subroutine PRICEL returns:
 Original cell was already a primitive cell.
 

 Routine SETGRP: Setting up the symmetry group for a 
 face centered cubic supercell.


 Subroutine GETGRP returns: Found 48 space group operations
 (whereof 48 operations were pure point group operations)
 out of a pool of 48 trial point group operations.


The overall configuration has the point symmetry O_h .


 Subroutine INISYM returns: Found 48 space group operations
 (whereof 48 operations are pure point group operations),
 and found     1 'primitive' translations


----------------------------------------------------------------------------------------

                                     Primitive cell                                     

  volume of cell :       8.4078

  direct lattice vectors                    reciprocal lattice vectors
     0.000000000  1.613926152  1.613926152    -0.309803518  0.309803518  0.309803518
     1.613926152  0.000000000  1.613926152     0.309803518 -0.309803518  0.309803518
     1.613926152  1.613926152  0.000000000     0.309803518  0.309803518 -0.309803518

  length of vectors
     2.282436253  2.282436253  2.282436253     0.536595434  0.536595434  0.536595434

  position of ions in fractional coordinates (direct lattice)
     0.000000000  0.000000000  0.000000000

  ion indices of the primitive-cell ions
   primitive index   ion index
                 1           1

----------------------------------------------------------------------------------------

 
 
 KPOINTS: Automatic mesh                          

Automatic generation of k-mesh.
 Grid dimensions read from file:
 generate k-points for:    8    8    8

 Generating k-lattice:

  Cartesian coordinates                     Fractional coordinates (reciprocal lattice)
    -0.038725440  0.038725440  0.038725440     0.125000000  0.000000000  0.000000000
     0.038725440 -0.038725440  0.038725440     0.000000000  0.125000000  0.000000000
     0.038725440  0.038725440 -0.038725440     0.000000000  0.000000000  0.125000000

  Length of vectors
     0.067074429  0.067074429  0.067074429

  Shift w.r.t. Gamma in fractional coordinates (k-lattice)
     0.500000000  0.500000000  0.500000000

 
 Subroutine IBZKPT returns following result:
 ===========================================
 
 Found     60 irreducible k-points:
 
 Following reciprocal coordinates:
            Coordinates               Weight
  0.062500  0.062500  0.062500      8.000000
  0.187500  0.062500  0.062500     24.000000
  0.312500  0.062500  0.062500     24.000000
  0.437500  0.062500  0.062500     24.000000
 -0.437500  0.062500  0.062500     24.000000
 -0.312500  0.062500  0.062500     24.000000
 -0.187500  0.062500  0.062500     24.000000
 -0.062500  0.062500  0.062500     24.000000
  0.187500  0.187500  0.062500     24.000000
  0.312500  0.187500  0.062500     48.000000
  0.437500  0.187500  0.062500     48.000000
 -0.437500  0.187500  0.062500     48.000000
 -0.312500  0.187500  0.062500     48.000000
 -0.187500  0.187500  0.062500     48.000000
 -0.062500  0.187500  0.062500     48.000000
  0.312500  0.312500  0.062500     24.000000
  0.437500  0.312500  0.062500     48.000000
 -0.437500  0.312500  0.062500     48.000000
 -0.312500  0.312500  0.062500     48.000000
 -0.187500  0.312500  0.062500     48.000000
 -0.062500  0.312500  0.062500     48.000000
  0.437500  0.437500  0.062500     24.000000
 -0.437500  0.437500  0.062500     48.000000
 -0.312500  0.437500  0.062500     48.000000
 -0.187500  0.437500  0.062500     48.000000
 -0.062500  0.437500  0.062500     48.000000
 -0.437500 -0.437500  0.062500     24.000000
 -0.312500 -0.437500  0.062500     48.000000
 -0.187500 -0.437500  0.062500     48.000000
 -0.312500 -0.312500  0.062500     24.000000
 -0.187500 -0.312500  0.062500     48.000000
 -0.187500 -0.187500  0.062500     24.000000
  0.187500  0.187500  0.187500      8.000000
  0.312500  0.187500  0.187500     24.000000
  0.437500  0.187500  0.187500     24.000000
 -0.437500  0.187500  0.187500     24.000000
 -0.312500  0.187500  0.187500     24.000000
 -0.187500  0.187500  0.187500     24.000000
  0.312500  0.312500  0.187500     24.000000
  0.437500  0.312500  0.187500     48.000000
 -0.437500  0.312500  0.187500     48.000000
 -0.312500  0.312500  0.187500     48.000000
 -0.187500  0.312500  0.187500     48.000000
  0.437500  0.437500  0.187500     24.000000
 -0.437500  0.437500  0.187500     48.000000
 -0.312500  0.437500  0.187500     48.000000
 -0.187500  0.437500  0.187500     48.000000
 -0.437500 -0.437500  0.187500     24.000000
 -0.312500 -0.437500  0.187500     48.000000
 -0.312500 -0.312500  0.187500     24.000000
  0.312500  0.312500  0.312500      8.000000
  0.437500  0.312500  0.312500     24.000000
 -0.437500  0.312500  0.312500     24.000000
 -0.312500  0.312500  0.312500     24.000000
  0.437500  0.437500  0.312500     24.000000
 -0.437500  0.437500  0.312500     48.000000
 -0.312500  0.437500  0.312500     48.000000
 -0.437500 -0.437500  0.312500     24.000000
  0.437500  0.437500  0.437500      8.000000
 -0.437500  0.437500  0.437500     24.000000
 
 Following cartesian coordinates:
            Coordinates               Weight
  0.019363  0.019363  0.019363      8.000000
 -0.019363  0.058088  0.058088     24.000000
 -0.058088  0.096814  0.096814     24.000000
 -0.096814  0.135539  0.135539     24.000000
  0.174264 -0.135539 -0.135539     24.000000
  0.135539 -0.096814 -0.096814     24.000000
  0.096814 -0.058088 -0.058088     24.000000
  0.058088 -0.019363 -0.019363     24.000000
  0.019363  0.019363  0.096814     24.000000
 -0.019363  0.058088  0.135539     48.000000
 -0.058088  0.096814  0.174264     48.000000
  0.212990 -0.174264 -0.096814     48.000000
  0.174264 -0.135539 -0.058088     48.000000
  0.135539 -0.096814 -0.019363     48.000000
  0.096814 -0.058088  0.019363     48.000000
  0.019363  0.019363  0.174264     24.000000
 -0.019363  0.058088  0.212990     48.000000
  0.251715 -0.212990 -0.058088     48.000000
  0.212990 -0.174264 -0.019363     48.000000
  0.174264 -0.135539  0.019363     48.000000
  0.135539 -0.096814  0.058088     48.000000
  0.019363  0.019363  0.251715     24.000000
  0.290441 -0.251715 -0.019363     48.000000
  0.251715 -0.212990  0.019363     48.000000
  0.212990 -0.174264  0.058088     48.000000
  0.174264 -0.135539  0.096814     48.000000
  0.019363  0.019363 -0.290441     24.000000
 -0.019363  0.058088 -0.251715     48.000000
 -0.058088  0.096814 -0.212990     48.000000
  0.019363  0.019363 -0.212990     24.000000
 -0.019363  0.058088 -0.174264     48.000000
  0.019363  0.019363 -0.135539     24.000000
  0.058088  0.058088  0.058088      8.000000
  0.019363  0.096814  0.096814     24.000000
 -0.019363  0.135539  0.135539     24.000000
  0.251715 -0.135539 -0.135539     24.000000
  0.212990 -0.096814 -0.096814     24.000000
  0.174264 -0.058088 -0.058088     24.000000
  0.058088  0.058088  0.135539     24.000000
  0.019363  0.096814  0.174264     48.000000
  0.290441 -0.174264 -0.096814     48.000000
  0.251715 -0.135539 -0.058088     48.000000
  0.212990 -0.096814 -0.019363     48.000000
  0.058088  0.058088  0.212990     24.000000
  0.329166 -0.212990 -0.058088     48.000000
  0.290441 -0.174264 -0.019363     48.000000
  0.251715 -0.135539  0.019363     48.000000
  0.058088  0.058088 -0.329166     24.000000
  0.019363  0.096814 -0.290441     48.000000
  0.058088  0.058088 -0.251715     24.000000
  0.096814  0.096814  0.096814      8.000000
  0.058088  0.135539  0.135539     24.000000
  0.329166 -0.135539 -0.135539     24.000000
  0.290441 -0.096814 -0.096814     24.000000
  0.096814  0.096814  0.174264     24.000000
  0.367892 -0.174264 -0.096814     48.000000
  0.329166 -0.135539 -0.058088     48.000000
  0.096814  0.096814 -0.367892     24.000000
  0.135539  0.135539  0.135539      8.000000
  0.406617 -0.135539 -0.135539     24.000000
 


--------------------------------------------------------------------------------------------------------




 Dimension of arrays:
   k-points           NKPTS =     60   k-points in BZ     NKDIM =     60   number of bands    NBANDS=     12
   number of dos      NEDOS =    301   number of ions     NIONS =      1
   non local maximal  LDIM  =      6   non local SUM 2l+1 LMDIM =     18
   total plane-waves  NPLWV =   4096
   max r-space proj   IRMAX =      1   max aug-charges    IRDMAX=  19411
   dimension x,y,z NGX =    16 NGY =   16 NGZ =   16
   dimension x,y,z NGXF=    32 NGYF=   32 NGZF=   32
   support grid    NGXF=    32 NGYF=   32 NGZF=   32
   ions per type =               1
   NGX,Y,Z   is equivalent  to a cutoff of  11.65, 11.65, 11.65 a.u.
   NGXF,Y,Z  is equivalent  to a cutoff of  23.31, 23.31, 23.31 a.u.

 SYSTEM =  Co-fcc                                  
 POSCAR =  Co                                      

 Startparameter for this run:
   NWRITE =      2    write-flag & timer
   PREC   = accura    normal or accurate (medium, high low for compatibility)
   ISTART =      0    job   : 0-new  1-cont  2-samecut
   ICHARG =      2    charge: 1-file 2-atom 10-const
   ISPIN  =      2    spin polarized calculation?
   LNONCOLLINEAR =      F non collinear calculations
   LSORBIT =      F    spin-orbit coupling
   INIWAV =      1    electr: 0-lowe 1-rand  2-diag
   LASPH  =      F    aspherical Exc in radial PAW
 Electronic Relaxation 1
   ENCUT  =  400.0 eV  29.40 Ry    5.42 a.u.   3.72  3.72  3.72*2*pi/ulx,y,z
   ENINI  =  400.0     initial cutoff
   ENAUG  =  477.8 eV  augmentation charge cutoff
   NELM   =    100;   NELMIN=  2; NELMDL= -5     # of ELM steps 
   EDIFF  = 0.1E-05   stopping-criterion for ELM
   LREAL  =      F    real-space projection
   NLSPLINE    = F    spline interpolate recip. space projectors
   LCOMPAT=      F    compatible to vasp.4.4
   GGA_COMPAT  = T    GGA compatible to vasp.4.4-vasp.4.6
   LMAXPAW     = -100 max onsite density
   LMAXMIX     =    2 max onsite mixed and CHGCAR
   VOSKOWN=      0    Vosko Wilk Nusair interpolation
   ROPT   =    0.00000
 Ionic relaxation
   EDIFFG = -.2E-01   stopping-criterion for IOM
   NSW    =    100    number of steps for IOM
   NBLOCK =      1;   KBLOCK =    100    inner block; outer block 
   IBRION =      2    ionic relax: 0-MD 1-quasi-New 2-CG
   NFREE  =      1    steps in history (QN), initial steepest desc. (CG)
   ISIF   =      2    stress and relaxation
   IWAVPR =     11    prediction:  0-non 1-charg 2-wave 3-comb
   ISYM   =      1    0-nonsym 1-usesym 2-fastsym
   LCORR  =      T    Harris-Foulkes like correction to forces

   POTIM  = 0.5000    time-step for ionic-motion
   TEIN   =    0.0    initial temperature
   TEBEG  =    0.0;   TEEND  =   0.0 temperature during run
   SMASS  =  -3.00    Nose mass-parameter (am)
   estimated Nose-frequenzy (Omega)   =  0.10E-29 period in steps = 0.13E+47 mass=  -0.119E-27a.u.
   SCALEE = 1.0000    scale energy and forces
   NPACO  =    256;   APACO  = 10.0  distance and # of slots for P.C.
   PSTRESS=    0.0 pullay stress

  Mass of Ions in am
   POMASS =  58.93
  Ionic Valenz
   ZVAL   =   9.00
  Atomic Wigner-Seitz radii
   RWIGS  =  -1.00
  virtual crystal weights 
   VCA    =   1.00
   NELECT =       9.0000    total number of electrons
   NUPDOWN=      -1.0000    fix difference up-down

 DOS related values:
   EMIN   =  10.00;   EMAX   =-10.00  energy-range for DOS
   EFERMI =   0.00
   ISMEAR =     0;   SIGMA  =   0.05  broadening in eV -4-tet -1-fermi 0-gaus

 Electronic relaxation 2 (details)
   IALGO  =     38    algorithm
   LDIAG  =      T    sub-space diagonalisation (order eigenvalues)
   LSUBROT=      F    optimize rotation matrix (better conditioning)
   TURBO    =      0    0=normal 1=particle mesh
   IRESTART =      0    0=no restart 2=restart with 2 vectors
   NREBOOT  =      0    no. of reboots
   NMIN     =      0    reboot dimension
   EREF     =   0.00    reference energy to select bands
   IMIX   =      4    mixing-type and parameters
     AMIX     =   0.40;   BMIX     =  1.00
     AMIX_MAG =   1.60;   BMIX_MAG =  1.00
     AMIN     =   0.10
     WC   =   100.;   INIMIX=   1;  MIXPRE=   1;  MAXMIX= -45

 Intra band minimization:
   WEIMIN = 0.0010     energy-eigenvalue tresh-hold
   EBREAK =  0.21E-07  absolut break condition
   DEPER  =   0.30     relativ break condition  

   TIME   =   0.40     timestep for ELM

  volume/ion in A,a.u.               =       8.41        56.74
  Fermi-wavevector in a.u.,A,eV,Ry     =   1.674668  3.164663 38.157707  2.804512
  Thomas-Fermi vector in A             =   2.759423
 
 Write flags
   LWAVE        =      T    write WAVECAR
   LDOWNSAMPLE  =      F    k-point downsampling of WAVECAR
   LCHARG       =      T    write CHGCAR
   LVTOT        =      F    write LOCPOT, total local potential
   LVHAR        =      F    write LOCPOT, Hartree potential only
   LELF         =      F    write electronic localiz. function (ELF)
   LORBIT       =     11    0 simple, 1 ext, 2 COOP (PROOUT), +10 PAW based schemes


 Dipole corrections
   LMONO  =      F    monopole corrections only (constant potential shift)
   LDIPOL =      F    correct potential (dipole corrections)
   IDIPOL =      0    1-x, 2-y, 3-z, 4-all directions 
   EPSILON=  1.0000000 bulk dielectric constant

 Exchange correlation treatment:
   GGA     =    --    GGA type
   LEXCH   =     8    internal setting for exchange type
   LIBXC   =     F    Libxc                    
   VOSKOWN =     0    Vosko Wilk Nusair interpolation
   LHFCALC =     F    Hartree Fock is set to
   LHFONE  =     F    Hartree Fock one center treatment
   AEXX    =    0.0000 exact exchange contribution

 Linear response parameters
   LEPSILON=     F    determine dielectric tensor
   LRPA    =     F    only Hartree local field effects (RPA)
   LNABLA  =     F    use nabla operator in PAW spheres
   LVEL    =     F    velocity operator in full k-point grid
   CSHIFT  =0.1000    complex shift for real part using Kramers Kronig
   OMEGAMAX=  -1.0    maximum frequency
   DEG_THRESHOLD= 0.2000000E-02 threshold for treating states as degnerate
   RTIME   =   -0.100 relaxation time in fs
  (WPLASMAI=    0.000 imaginary part of plasma frequency in eV, 0.658/RTIME)
   DFIELD  = 0.0000000 0.0000000 0.0000000 field for delta impulse in time
 
  Optional k-point grid parameters
   LKPOINTS_OPT  =     F    use optional k-point grid
   KPOINTS_OPT_MODE=     1    mode for optional k-point grid
 
 Orbital magnetization related:
   ORBITALMAG=     F  switch on orbital magnetization
   LCHIMAG   =     F  perturbation theory with respect to B field
   DQ        =  0.001000  dq finite difference perturbation B field
   LLRAUG    =     F  two centre corrections for induced B field



--------------------------------------------------------------------------------------------------------


 conjugate gradient relaxation of ions
 charge density and potential will be updated during run
 spin polarized calculation
 Variant of blocked Davidson
 Davidson routine will perform the subspace rotation
 perform sub-space diagonalisation
    after iterative eigenvector-optimisation
 modified Broyden-mixing scheme, WC =      100.0
 initial mixing is a Kerker type mixing with AMIX =  0.4000 and BMIX =      1.0000
 Hartree-type preconditioning will be used
 using additional bands            7
 reciprocal scheme for non local part
 use partial core corrections
 calculate Harris-corrections to forces 
   (improved forces if not selfconsistent)
 use gradient corrections 
 use of overlap-Matrix (Vanderbilt PP)
 Gauss-broadening in eV      SIGMA  =   0.05


--------------------------------------------------------------------------------------------------------


  energy-cutoff  :      400.00
  volume of cell :        8.41
      direct lattice vectors                 reciprocal lattice vectors
     0.000000000  1.613926152  1.613926152    -0.309803518  0.309803518  0.309803518
     1.613926152  0.000000000  1.613926152     0.309803518 -0.309803518  0.309803518
     1.613926152  1.613926152  0.000000000     0.309803518  0.309803518 -0.309803518

  length of vectors
     2.282436253  2.282436253  2.282436253     0.536595434  0.536595434  0.536595434


 
 k-points in units of 2pi/SCALE and weight: Automatic mesh                          
   0.01936272  0.01936272  0.01936272       0.004
  -0.01936272  0.05808816  0.05808816       0.012
  -0.05808816  0.09681360  0.09681360       0.012
  -0.09681360  0.13553904  0.13553904       0.012
   0.17426448 -0.13553904 -0.13553904       0.012
   0.13553904 -0.09681360 -0.09681360       0.012
   0.09681360 -0.05808816 -0.05808816       0.012
   0.05808816 -0.01936272 -0.01936272       0.012
   0.01936272  0.01936272  0.09681360       0.012
  -0.01936272  0.05808816  0.13553904       0.023
  -0.05808816  0.09681360  0.17426448       0.023
   0.21298992 -0.17426448 -0.09681360       0.023
   0.17426448 -0.13553904 -0.05808816       0.023
   0.13553904 -0.09681360 -0.01936272       0.023
   0.09681360 -0.05808816  0.01936272       0.023
   0.01936272  0.01936272  0.17426448       0.012
  -0.01936272  0.05808816  0.21298992       0.023
   0.25171536 -0.21298992 -0.05808816       0.023
   0.21298992 -0.17426448 -0.01936272       0.023
   0.17426448 -0.13553904  0.01936272       0.023
   0.13553904 -0.09681360  0.05808816       0.023
   0.01936272  0.01936272  0.25171536       0.012
   0.29044080 -0.25171536 -0.01936272       0.023
   0.25171536 -0.21298992  0.01936272       0.023
   0.21298992 -0.17426448  0.05808816       0.023
   0.17426448 -0.13553904  0.09681360       0.023
   0.01936272  0.01936272 -0.29044080       0.012
  -0.01936272  0.05808816 -0.25171536       0.023
  -0.05808816  0.09681360 -0.21298992       0.023
   0.01936272  0.01936272 -0.21298992       0.012
  -0.01936272  0.05808816 -0.17426448       0.023
   0.01936272  0.01936272 -0.13553904       0.012
   0.05808816  0.05808816  0.05808816       0.004
   0.01936272  0.09681360  0.09681360       0.012
  -0.01936272  0.13553904  0.13553904       0.012
   0.25171536 -0.13553904 -0.13553904       0.012
   0.21298992 -0.09681360 -0.09681360       0.012
   0.17426448 -0.05808816 -0.05808816       0.012
   0.05808816  0.05808816  0.13553904       0.012
   0.01936272  0.09681360  0.17426448       0.023
   0.29044080 -0.17426448 -0.09681360       0.023
   0.25171536 -0.13553904 -0.05808816       0.023
   0.21298992 -0.09681360 -0.01936272       0.023
   0.05808816  0.05808816  0.21298992       0.012
   0.32916624 -0.21298992 -0.05808816       0.023
   0.29044080 -0.17426448 -0.01936272       0.023
   0.25171536 -0.13553904  0.01936272       0.023
   0.05808816  0.05808816 -0.32916624       0.012
   0.01936272  0.09681360 -0.29044080       0.023
   0.05808816  0.05808816 -0.25171536       0.012
   0.09681360  0.09681360  0.09681360       0.004
   0.05808816  0.13553904  0.13553904       0.012
   0.32916624 -0.13553904 -0.13553904       0.012
   0.29044080 -0.09681360 -0.09681360       0.012
   0.09681360  0.09681360  0.17426448       0.012
   0.36789168 -0.17426448 -0.09681360       0.023
   0.32916624 -0.13553904 -0.05808816       0.023
   0.09681360  0.09681360 -0.36789168       0.012
   0.13553904  0.13553904  0.13553904       0.004
   0.40661712 -0.13553904 -0.13553904       0.012
 
 k-points in reciprocal lattice and weights: Automatic mesh                          
   0.06250000  0.06250000  0.06250000       0.004
   0.18750000  0.06250000  0.06250000       0.012
   0.31250000  0.06250000  0.06250000       0.012
   0.43750000  0.06250000  0.06250000       0.012
  -0.43750000  0.06250000  0.06250000       0.012
  -0.31250000  0.06250000  0.06250000       0.012
  -0.18750000  0.06250000  0.06250000       0.012
  -0.06250000  0.06250000  0.06250000       0.012
   0.18750000  0.18750000  0.06250000       0.012
   0.31250000  0.18750000  0.06250000       0.023
   0.43750000  0.18750000  0.06250000       0.023
  -0.43750000  0.18750000  0.06250000       0.023
  -0.31250000  0.18750000  0.06250000       0.023
  -0.18750000  0.18750000  0.06250000       0.023
  -0.06250000  0.18750000  0.06250000       0.023
   0.31250000  0.31250000  0.06250000       0.012
   0.43750000  0.31250000  0.06250000       0.023
  -0.43750000  0.31250000  0.06250000       0.023
  -0.31250000  0.31250000  0.06250000       0.023
  -0.18750000  0.31250000  0.06250000       0.023
  -0.06250000  0.31250000  0.06250000       0.023
   0.43750000  0.43750000  0.06250000       0.012
  -0.43750000  0.43750000  0.06250000       0.023
  -0.31250000  0.43750000  0.06250000       0.023
  -0.18750000  0.43750000  0.06250000       0.023
  -0.06250000  0.43750000  0.06250000       0.023
  -0.43750000 -0.43750000  0.06250000       0.012
  -0.31250000 -0.43750000  0.06250000       0.023
  -0.18750000 -0.43750000  0.06250000       0.023
  -0.31250000 -0.31250000  0.06250000       0.012
  -0.18750000 -0.31250000  0.06250000       0.023
  -0.18750000 -0.18750000  0.06250000       0.012
   0.18750000  0.18750000  0.18750000       0.004
   0.31250000  0.18750000  0.18750000       0.012
   0.43750000  0.18750000  0.18750000       0.012
  -0.43750000  0.18750000  0.18750000       0.012
  -0.31250000  0.18750000  0.18750000       0.012
  -0.18750000  0.18750000  0.18750000       0.012
   0.31250000  0.31250000  0.18750000       0.012
   0.43750000  0.31250000  0.18750000       0.023
  -0.43750000  0.31250000  0.18750000       0.023
  -0.31250000  0.31250000  0.18750000       0.023
  -0.18750000  0.31250000  0.18750000       0.023
   0.43750000  0.43750000  0.18750000       0.012
  -0.43750000  0.43750000  0.18750000       0.023
  -0.31250000  0.43750000  0.18750000       0.023
  -0.18750000  0.43750000  0.18750000       0.023
  -0.43750000 -0.43750000  0.18750000       0.012
  -0.31250000 -0.43750000  0.18750000       0.023
  -0.31250000 -0.31250000  0.18750000       0.012
   0.31250000  0.31250000  0.31250000       0.004
   0.43750000  0.31250000  0.31250000       0.012
  -0.43750000  0.31250000  0.31250000       0.012
  -0.31250000  0.31250000  0.31250000       0.012
   0.43750000  0.43750000  0.31250000       0.012
  -0.43750000  0.43750000  0.31250000       0.023
  -0.31250000  0.43750000  0.31250000       0.023
  -0.43750000 -0.43750000  0.31250000       0.012
   0.43750000  0.43750000  0.43750000       0.004
  -0.43750000  0.43750000  0.43750000       0.012
 
 position of ions in fractional coordinates (direct lattice) 
   0.00000000  0.00000000  0.00000000
 
 position of ions in cartesian coordinates  (Angst):
   0.00000000  0.00000000  0.00000000
 


--------------------------------------------------------------------------------------------------------


 k-point   1 :   0.0625 0.0625 0.0625  plane waves:     165
 k-point   2 :   0.1875 0.0625 0.0625  plane waves:     158
 k-point   3 :   0.3125 0.0625 0.0625  plane waves:     151
 k-point   4 :   0.4375 0.0625 0.0625  plane waves:     151
 k-point   5 :  -0.4375 0.0625 0.0625  plane waves:     158
 k-point   6 :  -0.3125 0.0625 0.0625  plane waves:     151
 k-point   7 :  -0.1875 0.0625 0.0625  plane waves:     153
 k-point   8 :  -0.0625 0.0625 0.0625  plane waves:     158
 k-point   9 :   0.1875 0.1875 0.0625  plane waves:     157
 k-point  10 :   0.3125 0.1875 0.0625  plane waves:     152
 k-point  11 :   0.4375 0.1875 0.0625  plane waves:     151
 k-point  12 :  -0.4375 0.1875 0.0625  plane waves:     155
 k-point  13 :  -0.3125 0.1875 0.0625  plane waves:     154
 k-point  14 :  -0.1875 0.1875 0.0625  plane waves:     151
 k-point  15 :  -0.0625 0.1875 0.0625  plane waves:     156
 k-point  16 :   0.3125 0.3125 0.0625  plane waves:     153
 k-point  17 :   0.4375 0.3125 0.0625  plane waves:     151
 k-point  18 :  -0.4375 0.3125 0.0625  plane waves:     152
 k-point  19 :  -0.3125 0.3125 0.0625  plane waves:     152
 k-point  20 :  -0.1875 0.3125 0.0625  plane waves:     152
 k-point  21 :  -0.0625 0.3125 0.0625  plane waves:     152
 k-point  22 :   0.4375 0.4375 0.0625  plane waves:     154
 k-point  23 :  -0.4375 0.4375 0.0625  plane waves:     152
 k-point  24 :  -0.3125 0.4375 0.0625  plane waves:     153
 k-point  25 :  -0.1875 0.4375 0.0625  plane waves:     156
 k-point  26 :  -0.0625 0.4375 0.0625  plane waves:     154
 k-point  27 :  -0.4375-0.4375 0.0625  plane waves:     150
 k-point  28 :  -0.3125-0.4375 0.0625  plane waves:     154
 k-point  29 :  -0.1875-0.4375 0.0625  plane waves:     151
 k-point  30 :  -0.3125-0.3125 0.0625  plane waves:     151
 k-point  31 :  -0.1875-0.3125 0.0625  plane waves:     149
 k-point  32 :  -0.1875-0.1875 0.0625  plane waves:     156
 k-point  33 :   0.1875 0.1875 0.1875  plane waves:     153
 k-point  34 :   0.3125 0.1875 0.1875  plane waves:     154
 k-point  35 :   0.4375 0.1875 0.1875  plane waves:     149
 k-point  36 :  -0.4375 0.1875 0.1875  plane waves:     156
 k-point  37 :  -0.3125 0.1875 0.1875  plane waves:     155
 k-point  38 :  -0.1875 0.1875 0.1875  plane waves:     150
 k-point  39 :   0.3125 0.3125 0.1875  plane waves:     151
 k-point  40 :   0.4375 0.3125 0.1875  plane waves:     150
 k-point  41 :  -0.4375 0.3125 0.1875  plane waves:     153
 k-point  42 :  -0.3125 0.3125 0.1875  plane waves:     153
 k-point  43 :  -0.1875 0.3125 0.1875  plane waves:     152
 k-point  44 :   0.4375 0.4375 0.1875  plane waves:     151
 k-point  45 :  -0.4375 0.4375 0.1875  plane waves:     154
 k-point  46 :  -0.3125 0.4375 0.1875  plane waves:     153
 k-point  47 :  -0.1875 0.4375 0.1875  plane waves:     155
 k-point  48 :  -0.4375-0.4375 0.1875  plane waves:     154
 k-point  49 :  -0.3125-0.4375 0.1875  plane waves:     155
 k-point  50 :  -0.3125-0.3125 0.1875  plane waves:     150
 k-point  51 :   0.3125 0.3125 0.3125  plane waves:     153
 k-point  52 :   0.4375 0.3125 0.3125  plane waves:     152
 k-point  53 :  -0.4375 0.3125 0.3125  plane waves:     155
 k-point  54 :  -0.3125 0.3125 0.3125  plane waves:     152
 k-point  55 :   0.4375 0.4375 0.3125  plane waves:     151
 k-point  56 :  -0.4375 0.4375 0.3125  plane waves:     155
 k-point  57 :  -0.3125 0.4375 0.3125  plane waves:     151
 k-point  58 :  -0.4375-0.4375 0.3125  plane waves:     154
 k-point  59 :   0.4375 0.4375 0.4375  plane waves:     153
 k-point  60 :  -0.4375 0.4375 0.4375  plane waves:     158

 maximum and minimum number of plane-waves per node :        27       16

 maximum number of plane-waves:       165
 maximum index in each direction: 
   IXMAX=    4   IYMAX=    4   IZMAX=    3
   IXMIN=   -4   IYMIN=   -4   IZMIN=   -4


 parallel 3D FFT for wavefunctions:
    minimum data exchange during FFTs selected (reduces bandwidth)
 parallel 3D FFT for charge:
    minimum data exchange during FFTs selected (reduces bandwidth)


 total amount of memory used by VASP MPI-rank0    30798. kBytes
=======================================================================

   base      :      30000. kBytes
   nonl-proj :        207. kBytes
   fftplans  :         90. kBytes
   grid      :        217. kBytes
   one-center:         31. kBytes
   wavefun   :        253. kBytes
 
     INWAV:  cpu time      0.0000: real time      0.0003
 Broyden mixing: mesh for mixing (old mesh)
   NGX =  7   NGY =  7   NGZ =  7
  (NGX  = 32   NGY  = 32   NGZ  = 32)
  gives a total of    343 points

 initial charge density was supplied:
 charge density of overlapping atoms calculated
 number of electron       9.0000000 magnetization       3.0000000
 keeping initial charge density in first step


--------------------------------------------------------------------------------------------------------


 Maximum index for augmentation-charges         1507 (set IRDMAX)


--------------------------------------------------------------------------------------------------------


 First call to EWALD:  gamma=   0.872
 Maximum number of real-space cells 3x 3x 3
 Maximum number of reciprocal cells 3x 3x 3

    FEWALD:  cpu time      0.0012: real time      0.0012


--------------------------------------- Iteration      1(   1)  ---------------------------------------


    POTLOK:  cpu time      0.0044: real time      0.0045
    SETDIJ:  cpu time      0.0049: real time      0.0049
     EDDAV:  cpu time      0.2641: real time      0.2660
       DOS:  cpu time      0.0013: real time      0.0013
    --------------------------------------------
      LOOP:  cpu time      0.2746: real time      0.2766

 eigenvalue-minimisations  :  2980
 total energy-change (2. order) : 0.2309487E+02  (-0.3440545E+03)
 number of electron       9.0000000 magnetization       3.0000000
 augmentation part        9.0000000 magnetization       3.0000000

 Free energy of the ion-electron system (eV)
  ---------------------------------------------------
  alpha Z        PSCENC =        50.37920434
  Ewald energy   TEWEN  =      -828.36876933
  -Hartree energ DENC   =      -123.56808547
  -exchange      EXHF   =         0.00000000
  -V(xc)+E(xc)   XCENC  =        18.74446179
  PAW double counting   =       719.99081943     -772.94345096
  entropy T*S    EENTRO =        -0.00102890
  eigenvalues    EBANDS =       145.50398306
  atomic energy  EATOM  =       813.35773410
  Solvation  Ediel_sol  =         0.00000000
  ---------------------------------------------------
  free energy    TOTEN  =        23.09486807 eV

  energy without entropy =       23.09589696  energy(sigma->0) =       23.09538252


--------------------------------------------------------------------------------------------------------




--------------------------------------- Iteration      1(   2)  ---------------------------------------


     EDDAV:  cpu time      0.2502: real time      0.2524
       DOS:  cpu time      0.0008: real time      0.0008
    --------------------------------------------
      LOOP:  cpu time      0.2510: real time      0.2532

 eigenvalue-minimisations  :  3044
 total energy-change (2. order) :-0.2932532E+02  (-0.2736730E+02)
 number of electron       9.0000000 magnetization       3.0000000
 augmentation part        9.0000000 magnetization       3.0000000

 Free energy of the ion-electron system (eV)
  ---------------------------------------------------
  alpha Z        PSCENC =        50.37920434
  Ewald energy   TEWEN  =      -828.36876933
  -Hartree energ DENC   =      -123.56808547
  -exchange      EXHF   =         0.00000000
  -V(xc)+E(xc)   XCENC  =        18.74446179
  PAW double counting   =       719.99081943     -772.94345096
  entropy T*S    EENTRO =        -0.00144634
  eigenvalues    EBANDS =       116.17908214
  atomic energy  EATOM  =       813.35773410
  Solvation  Ediel_sol  =         0.00000000
  ---------------------------------------------------
  free energy    TOTEN  =        -6.23045029 eV

  energy without entropy =       -6.22900395  energy(sigma->0) =       -6.22972712


--------------------------------------------------------------------------------------------------------




--------------------------------------- Iteration      1(   3)  ---------------------------------------


     EDDAV:  cpu time      0.2711: real time      0.2725
       DOS:  cpu time      0.0008: real time      0.0008
    --------------------------------------------
      LOOP:  cpu time      0.2719: real time      0.2733

 eigenvalue-minimisations  :  3464
 total energy-change (2. order) :-0.6430366E+00  (-0.6413133E+00)
 number of electron       9.0000000 magnetization       3.0000000
 augmentation part        9.0000000 magnetization       3.0000000

 Free energy of the ion-electron system (eV)
  ---------------------------------------------------
  alpha Z        PSCENC =        50.37920434
  Ewald energy   TEWEN  =      -828.36876933
  -Hartree energ DENC   =      -123.56808547
  -exchange      EXHF   =         0.00000000
  -V(xc)+E(xc)   XCENC  =        18.74446179
  PAW double counting   =       719.99081943     -772.94345096
  entropy T*S    EENTRO =        -0.00095972
  eigenvalues    EBANDS =       115.53555889
  atomic energy  EATOM  =       813.35773410
  Solvation  Ediel_sol  =         0.00000000
  ---------------------------------------------------
  free energy    TOTEN  =        -6.87348693 eV

  energy without entropy =       -6.87252720  energy(sigma->0) =       -6.87300707


--------------------------------------------------------------------------------------------------------




--------------------------------------- Iteration      1(   4)  ---------------------------------------


     EDDAV:  cpu time      0.2710: real time      0.2726
       DOS:  cpu time      0.0008: real time      0.0008
    --------------------------------------------
      LOOP:  cpu time      0.2718: real time      0.2734

 eigenvalue-minimisations  :  3476
 total energy-change (2. order) :-0.4228944E-02  (-0.4228110E-02)
 number of electron       9.0000000 magnetization       3.0000000
 augmentation part        9.0000000 magnetization       3.0000000

 Free energy of the ion-electron system (eV)
  ---------------------------------------------------
  alpha Z        PSCENC =        50.37920434
  Ewald energy   TEWEN  =      -828.36876933
  -Hartree energ DENC   =      -123.56808547
  -exchange      EXHF   =         0.00000000
  -V(xc)+E(xc)   XCENC  =        18.74446179
  PAW double counting   =       719.99081943     -772.94345096
  entropy T*S    EENTRO =        -0.00095756
  eigenvalues    EBANDS =       115.53132778
  atomic energy  EATOM  =       813.35773410
  Solvation  Ediel_sol  =         0.00000000
  ---------------------------------------------------
  free energy    TOTEN  =        -6.87771587 eV

  energy without entropy =       -6.87675832  energy(sigma->0) =       -6.87723709


--------------------------------------------------------------------------------------------------------




--------------------------------------- Iteration      1(   5)  ---------------------------------------


     EDDAV:  cpu time      0.3021: real time      0.3037
       DOS:  cpu time      0.0008: real time      0.0008
    CHARGE:  cpu time      0.0102: real time      0.0102
    MIXING:  cpu time      0.0002: real time      0.0002
    --------------------------------------------
      LOOP:  cpu time      0.3133: real time      0.3149

 eigenvalue-minimisations  :  3772
 total energy-change (2. order) :-0.6207545E-04  (-0.6207251E-04)
 number of electron       8.9999996 magnetization       1.0362587
 augmentation part        4.6789108 magnetization       0.7095164

 Broyden mixing:
  rms(total) = 0.16159E+01    rms(broyden)= 0.16159E+01
  rms(prec ) = 0.32352E+01
  weight for this iteration     100.00

 Free energy of the ion-electron system (eV)
  ---------------------------------------------------
  alpha Z        PSCENC =        50.37920434
  Ewald energy   TEWEN  =      -828.36876933
  -Hartree energ DENC   =      -123.56808547
  -exchange      EXHF   =         0.00000000
  -V(xc)+E(xc)   XCENC  =        18.74446179
  PAW double counting   =       719.99081943     -772.94345096
  entropy T*S    EENTRO =        -0.00095753
  eigenvalues    EBANDS =       115.53126568
  atomic energy  EATOM  =       813.35773410
  Solvation  Ediel_sol  =         0.00000000
  ---------------------------------------------------
  free energy    TOTEN  =        -6.87777795 eV

  energy without entropy =       -6.87682041  energy(sigma->0) =       -6.87729918


--------------------------------------------------------------------------------------------------------




--------------------------------------- Iteration      1(   6)  ---------------------------------------


    POTLOK:  cpu time      0.0030: real time      0.0032
    SETDIJ:  cpu time      0.0044: real time      0.0045
     EDDAV:  cpu time      0.2907: real time      0.2921
       DOS:  cpu time      0.0009: real time      0.0009
    CHARGE:  cpu time      0.0098: real time      0.0099
    MIXING:  cpu time      0.0002: real time      0.0002
    --------------------------------------------
      LOOP:  cpu time      0.3091: real time      0.3107

 eigenvalue-minimisations  :  3736
 total energy-change (2. order) : 0.3855122E+00  (-0.6145773E+00)
 number of electron       8.9999996 magnetization       1.2626845
 augmentation part        5.1507204 magnetization       1.1862706

 Broyden mixing:
  rms(total) = 0.40247E+00    rms(broyden)= 0.40246E+00
  rms(prec ) = 0.41223E+00
  weight for this iteration     100.00

 eigenvalues of (default mixing * dielectric matrix)
  average eigenvalue GAMMA=   1.0052
  1.0052

 Free energy of the ion-electron system (eV)
  ---------------------------------------------------
  alpha Z        PSCENC =        50.37920434
  Ewald energy   TEWEN  =      -828.36876933
  -Hartree energ DENC   =      -109.10767185
  -exchange      EXHF   =         0.00000000
  -V(xc)+E(xc)   XCENC  =        17.19639898
  PAW double counting   =       881.81699696     -931.67226998
  entropy T*S    EENTRO =        -0.00163225
  eigenvalues    EBANDS =        99.90774323
  atomic energy  EATOM  =       813.35773410
  Solvation  Ediel_sol  =         0.00000000
  ---------------------------------------------------
  free energy    TOTEN  =        -6.49226580 eV

  energy without entropy =       -6.49063355  energy(sigma->0) =       -6.49144967


--------------------------------------------------------------------------------------------------------




--------------------------------------- Iteration      1(   7)  ---------------------------------------


    POTLOK:  cpu time      0.0028: real time      0.0030
    SETDIJ:  cpu time      0.0041: real time      0.0041
     EDDAV:  cpu time      0.2683: real time      0.2697
       DOS:  cpu time      0.0008: real time      0.0008
    CHARGE:  cpu time      0.0095: real time      0.0095
    MIXING:  cpu time      0.0002: real time      0.0002
    --------------------------------------------
      LOOP:  cpu time      0.2858: real time      0.2874

 eigenvalue-minimisations  :  3416
 total energy-change (2. order) : 0.3577563E-01  (-0.2632085E-01)
 number of electron       8.9999996 magnetization       1.1029331
 augmentation part        5.0740085 magnetization       0.9897258

 Broyden mixing:
  rms(total) = 0.25295E+00    rms(broyden)= 0.25295E+00
  rms(prec ) = 0.38062E+00
  weight for this iteration     100.00

 eigenvalues of (default mixing * dielectric matrix)
  average eigenvalue GAMMA=   1.2118
  0.7538  1.6698

 Free energy of the ion-electron system (eV)
  ---------------------------------------------------
  alpha Z        PSCENC =        50.37920434
  Ewald energy   TEWEN  =      -828.36876933
  -Hartree energ DENC   =      -109.19524297
  -exchange      EXHF   =         0.00000000
  -V(xc)+E(xc)   XCENC  =        17.21585921
  PAW double counting   =       958.27679417    -1010.71676100
  entropy T*S    EENTRO =        -0.00174225
  eigenvalues    EBANDS =       102.59643356
  atomic energy  EATOM  =       813.35773410
  Solvation  Ediel_sol  =         0.00000000
  ---------------------------------------------------
  free energy    TOTEN  =        -6.45649016 eV

  energy without entropy =       -6.45474792  energy(sigma->0) =       -6.45561904


--------------------------------------------------------------------------------------------------------




--------------------------------------- Iteration      1(   8)  ---------------------------------------


    POTLOK:  cpu time      0.0027: real time      0.0028
    SETDIJ:  cpu time      0.0041: real time      0.0041
     EDDAV:  cpu time      0.3221: real time      0.3237
       DOS:  cpu time      0.0009: real time      0.0009
    CHARGE:  cpu time      0.0095: real time      0.0095
    MIXING:  cpu time      0.0002: real time      0.0002
    --------------------------------------------
      LOOP:  cpu time      0.3394: real time      0.3412

 eigenvalue-minimisations  :  4340
 total energy-change (2. order) : 0.1886277E-01  (-0.1323461E-02)
 number of electron       8.9999996 magnetization       1.0944818
 augmentation part        5.0899910 magnetization       0.9897352

 Broyden mixing:
  rms(total) = 0.73108E-01    rms(broyden)= 0.73104E-01
  rms(prec ) = 0.10653E+00
  weight for this iteration     100.00

 eigenvalues of (default mixing * dielectric matrix)
  average eigenvalue GAMMA=   1.1859
  2.0768  0.8517  0.6294

 Free energy of the ion-electron system (eV)
  ---------------------------------------------------
  alpha Z        PSCENC =        50.37920434
  Ewald energy   TEWEN  =      -828.36876933
  -Hartree energ DENC   =      -107.24493074
  -exchange      EXHF   =         0.00000000
  -V(xc)+E(xc)   XCENC  =        17.05236661
  PAW double counting   =      1045.11773419    -1098.97129187
  entropy T*S    EENTRO =        -0.00201340
  eigenvalues    EBANDS =       102.24233871
  atomic energy  EATOM  =       813.35773410
  Solvation  Ediel_sol  =         0.00000000
  ---------------------------------------------------
  free energy    TOTEN  =        -6.43762739 eV

  energy without entropy =       -6.43561399  energy(sigma->0) =       -6.43662069


--------------------------------------------------------------------------------------------------------




--------------------------------------- Iteration      1(   9)  ---------------------------------------


    POTLOK:  cpu time      0.0027: real time      0.0028
    SETDIJ:  cpu time      0.0042: real time      0.0042
     EDDAV:  cpu time      0.3170: real time      0.3185
       DOS:  cpu time      0.0008: real time      0.0008
    CHARGE:  cpu time      0.0095: real time      0.0095
    MIXING:  cpu time      0.0002: real time      0.0002
    --------------------------------------------
      LOOP:  cpu time      0.3343: real time      0.3360

 eigenvalue-minimisations  :  4252
 total energy-change (2. order) : 0.1924869E-02  (-0.9446182E-04)
 number of electron       8.9999996 magnetization       1.0920335
 augmentation part        5.0936173 magnetization       0.9871199

 Broyden mixing:
  rms(total) = 0.17395E-01    rms(broyden)= 0.17392E-01
  rms(prec ) = 0.33582E-01
  weight for this iteration     100.00

 eigenvalues of (default mixing * dielectric matrix)
  average eigenvalue GAMMA=   1.2704
  2.3392  1.2754  0.8441  0.6228

 Free energy of the ion-electron system (eV)
  ---------------------------------------------------
  alpha Z        PSCENC =        50.37920434
  Ewald energy   TEWEN  =      -828.36876933
  -Hartree energ DENC   =      -106.77646107
  -exchange      EXHF   =         0.00000000
  -V(xc)+E(xc)   XCENC  =        17.02699097
  PAW double counting   =      1068.65421640    -1122.88518945
  entropy T*S    EENTRO =        -0.00192662
  eigenvalues    EBANDS =       102.17849814
  atomic energy  EATOM  =       813.35773410
  Solvation  Ediel_sol  =         0.00000000
  ---------------------------------------------------
  free energy    TOTEN  =        -6.43570252 eV

  energy without entropy =       -6.43377590  energy(sigma->0) =       -6.43473921


--------------------------------------------------------------------------------------------------------




--------------------------------------- Iteration      1(  10)  ---------------------------------------


    POTLOK:  cpu time      0.0026: real time      0.0028
    SETDIJ:  cpu time      0.0043: real time      0.0043
     EDDAV:  cpu time      0.3023: real time      0.3040
       DOS:  cpu time      0.0009: real time      0.0009
    CHARGE:  cpu time      0.0094: real time      0.0094
    MIXING:  cpu time      0.0002: real time      0.0002
    --------------------------------------------
      LOOP:  cpu time      0.3198: real time      0.3216

 eigenvalue-minimisations  :  4020
 total energy-change (2. order) : 0.4205940E-03  (-0.3438141E-04)
 number of electron       8.9999996 magnetization       1.0939234
 augmentation part        5.0940106 magnetization       0.9881506

 Broyden mixing:
  rms(total) = 0.87800E-02    rms(broyden)= 0.87782E-02
  rms(prec ) = 0.90847E-02
  weight for this iteration     100.00

 eigenvalues of (default mixing * dielectric matrix)
  average eigenvalue GAMMA=   1.2874
  2.5908  1.7432  0.8583  0.6618  0.5828

 Free energy of the ion-electron system (eV)
  ---------------------------------------------------
  alpha Z        PSCENC =        50.37920434
  Ewald energy   TEWEN  =      -828.36876933
  -Hartree energ DENC   =      -106.43984228
  -exchange      EXHF   =         0.00000000
  -V(xc)+E(xc)   XCENC  =        17.00756388
  PAW double counting   =      1089.81369196    -1144.38663003
  entropy T*S    EENTRO =        -0.00190213
  eigenvalues    EBANDS =       102.20366757
  atomic energy  EATOM  =       813.35773410
  Solvation  Ediel_sol  =         0.00000000
  ---------------------------------------------------
  free energy    TOTEN  =        -6.43528193 eV

  energy without entropy =       -6.43337980  energy(sigma->0) =       -6.43433086


--------------------------------------------------------------------------------------------------------




--------------------------------------- Iteration      1(  11)  ---------------------------------------


    POTLOK:  cpu time      0.0026: real time      0.0028
    SETDIJ:  cpu time      0.0041: real time      0.0041
     EDDAV:  cpu time      0.2682: real time      0.2695
       DOS:  cpu time      0.0008: real time      0.0008
    CHARGE:  cpu time      0.0094: real time      0.0094
    MIXING:  cpu time      0.0003: real time      0.0003
    --------------------------------------------
      LOOP:  cpu time      0.2855: real time      0.2870

 eigenvalue-minimisations  :  3448
 total energy-change (2. order) :-0.1776989E-04  (-0.3112025E-05)
 number of electron       8.9999996 magnetization       1.0937879
 augmentation part        5.0944885 magnetization       0.9885512

 Broyden mixing:
  rms(total) = 0.39443E-02    rms(broyden)= 0.39443E-02
  rms(prec ) = 0.42837E-02
  weight for this iteration     100.00

 eigenvalues of (default mixing * dielectric matrix)
  average eigenvalue GAMMA=   1.2500
  2.1894  2.1894  1.0371  0.8059  0.6389  0.6389

 Free energy of the ion-electron system (eV)
  ---------------------------------------------------
  alpha Z        PSCENC =        50.37920434
  Ewald energy   TEWEN  =      -828.36876933
  -Hartree energ DENC   =      -106.44046609
  -exchange      EXHF   =         0.00000000
  -V(xc)+E(xc)   XCENC  =        17.00974049
  PAW double counting   =      1090.09333489    -1144.65141953
  entropy T*S    EENTRO =        -0.00191262
  eigenvalues    EBANDS =       102.18725405
  atomic energy  EATOM  =       813.35773410
  Solvation  Ediel_sol  =         0.00000000
  ---------------------------------------------------
  free energy    TOTEN  =        -6.43529970 eV

  energy without entropy =       -6.43338708  energy(sigma->0) =       -6.43434339


--------------------------------------------------------------------------------------------------------




--------------------------------------- Iteration      1(  12)  ---------------------------------------


    POTLOK:  cpu time      0.0026: real time      0.0028
    SETDIJ:  cpu time      0.0041: real time      0.0041
     EDDAV:  cpu time      0.2684: real time      0.2697
       DOS:  cpu time      0.0009: real time      0.0009
    CHARGE:  cpu time      0.0095: real time      0.0095
    MIXING:  cpu time      0.0003: real time      0.0003
    --------------------------------------------
      LOOP:  cpu time      0.2858: real time      0.2873

 eigenvalue-minimisations  :  3392
 total energy-change (2. order) : 0.6389339E-05  (-0.7156622E-06)
 number of electron       8.9999996 magnetization       1.0931179
 augmentation part        5.0946584 magnetization       0.9882344

 Broyden mixing:
  rms(total) = 0.72299E-03    rms(broyden)= 0.72295E-03
  rms(prec ) = 0.79195E-03
  weight for this iteration     100.00

 eigenvalues of (default mixing * dielectric matrix)
  average eigenvalue GAMMA=   1.2941
  2.3790  2.3790  1.4320  0.8469  0.6257  0.6981  0.6981

 Free energy of the ion-electron system (eV)
  ---------------------------------------------------
  alpha Z        PSCENC =        50.37920434
  Ewald energy   TEWEN  =      -828.36876933
  -Hartree energ DENC   =      -106.47079759
  -exchange      EXHF   =         0.00000000
  -V(xc)+E(xc)   XCENC  =        17.01187496
  PAW double counting   =      1088.58710998    -1143.10714753
  entropy T*S    EENTRO =        -0.00191784
  eigenvalues    EBANDS =       102.17741560
  atomic energy  EATOM  =       813.35773410
  Solvation  Ediel_sol  =         0.00000000
  ---------------------------------------------------
  free energy    TOTEN  =        -6.43529331 eV

  energy without entropy =       -6.43337547  energy(sigma->0) =       -6.43433439


--------------------------------------------------------------------------------------------------------




--------------------------------------- Iteration      1(  13)  ---------------------------------------


    POTLOK:  cpu time      0.0026: real time      0.0028
    SETDIJ:  cpu time      0.0041: real time      0.0041
     EDDAV:  cpu time      0.2149: real time      0.2161
       DOS:  cpu time      0.0008: real time      0.0008
    --------------------------------------------
      LOOP:  cpu time      0.2224: real time      0.2238

 eigenvalue-minimisations  :  2152
 total energy-change (2. order) :-0.5535469E-06  (-0.1289809E-06)
 number of electron       8.9999996 magnetization       1.0931179
 augmentation part        5.0946584 magnetization       0.9882344

 Free energy of the ion-electron system (eV)
  ---------------------------------------------------
  alpha Z        PSCENC =        50.37920434
  Ewald energy   TEWEN  =      -828.36876933
  -Hartree energ DENC   =      -106.46915930
  -exchange      EXHF   =         0.00000000
  -V(xc)+E(xc)   XCENC  =        17.01136373
  PAW double counting   =      1088.93205599    -1143.45276940
  entropy T*S    EENTRO =        -0.00191353
  eigenvalues    EBANDS =       102.17695953
  atomic energy  EATOM  =       813.35773410
  Solvation  Ediel_sol  =         0.00000000
  ---------------------------------------------------
  free energy    TOTEN  =        -6.43529386 eV

  energy without entropy =       -6.43338033  energy(sigma->0) =       -6.43433710


--------------------------------------------------------------------------------------------------------




 average (electrostatic) potential at core
  the test charge radii are     1.0452
  (the norm of the test charge is              1.0000)
       1 -74.4590
 
 
 
 E-fermi :  14.4269     XC(G=0): -14.9864     alpha+bet :-22.8769

 Fermi energy:        14.4269180818

 spin component 1

 k-point     1 :       0.0625    0.0625    0.0625
  band No.  band energies     occupation 
      1       4.1024      1.00000
      2      11.3377      1.00000
      3      11.4620      1.00000
      4      11.4620      1.00000
      5      13.1243      1.00000
      6      13.1243      1.00000
      7      39.4500      0.00000
      8      44.0912      0.00000
      9      45.9178      0.00000
     10      45.9178      0.00000
     11      50.8129      0.00000
     12      51.1914      0.00000

 k-point     2 :       0.1875    0.0625    0.0625
  band No.  band energies     occupation 
      1       5.0700      1.00000
      2      11.0049      1.00000
      3      11.7026      1.00000
      4      11.7033      1.00000
      5      12.8744      1.00000
      6      13.2431      1.00000
      7      37.6764      0.00000
      8      40.3726      0.00000
      9      44.5152      0.00000
     10      47.1071      0.00000
     11      49.1253      0.00000
     12      51.1922      0.00000

 k-point     3 :       0.3125    0.0625    0.0625
  band No.  band energies     occupation 
      1       6.9790      1.00000
      2      10.8393      1.00000
      3      11.6446      1.00000
      4      11.7609      1.00000
      5      13.1384      1.00000
      6      13.7958      1.00000
      7      31.4505      0.00000
      8      38.9717      0.00000
      9      43.6184      0.00000
     10      47.3127      0.00000
     11      48.7166      0.00000
     12      48.9976      0.00000

 k-point     4 :       0.4375    0.0625    0.0625
  band No.  band energies     occupation 
      1       8.0018      1.00000
      2      11.3098      1.00000
      3      11.4668      1.00000
      4      12.2696      1.00000
      5      13.9575      1.00000
      6      14.8004      0.00000
      7      25.6694      0.00000
      8      37.9708      0.00000
      9      42.5761      0.00000
     10      45.1367      0.00000
     11      47.6502      0.00000
     12      49.1222      0.00000

 k-point     5 :      -0.4375    0.0625    0.0625
  band No.  band energies     occupation 
      1       8.0669      1.00000
      2      11.1685      1.00000
      3      11.3880      1.00000
      4      13.0780      1.00000
      5      14.3903      0.84952
      6      15.4679      0.00000
      7      23.4344      0.00000
      8      37.7409      0.00000
      9      42.9437      0.00000
     10      43.0858      0.00000
     11      48.4598      0.00000
     12      48.5644      0.00000

 k-point     6 :      -0.3125    0.0625    0.0625
  band No.  band energies     occupation 
      1       7.8397      1.00000
      2      11.3586      1.00000
      3      11.5951      1.00000
      4      11.5985      1.00000
      5      14.0874      1.00000
      6      14.0901      1.00000
      7      27.4106      0.00000
      8      38.5855      0.00000
      9      42.3700      0.00000
     10      45.2530      0.00000
     11      48.0922      0.00000
     12      50.2928      0.00000

 k-point     7 :      -0.1875    0.0625    0.0625
  band No.  band energies     occupation 
      1       6.3210      1.00000
      2      10.7633      1.00000
      3      11.7351      1.00000
      4      11.8190      1.00000
      5      13.0406      1.00000
      6      13.4565      1.00000
      7      33.5996      0.00000
      8      39.9902      0.00000
      9      42.9178      0.00000
     10      47.1357      0.00000
     11      48.3355      0.00000
     12      51.2046      0.00000

 k-point     8 :      -0.0625    0.0625    0.0625
  band No.  band energies     occupation 
      1       4.5971      1.00000
      2      11.1149      1.00000
      3      11.6242      1.00000
      4      11.6314      1.00000
      5      12.9092      1.00000
      6      13.2224      1.00000
      7      38.9882      0.00000
      8      42.0675      0.00000
      9      44.1725      0.00000
     10      45.5688      0.00000
     11      50.8986      0.00000
     12      51.1175      0.00000

 k-point     9 :       0.1875    0.1875    0.0625
  band No.  band energies     occupation 
      1       5.5236      1.00000
      2      10.6901      1.00000
      3      11.9223      1.00000
      4      11.9615      1.00000
      5      12.6042      1.00000
      6      13.4052      1.00000
      7      38.0558      0.00000
      8      40.2562      0.00000
      9      41.7813      0.00000
     10      43.4403      0.00000
     11      50.7084      0.00000
     12      52.5866      0.00000

 k-point    10 :       0.3125    0.1875    0.0625
  band No.  band energies     occupation 
      1       7.0795      1.00000
      2      10.2374      1.00000
      3      11.6298      1.00000
      4      12.3634      1.00000
      5      12.9633      1.00000
      6      13.9249      1.00000
      7      34.2029      0.00000
      8      36.8876      0.00000
      9      41.0415      0.00000
     10      43.3125      0.00000
     11      50.1206      0.00000
     12      51.9993      0.00000

 k-point    11 :       0.4375    0.1875    0.0625
  band No.  band energies     occupation 
      1       8.4620      1.00000
      2      10.4449      1.00000
      3      11.1628      1.00000
      4      12.1567      1.00000
      5      14.0159      1.00000
      6      15.4572      0.00000
      7      27.9034      0.00000
      8      35.9918      0.00000
      9      38.8557      0.00000
     10      43.2846      0.00000
     11      50.5986      0.00000
     12      51.3071      0.00000

 k-point    12 :      -0.4375    0.1875    0.0625
  band No.  band energies     occupation 
      1       8.6960      1.00000
      2      10.5036      1.00000
      3      11.7433      1.00000
      4      11.9236      1.00000
      5      14.3247      0.99808
      6      17.8256      0.00000
      7      23.5396      0.00000
      8      35.2217      0.00000
      9      38.3252      0.00000
     10      42.7618      0.00000
     11      49.7753      0.00000
     12      51.4903      0.00000

 k-point    13 :      -0.3125    0.1875    0.0625
  band No.  band energies     occupation 
      1       8.6920      1.00000
      2      10.7214      1.00000
      3      11.2248      1.00000
      4      11.9950      1.00000
      5      13.8268      1.00000
      6      16.5104      0.00000
      7      26.1067      0.00000
      8      34.6265      0.00000
      9      39.6750      0.00000
     10      44.0883      0.00000
     11      49.0327      0.00000
     12      51.4060      0.00000

 k-point    14 :      -0.1875    0.1875    0.0625
  band No.  band energies     occupation 
      1       7.7421      1.00000
      2      10.3559      1.00000
      3      11.3552      1.00000
      4      12.2929      1.00000
      5      12.8475      1.00000
      6      14.6186      0.00000
      7      32.0585      0.00000
      8      34.9103      0.00000
      9      42.2161      0.00000
     10      45.9973      0.00000
     11      48.3623      0.00000
     12      51.1153      0.00000

 k-point    15 :      -0.0625    0.1875    0.0625
  band No.  band energies     occupation 
      1       5.9535      1.00000
      2      10.6865      1.00000
      3      11.7814      1.00000
      4      11.9689      1.00000
      5      12.7182      1.00000
      6      13.5119      1.00000
      7      35.9578      0.00000
      8      38.6043      0.00000
      9      43.5397      0.00000
     10      45.4808      0.00000
     11      50.0810      0.00000
     12      51.0942      0.00000

 k-point    16 :       0.3125    0.3125    0.0625
  band No.  band energies     occupation 
      1       7.7137      1.00000
      2       9.6121      1.00000
      3      12.1290      1.00000
      4      12.9942      1.00000
      5      13.4738      1.00000
      6      13.9194      1.00000
      7      34.7441      0.00000
      8      36.4707      0.00000
      9      36.9172      0.00000
     10      39.7811      0.00000
     11      46.9049      0.00000
     12      52.0271      0.00000

 k-point    17 :       0.4375    0.3125    0.0625
  band No.  band energies     occupation 
      1       8.3837      1.00000
      2       9.3194      1.00000
      3      12.0006      1.00000
      4      13.3968      1.00000
      5      14.0945      1.00000
      6      15.7476      0.00000
      7      30.9789      0.00000
      8      33.0650      0.00000
      9      34.6593      0.00000
     10      41.2806      0.00000
     11      47.6092      0.00000
     12      52.0323      0.00000

 k-point    18 :      -0.4375    0.3125    0.0625
  band No.  band energies     occupation 
      1       8.9138      1.00000
      2       9.5500      1.00000
      3      11.5260      1.00000
      4      12.9956      1.00000
      5      14.4068      0.71515
      6      19.5169      0.00000
      7      25.3541      0.00000
      8      30.8958      0.00000
      9      34.7298      0.00000
     10      41.8555      0.00000
     11      51.0045      0.00000
     12      53.0175      0.00000

 k-point    19 :      -0.3125    0.3125    0.0625
  band No.  band energies     occupation 
      1       9.6182      1.00000
      2       9.8210      1.00000
      3      10.8478      1.00000
      4      12.7109      1.00000
      5      13.9040      1.00000
      6      19.9529      0.00000
      7      25.2012      0.00000
      8      29.4937      0.00000
      9      36.6960      0.00000
     10      42.7248      0.00000
     11      51.3169      0.00000
     12      52.3163      0.00000

 k-point    20 :      -0.1875    0.3125    0.0625
  band No.  band energies     occupation 
      1       9.1685      1.00000
      2      10.3954      1.00000
      3      10.6346      1.00000
      4      12.4375      1.00000
      5      13.3425      1.00000
      6      16.7229      0.00000
      7      28.4634      0.00000
      8      31.7111      0.00000
      9      39.4216      0.00000
     10      44.7619      0.00000
     11      49.0997      0.00000
     12      51.2981      0.00000

 k-point    21 :      -0.0625    0.3125    0.0625
  band No.  band energies     occupation 
      1       7.7671      1.00000
      2      10.7825      1.00000
      3      11.3886      1.00000
      4      11.8645      1.00000
      5      13.4625      1.00000
      6      14.4170      0.61057
      7      29.5572      0.00000
      8      37.5285      0.00000
      9      41.8070      0.00000
     10      45.4040      0.00000
     11      49.1107      0.00000
     12      50.8743      0.00000

 k-point    22 :       0.4375    0.4375    0.0625
  band No.  band energies     occupation 
      1       7.9445      1.00000
      2       8.7772      1.00000
      3      13.8020      1.00000
      4      14.0200      1.00000
      5      14.4503      0.25394
      6      16.2795      0.00000
      7      29.7068      0.00000
      8      32.1883      0.00000
      9      33.3973      0.00000
     10      39.0763      0.00000
     11      45.0368      0.00000
     12      52.0782      0.00000

 k-point    23 :      -0.4375    0.4375    0.0625
  band No.  band energies     occupation 
      1       8.0953      1.00000
      2       8.8256      1.00000
      3      13.1706      1.00000
      4      13.9612      1.00000
      5      14.6292      0.00000
      6      19.2829      0.00000
      7      27.4051      0.00000
      8      29.5537      0.00000
      9      32.2164      0.00000
     10      40.6895      0.00000
     11      46.8701      0.00000
     12      52.2061      0.00000

 k-point    24 :      -0.3125    0.4375    0.0625
  band No.  band energies     occupation 
      1       8.8069      1.00000
      2       9.4171      1.00000
      3      11.7605      1.00000
      4      13.2872      1.00000
      5      14.3657      0.95824
      6      21.8313      0.00000
      7      24.4355      0.00000
      8      28.3943      0.00000
      9      34.1280      0.00000
     10      41.7068      0.00000
     11      50.9259      0.00000
     12      53.8075      0.00000

 k-point    25 :      -0.1875    0.4375    0.0625
  band No.  band energies     occupation 
      1       9.1915      1.00000
      2      10.0529      1.00000
      3      11.2788      1.00000
      4      12.3314      1.00000
      5      14.1591      1.00000
      6      19.3747      0.00000
      7      23.7121      0.00000
      8      32.3444      0.00000
      9      37.1375      0.00000
     10      42.6721      0.00000
     11      50.7973      0.00000
     12      51.7423      0.00000

 k-point    26 :      -0.0625    0.4375    0.0625
  band No.  band energies     occupation 
      1       8.2861      1.00000
      2      10.9847      1.00000
      3      11.5962      1.00000
      4      12.1817      1.00000
      5      14.2406      1.00000
      6      16.0412      0.00000
      7      24.3447      0.00000
      8      36.9548      0.00000
      9      40.7332      0.00000
     10      43.3978      0.00000
     11      48.7806      0.00000
     12      50.9378      0.00000

 k-point    27 :      -0.4375   -0.4375    0.0625
  band No.  band energies     occupation 
      1       7.8017      1.00000
      2       8.5906      1.00000
      3      14.2334      1.00000
      4      14.2474      1.00000
      5      14.6498      0.00000
      6      17.8902      0.00000
      7      27.4725      0.00000
      8      31.4040      0.00000
      9      32.5884      0.00000
     10      38.9914      0.00000
     11      44.8252      0.00000
     12      52.1570      0.00000

 k-point    28 :      -0.3125   -0.4375    0.0625
  band No.  band energies     occupation 
      1       8.2514      1.00000
      2       8.9956      1.00000
      3      12.6936      1.00000
      4      13.8141      1.00000
      5      14.4199      0.57906
      6      17.5637      0.00000
      7      29.3885      0.00000
      8      30.5984      0.00000
      9      32.9674      0.00000
     10      40.8694      0.00000
     11      47.0703      0.00000
     12      52.1044      0.00000

 k-point    29 :      -0.1875   -0.4375    0.0625
  band No.  band energies     occupation 
      1       8.8619      1.00000
      2       9.9235      1.00000
      3      11.2497      1.00000
      4      12.5694      1.00000
      5      14.3319      0.99641
      6      17.2241      0.00000
      7      26.4909      0.00000
      8      33.8931      0.00000
      9      36.1291      0.00000
     10      42.2802      0.00000
     11      51.1347      0.00000
     12      51.9003      0.00000

 k-point    30 :      -0.3125   -0.3125    0.0625
  band No.  band energies     occupation 
      1       8.0560      1.00000
      2       9.1311      1.00000
      3      12.9478      1.00000
      4      13.5690      1.00000
      5      14.1909      1.00000
      6      14.5852      0.00000
      7      32.5708      0.00000
      8      33.8035      0.00000
      9      34.8978      0.00000
     10      39.2890      0.00000
     11      45.6404      0.00000
     12      52.0650      0.00000

 k-point    31 :      -0.1875   -0.3125    0.0625
  band No.  band energies     occupation 
      1       8.0542      1.00000
      2       9.7557      1.00000
      3      11.5442      1.00000
      4      12.8583      1.00000
      5      13.5743      1.00000
      6      14.5484      0.00030
      7      32.5250      0.00000
      8      35.1205      0.00000
      9      37.7065      0.00000
     10      42.0340      0.00000
     11      48.6561      0.00000
     12      51.9775      0.00000

 k-point    32 :      -0.1875   -0.1875    0.0625
  band No.  band energies     occupation 
      1       6.7050      1.00000
      2      10.1586      1.00000
      3      11.9796      1.00000
      4      12.4307      1.00000
      5      12.7626      1.00000
      6      13.6480      1.00000
      7      36.5629      0.00000
      8      38.7531      0.00000
      9      39.2759      0.00000
     10      41.1189      0.00000
     11      48.9528      0.00000
     12      52.1853      0.00000

 k-point    33 :       0.1875    0.1875    0.1875
  band No.  band energies     occupation 
      1       5.5090      1.00000
      2      10.9603      1.00000
      3      11.7193      1.00000
      4      11.7193      1.00000
      5      13.0997      1.00000
      6      13.0997      1.00000
      7      35.6354      0.00000
      8      40.8513      0.00000
      9      45.3738      0.00000
     10      45.3738      0.00000
     11      50.6747      0.00000
     12      51.4879      0.00000

 k-point    34 :       0.3125    0.1875    0.1875
  band No.  band energies     occupation 
      1       6.7468      1.00000
      2      10.5902      1.00000
      3      11.6485      1.00000
      4      12.0747      1.00000
      5      12.6387      1.00000
      6      13.9536      1.00000
      7      33.9146      0.00000
      8      36.6697      0.00000
      9      44.7729      0.00000
     10      46.8766      0.00000
     11      47.6294      0.00000
     12      50.8851      0.00000

 k-point    35 :       0.4375    0.1875    0.1875
  band No.  band energies     occupation 
      1       8.5112      1.00000
      2      10.4386      1.00000
      3      11.0840      1.00000
      4      12.2129      1.00000
      5      12.9458      1.00000
      6      15.5235      0.00000
      7      30.1515      0.00000
      8      33.1677      0.00000
      9      42.6761      0.00000
     10      44.4052      0.00000
     11      48.9344      0.00000
     12      51.3393      0.00000

 k-point    36 :      -0.4375    0.1875    0.1875
  band No.  band energies     occupation 
      1       8.9231      1.00000
      2      10.4884      1.00000
      3      11.4109      1.00000
      4      12.0275      1.00000
      5      13.9200      1.00000
      6      17.8081      0.00000
      7      24.6678      0.00000
      8      33.3559      0.00000
      9      40.8834      0.00000
     10      40.9666      0.00000
     11      50.9764      0.00000
     12      52.2992      0.00000

 k-point    37 :      -0.3125    0.1875    0.1875
  band No.  band energies     occupation 
      1       8.7601      1.00000
      2      10.2782      1.00000
      3      11.4898      1.00000
      4      12.1349      1.00000
      5      14.4385      0.37204
      6      17.5443      0.00000
      7      24.5946      0.00000
      8      34.6568      0.00000
      9      38.6084      0.00000
     10      40.8605      0.00000
     11      51.1873      0.00000
     12      53.1936      0.00000

 k-point    38 :      -0.1875    0.1875    0.1875
  band No.  band energies     occupation 
      1       8.2235      1.00000
      2       9.9923      1.00000
      3      11.3801      1.00000
      4      12.4044      1.00000
      5      14.1962      1.00000
      6      14.6077      0.00000
      7      30.0565      0.00000
      8      36.7074      0.00000
      9      38.1147      0.00000
     10      41.6452      0.00000
     11      50.4396      0.00000
     12      52.3883      0.00000

 k-point    39 :       0.3125    0.3125    0.1875
  band No.  band energies     occupation 
      1       7.3394      1.00000
      2      10.4222      1.00000
      3      11.5306      1.00000
      4      12.0472      1.00000
      5      13.5140      1.00000
      6      13.8484      1.00000
      7      31.7366      0.00000
      8      38.7317      0.00000
      9      40.4028      0.00000
     10      44.0557      0.00000
     11      50.6794      0.00000
     12      51.5539      0.00000

 k-point    40 :       0.4375    0.3125    0.1875
  band No.  band energies     occupation 
      1       8.6213      1.00000
      2      10.0336      1.00000
      3      11.0049      1.00000
      4      12.6892      1.00000
      5      13.3780      1.00000
      6      15.5680      0.00000
      7      30.3950      0.00000
      8      33.3299      0.00000
      9      38.4387      0.00000
     10      45.0500      0.00000
     11      49.1159      0.00000
     12      51.0081      0.00000

 k-point    41 :      -0.4375    0.3125    0.1875
  band No.  band energies     occupation 
      1       9.5128      1.00000
      2      10.0363      1.00000
      3      10.5077      1.00000
      4      12.8039      1.00000
[...]
      5      15.7567      0.00000
      6      20.8147      0.00000
      7      26.7530      0.00000
      8      28.8172      0.00000
      9      34.3675      0.00000
     10      40.3867      0.00000
     11      49.7389      0.00000
     12      54.5682      0.00000

 k-point    49 :      -0.3125   -0.4375    0.1875
  band No.  band energies     occupation 
      1       9.3489      1.00000
      2      10.1322      1.00000
      3      12.8294      1.00000
      4      14.7475      0.00000
      5      15.9045      0.00000
      6      21.5906      0.00000
      7      27.2453      0.00000
      8      28.6576      0.00000
      9      31.4058      0.00000
     10      43.7618      0.00000
     11      50.3989      0.00000
     12      54.3541      0.00000

 k-point    50 :      -0.3125   -0.3125    0.1875
  band No.  band energies     occupation 
      1       9.2171      1.00000
      2      10.0361      1.00000
      3      13.1103      1.00000
      4      14.5630      0.00006
      5      15.8239      0.00000
      6      19.0291      0.00000
      7      27.7379      0.00000
      8      30.9277      0.00000
      9      35.0922      0.00000
     10      40.4886      0.00000
     11      49.9506      0.00000
     12      54.4965      0.00000

 k-point    51 :       0.3125    0.3125    0.3125
  band No.  band energies     occupation 
      1       7.6355      1.00000
      2      11.9570      1.00000
      3      12.7126      1.00000
      4      12.7126      1.00000
      5      14.9203      0.00000
      6      14.9203      0.00000
      7      29.7098      0.00000
      8      39.2906      0.00000
      9      45.1430      0.00000
     10      45.1430      0.00000
     11      49.3393      0.00000
     12      49.3393      0.00000

 k-point    52 :       0.4375    0.3125    0.3125
  band No.  band energies     occupation 
      1       8.6550      1.00000
      2      11.7940      1.00000
      3      12.2737      1.00000
      4      12.9311      1.00000
      5      14.7099      0.00000
      6      16.4091      0.00000
      7      28.1729      0.00000
      8      36.1736      0.00000
      9      42.2647      0.00000
     10      44.9809      0.00000
     11      49.5360      0.00000
     12      50.0362      0.00000

 k-point    53 :      -0.4375    0.3125    0.3125
  band No.  band energies     occupation 
      1      10.0819      1.00000
      2      11.1335      1.00000
      3      11.5672      1.00000
      4      13.6266      1.00000
      5      14.7590      0.00000
      6      18.9683      0.00000
      7      27.2131      0.00000
      8      30.7944      0.00000
      9      40.7645      0.00000
     10      41.1829      0.00000
     11      52.5040      0.00000
     12      53.8406      0.00000

 k-point    54 :      -0.3125    0.3125    0.3125
  band No.  band energies     occupation 
      1      10.0312      1.00000
      2      10.3886      1.00000
      3      12.2172      1.00000
      4      14.1944      1.00000
      5      15.3395      0.00000
      6      22.2168      0.00000
      7      24.2167      0.00000
      8      29.2566      0.00000
      9      37.1897      0.00000
     10      40.6155      0.00000
     11      53.6943      0.00000
     12      56.5069      0.00000

 k-point    55 :       0.4375    0.4375    0.3125
  band No.  band energies     occupation 
      1       8.8732      1.00000
      2      11.7251      1.00000
      3      12.4152      1.00000
      4      12.9229      1.00000
      5      15.6733      0.00000
      6      16.4286      0.00000
      7      26.3974      0.00000
      8      37.2452      0.00000
      9      40.5263      0.00000
     10      42.5725      0.00000
     11      50.9348      0.00000
     12      51.9553      0.00000

 k-point    56 :      -0.4375    0.4375    0.3125
  band No.  band energies     occupation 
      1       9.7986      1.00000
      2      10.9830      1.00000
      3      11.9791      1.00000
      4      13.5225      1.00000
      5      15.4303      0.00000
      6      19.0612      0.00000
      7      25.3806      0.00000
      8      33.6453      0.00000
      9      36.4357      0.00000
     10      44.5922      0.00000
     11      49.5216      0.00000
     12      53.7857      0.00000

 k-point    57 :      -0.3125    0.4375    0.3125
  band No.  band energies     occupation 
      1      10.0917      1.00000
      2      10.6418      1.00000
      3      11.7390      1.00000
      4      14.1772      1.00000
      5      15.5841      0.00000
      6      22.7162      0.00000
      7      24.5875      0.00000
      8      29.2782      0.00000
      9      33.3362      0.00000
     10      45.0971      0.00000
     11      51.6716      0.00000
     12      53.7336      0.00000

 k-point    58 :      -0.4375   -0.4375    0.3125
  band No.  band energies     occupation 
      1       9.8681      1.00000
      2      10.5929      1.00000
      3      12.2625      1.00000
      4      13.7676      1.00000
      5      15.5964      0.00000
      6      20.4844      0.00000
      7      24.3258      0.00000
      8      31.8490      0.00000
      9      37.7532      0.00000
     10      40.6572      0.00000
     11      53.6670      0.00000
     12      54.9411      0.00000

 k-point    59 :       0.4375    0.4375    0.4375
  band No.  band energies     occupation 
      1       8.5316      1.00000
      2      12.4430      1.00000
      3      12.4430      1.00000
      4      13.6368      1.00000
      5      15.5849      0.00000
      6      15.5849      0.00000
      7      24.8939      0.00000
      8      38.0880      0.00000
      9      44.6968      0.00000
     10      44.6968      0.00000
     11      47.5574      0.00000
     12      47.5574      0.00000

 k-point    60 :      -0.4375    0.4375    0.4375
  band No.  band energies     occupation 
      1       9.0710      1.00000
      2      11.8294      1.00000
      3      12.7691      1.00000
      4      12.9029      1.00000
      5      15.5454      0.00000
      6      17.6636      0.00000
      7      24.1831      0.00000
      8      36.2868      0.00000
      9      41.4493      0.00000
     10      41.9775      0.00000
     11      50.5380      0.00000
     12      50.6626      0.00000


--------------------------------------------------------------------------------------------------------


 soft charge-density along one line, spin component           1
         0         1         2         3         4         5         6         7         8         9
 total charge-density along one line
 
 soft charge-density along one line, spin component           2
         0         1         2         3         4         5         6         7         8         9
 total charge-density along one line
 
 pseudopotential strength for first ion, spin component:           1
  2.238  -0.000   0.000  -0.000   0.000   1.498  -0.000   0.000
 -0.000   2.238  -0.000  -0.000   0.000  -0.000   1.498  -0.000
  0.000  -0.000   2.242  -0.000  -0.000   0.000  -0.000   1.502
 -0.000  -0.000  -0.000   2.238  -0.000  -0.000  -0.000  -0.000
  0.000   0.000  -0.000  -0.000   2.242   0.000   0.000  -0.000
  1.498  -0.000   0.000  -0.000   0.000   0.821  -0.000   0.000
 -0.000   1.498  -0.000  -0.000   0.000  -0.000   0.821  -0.000
  0.000  -0.000   1.502  -0.000  -0.000   0.000  -0.000   0.825
 -0.000  -0.000  -0.000   1.498  -0.000  -0.000  -0.000  -0.000
  0.000   0.000  -0.000  -0.000   1.502   0.000   0.000  -0.000
  0.000   0.000   0.000   0.000  -0.000   0.000   0.000   0.000
  0.000   0.000   0.000   0.000  -0.000   0.000   0.000   0.000
  0.000   0.000   0.000  -0.000  -0.000  -0.000   0.000   0.000
 -0.000   0.000  -0.000   0.000   0.000  -0.000  -0.000   0.000
 -0.000  -0.000   0.000  -0.000  -0.000  -0.000  -0.000   0.000
 -0.000  -0.000   0.000   0.000   0.000  -0.000  -0.000   0.000
 -0.000   0.000  -0.000  -0.000   0.000  -0.000  -0.000   0.000
 -0.000   0.000   0.000   0.000   0.000   0.000  -0.000  -0.000
 pseudopotential strength for first ion, spin component:           2
  3.127  -0.000   0.000  -0.000   0.000   2.350  -0.000   0.000
 -0.000   3.127  -0.000  -0.000   0.000  -0.000   2.350  -0.000
  0.000  -0.000   3.185  -0.000  -0.000   0.000  -0.000   2.406
 -0.000  -0.000  -0.000   3.127  -0.000  -0.000  -0.000  -0.000
  0.000   0.000  -0.000  -0.000   3.185   0.000   0.000  -0.000
  2.350  -0.000   0.000  -0.000   0.000   1.637  -0.000   0.000
 -0.000   2.350  -0.000  -0.000   0.000  -0.000   1.637  -0.000
  0.000  -0.000   2.406  -0.000  -0.000   0.000  -0.000   1.692
 -0.000  -0.000  -0.000   2.350  -0.000  -0.000  -0.000  -0.000
  0.000   0.000  -0.000  -0.000   2.406   0.000   0.000  -0.000
  0.000   0.000  -0.000   0.000  -0.000   0.000   0.000  -0.000
  0.000   0.000  -0.000   0.000  -0.000   0.000   0.000  -0.000
  0.000  -0.000   0.000  -0.000   0.000   0.000  -0.000  -0.000
 -0.000  -0.000  -0.000   0.000  -0.000  -0.000  -0.000  -0.000
 -0.000  -0.000  -0.000  -0.000   0.000  -0.000  -0.000  -0.000
 -0.000  -0.000   0.000  -0.000   0.000   0.000  -0.000   0.000
 -0.000  -0.000  -0.000   0.000  -0.000  -0.000  -0.000  -0.000
 -0.000  -0.000  -0.000  -0.000   0.000  -0.000  -0.000  -0.000
 total augmentation occupancy for first ion, spin component:           1
  3.060   0.000   0.000  -0.000  -0.000  -2.350  -0.000  -0.000   0.000   0.000  -0.000   0.000   0.000   0.000   0.000   0.000
  0.000   3.060   0.000   0.000   0.000  -0.000  -2.350   0.000  -0.000  -0.000   0.000  -0.000   0.000   0.000   0.000   0.000
  0.000   0.000   4.038   0.000   0.000  -0.000  -0.000  -2.863   0.000   0.000   0.000  -0.000   0.000   0.000   0.000   0.000
 -0.000   0.000  -0.000   3.060  -0.000  -0.000  -0.000  -0.000  -2.350   0.000   0.000  -0.000   0.000   0.000   0.000   0.000
 -0.000   0.000   0.000  -0.000   4.038   0.000   0.000   0.000   0.000  -2.863  -0.000   0.000   0.000   0.000   0.000   0.000
 -2.350  -0.000  -0.000   0.000  -0.000   3.202   0.000   0.000   0.000   0.000   0.000  -0.000   0.000   0.000   0.000   0.000
 -0.000  -2.350  -0.000  -0.000  -0.000   0.000   3.202   0.000  -0.000  -0.000  -0.000  -0.000   0.000   0.000   0.000   0.000
 -0.000  -0.000  -2.863   0.000   0.000   0.000   0.000   3.298   0.000   0.000  -0.000   0.000   0.000   0.000   0.000   0.000
 -0.000  -0.000   0.000  -2.350  -0.000   0.000  -0.000  -0.000   3.202   0.000   0.000  -0.000   0.000   0.000   0.000   0.000
  0.000   0.000   0.000   0.000  -2.863   0.000   0.000   0.000  -0.000   3.298   0.000   0.000   0.000   0.000   0.000   0.000
 -0.000   0.000   0.000  -0.000  -0.000   0.000  -0.000  -0.000  -0.000   0.000   3.128  -0.425   0.000   0.000   0.000   0.000
  0.000  -0.000  -0.000  -0.000  -0.000  -0.000   0.000   0.000  -0.000   0.000  -0.425   0.067   0.000   0.000   0.000   0.000
  0.000   0.000   0.000   0.000   0.000   0.000   0.000   0.000   0.000   0.000   0.000   0.000   0.469   0.000   0.000  -0.043
  0.000   0.000   0.000   0.000   0.000   0.000   0.000   0.000   0.000   0.000   0.000   0.000   0.000   0.469   0.000  -0.000
  0.000   0.000   0.000   0.000   0.000   0.000   0.000   0.000   0.000   0.000   0.000   0.000   0.000   0.000   0.469   0.000
  0.000   0.000   0.000   0.000   0.000   0.000   0.000   0.000   0.000   0.000   0.000   0.000  -0.043   0.000   0.000   0.005
  0.000   0.000   0.000   0.000   0.000   0.000   0.000   0.000   0.000   0.000   0.000   0.000   0.000  -0.043  -0.000   0.000
  0.000   0.000   0.000   0.000   0.000   0.000   0.000   0.000   0.000   0.000   0.000   0.000  -0.000   0.000  -0.043  -0.000
 total augmentation occupancy for first ion, spin component:           2
  1.630   0.000  -0.000   0.000  -0.000  -0.837  -0.000   0.000  -0.000  -0.000   0.000   0.000   0.000   0.000   0.000   0.000
  0.000   1.630   0.000   0.000   0.000  -0.000  -0.837  -0.000  -0.000   0.000   0.000  -0.000   0.000   0.000   0.000   0.000
  0.000   0.000   1.770  -0.000  -0.000  -0.000   0.000  -0.906   0.000  -0.000   0.000   0.000   0.000   0.000   0.000   0.000
  0.000   0.000   0.000   1.630  -0.000  -0.000  -0.000  -0.000  -0.837  -0.000   0.000  -0.000   0.000   0.000   0.000   0.000
 -0.000  -0.000  -0.000  -0.000   1.770   0.000  -0.000  -0.000   0.000  -0.906  -0.000   0.000   0.000   0.000   0.000   0.000
 -0.837  -0.000  -0.000  -0.000   0.000   0.273   0.000  -0.000   0.000   0.000  -0.000   0.000   0.000   0.000   0.000   0.000
 -0.000  -0.837   0.000  -0.000   0.000   0.000   0.273   0.000   0.000   0.000   0.000  -0.000   0.000   0.000   0.000   0.000
  0.000   0.000  -0.906  -0.000   0.000   0.000   0.000   0.322  -0.000  -0.000   0.000  -0.000   0.000   0.000   0.000   0.000
 -0.000  -0.000   0.000  -0.837   0.000   0.000   0.000   0.000   0.273  -0.000   0.000   0.000   0.000   0.000   0.000   0.000
 -0.000  -0.000  -0.000   0.000  -0.906   0.000   0.000   0.000  -0.000   0.322   0.000   0.000   0.000   0.000   0.000   0.000
  0.000   0.000   0.000   0.000   0.000  -0.000   0.000   0.000  -0.000  -0.000  -0.250   0.076   0.000   0.000   0.000   0.000
  0.000  -0.000   0.000   0.000   0.000   0.000  -0.000   0.000  -0.000   0.000   0.076  -0.015   0.000   0.000   0.000   0.000
  0.000   0.000   0.000   0.000   0.000   0.000   0.000   0.000   0.000   0.000   0.000   0.000  -0.027   0.000  -0.000   0.004
  0.000   0.000   0.000   0.000   0.000   0.000   0.000   0.000   0.000   0.000   0.000   0.000   0.000  -0.027   0.000   0.000
  0.000   0.000   0.000   0.000   0.000   0.000   0.000   0.000   0.000   0.000   0.000   0.000   0.000   0.000  -0.027  -0.000
  0.000   0.000   0.000   0.000   0.000   0.000   0.000   0.000   0.000   0.000   0.000   0.000   0.004   0.000  -0.000  -0.001
  0.000   0.000   0.000   0.000   0.000   0.000   0.000   0.000   0.000   0.000   0.000   0.000   0.000   0.004  -0.000  -0.000
  0.000   0.000   0.000   0.000   0.000   0.000   0.000   0.000   0.000   0.000   0.000   0.000  -0.000  -0.000   0.004   0.000


------------------------ aborting loop because EDIFF is reached ----------------------------------------





 total charge

# of ion       s       p       d       tot
------------------------------------------
    1        0.617   0.787   7.500   8.904



 magnetization (x)

# of ion       s       p       d       tot
------------------------------------------
    1       -0.013  -0.039   1.123   1.071
 
    CHARGE:  cpu time      0.0098: real time      0.0098
    FORLOC:  cpu time      0.0000: real time      0.0000
    FORNL :  cpu time      0.0063: real time      0.0063
    STRESS:  cpu time      0.0237: real time      0.0238
    FORCOR:  cpu time      0.0025: real time      0.0025
    FORHAR:  cpu time      0.0003: real time      0.0003
    MIXING:  cpu time      0.0002: real time      0.0002
    OFIELD:  cpu time      0.0000: real time      0.0000

  FORCE on cell =-STRESS in cart. coord.  units (eV):
  Direction    XX          YY          ZZ          XY          YZ          ZX
  --------------------------------------------------------------------------------------
  Alpha Z    50.37920    50.37920    50.37920
  Ewald    -276.12293  -276.12293  -276.12293     0.00000    -0.00000    -0.00000
  Hartree    35.48996    35.48996    35.48996     0.00000     0.00000     0.00000
  E(xc)     -47.20523   -47.20523   -47.20523     0.00000     0.00000     0.00000
  Local       8.32510     8.32510     8.32510     0.00003     0.00003     0.00003
  n-local     0.72966     2.17440    -2.05893     2.52694    -2.47678     0.02858
  augment   153.67517   153.67517   153.67517    -0.00003    -0.00003    -0.00003
  Kinetic    78.50083    79.64980    81.74929    -0.50820     0.50512    -0.01969
  Fock        0.00000     0.00000     0.00000     0.00000     0.00000     0.00000
  -------------------------------------------------------------------------------------
  Total       4.78963     4.78963     4.78963     0.00000     0.00000     0.00000
  in kB     912.70694   912.70694   912.70694     0.00000     0.00000     0.00000
  external pressure =      912.71 kB  Pullay stress =        0.00 kB


 VOLUME and BASIS-vectors are now :
 -----------------------------------------------------------------------------
  energy-cutoff  :      400.00
  volume of cell :        8.41
      direct lattice vectors                 reciprocal lattice vectors
     0.000000000  1.613926152  1.613926152    -0.309803518  0.309803518  0.309803518
     1.613926152  0.000000000  1.613926152     0.309803518 -0.309803518  0.309803518
     1.613926152  1.613926152  0.000000000     0.309803518  0.309803518 -0.309803518

  length of vectors
     2.282436253  2.282436253  2.282436253     0.536595434  0.536595434  0.536595434


 FORCES acting on ions
    electron-ion (+dipol)            ewald-force                    non-local-force                 convergence-correction
 -----------------------------------------------------------------------------------------------
   -.314E-15 -.289E-15 0.189E-15   0.286E-15 -.791E-15 0.605E-15   0.000E+00 0.000E+00 0.000E+00   0.112E-14 0.130E-13 0.689E-14
 -----------------------------------------------------------------------------------------------
   -.314E-15 -.289E-15 0.189E-15   0.286E-15 -.791E-15 0.605E-15   0.000E+00 0.000E+00 0.000E+00   0.112E-14 0.130E-13 0.689E-14
 
 
 POSITION                                       TOTAL-FORCE (eV/Angst)
 -----------------------------------------------------------------------------------
      0.00000      0.00000      0.00000         0.000000      0.000000      0.000000
 -----------------------------------------------------------------------------------
    total drift:                                0.000000      0.000000      0.000000


--------------------------------------------------------------------------------------------------------



  FREE ENERGIE OF THE ION-ELECTRON SYSTEM (eV)
  ---------------------------------------------------
  free  energy   TOTEN  =        -6.43529386 eV

  energy  without entropy=       -6.43338033  energy(sigma->0) =       -6.43433710
 


--------------------------------------------------------------------------------------------------------


    POTLOK:  cpu time      0.0071: real time      0.0071


--------------------------------------------------------------------------------------------------------




--------------------------------------------------------------------------------------------------------


  
 reached required accuracy - stopping structural energy minimisation
 writing wavefunctions
     LOOP+:  cpu time      3.8857: real time      3.9756
    4ORBIT:  cpu time      0.0000: real time      0.0000



 total charge

# of ion       s       p       d       tot
------------------------------------------
    1        0.617   0.787   7.500   8.904



 magnetization (x)

# of ion       s       p       d       tot
------------------------------------------
    1       -0.013  -0.039   1.123   1.071
 

 total amount of memory used by VASP MPI-rank0    30798. kBytes
=======================================================================

   base      :      30000. kBytes
   nonl-proj :        207. kBytes
   fftplans  :         90. kBytes
   grid      :        217. kBytes
   one-center:         31. kBytes
   wavefun   :        253. kBytes
 
  
  
 General timing and accounting informations for this job:
 ========================================================
  
                  Total CPU time used (sec):        4.795
                            User time (sec):        4.254
                          System time (sec):        0.542
                         Elapsed time (sec):        6.209
  
                   Maximum memory used (kb):      236128.
                   Average memory used (kb):          N/A
  
                          Minor page faults:        19258
                          Major page faults:           88
                 Voluntary context switches:         2243
