PROCAR lm decomposed
# of k-points:   60         # of bands:   12         # of ions:    1

 k-point     1 :    0.06250000 0.06250000 0.06250000     weight = 0.00390625

band     1 # energy    4.10241353 # occ.  1.00000000
 
ion      s     py     pz     px    dxy    dyz    dz2    dxz  x2-y2    tot
    1  0.968  0.006  0.006  0.006  0.000  0.000  0.000  0.000  0.000  0.985
 
band     2 # energy   11.33774675 # occ.  1.00000000
 
ion      s     py     pz     px    dxy    dyz    dz2    dxz  x2-y2    tot
    1  0.000  0.001  0.001  0.001  0.333  0.333  0.000  0.333  0.000  1.001
 
band     3 # energy   11.46200267 # occ.  1.00000000
 
ion      s     py     pz     px    dxy    dyz    dz2    dxz  x2-y2    tot
    1  0.000  0.000  0.000  0.000  0.514  0.011  0.001  0.475  0.000  1.001
 
band     4 # energy   11.46200267 # occ.  1.00000000
 
ion      s     py     pz     px    dxy    dyz    dz2    dxz  x2-y2    tot
    1  0.000  0.000  0.000  0.000  0.152  0.656  0.000  0.192  0.001  1.001
 
band     5 # energy   13.12425029 # occ.  1.00000000
 
ion      s     py     pz     px    dxy    dyz    dz2    dxz  x2-y2    tot
    1  0.000  0.000  0.000  0.000  0.001  0.000  0.841  0.000  0.151  0.994
 
band     6 # energy   13.12425029 # occ.  1.00000000
 
ion      s     py     pz     px    dxy    dyz    dz2    dxz  x2-y2    tot
    1  0.000  0.000  0.000  0.000  0.000  0.001  0.151  0.000  0.841  0.994
 
band     7 # energy   39.45001729 # occ.  0.00000000
 
ion      s     py     pz     px    dxy    dyz    dz2    dxz  x2-y2    tot
    1  0.000  0.002  0.002  0.002  0.041  0.041  0.000  0.041  0.000  0.129
 
band     8 # energy   44.09124220 # occ.  0.00000000
 
ion      s     py     pz     px    dxy    dyz    dz2    dxz  x2-y2    tot
    1  0.030  0.067  0.067  0.067  0.051  0.051  0.000  0.051  0.000  0.383
 
band     9 # energy   45.91777644 # occ.  0.00000000
 
ion      s     py     pz     px    dxy    dyz    dz2    dxz  x2-y2    tot
    1  0.000  0.020  0.060  0.143  0.032  0.076  0.013  0.011  0.018  0.372
 
band    10 # energy   45.91777644 # occ.  0.00000000
 
ion      s     py     pz     px    dxy    dyz    dz2    dxz  x2-y2    tot
    1  0.000  0.128  0.089  0.006  0.047  0.003  0.018  0.068  0.013  0.372
 
band    11 # energy   50.81289781 # occ.  0.00000000
 
ion      s     py     pz     px    dxy    dyz    dz2    dxz  x2-y2    tot
    1  2.676  0.009  0.009  0.009  0.187  0.191  0.000  0.194  0.000  3.276
 
band    12 # energy   51.19139494 # occ.  0.00000000
 
ion      s     py     pz     px    dxy    dyz    dz2    dxz  x2-y2    tot
    1  0.000  0.000  0.000  0.000  0.406  1.117  0.002  0.204  0.004  1.732
 

 k-point     2 :    0.18750000 0.06250000 0.06250000     weight = 0.01171875

band     1 # energy    5.07000987 # occ.  1.00000000
 
ion      s     py     pz     px    dxy    dyz    dz2    dxz  x2-y2    tot
    1  0.879  0.046  0.046  0.005  0.001  0.007  0.000  0.001  0.001  0.987
 
band     2 # energy   11.00491848 # occ.  1.00000000
 
ion      s     py     pz     px    dxy    dyz    dz2    dxz  x2-y2    tot
    1  0.001  0.002  0.002  0.012  0.473  0.035  0.000  0.473  0.000  0.997
 
band     3 # energy   11.70260342 # occ.  1.00000000
 
ion      s     py     pz     px    dxy    dyz    dz2    dxz  x2-y2    tot
    1  0.001  0.005  0.005  0.000  0.017  0.873  0.020  0.017  0.059  0.997
 
band     4 # energy   11.70330475 # occ.  1.00000000
 
ion      s     py     pz     px    dxy    dyz    dz2    dxz  x2-y2    tot
    1  0.000  0.000  0.000  0.000  0.489  0.000  0.014  0.489  0.005  0.997
 
band     5 # energy   12.87438271 # occ.  1.00000000
 
ion      s     py     pz     px    dxy    dyz    dz2    dxz  x2-y2    tot
    1  0.000  0.000  0.000  0.000  0.009  0.000  0.727  0.009  0.242  0.989
 
band     6 # energy   13.24314254 # occ.  1.00000000
 
ion      s     py     pz     px    dxy    dyz    dz2    dxz  x2-y2    tot
    1  0.002  0.001  0.001  0.000  0.001  0.074  0.228  0.001  0.684  0.991
 
band     7 # energy   37.67638362 # occ.  0.00000000
 
ion      s     py     pz     px    dxy    dyz    dz2    dxz  x2-y2    tot
    1  0.018  0.030  0.030  0.090  0.251  0.094  0.001  0.251  0.002  0.768
 
band     8 # energy   40.37261432 # occ.  0.00000000
 
ion      s     py     pz     px    dxy    dyz    dz2    dxz  x2-y2    tot
    1  0.047  0.061  0.061  0.003  0.035  0.150  0.010  0.035  0.029  0.432
 
band     9 # energy   44.51516483 # occ.  0.00000000
 
ion      s     py     pz     px    dxy    dyz    dz2    dxz  x2-y2    tot
    1  0.000  0.009  0.009  0.234  0.055  0.104  0.005  0.055  0.014  0.486
 
band    10 # energy   47.10713136 # occ.  0.00000000
 
ion      s     py     pz     px    dxy    dyz    dz2    dxz  x2-y2    tot
    1  0.000  0.066  0.066  0.000  0.068  0.000  0.233  0.068  0.078  0.579
 
band    11 # energy   49.12528336 # occ.  0.00000000
 
ion      s     py     pz     px    dxy    dyz    dz2    dxz  x2-y2    tot
    1  0.004  0.079  0.079  0.007  0.000  0.542  0.010  0.000  0.031  0.753
 
band    12 # energy   51.19216262 # occ.  0.00000000
 
ion      s     py     pz     px    dxy    dyz    dz2    dxz  x2-y2    tot
    1  0.000  0.008  0.008  0.000  0.748  0.000  0.061  0.748  0.020  1.595
 

 k-point     3 :    0.31250000 0.06250000 0.06250000     weight = 0.01171875

band     1 # energy    6.97898317 # occ.  1.00000000
 
ion      s     py     pz     px    dxy    dyz    dz2    dxz  x2-y2    tot
    1  0.635  0.084  0.084  0.022  0.046  0.074  0.001  0.046  0.003  0.996
 
band     2 # energy   10.83933618 # occ.  1.00000000
 
ion      s     py     pz     px    dxy    dyz    dz2    dxz  x2-y2    tot
    1  0.038  0.041  0.041  0.057  0.376  0.056  0.001  0.376  0.002  0.988
 
band     3 # energy   11.64455208 # occ.  1.00000000
 
ion      s     py     pz     px    dxy    dyz    dz2    dxz  x2-y2    tot
    1  0.000  0.006  0.006  0.000  0.038  0.503  0.100  0.038  0.300  0.991
 
band     4 # energy   11.76090334 # occ.  1.00000000
 
ion      s     py     pz     px    dxy    dyz    dz2    dxz  x2-y2    tot
    1  0.000  0.000  0.000  0.000  0.293  0.000  0.303  0.293  0.101  0.992
 
band     5 # energy   13.13837679 # occ.  1.00000000
 
ion      s     py     pz     px    dxy    dyz    dz2    dxz  x2-y2    tot
    1  0.000  0.001  0.001  0.000  0.201  0.000  0.434  0.201  0.145  0.984
 
band     6 # energy   13.79578382 # occ.  1.00000000
 
ion      s     py     pz     px    dxy    dyz    dz2    dxz  x2-y2    tot
    1  0.012  0.008  0.008  0.000  0.017  0.345  0.145  0.017  0.436  0.989
 
band     7 # energy   31.45050932 # occ.  0.00000000
 
ion      s     py     pz     px    dxy    dyz    dz2    dxz  x2-y2    tot
    1  0.125  0.076  0.076  0.137  0.205  0.168  0.002  0.205  0.005  1.000
 
band     8 # energy   38.97167305 # occ.  0.00000000
 
ion      s     py     pz     px    dxy    dyz    dz2    dxz  x2-y2    tot
    1  0.021  0.007  0.007  0.061  0.125  0.034  0.019  0.125  0.056  0.457
 
band     9 # energy   43.61840885 # occ.  0.00000000
 
ion      s     py     pz     px    dxy    dyz    dz2    dxz  x2-y2    tot
    1  0.004  0.078  0.078  0.168  0.031  0.281  0.010  0.031  0.029  0.711
 
band    10 # energy   47.31271731 # occ.  0.00000000
 
ion      s     py     pz     px    dxy    dyz    dz2    dxz  x2-y2    tot
    1  0.000  0.046  0.046  0.000  0.274  0.000  0.412  0.274  0.137  1.189
 
band    11 # energy   48.71658367 # occ.  0.00000000
 
ion      s     py     pz     px    dxy    dyz    dz2    dxz  x2-y2    tot
    1  0.000  0.152  0.152  0.000  0.106  0.000  0.340  0.106  0.113  0.971
 
band    12 # energy   48.99758454 # occ.  0.00000000
 
ion      s     py     pz     px    dxy    dyz    dz2    dxz  x2-y2    tot
    1  0.325  0.059  0.059  0.011  0.009  0.002  0.073  0.009  0.219  0.765
 

 k-point     4 :    0.43750000 0.06250000 0.06250000     weight = 0.01171875

band     1 # energy    8.00178001 # occ.  1.00000000
 
ion      s     py     pz     px    dxy    dyz    dz2    dxz  x2-y2    tot
    1  0.291  0.026  0.026  0.001  0.219  0.232  0.000  0.219  0.001  1.015
 
band     2 # energy   11.30982173 # occ.  1.00000000
 
ion      s     py     pz     px    dxy    dyz    dz2    dxz  x2-y2    tot
    1  0.000  0.005  0.005  0.000  0.047  0.304  0.145  0.047  0.436  0.989
 
band     3 # energy   11.46682108 # occ.  1.00000000
 
ion      s     py     pz     px    dxy    dyz    dz2    dxz  x2-y2    tot
    1  0.000  0.000  0.000  0.000  0.200  0.000  0.444  0.200  0.148  0.991
 
band     4 # energy   12.26960577 # occ.  1.00000000
 
ion      s     py     pz     px    dxy    dyz    dz2    dxz  x2-y2    tot
    1  0.077  0.164  0.164  0.163  0.167  0.017  0.013  0.167  0.038  0.971
 
band     5 # energy   13.95752794 # occ.  1.00000000
 
ion      s     py     pz     px    dxy    dyz    dz2    dxz  x2-y2    tot
    1  0.000  0.001  0.001  0.000  0.297  0.000  0.295  0.297  0.098  0.988
 
band     6 # energy   14.80038236 # occ.  0.00000000
 
ion      s     py     pz     px    dxy    dyz    dz2    dxz  x2-y2    tot
    1  0.036  0.056  0.056  0.032  0.019  0.415  0.089  0.019  0.268  0.989
 
band     7 # energy   25.66942953 # occ.  0.00000000
 
ion      s     py     pz     px    dxy    dyz    dz2    dxz  x2-y2    tot
    1  0.316  0.045  0.045  0.103  0.190  0.159  0.001  0.190  0.003  1.052
 
band     8 # energy   37.97083047 # occ.  0.00000000
 
ion      s     py     pz     px    dxy    dyz    dz2    dxz  x2-y2    tot
    1  0.006  0.000  0.000  0.059  0.055  0.024  0.024  0.055  0.072  0.297
 
band     9 # energy   42.57614786 # occ.  0.00000000
 
ion      s     py     pz     px    dxy    dyz    dz2    dxz  x2-y2    tot
    1  0.024  0.104  0.104  0.231  0.045  0.083  0.018  0.045  0.055  0.710
 
band    10 # energy   45.13673110 # occ.  0.00000000
 
ion      s     py     pz     px    dxy    dyz    dz2    dxz  x2-y2    tot
    1  0.000  0.223  0.223  0.000  0.001  0.000  0.259  0.001  0.086  0.792
 
band    11 # energy   47.65016611 # occ.  0.00000000
 
ion      s     py     pz     px    dxy    dyz    dz2    dxz  x2-y2    tot
    1  0.000  0.039  0.039  0.000  0.298  0.000  0.547  0.298  0.182  1.402
 
band    12 # energy   49.12221551 # occ.  0.00000000
 
ion      s     py     pz     px    dxy    dyz    dz2    dxz  x2-y2    tot
    1  0.315  0.016  0.016  0.010  0.000  0.251  0.177  0.000  0.532  1.319
 

 k-point     5 :   -0.43750000 0.06250000 0.06250000     weight = 0.01171875

band     1 # energy    8.06694326 # occ.  1.00000000
 
ion      s     py     pz     px    dxy    dyz    dz2    dxz  x2-y2    tot
    1  0.219  0.000  0.000  0.010  0.255  0.280  0.000  0.255  0.000  1.020
 
band     2 # energy   11.16845268 # occ.  1.00000000
 
ion      s     py     pz     px    dxy    dyz    dz2    dxz  x2-y2    tot
    1  0.000  0.005  0.005  0.001  0.066  0.210  0.159  0.066  0.476  0.988
 
band     3 # energy   11.38796981 # occ.  1.00000000
 
ion      s     py     pz     px    dxy    dyz    dz2    dxz  x2-y2    tot
    1  0.000  0.001  0.001  0.000  0.196  0.000  0.450  0.196  0.150  0.992
 
band     4 # energy   13.07799893 # occ.  1.00000000
 
ion      s     py     pz     px    dxy    dyz    dz2    dxz  x2-y2    tot
    1  0.004  0.154  0.154  0.154  0.047  0.289  0.031  0.047  0.092  0.971
 
band     5 # energy   14.39034685 # occ.  0.84952321
 
ion      s     py     pz     px    dxy    dyz    dz2    dxz  x2-y2    tot
    1  0.000  0.000  0.000  0.000  0.302  0.000  0.291  0.302  0.097  0.993
 
band     6 # energy   15.46785218 # occ.  0.00000000
 
ion      s     py     pz     px    dxy    dyz    dz2    dxz  x2-y2    tot
    1  0.005  0.143  0.143  0.165  0.067  0.149  0.059  0.067  0.177  0.975
 
band     7 # energy   23.43442461 # occ.  0.00000000
 
ion      s     py     pz     px    dxy    dyz    dz2    dxz  x2-y2    tot
    1  0.467  0.012  0.012  0.000  0.189  0.202  0.000  0.189  0.000  1.070
 
band     8 # energy   37.74093081 # occ.  0.00000000
 
ion      s     py     pz     px    dxy    dyz    dz2    dxz  x2-y2    tot
    1  0.000  0.006  0.006  0.031  0.008  0.047  0.024  0.008  0.072  0.200
 
band     9 # energy   42.94366917 # occ.  0.00000000
 
ion      s     py     pz     px    dxy    dyz    dz2    dxz  x2-y2    tot
    1  0.000  0.237  0.237  0.000  0.055  0.000  0.184  0.055  0.061  0.830
 
band    10 # energy   43.08578425 # occ.  0.00000000
 
ion      s     py     pz     px    dxy    dyz    dz2    dxz  x2-y2    tot
    1  0.043  0.081  0.081  0.309  0.023  0.001  0.036  0.023  0.107  0.703
 
band    11 # energy   48.45975309 # occ.  0.00000000
 
ion      s     py     pz     px    dxy    dyz    dz2    dxz  x2-y2    tot
    1  0.060  0.004  0.004  0.028  0.039  0.390  0.205  0.039  0.615  1.386
 
band    12 # energy   48.56442549 # occ.  0.00000000
 
ion      s     py     pz     px    dxy    dyz    dz2    dxz  x2-y2    tot
    1  0.000  0.048  0.048  0.000  0.196  0.000  0.599  0.196  0.200  1.286
 

 k-point     6 :   -0.31250000 0.06250000 0.06250000     weight = 0.01171875

band     1 # energy    7.83974314 # occ.  1.00000000
 
ion      s     py     pz     px    dxy    dyz    dz2    dxz  x2-y2    tot
    1  0.380  0.017  0.017  0.067  0.170  0.183  0.002  0.170  0.005  1.010
 
band     2 # energy   11.35862371 # occ.  1.00000000
 
ion      s     py     pz     px    dxy    dyz    dz2    dxz  x2-y2    tot
    1  0.006  0.019  0.019  0.016  0.128  0.056  0.152  0.128  0.457  0.982
 
band     3 # energy   11.59514540 # occ.  1.00000000
 
ion      s     py     pz     px    dxy    dyz    dz2    dxz  x2-y2    tot
    1  0.000  0.002  0.002  0.000  0.241  0.000  0.380  0.241  0.127  0.992
 
band     4 # energy   11.59854379 # occ.  1.00000000
 
ion      s     py     pz     px    dxy    dyz    dz2    dxz  x2-y2    tot
    1  0.087  0.107  0.107  0.112  0.003  0.559  0.000  0.003  0.001  0.982
 
band     5 # energy   14.08738039 # occ.  1.00000000
 
ion      s     py     pz     px    dxy    dyz    dz2    dxz  x2-y2    tot
    1  0.000  0.001  0.001  0.000  0.253  0.000  0.361  0.253  0.120  0.990
 
band     6 # energy   14.09014089 # occ.  1.00000000
 
ion      s     py     pz     px    dxy    dyz    dz2    dxz  x2-y2    tot
    1  0.032  0.019  0.019  0.048  0.171  0.159  0.092  0.171  0.276  0.986
 
band     7 # energy   27.41057134 # occ.  0.00000000
 
ion      s     py     pz     px    dxy    dyz    dz2    dxz  x2-y2    tot
    1  0.240  0.103  0.103  0.047  0.168  0.204  0.001  0.168  0.003  1.039
 
band     8 # energy   38.58552789 # occ.  0.00000000
 
ion      s     py     pz     px    dxy    dyz    dz2    dxz  x2-y2    tot
    1  0.004  0.008  0.008  0.007  0.001  0.118  0.022  0.001  0.065  0.235
 
band     9 # energy   42.36997892 # occ.  0.00000000
 
ion      s     py     pz     px    dxy    dyz    dz2    dxz  x2-y2    tot
    1  0.000  0.214  0.214  0.000  0.192  0.000  0.128  0.192  0.043  0.984
 
band    10 # energy   45.25303836 # occ.  0.00000000
 
ion      s     py     pz     px    dxy    dyz    dz2    dxz  x2-y2    tot
    1  0.077  0.033  0.033  0.337  0.000  0.117  0.054  0.000  0.162  0.814
 
band    11 # energy   48.09215498 # occ.  0.00000000
 
ion      s     py     pz     px    dxy    dyz    dz2    dxz  x2-y2    tot
    1  0.002  0.005  0.005  0.028  0.089  0.308  0.185  0.089  0.555  1.266
 
band    12 # energy   50.29281968 # occ.  0.00000000
 
ion      s     py     pz     px    dxy    dyz    dz2    dxz  x2-y2    tot
    1  0.000  0.057  0.057  0.000  0.040  0.000  0.582  0.040  0.194  0.972
 

 k-point     7 :   -0.18750000 0.06250000 0.06250000     weight = 0.01171875

band     1 # energy    6.32100265 # occ.  1.00000000
 
ion      s     py     pz     px    dxy    dyz    dz2    dxz  x2-y2    tot
    1  0.738  0.035  0.035  0.108  0.027  0.017  0.002  0.027  0.005  0.991
 
band     2 # energy   10.76327937 # occ.  1.00000000
 
ion      s     py     pz     px    dxy    dyz    dz2    dxz  x2-y2    tot
    1  0.015  0.025  0.025  0.017  0.137  0.635  0.000  0.137  0.001  0.992
 
band     3 # energy   11.73514578 # occ.  1.00000000
 
ion      s     py     pz     px    dxy    dyz    dz2    dxz  x2-y2    tot
    1  0.000  0.001  0.001  0.002  0.211  0.234  0.082  0.211  0.247  0.991
 
band     4 # energy   11.81904065 # occ.  1.00000000
 
ion      s     py     pz     px    dxy    dyz    dz2    dxz  x2-y2    tot
    1  0.000  0.003  0.003  0.000  0.376  0.000  0.177  0.376  0.059  0.994
 
band     5 # energy   13.04059121 # occ.  1.00000000
 
ion      s     py     pz     px    dxy    dyz    dz2    dxz  x2-y2    tot
    1  0.009  0.001  0.001  0.009  0.111  0.096  0.162  0.111  0.485  0.986
 
band     6 # energy   13.45647758 # occ.  1.00000000
 
ion      s     py     pz     px    dxy    dyz    dz2    dxz  x2-y2    tot
    1  0.000  0.001  0.001  0.000  0.117  0.000  0.565  0.117  0.188  0.989
 
band     7 # energy   33.59960319 # occ.  0.00000000
 
ion      s     py     pz     px    dxy    dyz    dz2    dxz  x2-y2    tot
    1  0.084  0.108  0.108  0.055  0.184  0.233  0.002  0.184  0.005  0.964
 
band     8 # energy   39.99018455 # occ.  0.00000000
 
ion      s     py     pz     px    dxy    dyz    dz2    dxz  x2-y2    tot
    1  0.022  0.001  0.001  0.004  0.003  0.190  0.016  0.003  0.047  0.285
 
band     9 # energy   42.91779709 # occ.  0.00000000
 
ion      s     py     pz     px    dxy    dyz    dz2    dxz  x2-y2    tot
    1  0.000  0.176  0.176  0.000  0.284  0.000  0.074  0.284  0.025  1.019
 
band    10 # energy   47.13572914 # occ.  0.00000000
 
ion      s     py     pz     px    dxy    dyz    dz2    dxz  x2-y2    tot
    1  0.028  0.030  0.030  0.017  0.000  0.000  0.138  0.000  0.415  0.660
 
band    11 # energy   48.33545287 # occ.  0.00000000
 
ion      s     py     pz     px    dxy    dyz    dz2    dxz  x2-y2    tot
    1  0.097  0.006  0.006  0.268  0.128  0.441  0.001  0.128  0.003  1.079
 
band    12 # energy   51.20455353 # occ.  0.00000000
 
ion      s     py     pz     px    dxy    dyz    dz2    dxz  x2-y2    tot
    1  5.997  0.000  0.000  0.001  0.018  0.014  0.000  0.019  0.001  6.050
 

 k-point     8 :   -0.06250000 0.06250000 0.06250000     weight = 0.01171875

band     1 # energy    4.59708291 # occ.  1.00000000
 
ion      s     py     pz     px    dxy    dyz    dz2    dxz  x2-y2    tot
    1  0.923  0.005  0.005  0.049  0.001  0.000  0.000  0.001  0.001  0.986
 
band     2 # energy   11.11486294 # occ.  1.00000000
 
ion      s     py     pz     px    dxy    dyz    dz2    dxz  x2-y2    tot
    1  0.000  0.002  0.002  0.000  0.060  0.874  0.000  0.060  0.000  0.999
 
band     3 # energy   11.62422196 # occ.  1.00000000
 
ion      s     py     pz     px    dxy    dyz    dz2    dxz  x2-y2    tot
    1  0.000  0.002  0.002  0.001  0.432  0.122  0.002  0.432  0.006  0.999
 
band     4 # energy   11.63144804 # occ.  1.00000000
 
ion      s     py     pz     px    dxy    dyz    dz2    dxz  x2-y2    tot
    1  0.000  0.002  0.002  0.000  0.492  0.000  0.008  0.492  0.003  0.999
 
band     5 # energy   12.90917131 # occ.  1.00000000
 
ion      s     py     pz     px    dxy    dyz    dz2    dxz  x2-y2    tot
    1  0.001  0.000  0.000  0.001  0.003  0.001  0.245  0.003  0.735  0.990
 
band     6 # energy   13.22244515 # occ.  1.00000000
 
ion      s     py     pz     px    dxy    dyz    dz2    dxz  x2-y2    tot
    1  0.000  0.000  0.000  0.000  0.005  0.000  0.737  0.005  0.246  0.993
 
band     7 # energy   38.98820760 # occ.  0.00000000
 
ion      s     py     pz     px    dxy    dyz    dz2    dxz  x2-y2    tot
    1  0.002  0.019  0.019  0.004  0.061  0.282  0.000  0.061  0.000  0.449
 
band     8 # energy   42.06746199 # occ.  0.00000000
 
ion      s     py     pz     px    dxy    dyz    dz2    dxz  x2-y2    tot
    1  0.044  0.046  0.046  0.060  0.071  0.004  0.011  0.071  0.034  0.387
 
band     9 # energy   44.17252831 # occ.  0.00000000
 
ion      s     py     pz     px    dxy    dyz    dz2    dxz  x2-y2    tot
    1  0.000  0.143  0.143  0.000  0.237  0.000  0.014  0.237  0.005  0.779
 
band    10 # energy   45.56884103 # occ.  0.00000000
 
ion      s     py     pz     px    dxy    dyz    dz2    dxz  x2-y2    tot
    1  0.007  0.079  0.079  0.024  0.059  0.013  0.033  0.059  0.100  0.455
 
band    11 # energy   50.89863939 # occ.  0.00000000
 
ion      s     py     pz     px    dxy    dyz    dz2    dxz  x2-y2    tot
    1  0.092  0.001  0.001  0.067  0.402  0.401  0.000  0.402  0.000  1.366
 
band    12 # energy   51.11746504 # occ.  0.00000000
 
ion      s     py     pz     px    dxy    dyz    dz2    dxz  x2-y2    tot
    1  6.028  0.000  0.000  0.005  0.003  0.011  0.002  0.003  0.006  6.057
 

 k-point     9 :    0.18750000 0.18750000 0.06250000     weight = 0.01171875

band     1 # energy    5.52364453 # occ.  1.00000000
 
ion      s     py     pz     px    dxy    dyz    dz2    dxz  x2-y2    tot
    1  0.830  0.005  0.127  0.005  0.000  0.002  0.016  0.002  0.000  0.986
 
band     2 # energy   10.69014994 # occ.  1.00000000
 
ion      s     py     pz     px    dxy    dyz    dz2    dxz  x2-y2    tot
    1  0.000  0.002  0.000  0.002  0.953  0.019  0.000  0.019  0.000  0.996
 
band     3 # energy   11.92230254 # occ.  1.00000000
 
ion      s     py     pz     px    dxy    dyz    dz2    dxz  x2-y2    tot
    1  0.000  0.005  0.000  0.005  0.038  0.419  0.107  0.419  0.000  0.993
 
band     4 # energy   11.96151719 # occ.  1.00000000
 
ion      s     py     pz     px    dxy    dyz    dz2    dxz  x2-y2    tot
    1  0.000  0.006  0.000  0.006  0.000  0.477  0.000  0.477  0.030  0.995
 
band     5 # energy   12.60419925 # occ.  1.00000000
 
ion      s     py     pz     px    dxy    dyz    dz2    dxz  x2-y2    tot
    1  0.012  0.001  0.007  0.001  0.004  0.050  0.862  0.050  0.000  0.986
 
band     6 # energy   13.40517364 # occ.  1.00000000
 
ion      s     py     pz     px    dxy    dyz    dz2    dxz  x2-y2    tot
    1  0.000  0.000  0.000  0.000  0.000  0.015  0.000  0.015  0.962  0.992
 
band     7 # energy   38.05579971 # occ.  0.00000000
 
ion      s     py     pz     px    dxy    dyz    dz2    dxz  x2-y2    tot
    1  0.013  0.066  0.008  0.066  0.422  0.108  0.015  0.108  0.000  0.805
 
band     8 # energy   40.25621919 # occ.  0.00000000
 
ion      s     py     pz     px    dxy    dyz    dz2    dxz  x2-y2    tot
    1  0.037  0.021  0.014  0.021  0.154  0.029  0.162  0.029  0.000  0.467
 
band     9 # energy   41.78128213 # occ.  0.00000000
 
ion      s     py     pz     px    dxy    dyz    dz2    dxz  x2-y2    tot
    1  0.000  0.187  0.000  0.187  0.000  0.274  0.000  0.274  0.013  0.935
 
band    10 # energy   43.44034816 # occ.  0.00000000
 
ion      s     py     pz     px    dxy    dyz    dz2    dxz  x2-y2    tot
    1  0.001  0.095  0.003  0.095  0.032  0.116  0.216  0.116  0.000  0.674
 
band    11 # energy   50.70844147 # occ.  0.00000000
 
ion      s     py     pz     px    dxy    dyz    dz2    dxz  x2-y2    tot
    1  4.951  0.002  0.111  0.002  0.004  0.000  0.043  0.000  0.000  5.114
 
band    12 # energy   52.58659679 # occ.  0.00000000
 
ion      s     py     pz     px    dxy    dyz    dz2    dxz  x2-y2    tot
    1  0.631  0.001  0.179  0.001  0.290  0.139  0.000  0.139  0.000  1.381
 

 k-point    10 :    0.31250000 0.18750000 0.06250000     weight = 0.02343750

band     1 # energy    7.07947246 # occ.  1.00000000
 
ion      s     py     pz     px    dxy    dyz    dz2    dxz  x2-y2    tot
    1  0.636  0.035  0.197  0.003  0.004  0.036  0.070  0.005  0.001  0.987
 
band     2 # energy   10.23736082 # occ.  1.00000000
 
ion      s     py     pz     px    dxy    dyz    dz2    dxz  x2-y2    tot
    1  0.002  0.004  0.002  0.020  0.881  0.006  0.003  0.078  0.000  0.996
 
band     3 # energy   11.62981966 # occ.  1.00000000
 
ion      s     py     pz     px    dxy    dyz    dz2    dxz  x2-y2    tot
    1  0.010  0.007  0.003  0.000  0.019  0.383  0.508  0.017  0.038  0.984
 
band     4 # energy   12.36335234 # occ.  1.00000000
 
ion      s     py     pz     px    dxy    dyz    dz2    dxz  x2-y2    tot
    1  0.002  0.003  0.002  0.008  0.049  0.112  0.042  0.621  0.150  0.990
 
band     5 # energy   12.96327472 # occ.  1.00000000
 
ion      s     py     pz     px    dxy    dyz    dz2    dxz  x2-y2    tot
    1  0.024  0.007  0.026  0.005  0.032  0.135  0.297  0.244  0.218  0.987
 
band     6 # energy   13.92491539 # occ.  1.00000000
 
ion      s     py     pz     px    dxy    dyz    dz2    dxz  x2-y2    tot
    1  0.017  0.007  0.012  0.000  0.001  0.306  0.061  0.004  0.584  0.992
 
band     7 # energy   34.20288276 # occ.  0.00000000
 
ion      s     py     pz     px    dxy    dyz    dz2    dxz  x2-y2    tot
    1  0.056  0.104  0.014  0.181  0.271  0.126  0.041  0.174  0.005  0.973
 
band     8 # energy   36.88764435 # occ.  0.00000000
 
ion      s     py     pz     px    dxy    dyz    dz2    dxz  x2-y2    tot
    1  0.031  0.098  0.002  0.121  0.202  0.130  0.120  0.106  0.024  0.834
 
band     9 # energy   41.04152358 # occ.  0.00000000
 
ion      s     py     pz     px    dxy    dyz    dz2    dxz  x2-y2    tot
    1  0.013  0.126  0.077  0.045  0.029  0.108  0.340  0.044  0.016  0.799
 
band    10 # energy   43.31246886 # occ.  0.00000000
 
ion      s     py     pz     px    dxy    dyz    dz2    dxz  x2-y2    tot
    1  0.025  0.001  0.053  0.118  0.336  0.000  0.110  0.103  0.000  0.746
 
band    11 # energy   50.12062139 # occ.  0.00000000
 
ion      s     py     pz     px    dxy    dyz    dz2    dxz  x2-y2    tot
    1  2.880  0.096  0.191  0.011  0.002  0.054  0.019  0.002  0.000  3.254
 
band    12 # energy   51.99932168 # occ.  0.00000000
 
ion      s     py     pz     px    dxy    dyz    dz2    dxz  x2-y2    tot
    1  2.173  0.109  0.065  0.004  0.016  0.030  0.186  0.005  0.081  2.669
 

 k-point    11 :    0.43750000 0.18750000 0.06250000     weight = 0.02343750

band     1 # energy    8.46204047 # occ.  1.00000000
 
ion      s     py     pz     px    dxy    dyz    dz2    dxz  x2-y2    tot
    1  0.295  0.023  0.126  0.000  0.215  0.149  0.094  0.097  0.001  1.000
 
band     2 # energy   10.44494339 # occ.  1.00000000
 
ion      s     py     pz     px    dxy    dyz    dz2    dxz  x2-y2    tot
    1  0.024  0.068  0.044  0.067  0.339  0.022  0.341  0.058  0.011  0.974
 
band     3 # energy   11.16276385 # occ.  1.00000000
 
ion      s     py     pz     px    dxy    dyz    dz2    dxz  x2-y2    tot
    1  0.038  0.001  0.037  0.011  0.304  0.299  0.251  0.008  0.043  0.993
 
band     4 # energy   12.15671855 # occ.  1.00000000
 
ion      s     py     pz     px    dxy    dyz    dz2    dxz  x2-y2    tot
    1  0.003  0.007  0.009  0.002  0.038  0.082  0.051  0.321  0.473  0.987
 
band     5 # energy   14.01590015 # occ.  1.00000000
 
ion      s     py     pz     px    dxy    dyz    dz2    dxz  x2-y2    tot
    1  0.005  0.002  0.015  0.007  0.040  0.046  0.068  0.455  0.351  0.989
 
band     6 # energy   15.45717953 # occ.  0.00000000
 
ion      s     py     pz     px    dxy    dyz    dz2    dxz  x2-y2    tot
    1  0.091  0.046  0.119  0.023  0.019  0.388  0.180  0.021  0.107  0.995
 
band     7 # energy   27.90341275 # occ.  0.00000000
 
ion      s     py     pz     px    dxy    dyz    dz2    dxz  x2-y2    tot
    1  0.194  0.110  0.015  0.192  0.227  0.117  0.023  0.143  0.005  1.026
 
band     8 # energy   35.99184255 # occ.  0.00000000
 
ion      s     py     pz     px    dxy    dyz    dz2    dxz  x2-y2    tot
    1  0.007  0.057  0.014  0.127  0.168  0.080  0.243  0.042  0.062  0.799
 
band     9 # energy   38.85567944 # occ.  0.00000000
 
ion      s     py     pz     px    dxy    dyz    dz2    dxz  x2-y2    tot
    1  0.072  0.075  0.173  0.126  0.001  0.020  0.239  0.077  0.069  0.852
 
band    10 # energy   43.28458706 # occ.  0.00000000
 
ion      s     py     pz     px    dxy    dyz    dz2    dxz  x2-y2    tot
    1  0.080  0.117  0.119  0.028  0.291  0.030  0.058  0.021  0.009  0.753
 
band    11 # energy   50.59864768 # occ.  0.00000000
 
ion      s     py     pz     px    dxy    dyz    dz2    dxz  x2-y2    tot
    1  0.939  0.070  0.001  0.001  0.201  0.020  0.208  0.044  0.239  1.723
 
band    12 # energy   51.30713752 # occ.  0.00000000
 
ion      s     py     pz     px    dxy    dyz    dz2    dxz  x2-y2    tot
    1  4.938  0.030  0.002  0.003  0.071  0.002  0.003  0.024  0.026  5.100
 

 k-point    12 :   -0.43750000 0.18750000 0.06250000     weight = 0.02343750

band     1 # energy    8.69595656 # occ.  1.00000000
 
ion      s     py     pz     px    dxy    dyz    dz2    dxz  x2-y2    tot
    1  0.160  0.000  0.038  0.016  0.365  0.249  0.011  0.177  0.000  1.015
 
band     2 # energy   10.50363185 # occ.  1.00000000
 
ion      s     py     pz     px    dxy    dyz    dz2    dxz  x2-y2    tot
    1  0.000  0.051  0.006  0.023  0.031  0.078  0.688  0.012  0.076  0.965
 
band     3 # energy   11.74329499 # occ.  1.00000000
 
ion      s     py     pz     px    dxy    dyz    dz2    dxz  x2-y2    tot
    1  0.004  0.066  0.098  0.093  0.353  0.318  0.037  0.000  0.021  0.991
 
band     4 # energy   11.92357496 # occ.  1.00000000
 
ion      s     py     pz     px    dxy    dyz    dz2    dxz  x2-y2    tot
    1  0.000  0.009  0.018  0.000  0.063  0.017  0.046  0.275  0.558  0.987
 
band     5 # energy   14.32470364 # occ.  0.99808028
 
ion      s     py     pz     px    dxy    dyz    dz2    dxz  x2-y2    tot
    1  0.001  0.000  0.000  0.000  0.037  0.166  0.033  0.454  0.301  0.991
 
band     6 # energy   17.82563039 # occ.  0.00000000
 
ion      s     py     pz     px    dxy    dyz    dz2    dxz  x2-y2    tot
    1  0.009  0.153  0.223  0.160  0.081  0.124  0.195  0.015  0.026  0.986
 
band     7 # energy   23.53961872 # occ.  0.00000000
 
ion      s     py     pz     px    dxy    dyz    dz2    dxz  x2-y2    tot
    1  0.428  0.015  0.018  0.063  0.207  0.162  0.001  0.159  0.001  1.054
 
band     8 # energy   35.22168395 # occ.  0.00000000
 
ion      s     py     pz     px    dxy    dyz    dz2    dxz  x2-y2    tot