<?xml version="1.0" encoding="ISO-8859-1"?>
<modeling>
 <generator>
  <i name="program" type="string">vasp </i>
  <i name="version" type="string">6.3.2  </i>
  <i name="subversion" type="string">27Jun22 (build Aug 12 2022 00:53:59) complex                          parallel </i>
  <i name="platform" type="string">tv2STD </i>
  <i name="date" type="string">2024 12 03 </i>
  <i name="time" type="string">01:40:41 </i>
 </generator>
 <incar>
  <i type="string" name="SYSTEM">Co-fcc</i>
  <i type="int" name="ISTART">     0</i>
  <i type="string" name="PREC">Accurate      normal | accurate</i>
  <i type="string" name="ALGO">Normal     Normal, Fast, Very_Fast</i>
  <i type="logical" name="ADDGRID"> F  </i>
  <i type="int" name="ISPIN">     2</i>
  <i type="int" name="ICHARG">     2</i>
  <i type="int" name="INIWAV">     1</i>
  <i type="int" name="NELM">   100</i>
  <i type="int" name="IBRION">     2</i>
  <i name="EDIFF">      0.00000100</i>
  <i name="EDIFFG">     -0.02000000</i>
  <i type="int" name="NSW">   100</i>
  <i type="int" name="ISIF">     2</i>
  <i type="int" name="ISYM">     1</i>
  <i name="ENCUT">    400.00000000</i>
  <v name="MAGMOM">      3.00000000</v>
  <i type="logical" name="LREAL"> F  </i>
  <i type="int" name="ISMEAR">     0</i>
  <i name="SIGMA">      0.05000000</i>
  <i type="int" name="NWRITE">     2</i>
  <i type="logical" name="LWAVE"> T  </i>
  <i type="logical" name="LCHARG"> T  </i>
  <i type="int" name="LORBIT">    11</i>
 </incar>
 <primitive_cell>
  <structure name="primitive_cell" >
   <crystal>
    <varray name="basis" >
     <v>       0.00000000       1.61392615       1.61392615 </v>
     <v>       1.61392615       0.00000000       1.61392615 </v>
     <v>       1.61392615       1.61392615       0.00000000 </v>
    </varray>
    <i name="volume">      8.40777290 </i>
    <varray name="rec_basis" >
     <v>      -0.30980352       0.30980352       0.30980352 </v>
     <v>       0.30980352      -0.30980352       0.30980352 </v>
     <v>       0.30980352       0.30980352      -0.30980352 </v>
    </varray>
   </crystal>
   <varray name="positions" >
    <v>       0.00000000       0.00000000       0.00000000 </v>
   </varray>
  </structure>
  <varray name="primitive_index" >
   <v type="int" >        1 </v>
  </varray>
 </primitive_cell>
 <kpoints>
  <generation param="Monkhorst-Pack">
   <v type="int" name="divisions">       8        8        8 </v>
   <v name="usershift">      0.00000000       0.00000000       0.00000000 </v>
   <v name="genvec1">      0.12500000       0.00000000       0.00000000 </v>
   <v name="genvec2">      0.00000000       0.12500000       0.00000000 </v>
   <v name="genvec3">      0.00000000       0.00000000       0.12500000 </v>
   <v name="shift">      0.50000000       0.50000000       0.50000000 </v>
  </generation>
  <varray name="kpointlist" >
   <v>       0.06250000       0.06250000       0.06250000 </v>
   <v>       0.18750000       0.06250000       0.06250000 </v>
   <v>       0.31250000       0.06250000       0.06250000 </v>
   <v>       0.43750000       0.06250000       0.06250000 </v>
   <v>      -0.43750000       0.06250000       0.06250000 </v>
   <v>      -0.31250000       0.06250000       0.06250000 </v>
   <v>      -0.18750000       0.06250000       0.06250000 </v>
   <v>      -0.06250000       0.06250000       0.06250000 </v>
   <v>       0.18750000       0.18750000       0.06250000 </v>
   <v>       0.31250000       0.18750000       0.06250000 </v>
   <v>       0.43750000       0.18750000       0.06250000 </v>
   <v>      -0.43750000       0.18750000       0.06250000 </v>
   <v>      -0.31250000       0.18750000       0.06250000 </v>
   <v>      -0.18750000       0.18750000       0.06250000 </v>
   <v>      -0.06250000       0.18750000       0.06250000 </v>
   <v>       0.31250000       0.31250000       0.06250000 </v>
   <v>       0.43750000       0.31250000       0.06250000 </v>
   <v>      -0.43750000       0.31250000       0.06250000 </v>
   <v>      -0.31250000       0.31250000       0.06250000 </v>
   <v>      -0.18750000       0.31250000       0.06250000 </v>
   <v>      -0.06250000       0.31250000       0.06250000 </v>
   <v>       0.43750000       0.43750000       0.06250000 </v>
   <v>      -0.43750000       0.43750000       0.06250000 </v>
   <v>      -0.31250000       0.43750000       0.06250000 </v>
   <v>      -0.18750000       0.43750000       0.06250000 </v>
   <v>      -0.06250000       0.43750000       0.06250000 </v>
   <v>      -0.43750000      -0.43750000       0.06250000 </v>
   <v>      -0.31250000      -0.43750000       0.06250000 </v>
   <v>      -0.18750000      -0.43750000       0.06250000 </v>
   <v>      -0.31250000      -0.31250000       0.06250000 </v>
   <v>      -0.18750000      -0.31250000       0.06250000 </v>
   <v>      -0.18750000      -0.18750000       0.06250000 </v>
   <v>       0.18750000       0.18750000       0.18750000 </v>
   <v>       0.31250000       0.18750000       0.18750000 </v>
   <v>       0.43750000       0.18750000       0.18750000 </v>
   <v>      -0.43750000       0.18750000       0.18750000 </v>
   <v>      -0.31250000       0.18750000       0.18750000 </v>
   <v>      -0.18750000       0.18750000       0.18750000 </v>
   <v>       0.31250000       0.31250000       0.18750000 </v>
   <v>       0.43750000       0.31250000       0.18750000 </v>
   <v>      -0.43750000       0.31250000       0.18750000 </v>
   <v>      -0.31250000       0.31250000       0.18750000 </v>
   <v>      -0.18750000       0.31250000       0.18750000 </v>
   <v>       0.43750000       0.43750000       0.18750000 </v>
   <v>      -0.43750000       0.43750000       0.18750000 </v>
   <v>      -0.31250000       0.43750000       0.18750000 </v>
   <v>      -0.18750000       0.43750000       0.18750000 </v>
   <v>      -0.43750000      -0.43750000       0.18750000 </v>
   <v>      -0.31250000      -0.43750000       0.18750000 </v>
   <v>      -0.31250000      -0.31250000       0.18750000 </v>
   <v>       0.31250000       0.31250000       0.31250000 </v>
   <v>       0.43750000       0.31250000       0.31250000 </v>
   <v>      -0.43750000       0.31250000       0.31250000 </v>
   <v>      -0.31250000       0.31250000       0.31250000 </v>
   <v>       0.43750000       0.43750000       0.31250000 </v>
   <v>      -0.43750000       0.43750000       0.31250000 </v>
   <v>      -0.31250000       0.43750000       0.31250000 </v>
   <v>      -0.43750000      -0.43750000       0.31250000 </v>
   <v>       0.43750000       0.43750000       0.43750000 </v>
   <v>      -0.43750000       0.43750000       0.43750000 </v>
  </varray>
  <varray name="weights" >
   <v>       0.00390625 </v>
   <v>       0.01171875 </v>
   <v>       0.01171875 </v>
   <v>       0.01171875 </v>
   <v>       0.01171875 </v>
   <v>       0.01171875 </v>
   <v>       0.01171875 </v>
   <v>       0.01171875 </v>
   <v>       0.01171875 </v>
   <v>       0.02343750 </v>
   <v>       0.02343750 </v>
   <v>       0.02343750 </v>
   <v>       0.02343750 </v>
   <v>       0.02343750 </v>
   <v>       0.02343750 </v>
   <v>       0.01171875 </v>
   <v>       0.02343750 </v>
   <v>       0.02343750 </v>
   <v>       0.02343750 </v>
   <v>       0.02343750 </v>
   <v>       0.02343750 </v>
   <v>       0.01171875 </v>
   <v>       0.02343750 </v>
   <v>       0.02343750 </v>
   <v>       0.02343750 </v>
   <v>       0.02343750 </v>
   <v>       0.01171875 </v>
   <v>       0.02343750 </v>
   <v>       0.02343750 </v>
   <v>       0.01171875 </v>
   <v>       0.02343750 </v>
   <v>       0.01171875 </v>
   <v>       0.00390625 </v>
   <v>       0.01171875 </v>
   <v>       0.01171875 </v>
   <v>       0.01171875 </v>
   <v>       0.01171875 </v>
   <v>       0.01171875 </v>
   <v>       0.01171875 </v>
   <v>       0.02343750 </v>
   <v>       0.02343750 </v>
   <v>       0.02343750 </v>
   <v>       0.02343750 </v>
   <v>       0.01171875 </v>
   <v>       0.02343750 </v>
   <v>       0.02343750 </v>
   <v>       0.02343750 </v>
   <v>       0.01171875 </v>
   <v>       0.02343750 </v>
   <v>       0.01171875 </v>
   <v>       0.00390625 </v>
   <v>       0.01171875 </v>
   <v>       0.01171875 </v>
   <v>       0.01171875 </v>
   <v>       0.01171875 </v>
   <v>       0.02343750 </v>
   <v>       0.02343750 </v>
   <v>       0.01171875 </v>
   <v>       0.00390625 </v>
   <v>       0.01171875 </v>
  </varray>
 </kpoints>
 <parameters>
  <separator name="general" >
   <i type="string" name="SYSTEM">Co-fcc</i>
   <i type="logical" name="LCOMPAT"> F  </i>
  </separator>
  <separator name="electronic" >
   <i type="string" name="PREC">accura</i>
   <i name="ENMAX">    400.00000000</i>
   <i name="ENAUG">    477.81800000</i>
   <i name="EDIFF">      0.00000100</i>
   <i type="int" name="IALGO">    38</i>
   <i type="int" name="IWAVPR">    11</i>
   <i type="int" name="NBANDS">    12</i>
   <i type="int" name="NBANDSLOW">    -1</i>
   <i type="int" name="NBANDSHIGH">    -1</i>
   <i name="NELECT">      9.00000000</i>
   <i type="int" name="TURBO">     0</i>
   <i type="int" name="IRESTART">     0</i>
   <i type="int" name="NREBOOT">     0</i>
   <i type="int" name="NMIN">     0</i>
   <i name="EREF">      0.00000000</i>
   <separator name="electronic smearing" >
    <i type="int" name="ISMEAR">     0</i>
    <i name="SIGMA">      0.05000000</i>
    <i name="KSPACING">      0.50000000</i>
    <i type="logical" name="KGAMMA"> T  </i>
    <i type="logical" name="KBLOWUP"> T  </i>
   </separator>
   <separator name="electronic projectors" >
    <i type="logical" name="LREAL"> F  </i>
    <v name="ROPT">      0.00000000</v>
    <i type="int" name="LMAXPAW">  -100</i>
    <i type="int" name="LMAXMIX">     2</i>
    <i type="logical" name="NLSPLINE"> F  </i>
   </separator>
   <separator name="electronic startup" >
    <i type="int" name="ISTART">     0</i>
    <i type="int" name="ICHARG">     2</i>
    <i type="int" name="INIWAV">     1</i>
   </separator>
   <separator name="electronic spin" >
    <i type="int" name="ISPIN">     2</i>
    <i type="logical" name="LNONCOLLINEAR"> F  </i>
    <v name="MAGMOM">      3.00000000</v>
    <i name="NUPDOWN">     -1.00000000</i>
    <i type="logical" name="LSORBIT"> F  </i>
    <v name="SAXIS">      0.00000000      0.00000000      1.00000000</v>
    <i type="logical" name="LSPIRAL"> F  </i>
    <v name="QSPIRAL">      0.00000000      0.00000000      0.00000000</v>
    <i type="logical" name="LZEROZ"> F  </i>
   </separator>
   <separator name="electronic exchange-correlation" >
    <i type="logical" name="LASPH"> F  </i>
    <i type="logical" name="LMETAGGA"> F  </i>
   </separator>
   <separator name="electronic convergence" >
    <i type="int" name="NELM">   100</i>
    <i type="int" name="NELMDL">    -5</i>
    <i type="int" name="NELMIN">     2</i>
    <i name="ENINI">    400.00000000</i>
    <separator name="electronic convergence detail" >
     <i type="logical" name="LDIAG"> T  </i>
     <i type="logical" name="LSUBROT"> F  </i>
     <i name="WEIMIN">      0.00100000</i>
     <i name="EBREAK">      0.00000002</i>
     <i name="DEPER">      0.30000000</i>
     <i type="int" name="NRMM">     4</i>
     <i name="TIME">      0.40000000</i>
    </separator>
   </separator>
   <separator name="electronic mixer" >
    <i name="AMIX">      0.40000000</i>
    <i name="BMIX">      1.00000000</i>
    <i name="AMIN">      0.10000000</i>
    <i name="AMIX_MAG">      1.60000000</i>
    <i name="BMIX_MAG">      1.00000000</i>
    <separator name="electronic mixer details" >
     <i type="int" name="IMIX">     4</i>
     <i type="logical" name="MIXFIRST"> F  </i>
     <i type="int" name="MAXMIX">   -45</i>
     <i name="WC">    100.00000000</i>
     <i type="int" name="INIMIX">     1</i>
     <i type="int" name="MIXPRE">     1</i>
     <i type="int" name="MREMOVE">     5</i>
    </separator>
   </separator>
   <separator name="electronic dipolcorrection" >
    <i type="logical" name="LDIPOL"> F  </i>
    <i type="logical" name="LMONO"> F  </i>
    <i type="int" name="IDIPOL">     0</i>
    <i name="EPSILON">      1.00000000</i>
    <v name="DIPOL">   -100.00000000   -100.00000000   -100.00000000</v>
    <i name="EFIELD">      0.00000000</i>
   </separator>
  </separator>
  <separator name="grids" >
   <i type="int" name="NGX">    16</i>
   <i type="int" name="NGY">    16</i>
   <i type="int" name="NGZ">    16</i>
   <i type="int" name="NGXF">    32</i>
   <i type="int" name="NGYF">    32</i>
   <i type="int" name="NGZF">    32</i>
   <i type="logical" name="ADDGRID"> F  </i>
  </separator>
  <separator name="ionic" >
   <i type="int" name="NSW">   100</i>
   <i type="int" name="IBRION">     2</i>
   <i type="int" name="MDALGO">     0</i>
   <i type="int" name="ISIF">     2</i>
   <i name="PSTRESS">      0.00000000</i>
   <i name="EDIFFG">     -0.02000000</i>
   <i type="int" name="NFREE">     1</i>
   <i name="POTIM">      0.50000000</i>
   <i name="SMASS">     -3.00000000</i>
   <i name="SCALEE">      1.00000000</i>
  </separator>
  <separator name="ionic md" >
   <i name="TEBEG">      0.00010000</i>
   <i name="TEEND">      0.00010000</i>
   <i type="int" name="NBLOCK">     1</i>
   <i type="int" name="KBLOCK">   100</i>
   <i type="int" name="NPACO">   256</i>
   <i name="APACO">     10.00000000</i>
  </separator>
  <separator name="symmetry" >
   <i type="int" name="ISYM">     1</i>
   <i name="SYMPREC">      0.00001000</i>
  </separator>
  <separator name="dos" >
   <i type="int" name="LORBIT">    11</i>
   <v name="RWIGS">     -1.00000000</v>
   <i type="int" name="NEDOS">   301</i>
   <i name="EMIN">     10.00000000</i>
   <i name="EMAX">    -10.00000000</i>
   <i name="EFERMI">      0.00000000</i>
  </separator>
  <separator name="writing" >
   <i type="int" name="NWRITE">     2</i>
   <i type="logical" name="LWAVE"> T  </i>
   <i type="logical" name="LDOWNSAMPLE"> F  </i>
   <i type="logical" name="LCHARG"> T  </i>
   <i type="logical" name="LPARD"> F  </i>
   <i type="logical" name="LVTOT"> F  </i>
   <i type="logical" name="LVHAR"> F  </i>
   <i type="logical" name="LELF"> F  </i>
   <i type="logical" name="LOPTICS"> F  </i>
   <v name="STM">      0.00000000      0.00000000      0.00000000      0.00000000      0.00000000      0.00000000      0.00000000</v>
  </separator>
  <separator name="performance" >
   <i type="int" name="NPAR">     4</i>
   <i type="int" name="NSIM">     4</i>
   <i type="int" name="NBLK">    -1</i>
   <i type="logical" name="LPLANE"> T  </i>
   <i type="logical" name="LSCALAPACK"> T  </i>
   <i type="logical" name="LSCAAWARE"> T  </i>
   <i type="logical" name="LSCALU"> F  </i>
   <i type="logical" name="LASYNC"> F  </i>
   <i type="logical" name="LORBITALREAL"> F  </i>
  </separator>
  <separator name="miscellaneous" >
   <i type="int" name="IDIOT">     3</i>
   <i type="int" name="PHON_NSTRUCT">    -1</i>
   <i type="logical" name="LMUSIC"> F  </i>
   <v name="POMASS">     58.93300000</v>
   <v name="DARWINR">      0.00000000</v>
   <v name="DARWINV">      1.00000000</v>
   <i type="logical" name="LCORR"> T  </i>
  </separator>
  <i type="logical" name="GGA_COMPAT"> T  </i>
  <i type="logical" name="LBERRY"> F  </i>
  <i type="int" name="ICORELEVEL">     0</i>
  <i type="logical" name="LDAU"> F  </i>
  <i type="int" name="I_CONSTRAINED_M">     0</i>
  <separator name="electronic exchange-correlation" >
   <i type="string" name="GGA">--</i>
   <i type="int" name="VOSKOWN">     0</i>
   <i type="logical" name="LHFCALC"> F  </i>
   <i type="string" name="PRECFOCK"></i>
   <i type="logical" name="LSYMGRAD"> F  </i>
   <i type="logical" name="LHFONE"> F  </i>
   <i type="logical" name="LRHFCALC"> F  </i>
   <i type="logical" name="LTHOMAS"> F  </i>
   <i type="logical" name="LMODELHF"> F  </i>
   <i type="logical" name="LFOCKACE"> F  </i>
   <i name="ENCUT4O">     -1.00000000</i>
   <i type="int" name="EXXOEP">     0</i>
   <i type="int" name="FOURORBIT">     0</i>
   <i name="AEXX">      0.00000000</i>
   <i name="HFALPHA">      0.00000000</i>
   <i name="MCALPHA">      0.00000000</i>
   <i name="ALDAX">      1.00000000</i>
   <i name="AGGAX">      1.00000000</i>
   <i name="ALDAC">      1.00000000</i>
   <i name="AGGAC">      1.00000000</i>
   <i type="int" name="NKREDX">     1</i>
   <i type="int" name="NKREDY">     1</i>
   <i type="int" name="NKREDZ">     1</i>
   <i type="logical" name="SHIFTRED"> F  </i>
   <i type="logical" name="ODDONLY"> F  </i>
   <i type="logical" name="EVENONLY"> F  </i>
   <i type="int" name="LMAXFOCK">     0</i>
   <i type="int" name="NMAXFOCKAE">     0</i>
   <i type="logical" name="LFOCKAEDFT"> F  </i>
   <i name="HFSCREEN">      0.00000000</i>
   <i name="HFSCREENC">      0.00000000</i>
   <i type="int" name="NBANDSGWLOW">     0</i>
  </separator>
  <separator name="vdW DFT" >
   <i type="logical" name="LUSE_VDW"> F  </i>
   <i name="Zab_VDW">     -0.84910000</i>
   <i name="PARAM1">      0.12340000</i>
   <i name="PARAM2">      1.00000000</i>
   <i name="PARAM3">      0.00000000</i>
  </separator>
  <separator name="model GW" >
   <i type="int" name="MODEL_GW">     0</i>
   <i name="MODEL_EPS0">      5.04466374</i>
   <i name="MODEL_ALPHA">      1.00000000</i>
  </separator>
  <separator name="linear response parameters" >
   <i type="logical" name="LEPSILON"> F  </i>
   <i type="logical" name="LRPA"> F  </i>
   <i type="logical" name="LNABLA"> F  </i>
   <i type="logical" name="LVEL"> F  </i>
   <i name="CSHIFT">      0.10000000</i>
   <i name="OMEGAMAX">     -1.00000000</i>
   <i name="DEG_THRESHOLD">      0.00200000</i>
   <i name="RTIME">     -0.10000000</i>
   <i name="WPLASMAI">      0.00000000</i>
   <v name="DFIELD">      0.00000000      0.00000000      0.00000000</v>
   <v name="WPLASMA">      0.00000000      0.00000000      0.00000000      0.00000000      0.00000000      0.00000000      0.00000000      0.00000000      0.00000000</v>
  </separator>
  <separator name="orbital magnetization" >
   <i type="logical" name="NUCIND"> F  </i>
   <v name="MAGPOS">      0.00000000      0.00000000      0.00000000</v>
   <i type="logical" name="LNICSALL"> T  </i>
   <i type="logical" name="ORBITALMAG"> F  </i>
   <i type="logical" name="LMAGBLOCH"> F  </i>
   <i type="logical" name="LCHIMAG"> F  </i>
   <i type="logical" name="LGAUGE"> T  </i>
   <i type="int" name="MAGATOM">     0</i>
   <v name="MAGDIPOL">      0.00000000      0.00000000      0.00000000</v>
   <v name="AVECCONST">      0.00000000      0.00000000      0.00000000</v>
  </separator>
  <separator name="response functions" >
   <i type="logical" name="LFINITE_TEMPERATURE"> F  </i>
   <i type="logical" name="LADDER"> F  </i>
   <i type="logical" name="LRPAFORCE"> F  </i>
   <i type="logical" name="LFXC"> F  </i>
   <i type="logical" name="LHARTREE"> T  </i>
   <i type="int" name="IBSE">     0</i>
   <v type="int" name="KPOINT">    -1     0     0     0</v>
   <i type="logical" name="LTCTC"> F  </i>
   <i type="logical" name="LTCTE"> F  </i>
   <i type="logical" name="LTETE"> F  </i>
   <i type="logical" name="LTRIPLET"> F  </i>
   <i type="logical" name="LFXCEPS"> F  </i>
   <i type="logical" name="LFXHEG"> F  </i>
   <i type="int" name="NATURALO">     2</i>
   <i type="logical" name="LHOLEGF"> F  </i>
   <i type="logical" name="L2ORDER"> F  </i>
   <i type="logical" name="LDMP1"> F  </i>
   <i type="logical" name="LMP2LT"> F  </i>
   <i type="logical" name="LSMP2LT"> F  </i>
   <i type="logical" name="LGWLF"> F  </i>
   <i name="ENCUTGW">     -2.00000000</i>
   <i name="ENCUTGWSOFT">     -2.00000000</i>
   <i name="ENCUTLF">     -1.00000000</i>
   <i type="logical" name="LESF_SPLINES"> F  </i>
   <i type="int" name="LMAXMP2">    -1</i>
   <i name="SCISSOR">      0.00000000</i>
   <i type="int" name="NOMEGA">     0</i>
   <i type="int" name="NOMEGAR">     0</i>
   <i type="int" name="NBANDSGW">    -1</i>
   <i type="int" name="NBANDSO">    -1</i>
   <i type="int" name="NBANDSV">    -1</i>
   <i type="int" name="NELMGW">     1</i>
   <i type="int" name="NELMHF">     1</i>
   <i type="int" name="DIM">     3</i>
   <i type="int" name="IESPILON">     4</i>
   <i type="int" name="ANTIRES">     0</i>
   <i name="OMEGAMAX">    -30.00000000</i>
   <i name="OMEGAMIN">    -30.00000000</i>
   <i name="OMEGATL">   -200.00000000</i>
   <i type="int" name="OMEGAGRID">     0</i>
   <i name="CSHIFT">     -0.10000000</i>
   <i type="logical" name="LSELFENERGY"> F  </i>
   <i type="logical" name="LSPECTRAL"> F  </i>
   <i type="logical" name="LSPECTRALGW"> F  </i>
   <i type="logical" name="LSINGLES"> F  </i>
   <i type="logical" name="LFERMIGW"> F  </i>
   <i type="logical" name="ODDONLYGW"> F  </i>
   <i type="logical" name="EVENONLYGW"> F  </i>
   <i type="int" name="NKREDLFX">     1</i>
   <i type="int" name="NKREDLFY">     1</i>
   <i type="int" name="NKREDLFZ">     1</i>
   <i type="int" name="MAXMEM">  2800</i>
   <i type="int" name="TELESCOPE">     0</i>
   <i type="int" name="NTAUPAR">    -1</i>
   <i type="int" name="NOMEGAPAR">    -1</i>
   <i name="DAMP_NEWTON">      0.80000001</i>
   <i name="LAMBDA">      1.00000000</i>
  </separator>
  <separator name="External order field" >
   <i name="OFIELD_KAPPA">      0.00000000</i>
   <v name="OFIELD_K">      0.00000000      0.00000000      0.00000000</v>
   <i name="OFIELD_Q6_NEAR">      0.00000000</i>
   <i name="OFIELD_Q6_FAR">      0.00000000</i>
   <i name="OFIELD_A">      0.00000000</i>
  </separator>
  <separator name="optional k-points parameters" >
   <i type="int" name="KPOINTS_OPT_MODE">     1</i>
   <i type="logical" name="LKPOINTS_OPT"> F  </i>
  </separator>
 </parameters>
 <atominfo>
  <atoms>       1 </atoms>
  <types>       1 </types>
  <array name="atoms" >
   <dimension dim="1">ion</dimension>
   <field type="string">element</field>
   <field type="int">atomtype</field>
   <set>
    <rc><c>Co</c><c>   1</c></rc>
   </set>
  </array>
  <array name="atomtypes" >
   <dimension dim="1">type</dimension>
   <field type="int">atomspertype</field>
   <field type="string">element</field>
   <field>mass</field>
   <field>valence</field>
   <field type="string">pseudopotential</field>
   <set>
    <rc><c>   1</c><c>Co</c><c>     58.93300000</c><c>      9.00000000</c><c>  PAW_PBE Co 02Aug2007                  </c></rc>
   </set>
  </array>
 </atominfo>
 <structure name="initialpos" >
  <crystal>
   <varray name="basis" >
    <v>       0.00000000       1.61392615       1.61392615 </v>
    <v>       1.61392615       0.00000000       1.61392615 </v>
    <v>       1.61392615       1.61392615       0.00000000 </v>
   </varray>
   <i name="volume">      8.40777290 </i>
   <varray name="rec_basis" >
    <v>      -0.30980352       0.30980352       0.30980352 </v>
    <v>       0.30980352      -0.30980352       0.30980352 </v>
    <v>       0.30980352       0.30980352      -0.30980352 </v>
   </varray>
  </crystal>
  <varray name="positions" >
   <v>       0.00000000       0.00000000       0.00000000 </v>
  </varray>
 </structure>
 <calculation>
  <scstep>
   <time name="dav">    0.26    0.27</time>
   <time name="total">    0.27    0.28</time>
   <energy>
    <i name="alphaZ">     50.37920434 </i>
    <i name="ewald">   -828.36876933 </i>
    <i name="hartreedc">   -123.56808547 </i>
    <i name="XCdc">     18.74446179 </i>
    <i name="pawpsdc">    719.99081943 </i>
    <i name="pawaedc">   -772.94345096 </i>
    <i name="eentropy">     -0.00102890 </i>
    <i name="bandstr">    145.50398306 </i>
    <i name="atom">    813.35773410 </i>
    <i name="e_fr_energy">     23.09486807 </i>
    <i name="e_wo_entrp">     23.09589696 </i>
    <i name="e_0_energy">     23.09538252 </i>
   </energy>
  </scstep>
  <scstep>
   <time name="dav">    0.25    0.25</time>
   <time name="total">    0.25    0.25</time>
   <energy>
    <i name="e_fr_energy">     -6.23045029 </i>
    <i name="e_wo_entrp">     -6.22900395 </i>
    <i name="e_0_energy">     -6.22972712 </i>
   </energy>
  </scstep>
  <scstep>
   <time name="dav">    0.27    0.27</time>
   <time name="total">    0.27    0.27</time>
   <energy>
    <i name="e_fr_energy">     -6.87348693 </i>
    <i name="e_wo_entrp">     -6.87252720 </i>
    <i name="e_0_energy">     -6.87300707 </i>
   </energy>
  </scstep>
  <scstep>
   <time name="dav">    0.27    0.27</time>
   <time name="total">    0.27    0.27</time>
   <energy>
    <i name="e_fr_energy">     -6.87771587 </i>
    <i name="e_wo_entrp">     -6.87675832 </i>
    <i name="e_0_energy">     -6.87723709 </i>
   </energy>
  </scstep>
  <scstep>
   <time name="dav">    0.30    0.30</time>
   <time name="total">    0.31    0.31</time>
   <energy>
    <i name="e_fr_energy">     -6.87777795 </i>
    <i name="e_wo_entrp">     -6.87682041 </i>
    <i name="e_0_energy">     -6.87729918 </i>
   </energy>
  </scstep>
  <scstep>
   <time name="dav">    0.29    0.29</time>
   <time name="total">    0.31    0.31</time>
   <energy>
    <i name="e_fr_energy">     -6.49226580 </i>
    <i name="e_wo_entrp">     -6.49063355 </i>
    <i name="e_0_energy">     -6.49144967 </i>
   </energy>
  </scstep>
  <scstep>
   <time name="dav">    0.27    0.27</time>
   <time name="total">    0.29    0.29</time>
   <energy>
    <i name="e_fr_energy">     -6.45649016 </i>
    <i name="e_wo_entrp">     -6.45474792 </i>
    <i name="e_0_energy">     -6.45561904 </i>
   </energy>
  </scstep>
  <scstep>
   <time name="dav">    0.32    0.32</time>
   <time name="total">    0.34    0.34</time>
   <energy>
    <i name="e_fr_energy">     -6.43762739 </i>
    <i name="e_wo_entrp">     -6.43561399 </i>
    <i name="e_0_energy">     -6.43662069 </i>
   </energy>
  </scstep>
  <scstep>
   <time name="dav">    0.32    0.32</time>
   <time name="total">    0.33    0.34</time>
   <energy>
    <i name="e_fr_energy">     -6.43570252 </i>
    <i name="e_wo_entrp">     -6.43377590 </i>
    <i name="e_0_energy">     -6.43473921 </i>
   </energy>
  </scstep>
  <scstep>
   <time name="dav">    0.30    0.30</time>
   <time name="total">    0.32    0.32</time>
   <energy>
    <i name="e_fr_energy">     -6.43528193 </i>
    <i name="e_wo_entrp">     -6.43337980 </i>
    <i name="e_0_energy">     -6.43433086 </i>
   </energy>
  </scstep>
  <scstep>
   <time name="dav">    0.27    0.27</time>
   <time name="total">    0.29    0.29</time>
   <energy>
    <i name="e_fr_energy">     -6.43529970 </i>
    <i name="e_wo_entrp">     -6.43338708 </i>
    <i name="e_0_energy">     -6.43434339 </i>
   </energy>
  </scstep>
  <scstep>
   <time name="dav">    0.27    0.27</time>
   <time name="total">    0.29    0.29</time>
   <energy>
    <i name="e_fr_energy">     -6.43529331 </i>
    <i name="e_wo_entrp">     -6.43337547 </i>
    <i name="e_0_energy">     -6.43433439 </i>
   </energy>
  </scstep>
  <scstep>
   <time name="dav">    0.21    0.22</time>
   <time name="total">    0.22    0.22</time>
   <energy>
    <i name="alphaZ">     50.37920434 </i>
    <i name="ewald">   -828.36876933 </i>
    <i name="hartreedc">   -106.46915930 </i>
    <i name="XCdc">     17.01136373 </i>
    <i name="pawpsdc">   1088.93205599 </i>
    <i name="pawaedc">  -1143.45276940 </i>
    <i name="eentropy">     -0.00191353 </i>
    <i name="bandstr">    102.17695953 </i>
    <i name="atom">    813.35773410 </i>
    <i name="e_fr_energy">     -6.43529386 </i>
    <i name="e_wo_entrp">     -6.43338033 </i>
    <i name="e_0_energy">     -6.43433710 </i>
   </energy>
  </scstep>
  <structure>
   <crystal>
    <varray name="basis" >
     <v>       0.00000000       1.61392615       1.61392615 </v>
     <v>       1.61392615       0.00000000       1.61392615 </v>
     <v>       1.61392615       1.61392615       0.00000000 </v>
    </varray>
    <i name="volume">      8.40777290 </i>
    <varray name="rec_basis" >
     <v>      -0.30980352       0.30980352       0.30980352 </v>
     <v>       0.30980352      -0.30980352       0.30980352 </v>
     <v>       0.30980352       0.30980352      -0.30980352 </v>
    </varray>
   </crystal>
   <varray name="positions" >
    <v>       0.00000000       0.00000000       0.00000000 </v>
   </varray>
  </structure>
  <varray name="forces" >
   <v>       0.00000000       0.00000000       0.00000000 </v>
  </varray>
  <varray name="stress" >
   <v>     912.70693695      -0.00000000       0.00000000 </v>
   <v>       0.00000000     912.70693695      -0.00000000 </v>
   <v>       0.00000000       0.00000000     912.70693695 </v>
  </varray>
  <energy>
   <i name="e_fr_energy">     -6.43529386 </i>
   <i name="e_wo_entrp">     -6.43338033 </i>
   <i name="e_0_energy">     -6.43433710 </i>
  </energy>
  <time name="totalsc">    3.89    3.98</time>
  <eigenvalues>
   <array>
    <dimension dim="1">band</dimension>
    <dimension dim="2">kpoint</dimension>
    <dimension dim="3">spin</dimension>
    <field>eigene</field>
    <field>occ</field>
    <set>
     <set comment="spin 1">
      <set comment="kpoint 1">
       <r>    4.1024    1.0000 </r>
       <r>   11.3377    1.0000 </r>
       <r>   11.4620    1.0000 </r>
       <r>   11.4620    1.0000 </r>
       <r>   13.1243    1.0000 </r>
       <r>   13.1243    1.0000 </r>
       <r>   39.4500    0.0000 </r>
       <r>   44.0912    0.0000 </r>
       <r>   45.9178    0.0000 </r>
       <r>   45.9178    0.0000 </r>
       <r>   50.8129    0.0000 </r>
       <r>   51.1914    0.0000 </r>
      </set>
      <set comment="kpoint 2">
       <r>    5.0700    1.0000 </r>
       <r>   11.0049    1.0000 </r>
       <r>   11.7026    1.0000 </r>
       <r>   11.7033    1.0000 </r>
       <r>   12.8744    1.0000 </r>
       <r>   13.2431    1.0000 </r>
       <r>   37.6764    0.0000 </r>
       <r>   40.3726    0.0000 </r>
       <r>   44.5152    0.0000 </r>
       <r>   47.1071    0.0000 </r>
       <r>   49.1253    0.0000 </r>
       <r>   51.1922    0.0000 </r>
      </set>
      <set comment="kpoint 3">
       <r>    6.9790    1.0000 </r>
       <r>   10.8393    1.0000 </r>
       <r>   11.6446    1.0000 </r>
       <r>   11.7609    1.0000 </r>
       <r>   13.1384    1.0000 </r>
       <r>   13.7958    1.0000 </r>
       <r>   31.4505    0.0000 </r>
       <r>   38.9717    0.0000 </r>
       <r>   43.6184    0.0000 </r>
       <r>   47.3127    0.0000 </r>
       <r>   48.7166    0.0000 </r>
       <r>   48.9976    0.0000 </r>
      </set>
      <set comment="kpoint 4">
       <r>    8.0018    1.0000 </r>
       <r>   11.3098    1.0000 </r>
       <r>   11.4668    1.0000 </r>
       <r>   12.2696    1.0000 </r>
       <r>   13.9575    1.0000 </r>
       <r>   14.8004    0.0000 </r>
       <r>   25.6694    0.0000 </r>
       <r>   37.9708    0.0000 </r>
       <r>   42.5761    0.0000 </r>
       <r>   45.1367    0.0000 </r>
       <r>   47.6502    0.0000 </r>
       <r>   49.1222    0.0000 </r>
      </set>
      <set comment="kpoint 5">
       <r>    8.0669    1.0000 </r>
       <r>   11.1685    1.0000 </r>
       <r>   11.3880    1.0000 </r>
       <r>   13.0780    1.0000 </r>
       <r>   14.3903    0.8495 </r>
       <r>   15.4679    0.0000 </r>
       <r>   23.4344    0.0000 </r>
       <r>   37.7409    0.0000 </r>
       <r>   42.9437    0.0000 </r>
       <r>   43.0858    0.0000 </r>
       <r>   48.4598    0.0000 </r>
       <r>   48.5644    0.0000 </r>
      </set>
      <set comment="kpoint 6">
       <r>    7.8397    1.0000 </r>
       <r>   11.3586    1.0000 </r>
       <r>   11.5951    1.0000 </r>
       <r>   11.5985    1.0000 </r>
       <r>   14.0874    1.0000 </r>
       <r>   14.0901    1.0000 </r>
       <r>   27.4106    0.0000 </r>
       <r>   38.5855    0.0000 </r>
       <r>   42.3700    0.0000 </r>
       <r>   45.2530    0.0000 </r>
       <r>   48.0922    0.0000 </r>
       <r>   50.2928    0.0000 </r>
      </set>
      <set comment="kpoint 7">
       <r>    6.3210    1.0000 </r>
       <r>   10.7633    1.0000 </r>
       <r>   11.7351    1.0000 </r>
       <r>   11.8190    1.0000 </r>
       <r>   13.0406    1.0000 </r>
       <r>   13.4565    1.0000 </r>
       <r>   33.5996    0.0000 </r>
       <r>   39.9902    0.0000 </r>
       <r>   42.9178    0.0000 </r>
       <r>   47.1357    0.0000 </r>
       <r>   48.3355    0.0000 </r>
       <r>   51.2046    0.0000 </r>
      </set>
      <set comment="kpoint 8">
       <r>    4.5971    1.0000 </r>
       <r>   11.1149    1.0000 </r>
       <r>   11.6242    1.0000 </r>
       <r>   11.6314    1.0000 </r>
       <r>   12.9092    1.0000 </r>
       <r>   13.2224    1.0000 </r>
       <r>   38.9882    0.0000 </r>
       <r>   42.0675    0.0000 </r>
       <r>   44.1725    0.0000 </r>
       <r>   45.5688    0.0000 </r>
       <r>   50.8986    0.0000 </r>
       <r>   51.1175    0.0000 </r>
      </set>
      <set comment="kpoint 9">
       <r>    5.5236    1.0000 </r>
       <r>   10.6901    1.0000 </r>
       <r>   11.9223    1.0000 </r>
       <r>   11.9615    1.0000 </r>
       <r>   12.6042    1.0000 </r>
       <r>   13.4052    1.0000 </r>
       <r>   38.0558    0.0000 </r>
       <r>   40.2562    0.0000 </r>
       <r>   41.7813    0.0000 </r>
       <r>   43.4403    0.0000 </r>
       <r>   50.7084    0.0000 </r>
       <r>   52.5866    0.0000 </r>
      </set>
      <set comment="kpoint 10">
       <r>    7.0795    1.0000 </r>
       <r>   10.2374    1.0000 </r>
       <r>   11.6298    1.0000 </r>
       <r>   12.3634    1.0000 </r>
       <r>   12.9633    1.0000 </r>
       <r>   13.9249    1.0000 </r>
       <r>   34.2029    0.0000 </r>
       <r>   36.8876    0.0000 </r>
       <r>   41.0415    0.0000 </r>
       <r>   43.3125    0.0000 </r>
       <r>   50.1206    0.0000 </r>
       <r>   51.9993    0.0000 </r>
      </set>
      <set comment="kpoint 11">
       <r>    8.4620    1.0000 </r>
       <r>   10.4449    1.0000 </r>
       <r>   11.1628    1.0000 </r>
       <r>   12.1567    1.0000 </r>
       <r>   14.0159    1.0000 </r>
       <r>   15.4572    0.0000 </r>
       <r>   27.9034    0.0000 </r>
       <r>   35.9918    0.0000 </r>
       <r>   38.8557    0.0000 </r>
       <r>   43.2846    0.0000 </r>
       <r>   50.5986    0.0000 </r>
       <r>   51.3071    0.0000 </r>
      </set>
      <set comment="kpoint 12">
       <r>    8.6960    1.0000 </r>
       <r>   10.5036    1.0000 </r>
       <r>   11.7433    1.0000 </r>
       <r>   11.9236    1.0000 </r>
       <r>   14.3247    0.9981 </r>
       <r>   17.8256    0.0000 </r>
       <r>   23.5396    0.0000 </r>
       <r>   35.2217    0.0000 </r>
       <r>   38.3252    0.0000 </r>
       <r>   42.7618    0.0000 </r>
       <r>   49.7753    0.0000 </r>
       <r>   51.4903    0.0000 </r>
      </set>
      <set comment="kpoint 13">
       <r>    8.6920    1.0000 </r>
       <r>   10.7214    1.0000 </r>
       <r>   11.2248    1.0000 </r>
       <r>   11.9950    1.0000 </r>
       <r>   13.8268    1.0000 </r>
       <r>   16.5104    0.0000 </r>
       <r>   26.1067    0.0000 </r>
       <r>   34.6265    0.0000 </r>
       <r>   39.6750    0.0000 </r>
       <r>   44.0883    0.0000 </r>
       <r>   49.0327    0.0000 </r>
       <r>   51.4060    0.0000 </r>
      </set>
      <set comment="kpoint 14">
       <r>    7.7421    1.0000 </r>
       <r>   10.3559    1.0000 </r>
       <r>   11.3552    1.0000 </r>
       <r>   12.2929    1.0000 </r>
       <r>   12.8475    1.0000 </r>
       <r>   14.6186    0.0000 </r>
       <r>   32.0585    0.0000 </r>
       <r>   34.9103    0.0000 </r>
       <r>   42.2161    0.0000 </r>
       <r>   45.9973    0.0000 </r>
       <r>   48.3623    0.0000 </r>
       <r>   51.1153    0.0000 </r>
      </set>
      <set comment="kpoint 15">
       <r>    5.9535    1.0000 </r>
       <r>   10.6865    1.0000 </r>
       <r>   11.7814    1.0000 </r>
       <r>   11.9689    1.0000 </r>
       <r>   12.7182    1.0000 </r>
       <r>   13.5119    1.0000 </r>
       <r>   35.9578    0.0000 </r>
       <r>   38.6043    0.0000 </r>
       <r>   43.5397    0.0000 </r>
       <r>   45.4808    0.0000 </r>
       <r>   50.0810    0.0000 </r>
       <r>   51.0942    0.0000 </r>
      </set>
      <set comment="kpoint 16">
       <r>    7.7137    1.0000 </r>
       <r>    9.6121    1.0000 </r>
       <r>   12.1290    1.0000 </r>
       <r>   12.9942    1.0000 </r>
       <r>   13.4738    1.0000 </r>
       <r>   13.9194    1.0000 </r>
       <r>   34.7441    0.0000 </r>
       <r>   36.4707    0.0000 </r>
       <r>   36.9172    0.0000 </r>
       <r>   39.7811    0.0000 </r>
       <r>   46.9049    0.0000 </r>
       <r>   52.0271    0.0000 </r>
      </set>
      <set comment="kpoint 17">
       <r>    8.3837    1.0000 </r>
       <r>    9.3194    1.0000 </r>
       <r>   12.0006    1.0000 </r>
       <r>   13.3968    1.0000 </r>
       <r>   14.0945    1.0000 </r>
       <r>   15.7476    0.0000 </r>
       <r>   30.9789    0.0000 </r>
       <r>   33.0650    0.0000 </r>
       <r>   34.6593    0.0000 </r>
       <r>   41.2806    0.0000 </r>
       <r>   47.6092    0.0000 </r>
       <r>   52.0323    0.0000 </r>
      </set>
      <set comment="kpoint 18">
       <r>    8.9138    1.0000 </r>
       <r>    9.5500    1.0000 </r>
       <r>   11.5260    1.0000 </r>
       <r>   12.9956    1.0000 </r>
       <r>   14.4068    0.7151 </r>
       <r>   19.5169    0.0000 </r>
       <r>   25.3541    0.0000 </r>
       <r>   30.8958    0.0000 </r>
       <r>   34.7298    0.0000 </r>
       <r>   41.8555    0.0000 </r>
       <r>   51.0045    0.0000 </r>
       <r>   53.0175    0.0000 </r>
      </set>
      <set comment="kpoint 19">
       <r>    9.6182    1.0000 </r>
       <r>    9.8210    1.0000 </r>
       <r>   10.8478    1.0000 </r>
       <r>   12.7109    1.0000 </r>
       <r>   13.9040    1.0000 </r>
       <r>   19.9529    0.0000 </r>
       <r>   25.2012    0.0000 </r>
       <r>   29.4937    0.0000 </r>
       <r>   36.6960    0.0000 </r>
       <r>   42.7248    0.0000 </r>
       <r>   51.3169    0.0000 </r>
       <r>   52.3163    0.0000 </r>
      </set>
      <set comment="kpoint 20">
       <r>    9.1685    1.0000 </r>
       <r>   10.3954    1.0000 </r>
       <r>   10.6346    1.0000 </r>
       <r>   12.4375    1.0000 </r>
       <r>   13.3425    1.0000 </r>
       <r>   16.7229    0.0000 </r>
       <r>   28.4634    0.0000 </r>
       <r>   31.7111    0.0000 </r>
       <r>   39.4216    0.0000 </r>
       <r>   44.7619    0.0000 </r>
       <r>   49.0997    0.0000 </r>
       <r>   51.2981    0.0000 </r>
      </set>
      <set comment="kpoint 21">
       <r>    7.7671    1.0000 </r>
       <r>   10.7825    1.0000 </r>
       <r>   11.3886    1.0000 </r>
       <r>   11.8645    1.0000 </r>
       <r>   13.4625    1.0000 </r>
       <r>   14.4170    0.6106 </r>
       <r>   29.5572    0.0000 </r>
       <r>   37.5285    0.0000 </r>
       <r>   41.8070    0.0000 </r>
       <r>   45.4040    0.0000 </r>
       <r>   49.1107    0.0000 </r>
       <r>   50.8743    0.0000 </r>
      </set>
      <set comment="kpoint 22">
       <r>    7.9445    1.0000 </r>
       <r>    8.7772    1.0000 </r>
       <r>   13.8020    1.0000 </r>
       <r>   14.0200    1.0000 </r>
       <r>   14.4503    0.2539 </r>
       <r>   16.2795    0.0000 </r>
       <r>   29.7068    0.0000 </r>
       <r>   32.1883    0.0000 </r>
       <r>   33.3973    0.0000 </r>
       <r>   39.0763    0.0000 </r>
       <r>   45.0368    0.0000 </r>
       <r>   52.0782    0.0000 </r>
      </set>
      <set comment="kpoint 23">
       <r>    8.0953    1.0000 </r>
       <r>    8.8256    1.0000 </r>
       <r>   13.1706    1.0000 </r>
       <r>   13.9612    1.0000 </r>
       <r>   14.6292    0.0000 </r>
       <r>   19.2829    0.0000 </r>
       <r>   27.4051    0.0000 </r>
       <r>   29.5537    0.0000 </r>
       <r>   32.2164    0.0000 </r>
       <r>   40.6895    0.0000 </r>
       <r>   46.8701    0.0000 </r>
       <r>   52.2061    0.0000 </r>
      </set>
      <set comment="kpoint 24">
       <r>    8.8069    1.0000 </r>
       <r>    9.4171    1.0000 </r>
       <r>   11.7605    1.0000 </r>
       <r>   13.2872    1.0000 </r>
       <r>   14.3657    0.9582 </r>
       <r>   21.8313    0.0000 </r>
       <r>   24.4355    0.0000 </r>
       <r>   28.3943    0.0000 </r>
       <r>   34.1280    0.0000 </r>
       <r>   41.7068    0.0000 </r>
       <r>   50.9259    0.0000 </r>
       <r>   53.8075    0.0000 </r>
      </set>
      <set comment="kpoint 25">
       <r>    9.1915    1.0000 </r>
       <r>   10.0529    1.0000 </r>
       <r>   11.2788    1.0000 </r>
       <r>   12.3314    1.0000 </r>
       <r>   14.1591    1.0000 </r>
       <r>   19.3747    0.0000 </r>
       <r>   23.7121    0.0000 </r>
       <r>   32.3444    0.0000 </r>
       <r>   37.1375    0.0000 </r>
       <r>   42.6721    0.0000 </r>
       <r>   50.7973    0.0000 </r>
       <r>   51.7423    0.0000 </r>
      </set>
      <set comment="kpoint 26">
       <r>    8.2861    1.0000 </r>
       <r>   10.9847    1.0000 </r>
       <r>   11.5962    1.0000 </r>
       <r>   12.1817    1.0000 </r>
       <r>   14.2406    1.0000 </r>
       <r>   16.0412    0.0000 </r>
       <r>   24.3447    0.0000 </r>
       <r>   36.9548    0.0000 </r>
       <r>   40.7332    0.0000 </r>
       <r>   43.3978    0.0000 </r>
       <r>   48.7806    0.0000 </r>
       <r>   50.9378    0.0000 </r>
      </set>
      <set comment="kpoint 27">
       <r>    7.8017    1.0000 </r>
       <r>    8.5906    1.0000 </r>
       <r>   14.2334    1.0000 </r>
       <r>   14.2474    1.0000 </r>
       <r>   14.6498    0.0000 </r>
       <r>   17.8902    0.0000 </r>
       <r>   27.4725    0.0000 </r>
       <r>   31.4040    0.0000 </r>
       <r>   32.5884    0.0000 </r>
       <r>   38.9914    0.0000 </r>
       <r>   44.8252    0.0000 </r>
       <r>   52.1570    0.0000 </r>
      </set>
      <set comment="kpoint 28">
       <r>    8.2514    1.0000 </r>
       <r>    8.9956    1.0000 </r>
       <r>   12.6936    1.0000 </r>
       <r>   13.8141    1.0000 </r>
       <r>   14.4199    0.5791 </r>
       <r>   17.5637    0.0000 </r>
       <r>   29.3885    0.0000 </r>
       <r>   30.5984    0.0000 </r>
       <r>   32.9674    0.0000 </r>
       <r>   40.8694    0.0000 </r>
       <r>   47.0703    0.0000 </r>
       <r>   52.1044    0.0000 </r>
      </set>
      <set comment="kpoint 29">
       <r>    8.8619    1.0000 </r>
       <r>    9.9235    1.0000 </r>
       <r>   11.2497    1.0000 </r>
       <r>   12.5694    1.0000 </r>
       <r>   14.3319    0.9964 </r>
       <r>   17.2241    0.0000 </r>
       <r>   26.4909    0.0000 </r>
       <r>   33.8931    0.0000 </r>
       <r>   36.1291    0.0000 </r>
       <r>   42.2802    0.0000 </r>
       <r>   51.1347    0.0000 </r>
       <r>   51.9003    0.0000 </r>
      </set>
      <set comment="kpoint 30">
       <r>    8.0560    1.0000 </r>
       <r>    9.1311    1.0000 </r>
       <r>   12.9478    1.0000 </r>
       <r>   13.5690    1.0000 </r>
       <r>   14.1909    1.0000 </r>
       <r>   14.5852    0.0000 </r>
       <r>   32.5708    0.0000 </r>
       <r>   33.8035    0.0000 </r>
       <r>   34.8978    0.0000 </r>
       <r>   39.2890    0.0000 </r>
       <r>   45.6404    0.0000 </r>
       <r>   52.0650    0.0000 </r>
      </set>
      <set comment="kpoint 31">
       <r>    8.0542    1.0000 </r>
       <r>    9.7557    1.0000 </r>
       <r>   11.5442    1.0000 </r>
       <r>   12.8583    1.0000 </r>
       <r>   13.5743    1.0000 </r>
       <r>   14.5484    0.0003 </r>
       <r>   32.5250    0.0000 </r>
       <r>   35.1205    0.0000 </r>
       <r>   37.7065    0.0000 </r>
       <r>   42.0340    0.0000 </r>
       <r>   48.6561    0.0000 </r>
       <r>   51.9775    0.0000 </r>
      </set>
      <set comment="kpoint 32">
       <r>    6.7050    1.0000 </r>
       <r>   10.1586    1.0000 </r>
       <r>   11.9796    1.0000 </r>
       <r>   12.4307    1.0000 </r>
       <r>   12.7626    1.0000 </r>
       <r>   13.6480    1.0000 </r>
       <r>   36.5629    0.0000 </r>
       <r>   38.7531    0.0000 </r>
       <r>   39.2759    0.0000 </r>
       <r>   41.1189    0.0000 </r>
       <r>   48.9528    0.0000 </r>
       <r>   52.1853    0.0000 </r>
      </set>
      <set comment="kpoint 33">
       <r>    5.5090    1.0000 </r>
       <r>   10.9603    1.0000 </r>
       <r>   11.7193    1.0000 </r>
       <r>   11.7193    1.0000 </r>
       <r>   13.0997    1.0000 </r>
       <r>   13.0997    1.0000 </r>
       <r>   35.6354    0.0000 </r>
       <r>   40.8513    0.0000 </r>
       <r>   45.3738    0.0000 </r>
       <r>   45.3738    0.0000 </r>
       <r>   50.6747    0.0000 </r>
       <r>   51.4879    0.0000 </r>
      </set>
      <set comment="kpoint 34">
       <r>    6.7468    1.0000 </r>
       <r>   10.5902    1.0000 </r>
       <r>   11.6485    1.0000 </r>
       <r>   12.0747    1.0000 </r>
       <r>   12.6387    1.0000 </r>
       <r>   13.9536    1.0000 </r>
       <r>   33.9146    0.0000 </r>
       <r>   36.6697    0.0000 </r>
       <r>   44.7729    0.0000 </r>
       <r>   46.8766    0.0000 </r>
       <r>   47.6294    0.0000 </r>
       <r>   50.8851    0.0000 </r>
      </set>
      <set comment="kpoint 35">
       <r>    8.5112    1.0000 </r>
       <r>   10.4386    1.0000 </r>
       <r>   11.0840    1.0000 </r>
       <r>   12.2129    1.0000 </r>
       <r>   12.9458    1.0000 </r>
       <r>   15.5235    0.0000 </r>
       <r>   30.1515    0.0000 </r>
       <r>   33.1677    0.0000 </r>
       <r>   42.6761    0.0000 </r>
       <r>   44.4052    0.0000 </r>
       <r>   48.9344    0.0000 </r>
       <r>   51.3393    0.0000 </r>
      </set>
      <set comment="kpoint 36">
       <r>    8.9231    1.0000 </r>
       <r>   10.4884    1.0000 </r>
       <r>   11.4109    1.0000 </r>
       <r>   12.0275    1.0000 </r>
       <r>   13.9200    1.0000 </r>
       <r>   17.8081    0.0000 </r>
       <r>   24.6678    0.0000 </r>
       <r>   33.3559    0.0000 </r>
       <r>   40.8834    0.0000 </r>
       <r>   40.9666    0.0000 </r>
       <r>   50.9764    0.0000 </r>
       <r>   52.2992    0.0000 </r>
      </set>
      <set comment="kpoint 37">
       <r>    8.7601    1.0000 </r>
       <r>   10.2782    1.0000 </r>
       <r>   11.4898    1.0000 </r>
       <r>   12.1349    1.0000 </r>
       <r>   14.4385    0.3720 </r>
       <r>   17.5443    0.0000 </r>
       <r>   24.5946    0.0000 </r>
       <r>   34.6568    0.0000 </r>
       <r>   38.6084    0.0000 </r>
       <r>   40.8605    0.0000 </r>
       <r>   51.1873    0.0000 </r>
       <r>   53.1936    0.0000 </r>
      </set>
      <set comment="kpoint 38">
       <r>    8.2235    1.0000 </r>
       <r>    9.9923    1.0000 </r>
       <r>   11.3801    1.0000 </r>
       <r>   12.4044    1.0000 </r>
       <r>   14.1962    1.0000 </r>
       <r>   14.6077    0.0000 </r>
       <r>   30.0565    0.0000 </r>
       <r>   36.7074    0.0000 </r>
       <r>   38.1147    0.0000 </r>
       <r>   41.6452    0.0000 </r>
       <r>   50.4396    0.0000 </r>
       <r>   52.3883    0.0000 </r>
      </set>
      <set comment="kpoint 39">
       <r>    7.3394    1.0000 </r>
       <r>   10.4222    1.0000 </r>
       <r>   11.5306    1.0000 </r>
       <r>   12.0472    1.0000 </r>
       <r>   13.5140    1.0000 </r>
       <r>   13.8484    1.0000 </r>
       <r>   31.7366    0.0000 </r>
       <r>   38.7317    0.0000 </r>
       <r>   40.4028    0.0000 </r>
       <r>   44.0557    0.0000 </r>
       <r>   50.6794    0.0000 </r>
       <r>   51.5539    0.0000 </r>
      </set>
      <set comment="kpoint 40">
       <r>    8.6213    1.0000 </r>
       <r>   10.0336    1.0000 </r>
       <r>   11.0049    1.0000 </r>
       <r>   12.6892    1.0000 </r>
       <r>   13.3780    1.0000 </r>
       <r>   15.5680    0.0000 </r>
       <r>   30.3950    0.0000 </r>
       <r>   33.3299    0.0000 </r>
       <r>   38.4387    0.0000 </r>
       <r>   45.0500    0.0000 </r>
       <r>   49.1159    0.0000 </r>
       <r>   51.0081    0.0000 </r>
      </set>
      <set comment="kpoint 41">
       <r>    9.5128    1.0000 </r>
       <r>   10.0363    1.0000 </r>
       <r>   10.5077    1.0000 </r>
       <r>   12.8039    1.0000 </r>
       <r>   13.8510    1.0000 </r>
       <r>   18.4253    0.0000 </r>
       <r>   27.0064    0.0000 </r>
       <r>   30.5463    0.0000 </r>
       <r>   35.5416    0.0000 </r>
       <r>   46.1542    0.0000 </r>
       <r>   48.5919    0.0000 </r>
       <r>   51.2274    0.0000 </r>
      </set>
      <set comment="kpoint 42">
       <r>    9.4078    1.0000 </r>
       <r>    9.7399    1.0000 </r>
       <r>   10.9919    1.0000 </r>
       <r>   12.7258    1.0000 </r>
       <r>   14.2971    0.9999 </r>
       <r>   20.5315    0.0000 </r>
       <r>   23.9609    0.0000 </r>
       <r>   31.4451    0.0000 </r>
       <r>   33.7219    0.0000 </r>
       <r>   44.8004    0.0000 </r>
       <r>   50.2271    0.0000 </r>
       <r>   51.4271    0.0000 </r>
      </set>
      <set comment="kpoint 43">
       <r>    8.9403    1.0000 </r>
       <r>    9.6831    1.0000 </r>
       <r>   11.0969    1.0000 </r>
       <r>   13.1462    1.0000 </r>
       <r>   13.9180    1.0000 </r>
       <r>   17.0515    0.0000 </r>
       <r>   28.9469    0.0000 </r>
       <r>   31.8944    0.0000 </r>
       <r>   34.7579    0.0000 </r>
       <r>   44.2909    0.0000 </r>
       <r>   49.5016    0.0000 </r>
       <r>   51.2521    0.0000 </r>
      </set>
      <set comment="kpoint 44">
       <r>    8.5758    1.0000 </r>
       <r>    9.5394    1.0000 </r>
       <r>   11.6970    1.0000 </r>
       <r>   12.8544    1.0000 </r>
       <r>   14.4336    0.4250 </r>
       <r>   16.2696    0.0000 </r>
       <r>   28.5808    0.0000 </r>
       <r>   33.6744    0.0000 </r>
       <r>   36.2244    0.0000 </r>
       <r>   40.5937    0.0000 </r>
       <r>   49.7500    0.0000 </r>
       <r>   52.2934    0.0000 </r>
      </set>
      <set comment="kpoint 45">
       <r>    8.7701    1.0000 </r>
       <r>    9.4193    1.0000 </r>
       <r>   11.5677    1.0000 </r>
       <r>   13.4315    1.0000 </r>
       <r>   14.3484    0.9868 </r>
       <r>   19.0906    0.0000 </r>
       <r>   27.7751    0.0000 </r>
       <r>   30.1628    0.0000 </r>
       <r>   32.0374    0.0000 </r>
       <r>   43.8012    0.0000 </r>
       <r>   49.6049    0.0000 </r>
       <r>   51.8811    0.0000 </r>
      </set>
      <set comment="kpoint 46">
       <r>    9.0160    1.0000 </r>
       <r>    9.9594    1.0000 </r>
       <r>   10.8653    1.0000 </r>
       <r>   13.0649    1.0000 </r>
       <r>   14.6193    0.0000 </r>
       <r>   23.0247    0.0000 </r>
       <r>   25.1151    0.0000 </r>
       <r>   27.9926    0.0000 </r>
       <r>   30.3049    0.0000 </r>
       <r>   47.0512    0.0000 </r>
       <r>   50.9664    0.0000 </r>
       <r>   51.1396    0.0000 </r>
      </set>
      <set comment="kpoint 47">
       <r>    9.2661    1.0000 </r>
       <r>    9.9705    1.0000 </r>
       <r>   10.6642    1.0000 </r>
       <r>   13.0213    1.0000 </r>
       <r>   14.3188    0.9989 </r>
       <r>   20.6582    0.0000 </r>
       <r>   25.8622    0.0000 </r>
       <r>   29.5431    0.0000 </r>
       <r>   32.1021    0.0000 </r>
       <r>   47.0509    0.0000 </r>
       <r>   49.1556    0.0000 </r>
       <r>   51.1434    0.0000 </r>
      </set>
      <set comment="kpoint 48">
       <r>    8.3552    1.0000 </r>
       <r>    9.0358    1.0000 </r>
       <r>   12.6400    1.0000 </r>
       <r>   13.6761    1.0000 </r>
       <r>   14.4751    0.0866 </r>
       <r>   20.3222    0.0000 </r>
       <r>   26.3209    0.0000 </r>
       <r>   28.3391    0.0000 </r>
       <r>   34.1575    0.0000 </r>
       <r>   40.1097    0.0000 </r>
       <r>   49.0832    0.0000 </r>
       <r>   52.4503    0.0000 </r>
      </set>
      <set comment="kpoint 49">
       <r>    8.5831    1.0000 </r>
       <r>    9.2880    1.0000 </r>
       <r>   11.9517    1.0000 </r>
       <r>   13.4868    1.0000 </r>
       <r>   14.6216    0.0000 </r>
       <r>   21.1034    0.0000 </r>
       <r>   26.7986    0.0000 </r>
       <r>   28.1926    0.0000 </r>
       <r>   31.1128    0.0000 </r>
       <r>   43.5652    0.0000 </r>
       <r>   49.6335    0.0000 </r>
       <r>   52.4143    0.0000 </r>
      </set>
      <set comment="kpoint 50">
       <r>    8.4958    1.0000 </r>
       <r>    9.1998    1.0000 </r>
       <r>   12.2590    1.0000 </r>
       <r>   13.3232    1.0000 </r>
       <r>   14.5180    0.0050 </r>
       <r>   18.3685    0.0000 </r>
       <r>   27.3539    0.0000 </r>
       <r>   30.5048    0.0000 </r>
       <r>   34.8687    0.0000 </r>
       <r>   40.2266    0.0000 </r>
       <r>   49.2909    0.0000 </r>
       <r>   52.4036    0.0000 </r>
      </set>
      <set comment="kpoint 51">
       <r>    7.3733    1.0000 </r>
       <r>   11.2858    1.0000 </r>
       <r>   11.5871    1.0000 </r>
       <r>   11.5871    1.0000 </r>
       <r>   13.6536    1.0000 </r>
       <r>   13.6536    1.0000 </r>
       <r>   29.2717    0.0000 </r>
       <r>   39.4082    0.0000 </r>
       <r>   44.8589    0.0000 </r>
       <r>   44.8589    0.0000 </r>
       <r>   49.1489    0.0000 </r>
       <r>   49.1489    0.0000 </r>
      </set>
      <set comment="kpoint 52">
       <r>    8.2389    1.0000 </r>
       <r>   11.1332    1.0000 </r>
       <r>   11.1999    1.0000 </r>
       <r>   11.7854    1.0000 </r>
       <r>   13.4714    1.0000 </r>
       <r>   15.2824    0.0000 </r>
       <r>   27.6873    0.0000 </r>
       <r>   35.9978    0.0000 </r>
       <r>   42.1785    0.0000 </r>
       <r>   44.7131    0.0000 </r>
       <r>   49.3511    0.0000 </r>
       <r>   49.7900    0.0000 </r>
      </set>
      <set comment="kpoint 53">
       <r>    9.4882    1.0000 </r>
       <r>   10.2578    1.0000 </r>
       <r>   10.7126    1.0000 </r>
       <r>   12.4319    1.0000 </r>
       <r>   13.5364    1.0000 </r>
       <r>   18.1282    0.0000 </r>
       <r>   26.7217    0.0000 </r>
       <r>   30.4250    0.0000 </r>
       <r>   40.4743    0.0000 </r>
       <r>   41.0751    0.0000 </r>
       <r>   51.2757    0.0000 </r>
       <r>   52.5799    0.0000 </r>
      </set>
      <set comment="kpoint 54">
       <r>    9.1764    1.0000 </r>
       <r>    9.6608    1.0000 </r>
       <r>   11.3593    1.0000 </r>
       <r>   12.9662    1.0000 </r>
       <r>   14.0832    1.0000 </r>
       <r>   21.6627    0.0000 </r>
       <r>   23.6991    0.0000 </r>
       <r>   28.7979    0.0000 </r>
       <r>   36.9269    0.0000 </r>
       <r>   40.4227    0.0000 </r>
       <r>   51.3069    0.0000 </r>
       <r>   56.3702    0.0000 </r>
      </set>
      <set comment="kpoint 55">
       <r>    8.3175    1.0000 </r>
       <r>   10.8682    1.0000 </r>
       <r>   11.5875    1.0000 </r>
       <r>   11.7867    1.0000 </r>
       <r>   14.3653    0.9594 </r>
       <r>   15.4951    0.0000 </r>
       <r>   25.8489    0.0000 </r>
       <r>   37.1970    0.0000 </r>
       <r>   40.2541    0.0000 </r>
       <r>   42.3305    0.0000 </r>
       <r>   50.6308    0.0000 </r>
       <r>   51.4678    0.0000 </r>
      </set>
      <set comment="kpoint 56">
       <r>    9.1160    1.0000 </r>
       <r>   10.1400    1.0000 </r>
       <r>   11.1292    1.0000 </r>
       <r>   12.3603    1.0000 </r>
       <r>   14.1601    1.0000 </r>
       <r>   18.3172    0.0000 </r>
       <r>   24.8232    0.0000 </r>
       <r>   33.3692    0.0000 </r>
       <r>   36.1442    0.0000 </r>
       <r>   44.4756    0.0000 </r>
       <r>   49.2706    0.0000 </r>
       <r>   51.4141    0.0000 </r>
      </set>
      <set comment="kpoint 57">
       <r>    9.2788    1.0000 </r>
       <r>    9.8524    1.0000 </r>
       <r>   10.8801    1.0000 </r>
       <r>   12.9576    1.0000 </r>
       <r>   14.3216    0.9985 </r>
       <r>   22.1696    0.0000 </r>
       <r>   24.0942    0.0000 </r>
       <r>   28.8326    0.0000 </r>
       <r>   33.0208    0.0000 </r>
       <r>   44.9392    0.0000 </r>
       <r>   51.2429    0.0000 </r>
       <r>   51.6340    0.0000 </r>
      </set>
      <set comment="kpoint 58">
       <r>    9.0846    1.0000 </r>
       <r>    9.8211    1.0000 </r>
       <r>   11.4038    1.0000 </r>
       <r>   12.5765    1.0000 </r>
       <r>   14.3089    0.9996 </r>
       <r>   19.8761    0.0000 </r>
       <r>   23.7519    0.0000 </r>
       <r>   31.4902    0.0000 </r>
       <r>   37.4902    0.0000 </r>
       <r>   40.4778    0.0000 </r>
       <r>   51.2602    0.0000 </r>
       <r>   54.8540    0.0000 </r>
      </set>
      <set comment="kpoint 59">
       <r>    7.9312    1.0000 </r>
       <r>   11.3281    1.0000 </r>
       <r>   11.3281    1.0000 </r>
       <r>   13.5060    1.0000 </r>
       <r>   14.2858    1.0000 </r>
       <r>   14.2858    1.0000 </r>
       <r>   24.2258    0.0000 </r>
       <r>   38.2310    0.0000 </r>
       <r>   44.4446    0.0000 </r>
       <r>   44.4446    0.0000 </r>
       <r>   47.3148    0.0000 </r>
       <r>   47.3148    0.0000 </r>
      </set>
      <set comment="kpoint 60">
       <r>    8.4094    1.0000 </r>
       <r>   10.8471    1.0000 </r>
       <r>   11.6362    1.0000 </r>
       <r>   12.2284    1.0000 </r>
       <r>   14.2535    1.0000 </r>
       <r>   16.9115    0.0000 </r>
       <r>   23.4873    0.0000 </r>
       <r>   36.1794    0.0000 </r>
       <r>   41.2977    0.0000 </r>
       <r>   41.7083    0.0000 </r>
       <r>   50.2784    0.0000 </r>
       <r>   50.3193    0.0000 </r>
      </set>
     </set>
     <set comment="spin 2">
      <set comment="kpoint 1">
       <r>    4.1480    1.0000 </r>
       <r>   12.4177    1.0000 </r>
       <r>   12.5552    1.0000 </r>
       <r>   12.5552    1.0000 </r>
       <r>   14.4091    0.6928 </r>
       <r>   14.4091    0.6928 </r>
       <r>   39.3373    0.0000 </r>
       <r>   44.1705    0.0000 </r>
       <r>   46.0306    0.0000 </r>
       <r>   46.0306    0.0000 </r>
       <r>   51.2238    0.0000 </r>
       <r>   51.4421    0.0000 </r>
      </set>
      <set comment="kpoint 2">
       <r>    5.1236    1.0000 </r>
       <r>   12.0353    1.0000 </r>
       <r>   12.8046    1.0000 </r>
       <r>   12.8116    1.0000 </r>
       <r>   14.1326    1.0000 </r>
       <r>   14.5224    0.0035 </r>
       <r>   37.8276    0.0000 </r>
       <r>   40.4125    0.0000 </r>
       <r>   44.6334    0.0000 </r>
       <r>   47.2313    0.0000 </r>
       <r>   49.2216    0.0000 </r>
       <r>   51.4328    0.0000 </r>
      </set>
      <set comment="kpoint 3">
       <r>    7.1312    1.0000 </r>
       <r>   11.6925    1.0000 </r>
       <r>   12.7566    1.0000 </r>
       <r>   12.8953    1.0000 </r>
       <r>   14.3755    0.9270 </r>
       <r>   15.0532    0.0000 </r>
       <r>   31.8226    0.0000 </r>
       <r>   38.9885    0.0000 </r>
       <r>   43.7992    0.0000 </r>
       <r>   47.5286    0.0000 </r>
       <r>   48.9788    0.0000 </r>
       <r>   49.1375    0.0000 </r>
      </set>
      <set comment="kpoint 4">
       <r>    8.5334    1.0000 </r>
       <r>   12.3843    1.0000 </r>
       <r>   12.5910    1.0000 </r>
       <r>   12.7374    1.0000 </r>
       <r>   15.2325    0.0000 </r>
       <r>   15.9478    0.0000 </r>
       <r>   26.2467    0.0000 </r>
       <r>   37.9220    0.0000 </r>
       <r>   42.7961    0.0000 </r>
       <r>   45.3942    0.0000 </r>
       <r>   47.8989    0.0000 </r>
       <r>   49.3532    0.0000 </r>
      </set>
      <set comment="kpoint 5">
       <r>    8.7075    1.0000 </r>
       <r>   12.2466    1.0000 </r>
       <r>   12.5058    1.0000 </r>
       <r>   13.5696    1.0000 </r>
       <r>   15.6958    0.0000 </r>
       <r>   16.3377    0.0000 </r>
       <r>   24.1561    0.0000 </r>
       <r>   37.6533    0.0000 </r>
       <r>   43.2015    0.0000 </r>
       <r>   43.3283    0.0000 </r>
       <r>   48.6860    0.0000 </r>
       <r>   48.7952    0.0000 </r>
      </set>
      <set comment="kpoint 6">
       <r>    8.2489    1.0000 </r>
       <r>   12.1148    1.0000 </r>
       <r>   12.5208    1.0000 </r>
       <r>   12.7206    1.0000 </r>
       <r>   15.2576    0.0000 </r>
       <r>   15.3802    0.0000 </r>
       <r>   27.9110    0.0000 </r>
       <r>   38.5096    0.0000 </r>
       <r>   42.6511    0.0000 </r>
       <r>   45.5225    0.0000 </r>
       <r>   48.2932    0.0000 </r>
       <r>   50.4754    0.0000 </r>
      </set>
      <set comment="kpoint 7">
       <r>    6.4142    1.0000 </r>
       <r>   11.7043    1.0000 </r>
       <r>   12.8563    1.0000 </r>
       <r>   12.9418    1.0000 </r>
       <r>   14.2610    1.0000 </r>
       <r>   14.7345    0.0000 </r>
       <r>   33.9116    0.0000 </r>
       <r>   39.9368    0.0000 </r>
       <r>   43.1907    0.0000 </r>
       <r>   47.2317    0.0000 </r>
       <r>   48.6040    0.0000 </r>
       <r>   52.5028    0.0000 </r>
      </set>
      <set comment="kpoint 8">
       <r>    4.6456    1.0000 </r>
       <r>   12.1706    1.0000 </r>
       <r>   12.7233    1.0000 </r>
       <r>   12.7313    1.0000 </r>
       <r>   14.1712    1.0000 </r>
       <r>   14.5121    0.0080 </r>
       <r>   38.9899    0.0000 </r>
       <r>   42.1135    0.0000 </r>
       <r>   44.3774    0.0000 </r>
       <r>   45.6663    0.0000 </r>
       <r>   51.0839    0.0000 </r>
       <r>   52.5626    0.0000 </r>
      </set>
      <set comment="kpoint 9">
       <r>    5.5839    1.0000 </r>
       <r>   11.7053    1.0000 </r>
       <r>   13.0375    1.0000 </r>
       <r>   13.0755    1.0000 </r>
       <r>   13.8112    1.0000 </r>
       <r>   14.7034    0.0000 </r>
       <r>   38.2139    0.0000 </r>
       <r>   40.2842    0.0000 </r>
       <r>   42.0385    0.0000 </r>
       <r>   43.5660    0.0000 </r>
       <r>   52.2911    0.0000 </r>
       <r>   53.2071    0.0000 </r>
      </set>
      <set comment="kpoint 10">
       <r>    7.2024    1.0000 </r>
       <r>   11.1881    1.0000 </r>
       <r>   12.7332    1.0000 </r>
       <r>   13.5068    1.0000 </r>
       <r>   14.1213    1.0000 </r>
       <r>   15.1934    0.0000 </r>
       <r>   34.5027    0.0000 </r>
       <r>   37.0886    0.0000 </r>
       <r>   41.2158    0.0000 </r>
       <r>   43.4544    0.0000 </r>
       <r>   51.0877    0.0000 </r>
       <r>   52.6130    0.0000 </r>
      </set>
      <set comment="kpoint 11">
       <r>    8.9109    1.0000 </r>
       <r>   11.2230    1.0000 </r>
       <r>   12.1691    1.0000 </r>
       <r>   13.3032    1.0000 </r>
       <r>   15.2578    0.0000 </r>
       <r>   16.4962    0.0000 </r>
       <r>   28.3634    0.0000 </r>
       <r>   36.1731    0.0000 </r>
       <r>   39.1026    0.0000 </r>
       <r>   43.4826    0.0000 </r>
       <r>   50.8304    0.0000 </r>
       <r>   53.4665    0.0000 </r>
      </set>
      <set comment="kpoint 12">
       <r>    9.3816    1.0000 </r>
       <r>   11.4027    1.0000 </r>
       <r>   12.5305    1.0000 </r>
       <r>   13.0619    1.0000 </r>
       <r>   15.6190    0.0000 </r>
       <r>   18.5148    0.0000 </r>
       <r>   24.2059    0.0000 </r>
       <r>   35.3998    0.0000 </r>
       <r>   38.6067    0.0000 </r>
       <r>   42.9048    0.0000 </r>
       <r>   50.0922    0.0000 </r>
       <r>   53.7326    0.0000 </r>
      </set>
      <set comment="kpoint 13">
       <r>    9.2565    1.0000 </r>
       <r>   11.5779    1.0000 </r>
       <r>   12.0734    1.0000 </r>
       <r>   13.1367    1.0000 </r>
       <r>   15.0742    0.0000 </r>
       <r>   17.4598    0.0000 </r>
       <r>   26.6395    0.0000 </r>
       <r>   34.8577    0.0000 </r>
       <r>   39.8770    0.0000 </r>
       <r>   44.2483    0.0000 </r>
       <r>   49.2767    0.0000 </r>
       <r>   53.1878    0.0000 </r>
      </set>
      <set comment="kpoint 14">
       <r>    7.9102    1.0000 </r>
       <r>   11.2712    1.0000 </r>
       <r>   12.4337    1.0000 </r>
       <r>   13.4532    1.0000 </r>
       <r>   14.0342    1.0000 </r>
       <r>   15.8285    0.0000 </r>
       <r>   32.4175    0.0000 </r>
       <r>   35.1600    0.0000 </r>
       <r>   42.3608    0.0000 </r>
       <r>   46.0923    0.0000 </r>
       <r>   48.5134    0.0000 </r>
       <r>   52.5912    0.0000 </r>
      </set>
      <set comment="kpoint 15">
       <r>    6.0236    1.0000 </r>
       <r>   11.6795    1.0000 </r>
       <r>   12.8919    1.0000 </r>
       <r>   13.0915    1.0000 </r>
       <r>   13.9355    1.0000 </r>
       <r>   14.7904    0.0000 </r>
       <r>   36.2055    0.0000 </r>
       <r>   38.7208    0.0000 </r>
       <r>   43.6670    0.0000 </r>
       <r>   45.5752    0.0000 </r>
       <r>   50.2710    0.0000 </r>
       <r>   52.2256    0.0000 </r>
      </set>
      <set comment="kpoint 16">
       <r>    7.9819    1.0000 </r>
       <r>   10.5359    1.0000 </r>
       <r>   13.0685    1.0000 </r>
       <r>   14.1677    1.0000 </r>
       <r>   14.5716    0.0000 </r>
       <r>   15.2379    0.0000 </r>
       <r>   35.0028    0.0000 </r>
       <r>   36.7054    0.0000 </r>
       <r>   37.1729    0.0000 </r>
       <r>   40.0079    0.0000 </r>
       <r>   47.4899    0.0000 </r>
       <r>   54.3477    0.0000 </r>
      </set>
      <set comment="kpoint 17">
       <r>    8.9265    1.0000 </r>
       <r>   10.1994    1.0000 </r>
       <r>   12.8654    1.0000 </r>
       <r>   14.6007    0.0000 </r>
       <r>   15.3452    0.0000 </r>
       <r>   16.6817    0.0000 </r>
       <r>   31.3101    0.0000 </r>
       <r>   33.3816    0.0000 </r>
       <r>   34.9417    0.0000 </r>
       <r>   41.5039    0.0000 </r>
       <r>   48.1239    0.0000 </r>
       <r>   54.2789    0.0000 </r>
      </set>
      <set comment="kpoint 18">
       <r>    9.6788    1.0000 </r>
       <r>   10.3518    1.0000 </r>
       <r>   12.3833    1.0000 </r>
       <r>   14.2059    1.0000 </r>
       <r>   15.6957    0.0000 </r>
       <r>   20.1622    0.0000 </r>
       <r>   25.8173    0.0000 </r>
       <r>   31.2893    0.0000 </r>
       <r>   35.0021    0.0000 </r>
       <r>   42.0550    0.0000 </r>
       <r>   52.5632    0.0000 </r>
       <r>   53.9183    0.0000 </r>
      </set>
      <set comment="kpoint 19">
       <r>   10.3976    1.0000 </r>
       <r>   10.5915    1.0000 </r>
       <r>   11.7041    1.0000 </r>
       <r>   13.9179    1.0000 </r>
       <r>   15.1455    0.0000 </r>
       <r>   20.6283    0.0000 </r>
       <r>   25.7065    0.0000 </r>
       <r>   29.9032    0.0000 </r>
       <r>   36.9695    0.0000 </r>
       <r>   42.8849    0.0000 </r>
       <r>   52.3492    0.0000 </r>
       <r>   53.8391    0.0000 </r>
      </set>
      <set comment="kpoint 20">
       <r>    9.6008    1.0000 </r>
       <r>   11.2228    1.0000 </r>
       <r>   11.6354    1.0000 </r>
       <r>   13.6151    1.0000 </r>
       <r>   14.5492    0.0003 </r>
       <r>   17.7125    0.0000 </r>
       <r>   28.9141    0.0000 </r>
       <r>   32.0395    0.0000 </r>
       <r>   39.6312    0.0000 </r>
       <r>   44.9257    0.0000 </r>
       <r>   49.1976    0.0000 </r>
       <r>   53.7238    0.0000 </r>
      </set>
      <set comment="kpoint 21">
       <r>    8.0359    1.0000 </r>
       <r>   11.5571    1.0000 </r>
       <r>   12.4874    1.0000 </r>
       <r>   13.0015    1.0000 </r>
       <r>   14.6739    0.0000 </r>
       <r>   15.6317    0.0000 </r>
       <r>   29.9817    0.0000 </r>
       <r>   37.6357    0.0000 </r>
       <r>   41.9804    0.0000 </r>
       <r>   45.6265    0.0000 </r>
       <r>   49.3140    0.0000 </r>
       <r>   51.0839    0.0000 </r>
      </set>
      <set comment="kpoint 22">
       <r>    8.6178    1.0000 </r>
       <r>    9.6398    1.0000 </r>
       <r>   14.7532    0.0000 </r>
       <r>   15.3114    0.0000 </r>
       <r>   15.7551    0.0000 </r>
       <r>   16.8498    0.0000 </r>
       <r>   30.1857    0.0000 </r>
       <r>   32.4216    0.0000 </r>
       <r>   33.5846    0.0000 </r>
       <r>   39.4039    0.0000 </r>
       <r>   45.4925    0.0000 </r>
       <r>   54.4604    0.0000 </r>
      </set>
      <set comment="kpoint 23">
       <r>    8.8337    1.0000 </r>
       <r>    9.6731    1.0000 </r>
       <r>   14.1060    1.0000 </r>
       <r>   15.2681    0.0000 </r>
       <r>   15.9146    0.0000 </r>
       <r>   19.7286    0.0000 </r>
       <r>   27.9832    0.0000 </r>
       <r>   29.8496    0.0000 </r>
       <r>   32.4335    0.0000 </r>
       <r>   40.9617    0.0000 </r>
       <r>   47.3552    0.0000 </r>
       <r>   54.5228    0.0000 </r>
      </set>
      <set comment="kpoint 24">
       <r>    9.6069    1.0000 </r>
       <r>   10.2195    1.0000 </r>
       <r>   12.6259    1.0000 </r>
       <r>   14.5363    0.0010 </r>
       <r>   15.6359    0.0000 </r>
       <r>   22.3427    0.0000 </r>
       <r>   24.8942    0.0000 </r>
       <r>   28.8859    0.0000 </r>
       <r>   34.3944    0.0000 </r>
       <r>   41.9197    0.0000 </r>
       <r>   52.5953    0.0000 </r>
       <r>   54.8186    0.0000 </r>
      </set>
      <set comment="kpoint 25">
       <r>    9.9247    1.0000 </r>
       <r>   10.8805    1.0000 </r>
       <r>   12.1159    1.0000 </r>
       <r>   13.5055    1.0000 </r>
       <r>   15.4329    0.0000 </r>
       <r>   20.0168    0.0000 </r>
       <r>   24.3289    0.0000 </r>
       <r>   32.6618    0.0000 </r>
       <r>   37.4059    0.0000 </r>
       <r>   42.8163    0.0000 </r>
       <r>   51.2937    0.0000 </r>
       <r>   53.8496    0.0000 </r>
      </set>
      <set comment="kpoint 26">
       <r>    8.9073    1.0000 </r>
       <r>   11.9857    1.0000 </r>
       <r>   12.7130    1.0000 </r>
       <r>   12.8293    1.0000 </r>
       <r>   15.5254    0.0000 </r>
       <r>   16.9236    0.0000 </r>
       <r>   24.9841    0.0000 </r>
       <r>   36.9957    0.0000 </r>
       <r>   40.9834    0.0000 </r>
       <r>   43.5988    0.0000 </r>
       <r>   49.0468    0.0000 </r>
       <r>   51.1686    0.0000 </r>
      </set>
      <set comment="kpoint 27">
       <r>    8.5236    1.0000 </r>
       <r>    9.4405    1.0000 </r>
       <r>   15.3315    0.0000 </r>
       <r>   15.5740    0.0000 </r>
       <r>   15.9389    0.0000 </r>
       <r>   18.1873    0.0000 </r>
       <r>   28.0901    0.0000 </r>
       <r>   31.6041    0.0000 </r>
       <r>   32.7493    0.0000 </r>
       <r>   39.3401    0.0000 </r>
       <r>   45.2712    0.0000 </r>
       <r>   54.5442    0.0000 </r>
      </set>
      <set comment="kpoint 28">
       <r>    8.9438    1.0000 </r>
       <r>    9.8542    1.0000 </r>
       <r>   13.5776    1.0000 </r>
       <r>   15.0725    0.0000 </r>
       <r>   15.7026    0.0000 </r>
       <r>   18.2226    0.0000 </r>
       <r>   29.7851    0.0000 </r>
       <r>   30.9664    0.0000 </r>
       <r>   33.2069    0.0000 </r>
       <r>   41.1243    0.0000 </r>
       <r>   47.5592    0.0000 </r>
       <r>   54.4050    0.0000 </r>
      </set>
      <set comment="kpoint 29">
       <r>    9.5040    1.0000 </r>
       <r>   10.7311    1.0000 </r>
       <r>   12.1406    1.0000 </r>
       <r>   13.7408    1.0000 </r>
       <r>   15.6201    0.0000 </r>
       <r>   18.0408    0.0000 </r>
       <r>   26.9626    0.0000 </r>
       <r>   34.1654    0.0000 </r>
       <r>   36.4175    0.0000 </r>
       <r>   42.4665    0.0000 </r>
       <r>   52.0238    0.0000 </r>
       <r>   53.3954    0.0000 </r>
      </set>
      <set comment="kpoint 30">
       <r>    8.5808    1.0000 </r>
       <r>   10.0188    1.0000 </r>
       <r>   13.7445    1.0000 </r>
       <r>   14.7933    0.0000 </r>
       <r>   15.5115    0.0000 </r>
       <r>   15.5233    0.0000 </r>
       <r>   32.8901    0.0000 </r>
       <r>   34.0956    0.0000 </r>
       <r>   35.1222    0.0000 </r>
       <r>   39.5741    0.0000 </r>
       <r>   46.1296    0.0000 </r>
       <r>   54.4321    0.0000 </r>
      </set>
      <set comment="kpoint 31">
       <r>    8.3373    1.0000 </r>
       <r>   10.6666    1.0000 </r>
       <r>   12.5410    1.0000 </r>
       <r>   14.0260    1.0000 </r>
       <r>   14.7412    0.0000 </r>
       <r>   15.7309    0.0000 </r>
       <r>   32.8509    0.0000 </r>
       <r>   35.3740    0.0000 </r>
       <r>   37.9551    0.0000 </r>
       <r>   42.2184    0.0000 </r>
       <r>   49.2682    0.0000 </r>
       <r>   53.9955    0.0000 </r>
      </set>
      <set comment="kpoint 32">
       <r>    6.8122    1.0000 </r>
       <r>   11.1268    1.0000 </r>
       <r>   13.0892    1.0000 </r>
       <r>   13.5684    1.0000 </r>
       <r>   13.8920    1.0000 </r>
       <r>   14.9569    0.0000 </r>
       <r>   36.8021    0.0000 </r>
       <r>   38.8539    0.0000 </r>
       <r>   39.5457    0.0000 </r>
       <r>   41.2922    0.0000 </r>
       <r>   49.7899    0.0000 </r>
       <r>   54.3232    0.0000 </r>
      </set>
      <set comment="kpoint 33">
       <r>    5.5729    1.0000 </r>
       <r>   11.9521    1.0000 </r>
       <r>   12.8328    1.0000 </r>
       <r>   12.8328    1.0000 </r>
       <r>   14.3643    0.9618 </r>
       <r>   14.3643    0.9618 </r>
       <r>   35.8829    0.0000 </r>
       <r>   40.7484    0.0000 </r>
       <r>   45.5989    0.0000 </r>
       <r>   45.5989    0.0000 </r>
       <r>   50.7706    0.0000 </r>
       <r>   51.6441    0.0000 </r>
      </set>
      <set comment="kpoint 34">
       <r>    6.8450    1.0000 </r>
       <r>   11.5459    1.0000 </r>
       <r>   12.7422    1.0000 </r>
       <r>   13.2171    1.0000 </r>
       <r>   13.8565    1.0000 </r>
       <r>   15.2051    0.0000 </r>
       <r>   34.2238    0.0000 </r>
       <r>   36.8607    0.0000 </r>
       <r>   44.8352    0.0000 </r>
       <r>   46.9208    0.0000 </r>
       <r>   47.7898    0.0000 </r>
       <r>   51.1689    0.0000 </r>
      </set>
      <set comment="kpoint 35">
       <r>    8.7813    1.0000 </r>
       <r>   11.3071    1.0000 </r>
       <r>   12.1160    1.0000 </r>
       <r>   13.3949    1.0000 </r>
       <r>   14.1389    1.0000 </r>
       <r>   16.6569    0.0000 </r>
       <r>   30.5646    0.0000 </r>
       <r>   33.4605    0.0000 </r>
       <r>   42.7434    0.0000 </r>
       <r>   44.6791    0.0000 </r>
       <r>   48.9543    0.0000 </r>
       <r>   52.3477    0.0000 </r>
      </set>
      <set comment="kpoint 36">
       <r>    9.5812    1.0000 </r>
       <r>   11.3771    1.0000 </r>
       <r>   12.1926    1.0000 </r>
       <r>   13.1872    1.0000 </r>
       <r>   15.1815    0.0000 </r>
       <r>   18.6019    0.0000 </r>
       <r>   25.2597    0.0000 </r>
       <r>   33.6329    0.0000 </r>
       <r>   41.0655    0.0000 </r>
       <r>   41.1652    0.0000 </r>
       <r>   51.8431    0.0000 </r>
       <r>   52.5016    0.0000 </r>
      </set>
      <set comment="kpoint 37">
       <r>    9.4390    1.0000 </r>
       <r>   11.1016    1.0000 </r>
       <r>   12.3409    1.0000 </r>
       <r>   13.2934    1.0000 </r>
       <r>   15.7454    0.0000 </r>
       <r>   18.2843    0.0000 </r>
       <r>   25.1686    0.0000 </r>
       <r>   34.8866    0.0000 </r>
       <r>   38.8740    0.0000 </r>
       <r>   41.0441    0.0000 </r>
       <r>   53.0192    0.0000 </r>
       <r>   53.6565    0.0000 </r>
      </set>
      <set comment="kpoint 38">
       <r>    8.5644    1.0000 </r>
       <r>   10.8486    1.0000 </r>
       <r>   12.3863    1.0000 </r>
       <r>   13.5671    1.0000 </r>
       <r>   15.5049    0.0000 </r>
       <r>   15.6264    0.0000 </r>
       <r>   30.4453    0.0000 </r>
       <r>   36.8736    0.0000 </r>
       <r>   38.3815    0.0000 </r>
       <r>   41.8829    0.0000 </r>
       <r>   51.4242    0.0000 </r>
       <r>   53.8657    0.0000 </r>
      </set>
      <set comment="kpoint 39">
       <r>    7.5073    1.0000 </r>
       <r>   11.3134    1.0000 </r>
       <r>   12.6365    1.0000 </r>
       <r>   13.1855    1.0000 </r>
       <r>   14.6500    0.0000 </r>
       <r>   15.1429    0.0000 </r>
       <r>   32.0971    0.0000 </r>
       <r>   38.7649    0.0000 </r>
       <r>   40.6825    0.0000 </r>
       <r>   44.2656    0.0000 </r>
       <r>   51.2261    0.0000 </r>
       <r>   52.8394    0.0000 </r>
      </set>
      <set comment="kpoint 40">
       <r>    8.9480    1.0000 </r>
       <r>   10.9137    1.0000 </r>
       <r>   12.0254    1.0000 </r>
       <r>   13.8544    1.0000 </r>
       <r>   14.5717    0.0000 </r>
       <r>   16.6606    0.0000 </r>
       <r>   30.7863    0.0000 </r>
       <r>   33.6191    0.0000 </r>
       <r>   38.6717    0.0000 </r>
       <r>   45.1839    0.0000 </r>
       <r>   49.2851    0.0000 </r>
       <r>   53.0301    0.0000 </r>
      </set>
      <set comment="kpoint 41">
       <r>   10.1268    1.0000 </r>
       <r>   10.9116    1.0000 </r>
       <r>   11.3901    1.0000 </r>
       <r>   13.9954    1.0000 </r>
       <r>   15.0836    0.0000 </r>
       <r>   19.2200    0.0000 </r>
       <r>   27.4696    0.0000 </r>
       <r>   30.9043    0.0000 </r>
       <r>   35.8313    0.0000 </r>
       <r>   46.2802    0.0000 </r>
       <r>   48.7304    0.0000 </r>
       <r>   53.6062    0.0000 </r>
      </set>
      <set comment="kpoint 42">
       <r>   10.1961    1.0000 </r>
       <r>   10.5276    1.0000 </r>
       <r>   11.8501    1.0000 </r>
       <r>   13.9204    1.0000 </r>
       <r>   15.5697    0.0000 </r>
       <r>   21.1304    0.0000 </r>
       <r>   24.5165    0.0000 </r>
       <r>   31.7991    0.0000 </r>
       <r>   34.0370    0.0000 </r>
       <r>   44.9354    0.0000 </r>
       <r>   50.4680    0.0000 </r>
       <r>   53.7571    0.0000 </r>
      </set>
      <set comment="kpoint 43">
       <r>    9.5180    1.0000 </r>
       <r>   10.5476    1.0000 </r>
       <r>   11.9894    1.0000 </r>
       <r>   14.3386    0.9938 </r>
       <r>   15.1525    0.0000 </r>
       <r>   17.9323    0.0000 </r>
       <r>   29.3465    0.0000 </r>
       <r>   32.2117    0.0000 </r>
       <r>   35.0667    0.0000 </r>
       <r>   44.4535    0.0000 </r>
       <r>   49.8291    0.0000 </r>
       <r>   53.1685    0.0000 </r>
      </set>
      <set comment="kpoint 44">
       <r>    9.1592    1.0000 </r>
       <r>   10.3842    1.0000 </r>
       <r>   12.5652    1.0000 </r>
       <r>   14.0514    1.0000 </r>
       <r>   15.7481    0.0000 </r>
       <r>   17.1202    0.0000 </r>
       <r>   28.9732    0.0000 </r>
       <r>   33.9837    0.0000 </r>
       <r>   36.4695    0.0000 </r>
       <r>   40.8363    0.0000 </r>
       <r>   50.4769    0.0000 </r>
       <r>   54.2795    0.0000 </r>
      </set>
      <set comment="kpoint 45">
       <r>    9.4966    1.0000 </r>
       <r>   10.2712    1.0000 </r>
       <r>   12.4242    1.0000 </r>
       <r>   14.6664    0.0000 </r>
       <r>   15.6133    0.0000 </r>
       <r>   19.7534    0.0000 </r>
       <r>   28.1682    0.0000 </r>
       <r>   30.5633    0.0000 </r>
       <r>   32.3537    0.0000 </r>
       <r>   43.9858    0.0000 </r>
       <r>   50.2004    0.0000 </r>
       <r>   53.7224    0.0000 </r>
      </set>
      <set comment="kpoint 46">
       <r>    9.8044    1.0000 </r>
       <r>   10.8034    1.0000 </r>
       <r>   11.7208    1.0000 </r>
       <r>   14.2869    1.0000 </r>
       <r>   15.9016    0.0000 </r>
       <r>   23.5088    0.0000 </r>
       <r>   25.5593    0.0000 </r>
       <r>   28.4742    0.0000 </r>
       <r>   30.6592    0.0000 </r>
       <r>   47.1957    0.0000 </r>
       <r>   51.0915    0.0000 </r>
       <r>   53.3294    0.0000 </r>
      </set>
      <set comment="kpoint 47">
       <r>   10.0328    1.0000 </r>
       <r>   10.8114    1.0000 </r>
       <r>   11.5058    1.0000 </r>
       <r>   14.2357    1.0000 </r>
       <r>   15.5793    0.0000 </r>
       <r>   21.2791    0.0000 </r>
       <r>   26.3158    0.0000 </r>
       <r>   29.9389    0.0000 </r>
       <r>   32.4482    0.0000 </r>
       <r>   47.1804    0.0000 </r>
       <r>   49.2945    0.0000 </r>
       <r>   53.4714    0.0000 </r>
      </set>
      <set comment="kpoint 48">
[...]
       </set>
       <set comment="band 5">
        <r>  0.0002  0.0000  0.0007  0.0011  0.0025  0.0304  0.0001  0.9538  0.0057 </r>
       </set>
       <set comment="band 6">
        <r>  0.0245  0.0092  0.6189  0.0015  0.0003  0.3265  0.0319  0.0165  0.0025 </r>
       </set>
       <set comment="band 7">
        <r>  0.0016  0.1665  0.0154  0.3065  0.1739  0.0118  0.2834  0.0062  0.0271 </r>
       </set>
       <set comment="band 8">
        <r>  0.2404  0.0217  0.0315  0.1767  0.1389  0.0057  0.3810  0.0012  0.0016 </r>
       </set>
       <set comment="band 9">
        <r>  0.3054  0.1869  0.0062  0.1498  0.0553  0.0014  0.0000  0.0018  0.1338 </r>
       </set>
       <set comment="band 10">
        <r>  0.0223  0.0235  0.0005  0.0676  0.8894  0.0000  0.0111  0.0015  0.0055 </r>
       </set>
       <set comment="band 11">
        <r>  0.8644  0.2421  0.0055  0.0115  0.0678  0.0002  0.1602  0.0003  0.0113 </r>
       </set>
       <set comment="band 12">
        <r>  5.1045  0.0504  0.0055  0.0009  0.0060  0.0285  0.0025  0.0003  0.0047 </r>
       </set>
      </set>
      <set comment="kpoint 50">
       <set comment="band 1">
        <r>  0.0923  0.0118  0.0474  0.0118  0.0805  0.0055  0.7076  0.0055  0.0000 </r>
       </set>
       <set comment="band 2">
        <r>  0.0003  0.0368  0.0003  0.0368  0.8540  0.0080  0.0663  0.0080  0.0000 </r>
       </set>
       <set comment="band 3">
        <r>  0.0471  0.0000  0.2427  0.0000  0.0292  0.3114  0.0580  0.3114  0.0000 </r>
       </set>
       <set comment="band 4">
        <r>  0.0000  0.0080  0.0000  0.0080  0.0000  0.1565  0.0000  0.1565  0.6549 </r>
       </set>
       <set comment="band 5">
        <r>  0.0000  0.0000  0.0000  0.0000  0.0000  0.3360  0.0000  0.3360  0.3225 </r>
       </set>
       <set comment="band 6">
        <r>  0.0825  0.0225  0.3976  0.0225  0.0052  0.1804  0.1239  0.1804  0.0000 </r>
       </set>
       <set comment="band 7">
        <r>  0.0960  0.2267  0.0062  0.2267  0.1999  0.0476  0.1100  0.0476  0.0000 </r>
       </set>
       <set comment="band 8">
        <r>  0.2231  0.0011  0.1714  0.0011  0.0459  0.0039  0.5326  0.0039  0.0000 </r>
       </set>
       <set comment="band 9">
        <r>  0.0000  0.3146  0.0000  0.3146  0.0000  0.0307  0.0000  0.0307  0.1244 </r>
       </set>
       <set comment="band 10">
        <r>  0.1360  0.0007  0.0219  0.0007  0.8730  0.0003  0.0220  0.0003  0.0000 </r>
       </set>
       <set comment="band 11">
        <r>  0.7427  0.0944  0.0343  0.0944  0.2058  0.0070  0.1048  0.0070  0.0000 </r>
       </set>
       <set comment="band 12">
        <r>  5.5559  0.0156  0.0097  0.0156  0.0214  0.0000  0.0004  0.0000  0.0000 </r>
       </set>
      </set>
      <set comment="kpoint 51">
       <set comment="band 1">
        <r>  0.5613  0.0598  0.0598  0.0598  0.0888  0.0888  0.0000  0.0888  0.0000 </r>
       </set>
       <set comment="band 2">
        <r>  0.0506  0.0917  0.0917  0.0917  0.2186  0.2186  0.0000  0.2186  0.0000 </r>
       </set>
       <set comment="band 3">
        <r>  0.0000  0.0005  0.0009  0.0002  0.3100  0.0578  0.3840  0.1768  0.0658 </r>
       </set>
       <set comment="band 4">
        <r>  0.0000  0.0005  0.0002  0.0009  0.0531  0.3052  0.0658  0.1862  0.3840 </r>
       </set>
       <set comment="band 5">
        <r>  0.0000  0.0016  0.0000  0.0013  0.0071  0.1937  0.0129  0.2452  0.5248 </r>
       </set>
       <set comment="band 6">
        <r>  0.0000  0.0003  0.0019  0.0007  0.2902  0.1037  0.5248  0.0521  0.0129 </r>
       </set>
       <set comment="band 7">
        <r>  0.1837  0.0878  0.0878  0.0878  0.1889  0.1889  0.0000  0.1889  0.0000 </r>
       </set>
       <set comment="band 8">
        <r>  0.0074  0.0048  0.0048  0.0048  0.0298  0.0298  0.0000  0.0298  0.0000 </r>
       </set>
       <set comment="band 9">
        <r>  0.0000  0.0036  0.1538  0.1776  0.2598  0.3001  0.1177  0.0061  0.0533 </r>
       </set>
       <set comment="band 10">
        <r>  0.0000  0.2197  0.0696  0.0457  0.1176  0.0773  0.0533  0.3713  0.1177 </r>
       </set>
       <set comment="band 11">
        <r>  0.0000  0.0103  0.0767  0.0504  0.0030  0.0020  0.6662  0.0004  0.1293 </r>
       </set>
       <set comment="band 12">
        <r>  0.0000  0.0813  0.0149  0.0412  0.0006  0.0016  0.1293  0.0032  0.6662 </r>
       </set>
      </set>
      <set comment="kpoint 52">
       <set comment="band 1">
        <r>  0.3933  0.0912  0.0912  0.0011  0.1127  0.1967  0.0031  0.1127  0.0092 </r>
       </set>
       <set comment="band 2">
        <r>  0.0400  0.0981  0.0981  0.1145  0.2587  0.0081  0.0257  0.2587  0.0772 </r>
       </set>
       <set comment="band 3">
        <r>  0.0027  0.0017  0.0017  0.0062  0.0751  0.3466  0.1200  0.0751  0.3601 </r>
       </set>
       <set comment="band 4">
        <r>  0.0000  0.0009  0.0009  0.0000  0.1870  0.0000  0.4602  0.1870  0.1534 </r>
       </set>
       <set comment="band 5">
        <r>  0.0000  0.0016  0.0016  0.0000  0.3077  0.0000  0.2743  0.3077  0.0914 </r>
       </set>
       <set comment="band 6">
        <r>  0.0501  0.0428  0.0428  0.0112  0.0070  0.4381  0.0990  0.0070  0.2971 </r>
       </set>
       <set comment="band 7">
        <r>  0.2152  0.0463  0.0463  0.1765  0.1973  0.1317  0.0056  0.1973  0.0167 </r>
       </set>
       <set comment="band 8">
        <r>  0.0355  0.0152  0.0152  0.1594  0.1216  0.0879  0.0451  0.1216  0.1352 </r>
       </set>
       <set comment="band 9">
        <r>  0.0461  0.1111  0.1111  0.0975  0.0091  0.0116  0.0004  0.0091  0.0011 </r>
       </set>
       <set comment="band 10">
        <r>  0.0000  0.1518  0.1518  0.0000  0.0017  0.0000  0.5552  0.0017  0.1851 </r>
       </set>
       <set comment="band 11">
        <r>  0.1419  0.0108  0.0108  0.0254  0.0140  0.1511  0.0820  0.0140  0.2461 </r>
       </set>
       <set comment="band 12">
        <r>  0.0000  0.0766  0.0766  0.0000  0.3792  0.0000  0.2105  0.3792  0.0702 </r>
       </set>
      </set>
      <set comment="kpoint 53">
       <set comment="band 1">
        <r>  0.1873  0.1167  0.1167  0.0060  0.0457  0.4724  0.0052  0.0457  0.0156 </r>
       </set>
       <set comment="band 2">
        <r>  0.0000  0.0492  0.0492  0.0111  0.0123  0.1145  0.1768  0.0123  0.5305 </r>
       </set>
       <set comment="band 3">
        <r>  0.0061  0.0090  0.0090  0.1346  0.3684  0.0929  0.0042  0.3684  0.0126 </r>
       </set>
       <set comment="band 4">
        <r>  0.0000  0.0063  0.0063  0.0000  0.0419  0.0000  0.6632  0.0419  0.2211 </r>
       </set>
       <set comment="band 5">
        <r>  0.0000  0.0005  0.0005  0.0000  0.4506  0.0000  0.0618  0.4506  0.0206 </r>
       </set>
       <set comment="band 6">
        <r>  0.1373  0.1179  0.1179  0.0077  0.0003  0.3720  0.0615  0.0003  0.1845 </r>
       </set>
       <set comment="band 7">
        <r>  0.1078  0.0087  0.0087  0.4155  0.2301  0.0363  0.0085  0.2301  0.0254 </r>
       </set>
       <set comment="band 8">
        <r>  0.2199  0.0414  0.0414  0.1198  0.0478  0.1039  0.0725  0.0478  0.2175 </r>
       </set>
       <set comment="band 9">
        <r>  0.0000  0.2183  0.2183  0.0000  0.0011  0.0000  0.4319  0.0011  0.1440 </r>
       </set>
       <set comment="band 10">
        <r>  0.1156  0.0722  0.0722  0.0062  0.0001  0.1696  0.0203  0.0001  0.0609 </r>
       </set>
       <set comment="band 11">
        <r>  0.1859  0.0001  0.0001  0.0786  0.0484  0.0389  0.0096  0.0484  0.0288 </r>
       </set>
       <set comment="band 12">
        <r>  5.9524  0.0003  0.0003  0.0023  0.0009  0.0009  0.0001  0.0010  0.0002 </r>
       </set>
      </set>
      <set comment="kpoint 54">
       <set comment="band 1">
        <r>  0.0443  0.0031  0.0031  0.0062  0.0048  0.3383  0.1423  0.0048  0.4269 </r>
       </set>
       <set comment="band 2">
        <r>  0.0185  0.1103  0.1103  0.0003  0.0078  0.4870  0.0629  0.0078  0.1886 </r>
       </set>
       <set comment="band 3">
        <r>  0.0019  0.0019  0.0019  0.2149  0.3766  0.0283  0.0006  0.3766  0.0018 </r>
       </set>
       <set comment="band 4">
        <r>  0.0000  0.0089  0.0089  0.0000  0.0335  0.0000  0.6717  0.0335  0.2239 </r>
       </set>
       <set comment="band 5">
        <r>  0.0000  0.0002  0.0002  0.0000  0.4602  0.0000  0.0503  0.4602  0.0168 </r>
       </set>
       <set comment="band 6">
        <r>  0.0709  0.1909  0.1909  0.0949  0.0188  0.2130  0.0477  0.0188  0.1430 </r>
       </set>
       <set comment="band 7">
        <r>  0.1200  0.0141  0.0141  0.4562  0.1942  0.0588  0.0000  0.1942  0.0000 </r>
       </set>
       <set comment="band 8">
        <r>  0.3345  0.0138  0.0138  0.0652  0.0114  0.0631  0.1093  0.0114  0.3279 </r>
       </set>
       <set comment="band 9">
        <r>  0.0000  0.2797  0.2797  0.0000  0.0023  0.0000  0.2486  0.0023  0.0829 </r>
       </set>
       <set comment="band 10">
        <r>  0.1508  0.0284  0.0284  0.0039  0.0000  0.5134  0.0179  0.0000  0.0536 </r>
       </set>
       <set comment="band 11">
        <r>  5.7336  0.0046  0.0046  0.0001  0.0005  0.0209  0.0046  0.0005  0.0139 </r>
       </set>
       <set comment="band 12">
        <r>  0.1188  0.0562  0.0535  0.0560  0.0439  0.2519  0.0004  0.0259  0.0002 </r>
       </set>
      </set>
      <set comment="kpoint 55">
       <set comment="band 1">
        <r>  0.2921  0.0048  0.0940  0.0048  0.2452  0.1722  0.0312  0.1722  0.0000 </r>
       </set>
       <set comment="band 2">
        <r>  0.0132  0.0924  0.0571  0.0924  0.0650  0.0574  0.5286  0.0574  0.0000 </r>
       </set>
       <set comment="band 3">
        <r>  0.0337  0.0378  0.0774  0.0378  0.5397  0.0666  0.1394  0.0666  0.0000 </r>
       </set>
       <set comment="band 4">
        <r>  0.0000  0.0042  0.0000  0.0042  0.0000  0.2226  0.0000  0.2226  0.5381 </r>
       </set>
       <set comment="band 5">
        <r>  0.0000  0.0003  0.0000  0.0003  0.0000  0.2720  0.0000  0.2720  0.4487 </r>
       </set>
       <set comment="band 6">
        <r>  0.0476  0.0505  0.1192  0.0505  0.0893  0.1701  0.2897  0.1701  0.0000 </r>
       </set>
       <set comment="band 7">
        <r>  0.2905  0.1014  0.0108  0.1014  0.2203  0.1504  0.0113  0.1504  0.0000 </r>
       </set>
       <set comment="band 8">
        <r>  0.0010  0.0020  0.0634  0.0020  0.1309  0.0059  0.3017  0.0059  0.0000 </r>
       </set>
       <set comment="band 9">
        <r>  0.0000  0.2417  0.0000  0.2417  0.0000  0.1165  0.0000  0.1165  0.2082 </r>
       </set>
       <set comment="band 10">
        <r>  0.1096  0.0340  0.2581  0.0340  0.1611  0.0080  0.1413  0.0080  0.0000 </r>
       </set>
       <set comment="band 11">
        <r>  0.1059  0.0001  0.0148  0.0001  0.4109  0.0306  0.5799  0.0306  0.0000 </r>
       </set>
       <set comment="band 12">
        <r>  0.0000  0.0497  0.0000  0.0497  0.0000  0.0907  0.0000  0.0907  0.6545 </r>
       </set>
      </set>
      <set comment="kpoint 56">
       <set comment="band 1">
        <r>  0.1554  0.0170  0.0903  0.0157  0.3123  0.2474  0.0654  0.1076  0.0011 </r>
       </set>
       <set comment="band 2">
        <r>  0.0000  0.0936  0.0211  0.0492  0.0422  0.0553  0.5433  0.0192  0.1340 </r>
       </set>
       <set comment="band 3">
        <r>  0.0183  0.0220  0.0816  0.0694  0.4168  0.3511  0.0153  0.0048  0.0244 </r>
       </set>
       <set comment="band 4">
        <r>  0.0000  0.0026  0.0195  0.0031  0.0332  0.0069  0.1474  0.2386  0.5330 </r>
       </set>
       <set comment="band 5">
        <r>  0.0008  0.0005  0.0035  0.0027  0.0861  0.0647  0.0607  0.5582  0.2117 </r>
       </set>
       <set comment="band 6">
        <r>  0.0712  0.0945  0.2134  0.0644  0.0242  0.2843  0.1629  0.0092  0.0743 </r>
       </set>
       <set comment="band 7">
        <r>  0.2883  0.0396  0.0004  0.2093  0.2366  0.0992  0.0141  0.1348  0.0132 </r>
       </set>
       <set comment="band 8">
        <r>  0.0216  0.0853  0.0145  0.1648  0.1255  0.0864  0.2349  0.0197  0.1388 </r>
       </set>
       <set comment="band 9">
        <r>  0.1711  0.0005  0.2599  0.0932  0.0033  0.0149  0.2199  0.0402  0.0708 </r>
       </set>
       <set comment="band 10">
        <r>  0.0052  0.2459  0.0428  0.0347  0.1224  0.0040  0.0146  0.0040  0.0000 </r>
       </set>
       <set comment="band 11">
        <r>  0.1234  0.0205  0.0009  0.0058  0.3407  0.1887  0.0995  0.0529  0.2808 </r>
       </set>
       <set comment="band 12">
        <r>  5.9326  0.0032  0.0002  0.0008  0.0124  0.0008  0.0019  0.0065  0.0001 </r>
       </set>
      </set>
      <set comment="kpoint 57">
       <set comment="band 1">
        <r>  0.0038  0.0894  0.0122  0.0037  0.0003  0.0168  0.4708  0.0002  0.3525 </r>
       </set>
       <set comment="band 2">
        <r>  0.0407  0.0211  0.1177  0.0065  0.0350  0.7710  0.0087  0.0119  0.0007 </r>
       </set>
       <set comment="band 3">
        <r>  0.0011  0.0021  0.0071  0.1759  0.7066  0.0486  0.0022  0.0624  0.0001 </r>
       </set>
       <set comment="band 4">
        <r>  0.0098  0.0015  0.0112  0.0023  0.0003  0.0036  0.3892  0.0260  0.5339 </r>
       </set>
       <set comment="band 5">
        <r>  0.0009  0.0000  0.0001  0.0041  0.1080  0.0057  0.0103  0.8477  0.0136 </r>
       </set>
       <set comment="band 6">
        <r>  0.0594  0.1250  0.2911  0.0807  0.0310  0.2254  0.1207  0.0012  0.0677 </r>
       </set>
       <set comment="band 7">
        <r>  0.1137  0.0003  0.0345  0.4697  0.2842  0.0566  0.0000  0.0862  0.0027 </r>
       </set>
       <set comment="band 8">
        <r>  0.2424  0.0910  0.0050  0.0743  0.0279  0.0640  0.1688  0.0036  0.2796 </r>
       </set>
       <set comment="band 9">
        <r>  0.2141  0.0664  0.2666  0.0052  0.0003  0.0784  0.2401  0.0029  0.0248 </r>
       </set>
       <set comment="band 10">
        <r>  0.0384  0.1502  0.0358  0.0024  0.0006  0.4240  0.0094  0.0006  0.0747 </r>
       </set>
       <set comment="band 11">
        <r>  0.0274  0.0139  0.0003  0.0470  0.5327  0.0379  0.0105  0.0200  0.0235 </r>
       </set>
       <set comment="band 12">
        <r>  5.8759  0.0019  0.0021  0.0003  0.0006  0.0101  0.0008  0.0004  0.0205 </r>
       </set>
      </set>
      <set comment="kpoint 58">
       <set comment="band 1">
        <r>  0.0992  0.0017  0.0452  0.0017  0.5153  0.0690  0.2028  0.0690  0.0000 </r>
       </set>
       <set comment="band 2">
        <r>  0.0014  0.0982  0.0034  0.0982  0.1393  0.0221  0.5811  0.0221  0.0000 </r>
       </set>
       <set comment="band 3">
        <r>  0.0137  0.0147  0.1737  0.0147  0.2089  0.2788  0.0203  0.2788  0.0000 </r>
       </set>
       <set comment="band 4">
        <r>  0.0000  0.0076  0.0000  0.0076  0.0000  0.1333  0.0000  0.1333  0.7009 </r>
       </set>
       <set comment="band 5">
        <r>  0.0000  0.0002  0.0000  0.0002  0.0000  0.3608  0.0000  0.3608  0.2689 </r>
       </set>
       <set comment="band 6">
        <r>  0.0061  0.1222  0.2832  0.1222  0.0746  0.0901  0.2122  0.0901  0.0000 </r>
       </set>
       <set comment="band 7">
        <r>  0.3319  0.0774  0.0656  0.0774  0.2107  0.1258  0.0086  0.1258  0.0000 </r>
       </set>
       <set comment="band 8">
        <r>  0.1501  0.0096  0.2024  0.0096  0.0496  0.0320  0.4501  0.0320  0.0000 </r>
       </set>
       <set comment="band 9">
        <r>  0.0000  0.2739  0.0000  0.2739  0.0000  0.0212  0.0000  0.0212  0.3040 </r>
       </set>
       <set comment="band 10">
        <r>  0.1473  0.0317  0.0381  0.0317  0.4474  0.0003  0.0298  0.0003  0.0000 </r>
       </set>
       <set comment="band 11">
        <r>  5.8276  0.0011  0.0002  0.0011  0.0017  0.0042  0.0270  0.0043  0.0000 </r>
       </set>
       <set comment="band 12">
        <r>  0.0119  0.0422  0.0349  0.0420  0.4097  0.0064  0.0781  0.0061  0.0000 </r>
       </set>
      </set>
      <set comment="kpoint 59">
       <set comment="band 1">
        <r>  0.2824  0.0073  0.0073  0.0073  0.2409  0.2409  0.0000  0.2409  0.0000 </r>
       </set>
       <set comment="band 2">
        <r>  0.0000  0.0001  0.0001  0.0000  0.2235  0.0765  0.4653  0.1171  0.1136 </r>
       </set>
       <set comment="band 3">
        <r>  0.0000  0.0001  0.0000  0.0001  0.0546  0.2015  0.1136  0.1610  0.4653 </r>
       </set>
       <set comment="band 4">
        <r>  0.0423  0.2720  0.2720  0.2720  0.0314  0.0314  0.0000  0.0314  0.0000 </r>
       </set>
       <set comment="band 5">
        <r>  0.0000  0.0003  0.0001  0.0003  0.0595  0.2797  0.0632  0.2407  0.3478 </r>
       </set>
       <set comment="band 6">
        <r>  0.0000  0.0002  0.0004  0.0001  0.3271  0.1069  0.3478  0.1459  0.0632 </r>
       </set>
       <set comment="band 7">
        <r>  0.3982  0.0266  0.0266  0.0266  0.1946  0.1946  0.0000  0.1946  0.0000 </r>
       </set>
       <set comment="band 8">
        <r>  0.0006  0.0117  0.0117  0.0117  0.0039  0.0039  0.0000  0.0039  0.0000 </r>
       </set>
       <set comment="band 9">
        <r>  0.0000  0.2475  0.1045  0.1709  0.0232  0.0379  0.0086  0.0549  0.0200 </r>
       </set>
       <set comment="band 10">
        <r>  0.0000  0.1011  0.2441  0.1777  0.0542  0.0394  0.0200  0.0224  0.0086 </r>
       </set>
       <set comment="band 11">
        <r>  0.0000  0.0082  0.0085  0.0108  0.1202  0.1535  0.4781  0.1158  0.5545 </r>
       </set>
       <set comment="band 12">
        <r>  0.0000  0.0102  0.0098  0.0075  0.1394  0.1062  0.5545  0.1439  0.4781 </r>
       </set>
      </set>
      <set comment="kpoint 60">
       <set comment="band 1">
        <r>  0.2112  0.0122  0.0122  0.0169  0.2296  0.3138  0.0001  0.2296  0.0002 </r>
       </set>
       <set comment="band 2">
        <r>  0.0002  0.0455  0.0455  0.0122  0.0255  0.1029  0.1776  0.0255  0.5329 </r>
       </set>
       <set comment="band 3">
        <r>  0.0000  0.0024  0.0024  0.0000  0.1815  0.0000  0.4674  0.1815  0.1558 </r>
       </set>
       <set comment="band 4">
        <r>  0.0015  0.1291  0.1291  0.1591  0.1331  0.2956  0.0018  0.1331  0.0054 </r>
       </set>
       <set comment="band 5">
        <r>  0.0000  0.0004  0.0004  0.0000  0.3155  0.0000  0.2692  0.3155  0.0897 </r>
       </set>
       <set comment="band 6">
        <r>  0.0084  0.1289  0.1289  0.1262  0.0331  0.2380  0.0715  0.0331  0.2144 </r>
       </set>
       <set comment="band 7">
        <r>  0.4307  0.0002  0.0002  0.0544  0.1970  0.1788  0.0005  0.1970  0.0016 </r>
       </set>
       <set comment="band 8">
        <r>  0.0160  0.0013  0.0013  0.1329  0.0487  0.0779  0.0686  0.0487  0.2059 </r>
       </set>
       <set comment="band 9">
        <r>  0.0809  0.0888  0.0888  0.1804  0.0164  0.0284  0.0052  0.0164  0.0155 </r>
       </set>
       <set comment="band 10">
        <r>  0.0000  0.2262  0.2262  0.0000  0.0290  0.0000  0.3033  0.0290  0.1011 </r>
       </set>
       <set comment="band 11">
        <r>  0.0000  0.0535  0.0535  0.0000  0.2469  0.0000  0.4149  0.2469  0.1383 </r>
       </set>
       <set comment="band 12">
        <r>  0.2162  0.0006  0.0006  0.0007  0.0002  0.3977  0.1439  0.0002  0.4318 </r>
       </set>
      </set>
     </set>
    </set>
   </array>
  </projected>
 </calculation>
 <structure name="finalpos" >
  <crystal>
   <varray name="basis" >
    <v>       0.00000000       1.61392615       1.61392615 </v>
    <v>       1.61392615       0.00000000       1.61392615 </v>
    <v>       1.61392615       1.61392615       0.00000000 </v>
   </varray>
   <i name="volume">      8.40777290 </i>
   <varray name="rec_basis" >
    <v>      -0.30980352       0.30980352       0.30980352 </v>
    <v>       0.30980352      -0.30980352       0.30980352 </v>
    <v>       0.30980352       0.30980352      -0.30980352 </v>
   </varray>
  </crystal>
  <varray name="positions" >
   <v>       0.00000000       0.00000000       0.00000000 </v>
  </varray>
 </structure>
</modeling>
