   2   2   1   0
  0.1064014E+02  0.2472000E-09  0.2472000E-09  0.4021144E-09  0.5000000E-15
  1.000000000000000E-004
  CAR 
 Co-hcc                                  
     37.55240048     -0.21595301  301     10.47567093      1.00000000
     -0.216  0.0000E+00  0.0000E+00  0.0000E+00  0.0000E+00
     -0.090  0.0000E+00  0.0000E+00  0.0000E+00  0.0000E+00
      0.036  0.0000E+00  0.0000E+00  0.0000E+00  0.0000E+00
      0.162  0.0000E+00  0.0000E+00  0.0000E+00  0.0000E+00
      0.288  0.0000E+00  0.0000E+00  0.0000E+00  0.0000E+00
      0.414  0.0000E+00  0.0000E+00  0.0000E+00  0.0000E+00
      0.539  0.0000E+00  0.0000E+00  0.0000E+00  0.0000E+00
      0.665  0.0000E+00  0.0000E+00  0.0000E+00  0.0000E+00
      0.791  0.0000E+00  0.0000E+00  0.0000E+00  0.0000E+00
      0.917  0.0000E+00  0.0000E+00  0.0000E+00  0.0000E+00
      1.043  0.0000E+00  0.0000E+00  0.0000E+00  0.0000E+00
      1.169  0.0000E+00  0.0000E+00  0.0000E+00  0.0000E+00
      1.295  0.2805E-10  0.8725E-12  0.3531E-11  0.1098E-12
      1.421  0.1164E-03  0.2382E-04  0.1466E-04  0.2998E-05
      1.547  0.8857E-02  0.7628E-02  0.1130E-02  0.9633E-03
      1.672  0.1373E-01  0.1060E-01  0.2859E-02  0.2298E-02
      1.798  0.1010E-01  0.1228E-01  0.4130E-02  0.3844E-02
      1.924  0.5575E-01  0.5341E-01  0.1115E-01  0.1057E-01
      2.050  0.1041E+00  0.8649E-01  0.2425E-01  0.2146E-01
      2.176  0.3429E-01  0.5366E-01  0.2857E-01  0.2821E-01
      2.302  0.1419E-02  0.4274E-02  0.2875E-01  0.2875E-01
      2.428  0.1742E-01  0.3983E-02  0.3094E-01  0.2925E-01
      2.554  0.1396E+00  0.1301E+00  0.4852E-01  0.4563E-01
      2.680  0.7269E-01  0.6152E-01  0.5767E-01  0.5337E-01
      2.806  0.7289E-01  0.1019E+00  0.6685E-01  0.6620E-01
      2.931  0.7555E-01  0.6607E-01  0.7636E-01  0.7452E-01
      3.057  0.1187E+00  0.9162E-01  0.9130E-01  0.8605E-01
      3.183  0.1833E+00  0.1514E+00  0.1144E+00  0.1051E+00
      3.309  0.5492E-01  0.1273E+00  0.1213E+00  0.1211E+00
      3.435  0.9245E-01  0.2358E-01  0.1329E+00  0.1241E+00
      3.561  0.2640E-01  0.9603E-01  0.1362E+00  0.1362E+00
      3.687  0.2088E-02  0.4337E-03  0.1365E+00  0.1363E+00
      3.813  0.2230E+00  0.4202E-01  0.1646E+00  0.1415E+00
      3.939  0.2501E+00  0.2502E+00  0.1961E+00  0.1730E+00
      4.064  0.1885E+00  0.2061E+00  0.2198E+00  0.1990E+00
      4.190  0.1106E+00  0.2078E+00  0.2337E+00  0.2251E+00
      4.316  0.2745E+00  0.7149E-01  0.2683E+00  0.2341E+00
      4.442  0.1024E+00  0.2496E+00  0.2812E+00  0.2656E+00
      4.568  0.6130E-01  0.1178E+00  0.2889E+00  0.2804E+00
      4.694  0.2328E+00  0.2294E-01  0.3182E+00  0.2833E+00
      4.820  0.2912E+00  0.1461E+00  0.3549E+00  0.3017E+00
      4.946  0.1845E+00  0.2627E+00  0.3781E+00  0.3348E+00
      5.072  0.1752E+00  0.1904E+00  0.4002E+00  0.3587E+00
      5.198  0.5307E+00  0.1083E+00  0.4670E+00  0.3724E+00
      5.323  0.8957E+00  0.1732E+00  0.5797E+00  0.3942E+00
      5.449  0.1098E+01  0.2700E+00  0.7179E+00  0.4282E+00
      5.575  0.9671E+00  0.2513E+00  0.8397E+00  0.4598E+00
      5.701  0.7914E+00  0.5072E+00  0.9393E+00  0.5236E+00
      5.827  0.1009E+01  0.2041E+00  0.1066E+01  0.5493E+00
      5.953  0.2563E+01  0.4062E+00  0.1389E+01  0.6005E+00
      6.079  0.1150E+01  0.5879E+00  0.1534E+01  0.6745E+00
      6.205  0.1535E+01  0.1417E+00  0.1727E+01  0.6923E+00
      6.331  0.2119E+01  0.6606E-01  0.1994E+01  0.7006E+00
      6.456  0.1535E+01  0.9759E+00  0.2187E+01  0.8235E+00
      6.582  0.1292E+01  0.1152E+01  0.2350E+01  0.9685E+00
      6.708  0.1698E+01  0.9772E+00  0.2564E+01  0.1092E+01
      6.834  0.2034E+01  0.5971E+00  0.2820E+01  0.1167E+01
      6.960  0.2124E+01  0.8824E+00  0.3087E+01  0.1278E+01
      7.086  0.2068E+01  0.1213E+01  0.3348E+01  0.1431E+01
      7.212  0.1907E+01  0.1273E+01  0.3588E+01  0.1591E+01
      7.338  0.1473E+01  0.6030E+00  0.3773E+01  0.1667E+01
      7.464  0.1126E+01  0.1776E+01  0.3915E+01  0.1890E+01
      7.590  0.1864E+01  0.1744E+01  0.4150E+01  0.2110E+01
      7.715  0.2947E+01  0.8374E+00  0.4521E+01  0.2215E+01
      7.841  0.2689E+01  0.1268E+01  0.4859E+01  0.2375E+01
      7.967  0.2846E+01  0.1212E+01  0.5217E+01  0.2527E+01
      8.093  0.2824E+01  0.1935E+01  0.5573E+01  0.2771E+01
      8.219  0.2938E+01  0.1461E+01  0.5943E+01  0.2955E+01
      8.345  0.3210E+01  0.2077E+01  0.6347E+01  0.3217E+01
      8.471  0.2720E+01  0.1956E+01  0.6689E+01  0.3463E+01
      8.597  0.2294E+01  0.1612E+01  0.6978E+01  0.3666E+01
      8.723  0.1891E+01  0.8276E+00  0.7216E+01  0.3770E+01
      8.848  0.1650E+01  0.8154E+00  0.7424E+01  0.3873E+01
      8.974  0.1872E+01  0.1049E+01  0.7660E+01  0.4005E+01
      9.100  0.1097E+01  0.1527E+01  0.7798E+01  0.4197E+01
      9.226  0.2549E+01  0.2134E+01  0.8119E+01  0.4466E+01
      9.352  0.2150E+01  0.2610E+01  0.8389E+01  0.4794E+01
      9.478  0.1746E+01  0.2686E+01  0.8609E+01  0.5132E+01
      9.604  0.2448E+01  0.1933E+01  0.8917E+01  0.5376E+01
      9.730  0.3909E+01  0.2729E+01  0.9410E+01  0.5719E+01
      9.856  0.4700E+01  0.2446E+01  0.1000E+02  0.6027E+01
      9.982  0.2706E+01  0.3085E+01  0.1034E+02  0.6415E+01
     10.107  0.5225E+00  0.2126E+01  0.1041E+02  0.6683E+01
     10.233  0.6850E+00  0.1998E+01  0.1049E+02  0.6935E+01
     10.359  0.7388E+00  0.1400E+01  0.1059E+02  0.7111E+01
     10.485  0.6121E+00  0.1935E+01  0.1066E+02  0.7355E+01
     10.611  0.2143E+00  0.1030E+01  0.1069E+02  0.7484E+01
     10.737  0.3199E-01  0.1521E+01  0.1069E+02  0.7676E+01
     10.863  0.5257E-06  0.1142E+01  0.1070E+02  0.7819E+01
     10.989  0.4508E-04  0.1459E+01  0.1070E+02  0.8003E+01
     11.115  0.1482E+00  0.2405E+01  0.1071E+02  0.8306E+01
     11.240  0.5447E+00  0.1063E+01  0.1078E+02  0.8440E+01
     11.366  0.2605E+00  0.1730E+01  0.1082E+02  0.8658E+01
     11.492  0.1908E+00  0.2158E+01  0.1084E+02  0.8929E+01
     11.618  0.2465E+00  0.3255E+01  0.1087E+02  0.9339E+01
     11.744  0.8705E+00  0.4121E+01  0.1098E+02  0.9858E+01
     11.870  0.2429E+00  0.3534E+01  0.1101E+02  0.1030E+02
     11.996  0.3835E+00  0.1951E+01  0.1106E+02  0.1055E+02
     12.122  0.1085E-01  0.8994E+00  0.1106E+02  0.1066E+02
     12.248  0.1292E+00  0.3045E+00  0.1108E+02  0.1070E+02
     12.373  0.4963E+00  0.7411E-01  0.1114E+02  0.1071E+02
     12.499  0.3024E+00  0.4669E+00  0.1118E+02  0.1077E+02
     12.625  0.4279E+00  0.2385E+00  0.1123E+02  0.1080E+02
     12.751  0.5287E-02  0.2432E+00  0.1123E+02  0.1083E+02
     12.877  0.3480E-01  0.4410E+00  0.1124E+02  0.1088E+02
     13.003  0.4584E+00  0.6080E+00  0.1129E+02  0.1096E+02
     13.129  0.4299E-01  0.4121E+00  0.1130E+02  0.1101E+02
     13.255  0.2664E-01  0.2787E+00  0.1130E+02  0.1105E+02
     13.381  0.1068E+00  0.2810E+00  0.1132E+02  0.1108E+02
     13.507  0.3529E+00  0.7228E+00  0.1136E+02  0.1117E+02
     13.632  0.5721E-01  0.2069E+00  0.1137E+02  0.1120E+02
     13.758  0.1401E+00  0.2879E+00  0.1138E+02  0.1124E+02
     13.884  0.4610E+00  0.1878E-01  0.1144E+02  0.1124E+02
     14.010  0.2991E+00  0.3092E+00  0.1148E+02  0.1128E+02
     14.136  0.5902E+00  0.1957E+00  0.1155E+02  0.1130E+02
     14.262  0.1509E+00  0.2602E+00  0.1157E+02  0.1134E+02
     14.388  0.2616E+00  0.8523E-01  0.1161E+02  0.1135E+02
     14.514  0.8537E-01  0.1610E+00  0.1162E+02  0.1137E+02
     14.640  0.1021E+00  0.1102E+00  0.1163E+02  0.1138E+02
     14.765  0.4235E+00  0.2274E+00  0.1168E+02  0.1141E+02
     14.891  0.3277E+00  0.7231E+00  0.1172E+02  0.1150E+02
     15.017  0.9638E-01  0.2660E+00  0.1174E+02  0.1153E+02
     15.143  0.6313E-01  0.4788E+00  0.1174E+02  0.1159E+02
     15.269  0.2525E-01  0.1855E+00  0.1175E+02  0.1162E+02
     15.395  0.2972E+00  0.1870E-01  0.1179E+02  0.1162E+02
     15.521  0.2625E+00  0.1346E+00  0.1182E+02  0.1164E+02
     15.647  0.1136E+00  0.2950E+00  0.1183E+02  0.1167E+02
     15.773  0.2535E+00  0.4123E+00  0.1186E+02  0.1173E+02
     15.899  0.1073E-02  0.8545E-01  0.1187E+02  0.1174E+02
     16.024  0.1937E-01  0.7813E-01  0.1187E+02  0.1175E+02
     16.150  0.1577E+00  0.4380E+00  0.1189E+02  0.1180E+02
     16.276  0.6093E-01  0.1511E+00  0.1189E+02  0.1182E+02
     16.402  0.3160E-03  0.4371E-01  0.1190E+02  0.1183E+02
     16.528  0.3220E-02  0.3099E+00  0.1190E+02  0.1186E+02
     16.654  0.1172E+00  0.6377E-02  0.1191E+02  0.1187E+02
     16.780  0.2953E+00  0.1096E+00  0.1195E+02  0.1188E+02
     16.906  0.2010E+00  0.7645E-01  0.1197E+02  0.1189E+02
     17.032  0.1506E+00  0.4990E-01  0.1199E+02  0.1189E+02
     17.157  0.4861E-01  0.2376E-02  0.1200E+02  0.1190E+02
     17.283  0.1980E+00  0.1112E+00  0.1202E+02  0.1191E+02
     17.409  0.1650E+00  0.2293E+00  0.1204E+02  0.1194E+02
     17.535  0.7679E-01  0.2205E+00  0.1205E+02  0.1197E+02
     17.661  0.3043E+00  0.8245E-01  0.1209E+02  0.1198E+02
     17.787  0.5846E-01  0.6937E-01  0.1210E+02  0.1199E+02
     17.913  0.2314E-01  0.8199E-01  0.1210E+02  0.1200E+02
     18.039  0.1985E+00  0.1024E+00  0.1213E+02  0.1201E+02
     18.165  0.2140E+00  0.2698E+00  0.1215E+02  0.1204E+02
     18.291  0.5382E+00  0.1676E+00  0.1222E+02  0.1206E+02
     18.416  0.3542E+00  0.2766E+00  0.1227E+02  0.1210E+02
     18.542  0.3639E+00  0.5021E-02  0.1231E+02  0.1210E+02
     18.668  0.3926E+00  0.3837E-03  0.1236E+02  0.1210E+02
     18.794  0.5195E-01  0.1107E+00  0.1237E+02  0.1211E+02
     18.920  0.4170E+00  0.2193E+00  0.1242E+02  0.1214E+02
     19.046  0.5443E+00  0.1156E+00  0.1249E+02  0.1215E+02
     19.172  0.3390E+00  0.8233E+00  0.1253E+02  0.1226E+02
     19.298  0.4769E+00  0.2945E+00  0.1259E+02  0.1230E+02
     19.424  0.3424E+00  0.3105E+00  0.1263E+02  0.1233E+02
     19.549  0.2289E+00  0.3761E+00  0.1266E+02  0.1238E+02
     19.675  0.1316E+00  0.4295E+00  0.1268E+02  0.1244E+02
     19.801  0.3095E+00  0.6282E+00  0.1272E+02  0.1252E+02
     19.927  0.2493E+00  0.5029E+00  0.1275E+02  0.1258E+02
     20.053  0.4862E+00  0.1995E+00  0.1281E+02  0.1260E+02
     20.179  0.3014E+00  0.2976E+00  0.1285E+02  0.1264E+02
     20.305  0.3665E+00  0.2928E+00  0.1290E+02  0.1268E+02
     20.431  0.3487E+00  0.3133E+00  0.1294E+02  0.1272E+02
     20.557  0.6968E-02  0.4336E+00  0.1294E+02  0.1277E+02
     20.683  0.3048E+00  0.3514E+00  0.1298E+02  0.1282E+02
     20.808  0.5299E+00  0.2711E+00  0.1305E+02  0.1285E+02
     20.934  0.6391E+00  0.2868E+00  0.1313E+02  0.1289E+02
     21.060  0.2495E+00  0.4224E+00  0.1316E+02  0.1294E+02
     21.186  0.1972E+00  0.4230E-02  0.1318E+02  0.1294E+02
     21.312  0.8610E+00  0.4240E+00  0.1329E+02  0.1299E+02
     21.438  0.3288E+00  0.7310E+00  0.1333E+02  0.1309E+02
     21.564  0.5556E+00  0.6092E+00  0.1340E+02  0.1316E+02
     21.690  0.3337E+00  0.2409E+00  0.1344E+02  0.1319E+02
     21.816  0.1335E+00  0.5594E+00  0.1346E+02  0.1326E+02
     21.941  0.1387E+00  0.3902E+00  0.1348E+02  0.1331E+02
     22.067  0.1888E+00  0.4621E+00  0.1350E+02  0.1337E+02
     22.193  0.3546E+00  0.4634E+00  0.1355E+02  0.1343E+02
     22.319  0.2565E+00  0.2498E+00  0.1358E+02  0.1346E+02
     22.445  0.5405E+00  0.1512E+00  0.1365E+02  0.1348E+02
     22.571  0.6336E+00  0.3421E+00  0.1373E+02  0.1352E+02
     22.697  0.2823E+00  0.1449E+00  0.1376E+02  0.1354E+02
     22.823  0.2450E-01  0.3073E+00  0.1377E+02  0.1358E+02
     22.949  0.3857E+00  0.5456E+00  0.1381E+02  0.1365E+02
     23.075  0.7869E-01  0.6700E+00  0.1382E+02  0.1373E+02
     23.200  0.1016E+00  0.1703E+00  0.1384E+02  0.1375E+02
     23.326  0.3831E+00  0.9721E-01  0.1388E+02  0.1377E+02
     23.452  0.2672E+00  0.3693E+00  0.1392E+02  0.1381E+02
     23.578  0.3073E+00  0.1111E+00  0.1396E+02  0.1383E+02
     23.704  0.5983E+00  0.1036E+00  0.1403E+02  0.1384E+02
     23.830  0.4608E-01  0.3234E+00  0.1404E+02  0.1388E+02
     23.956  0.1578E+00  0.4151E+00  0.1406E+02  0.1393E+02
     24.082  0.3406E+00  0.4316E+00  0.1410E+02  0.1399E+02
     24.208  0.4120E+00  0.3900E+00  0.1415E+02  0.1404E+02
     24.333  0.1028E+00  0.5698E-01  0.1417E+02  0.1404E+02
     24.459  0.5408E+00  0.1104E+00  0.1423E+02  0.1406E+02
     24.585  0.6176E+00  0.5320E+00  0.1431E+02  0.1412E+02
     24.711  0.3835E+00  0.2550E+00  0.1436E+02  0.1416E+02
     24.837  0.2837E+00  0.3658E+00  0.1440E+02  0.1420E+02
     24.963  0.2813E+00  0.5727E+00  0.1443E+02  0.1427E+02
     25.089  0.2875E-01  0.5206E+00  0.1443E+02  0.1434E+02
     25.215  0.2286E+00  0.2771E+00  0.1446E+02  0.1437E+02
     25.341  0.4766E+00  0.3654E+00  0.1452E+02  0.1442E+02
     25.467  0.4548E+00  0.8534E-01  0.1458E+02  0.1443E+02
     25.592  0.2027E+00  0.1293E+00  0.1461E+02  0.1445E+02
     25.718  0.4284E+00  0.4228E+00  0.1466E+02  0.1450E+02
     25.844  0.4303E+00  0.4315E+00  0.1471E+02  0.1456E+02
     25.970  0.1562E+00  0.3354E+00  0.1473E+02  0.1460E+02
     26.096  0.2449E+00  0.3870E+00  0.1476E+02  0.1465E+02
     26.222  0.5840E+00  0.3477E+00  0.1484E+02  0.1469E+02
     26.348  0.4825E+00  0.3476E+00  0.1490E+02  0.1473E+02
     26.474  0.3160E+00  0.2989E+00  0.1494E+02  0.1477E+02
     26.600  0.2549E+00  0.4605E+00  0.1497E+02  0.1483E+02
     26.725  0.3955E+00  0.6158E+00  0.1502E+02  0.1491E+02
     26.851  0.5769E+00  0.3062E+00  0.1509E+02  0.1495E+02
     26.977  0.1011E+00  0.2844E+00  0.1511E+02  0.1498E+02
     27.103  0.1146E+00  0.3598E+00  0.1512E+02  0.1503E+02
     27.229  0.3308E+00  0.5902E+00  0.1516E+02  0.1510E+02
     27.355  0.1986E+00  0.1214E+00  0.1519E+02  0.1512E+02
     27.481  0.1510E+00  0.1417E+00  0.1521E+02  0.1513E+02
     27.607  0.1566E-01  0.3036E+00  0.1521E+02  0.1517E+02
     27.733  0.2436E+00  0.1843E+00  0.1524E+02  0.1520E+02
     27.859  0.4228E+00  0.8740E-01  0.1529E+02  0.1521E+02
     27.984  0.4532E+00  0.6727E-01  0.1535E+02  0.1521E+02
     28.110  0.1165E+00  0.3443E+00  0.1536E+02  0.1526E+02
     28.236  0.2147E+00  0.4749E+00  0.1539E+02  0.1532E+02
     28.362  0.1684E+00  0.3656E+00  0.1541E+02  0.1536E+02
     28.488  0.2630E+00  0.1789E+00  0.1545E+02  0.1539E+02
     28.614  0.2214E+00  0.1771E+00  0.1547E+02  0.1541E+02
     28.740  0.1772E+00  0.1937E+00  0.1550E+02  0.1543E+02
     28.866  0.1917E+00  0.1519E+00  0.1552E+02  0.1545E+02
     28.992  0.1748E+00  0.3611E+00  0.1554E+02  0.1550E+02
     29.117  0.9859E-01  0.1830E+00  0.1555E+02  0.1552E+02
     29.243  0.5954E-01  0.1299E+00  0.1556E+02  0.1554E+02
     29.369  0.1994E+00  0.6277E-01  0.1559E+02  0.1554E+02
     29.495  0.1888E+00  0.1628E+00  0.1561E+02  0.1557E+02
     29.621  0.1455E+00  0.1647E+00  0.1563E+02  0.1559E+02
     29.747  0.1246E+00  0.2156E+00  0.1564E+02  0.1561E+02
     29.873  0.2381E+00  0.1809E-01  0.1567E+02  0.1562E+02
     29.999  0.2349E+00  0.2216E+00  0.1570E+02  0.1564E+02
     30.125  0.5804E-01  0.2795E+00  0.1571E+02  0.1568E+02
     30.251  0.1162E+00  0.1947E+00  0.1573E+02  0.1570E+02
     30.376  0.1748E+00  0.4574E-01  0.1575E+02  0.1571E+02
     30.502  0.8538E-02  0.1620E+00  0.1575E+02  0.1573E+02
     30.628  0.9967E-01  0.1584E+00  0.1576E+02  0.1575E+02
     30.754  0.2595E-01  0.1131E+00  0.1576E+02  0.1576E+02
     30.880  0.1425E+00  0.1778E-02  0.1578E+02  0.1576E+02
     31.006  0.8859E-01  0.4204E-01  0.1579E+02  0.1577E+02
     31.132  0.7394E-01  0.1236E+00  0.1580E+02  0.1578E+02
     31.258  0.1550E+00  0.1422E+00  0.1582E+02  0.1580E+02
     31.384  0.9488E-02  0.1258E+00  0.1582E+02  0.1582E+02
     31.509  0.2800E-03  0.4713E-01  0.1582E+02  0.1582E+02
     31.635  0.1791E-01  0.1567E-01  0.1583E+02  0.1583E+02
     31.761  0.6723E-01  0.1919E-01  0.1583E+02  0.1583E+02
     31.887  0.7530E-01  0.9941E-01  0.1584E+02  0.1584E+02
     32.013  0.2063E+00  0.3127E-02  0.1587E+02  0.1584E+02
     32.139  0.6980E-01  0.1709E+00  0.1588E+02  0.1586E+02
     32.265  0.4383E-04  0.1229E+00  0.1588E+02  0.1588E+02
     32.391  0.7748E-04  0.1191E-01  0.1588E+02  0.1588E+02
     32.517  0.7557E-01  0.9101E-01  0.1589E+02  0.1589E+02
     32.643  0.4673E-01  0.4761E-01  0.1589E+02  0.1590E+02
     32.768  0.2357E-01  0.6737E-05  0.1590E+02  0.1590E+02
     32.894  0.4810E-01  0.2242E-02  0.1590E+02  0.1590E+02
     33.020  0.1132E+00  0.2953E-01  0.1592E+02  0.1590E+02
     33.146  0.2597E+00  0.1441E+00  0.1595E+02  0.1592E+02
     33.272  0.9820E-01  0.2072E+00  0.1596E+02  0.1595E+02
     33.398  0.4097E-03  0.1182E+00  0.1596E+02  0.1596E+02
     33.524  0.1021E+00  0.8922E-01  0.1598E+02  0.1597E+02
     33.650  0.3658E-01  0.6472E-01  0.1598E+02  0.1598E+02
     33.776  0.2202E-05  0.4275E-03  0.1598E+02  0.1598E+02
     33.901  0.3788E-08  0.1815E-01  0.1598E+02  0.1598E+02
     34.027  0.1283E-02  0.1316E-02  0.1598E+02  0.1598E+02
     34.153  0.1817E-01  0.4055E-08  0.1598E+02  0.1598E+02
     34.279  0.4069E-03  0.1251E-13  0.1598E+02  0.1598E+02
     34.405  0.5299E-09  0.6731E-05  0.1598E+02  0.1598E+02
     34.531  0.9250E-03  0.2679E-01  0.1598E+02  0.1599E+02
     34.657  0.5392E-01  0.4715E-01  0.1599E+02  0.1599E+02
     34.783  0.2057E-01  0.1659E-01  0.1599E+02  0.1599E+02
     34.909  0.2333E-01  0.8746E-02  0.1599E+02  0.1599E+02
     35.035  0.5506E-03  0.2054E-05  0.1599E+02  0.1599E+02
     35.160  0.4311E-09  0.1606E-12  0.1599E+02  0.1600E+02
     35.286  0.1328E-14  0.1466E-04  0.1599E+02  0.1600E+02
     35.412  0.1397E-05  0.1286E-01  0.1600E+02  0.1600E+02
     35.538  0.1255E-01  0.6978E-02  0.1600E+02  0.1600E+02
     35.664  0.2711E-01  0.1096E-03  0.1600E+02  0.1600E+02
     35.790  0.5127E-04  0.9775E-02  0.1600E+02  0.1600E+02
     35.916  0.1341E-11  0.9857E-02  0.1600E+02  0.1600E+02
     36.042  0.0000E+00  0.1164E-03  0.1600E+02  0.1600E+02
     36.168  0.0000E+00  0.2805E-10  0.1600E+02  0.1600E+02
     36.293  0.0000E+00  0.0000E+00  0.1600E+02  0.1600E+02
     36.419  0.0000E+00  0.0000E+00  0.1600E+02  0.1600E+02
     36.545  0.0000E+00  0.0000E+00  0.1600E+02  0.1600E+02
     36.671  0.0000E+00  0.0000E+00  0.1600E+02  0.1600E+02
     36.797  0.0000E+00  0.0000E+00  0.1600E+02  0.1600E+02
     36.923  0.0000E+00  0.0000E+00  0.1600E+02  0.1600E+02
     37.049  0.0000E+00  0.0000E+00  0.1600E+02  0.1600E+02
     37.175  0.0000E+00  0.0000E+00  0.1600E+02  0.1600E+02
     37.301  0.0000E+00  0.0000E+00  0.1600E+02  0.1600E+02
     37.427  0.0000E+00  0.0000E+00  0.1600E+02  0.1600E+02
     37.552  0.0000E+00  0.0000E+00  0.1600E+02  0.1600E+02
     37.55240048     -0.21595301  301     10.47567093      1.00000000
     -0.216  0.0000E+00  0.0000E+00  0.0000E+00  0.0000E+00  0.0000E+00  0.0000E+00  0.0000E+00  0.0000E+00  0.0000E+00  0.0000E+00  0.0000E+00  0.0000E+00  0.0000E+00  0.0000E+00  0.0000E+00  0.0000E+00  0.0000E+00  0.0000E+00
     -0.090  0.0000E+00  0.0000E+00  0.0000E+00  0.0000E+00  0.0000E+00  0.0000E+00  0.0000E+00  0.0000E+00  0.0000E+00  0.0000E+00  0.0000E+00  0.0000E+00  0.0000E+00  0.0000E+00  0.0000E+00  0.0000E+00  0.0000E+00  0.0000E+00
      0.036  0.0000E+00  0.0000E+00  0.0000E+00  0.0000E+00  0.0000E+00  0.0000E+00  0.0000E+00  0.0000E+00  0.0000E+00  0.0000E+00  0.0000E+00  0.0000E+00  0.0000E+00  0.0000E+00  0.0000E+00  0.0000E+00  0.0000E+00  0.0000E+00
      0.162  0.0000E+00  0.0000E+00  0.0000E+00  0.0000E+00  0.0000E+00  0.0000E+00  0.0000E+00  0.0000E+00  0.0000E+00  0.0000E+00  0.0000E+00  0.0000E+00  0.0000E+00  0.0000E+00  0.0000E+00  0.0000E+00  0.0000E+00  0.0000E+00
      0.288  0.0000E+00  0.0000E+00  0.0000E+00  0.0000E+00  0.0000E+00  0.0000E+00  0.0000E+00  0.0000E+00  0.0000E+00  0.0000E+00  0.0000E+00  0.0000E+00  0.0000E+00  0.0000E+00  0.0000E+00  0.0000E+00  0.0000E+00  0.0000E+00
      0.414  0.0000E+00  0.0000E+00  0.0000E+00  0.0000E+00  0.0000E+00  0.0000E+00  0.0000E+00  0.0000E+00  0.0000E+00  0.0000E+00  0.0000E+00  0.0000E+00  0.0000E+00  0.0000E+00  0.0000E+00  0.0000E+00  0.0000E+00  0.0000E+00
      0.539  0.0000E+00  0.0000E+00  0.0000E+00  0.0000E+00  0.0000E+00  0.0000E+00  0.0000E+00  0.0000E+00  0.0000E+00  0.0000E+00  0.0000E+00  0.0000E+00  0.0000E+00  0.0000E+00  0.0000E+00  0.0000E+00  0.0000E+00  0.0000E+00
      0.665  0.0000E+00  0.0000E+00  0.0000E+00  0.0000E+00  0.0000E+00  0.0000E+00  0.0000E+00  0.0000E+00  0.0000E+00  0.0000E+00  0.0000E+00  0.0000E+00  0.0000E+00  0.0000E+00  0.0000E+00  0.0000E+00  0.0000E+00  0.0000E+00
      0.791  0.0000E+00  0.0000E+00  0.0000E+00  0.0000E+00  0.0000E+00  0.0000E+00  0.0000E+00  0.0000E+00  0.0000E+00  0.0000E+00  0.0000E+00  0.0000E+00  0.0000E+00  0.0000E+00  0.0000E+00  0.0000E+00  0.0000E+00  0.0000E+00
      0.917  0.0000E+00  0.0000E+00  0.0000E+00  0.0000E+00  0.0000E+00  0.0000E+00  0.0000E+00  0.0000E+00  0.0000E+00  0.0000E+00  0.0000E+00  0.0000E+00  0.0000E+00  0.0000E+00  0.0000E+00  0.0000E+00  0.0000E+00  0.0000E+00
      1.043  0.0000E+00  0.0000E+00  0.0000E+00  0.0000E+00  0.0000E+00  0.0000E+00  0.0000E+00  0.0000E+00  0.0000E+00  0.0000E+00  0.0000E+00  0.0000E+00  0.0000E+00  0.0000E+00  0.0000E+00  0.0000E+00  0.0000E+00  0.0000E+00
      1.169  0.0000E+00  0.0000E+00  0.0000E+00  0.0000E+00  0.0000E+00  0.0000E+00  0.0000E+00  0.0000E+00  0.0000E+00  0.0000E+00  0.0000E+00  0.0000E+00  0.0000E+00  0.0000E+00  0.0000E+00  0.0000E+00  0.0000E+00  0.0000E+00
      1.295  0.1039E-10  0.3234E-12  0.2394E-26  0.3415E-28  0.8731E-27  0.5325E-30  0.2394E-26  0.3415E-28  0.7658E-25  0.8685E-26  0.1597E-22  0.3665E-26  0.8655E-17  0.7300E-18  0.1597E-22  0.3665E-26  0.7658E-25  0.8685E-26
      1.421  0.4313E-04  0.8828E-05  0.9940E-20  0.9323E-21  0.7873E-15  0.1310E-16  0.9940E-20  0.9323E-21  0.3179E-18  0.2371E-18  0.6630E-16  0.1000E-18  0.3593E-10  0.1993E-10  0.6630E-16  0.1000E-18  0.3179E-18  0.2371E-18
      1.547  0.3281E-02  0.2827E-02  0.8046E-18  0.2991E-18  0.7704E-07  0.9181E-08  0.8046E-18  0.2991E-18  0.2425E-16  0.7611E-16  0.5036E-14  0.3437E-16  0.3811E-08  0.6465E-08  0.5036E-14  0.3437E-16  0.2425E-16  0.7611E-16
      1.672  0.5018E-02  0.3883E-02  0.3640E-10  0.1225E-11  0.7038E-04  0.4618E-04  0.3640E-10  0.1225E-11  0.9697E-12  0.2477E-13  0.1317E-14  0.1175E-13  0.9889E-06  0.4209E-06  0.1317E-14  0.1175E-13  0.9697E-12  0.2477E-13
      1.798  0.3664E-02  0.4478E-02  0.1846E-04  0.4625E-05  0.3904E-04  0.6396E-04  0.1846E-04  0.4625E-05  0.4916E-06  0.8979E-07  0.4553E-13  0.1697E-13  0.9258E-06  0.6552E-06  0.4553E-13  0.1697E-13  0.4916E-06  0.8979E-07
      1.924  0.1996E-01  0.1913E-01  0.3411E-03  0.3287E-03  0.4450E-05  0.6860E-06  0.3411E-03  0.3287E-03  0.9090E-05  0.6382E-05  0.2152E-06  0.2295E-07  0.6876E-05  0.5313E-05  0.2152E-06  0.2295E-07  0.9090E-05  0.6382E-05
      2.050  0.3671E-01  0.3053E-01  0.6289E-03  0.5276E-03  0.5600E-03  0.4417E-03  0.6289E-03  0.5276E-03  0.1741E-04  0.1052E-04  0.2675E-04  0.1573E-04  0.1223E-05  0.9982E-06  0.2675E-04  0.1573E-04  0.1741E-04  0.1052E-04
      2.176  0.1202E-01  0.1886E-01  0.9825E-04  0.2326E-03  0.4694E-03  0.5392E-03  0.9825E-04  0.2326E-03  0.2721E-05  0.4645E-05  0.4246E-05  0.7414E-05  0.2773E-04  0.1654E-04  0.4246E-05  0.7414E-05  0.2721E-05  0.4645E-05
      2.302  0.4946E-03  0.1490E-02  0.2525E-08  0.2042E-07  0.2996E-04  0.9119E-04  0.2525E-08  0.2042E-07  0.7600E-10  0.4080E-09  0.3009E-09  0.6534E-09  0.2170E-05  0.4498E-05  0.3009E-09  0.6534E-09  0.7600E-10  0.4080E-09
      2.428  0.5847E-02  0.1338E-02  0.1032E-03  0.2369E-04  0.3603E-03  0.8353E-04  0.1032E-03  0.2369E-04  0.3351E-05  0.5262E-06  0.1868E-04  0.3125E-05  0.1298E-04  0.2012E-05  0.1868E-04  0.3125E-05  0.3351E-05  0.5262E-06
      2.554  0.4679E-01  0.4366E-01  0.1266E-02  0.1004E-02  0.2096E-02  0.2312E-02  0.1266E-02  0.1004E-02  0.7488E-04  0.3525E-04  0.1087E-03  0.8648E-04  0.1186E-03  0.7191E-04  0.1087E-03  0.8648E-04  0.7488E-04  0.3525E-04
      2.680  0.2392E-01  0.2044E-01  0.1241E-02  0.1019E-02  0.2773E-03  0.1929E-03  0.1241E-02  0.1019E-02  0.1064E-03  0.5992E-04  0.4949E-04  0.1521E-04  0.5638E-04  0.4255E-04  0.4949E-04  0.1521E-04  0.1064E-03  0.5992E-04
      2.806  0.2382E-01  0.3340E-01  0.1236E-02  0.1767E-02  0.4210E-03  0.5330E-03  0.1236E-02  0.1767E-02  0.1118E-03  0.1085E-03  0.6500E-04  0.6768E-04  0.6542E-04  0.4700E-04  0.6500E-04  0.6768E-04  0.1118E-03  0.1085E-03
      2.931  0.2418E-01  0.2123E-01  0.1273E-02  0.1106E-02  0.7880E-03  0.7544E-03  0.1273E-02  0.1106E-02  0.1902E-03  0.1086E-03  0.3946E-05  0.5952E-06  0.2890E-03  0.1770E-03  0.3946E-05  0.5952E-06  0.1902E-03  0.1086E-03
      3.057  0.3723E-01  0.2898E-01  0.2530E-02  0.1975E-02  0.7014E-03  0.5251E-03  0.2530E-02  0.1975E-02  0.3938E-03  0.2022E-03  0.1866E-03  0.7579E-04  0.1580E-03  0.1083E-03  0.1866E-03  0.7579E-04  0.3938E-03  0.2022E-03
      3.183  0.5657E-01  0.4723E-01  0.2324E-02  0.2595E-02  0.5043E-02  0.2778E-02  0.2324E-02  0.2595E-02  0.2221E-03  0.2057E-03  0.6088E-03  0.3235E-03  0.4922E-03  0.1120E-03  0.6088E-03  0.3235E-03  0.2221E-03  0.2057E-03
      3.309  0.1686E-01  0.3935E-01  0.3425E-03  0.9967E-03  0.2274E-02  0.5000E-02  0.3425E-03  0.9967E-03  0.1836E-04  0.4404E-04  0.1411E-03  0.2490E-03  0.3743E-03  0.4790E-03  0.1411E-03  0.2490E-03  0.1836E-04  0.4404E-04
      3.435  0.2726E-01  0.7038E-02  0.1894E-02  0.4876E-03  0.1747E-02  0.4800E-03  0.1894E-02  0.4876E-03  0.3686E-03  0.5751E-04  0.5511E-03  0.9083E-04  0.1358E-04  0.5991E-05  0.5511E-03  0.9083E-04  0.3686E-03  0.5751E-04
      3.561  0.7783E-02  0.2863E-01  0.5409E-03  0.2043E-02  0.4988E-03  0.1866E-02  0.5409E-03  0.2043E-02  0.1053E-03  0.2429E-03  0.1573E-03  0.3778E-03  0.3852E-05  0.7679E-05  0.1573E-03  0.3778E-03  0.1053E-03  0.2429E-03
      3.687  0.5819E-03  0.1293E-03  0.3637E-04  0.9227E-05  0.6867E-04  0.8430E-05  0.3637E-04  0.9227E-05  0.8983E-05  0.1098E-05  0.6167E-05  0.1706E-05  0.3497E-04  0.3798E-07  0.6167E-05  0.1706E-05  0.8983E-05  0.1098E-05
      3.813  0.6228E-01  0.1191E-01  0.5166E-02  0.1013E-02  0.5223E-02  0.1031E-02  0.5166E-02  0.1013E-02  0.1263E-02  0.1545E-03  0.9447E-03  0.1215E-03  0.1774E-02  0.2045E-03  0.9447E-03  0.1215E-03  0.1263E-02  0.1545E-03
      3.939  0.6849E-01  0.7072E-01  0.8080E-02  0.6416E-02  0.1717E-02  0.5461E-02  0.8080E-02  0.6416E-02  0.2426E-02  0.1026E-02  0.9168E-03  0.6905E-03  0.1465E-02  0.1201E-02  0.9168E-03  0.6905E-03  0.2426E-02  0.1026E-02
      4.064  0.4975E-01  0.5729E-01  0.2831E-02  0.7244E-02  0.8298E-02  0.1082E-02  0.2831E-02  0.7244E-02  0.7390E-03  0.1376E-02  0.1680E-02  0.4532E-03  0.2909E-02  0.7870E-03  0.1680E-02  0.4532E-03  0.7390E-03  0.1376E-02
      4.190  0.2856E-01  0.5605E-01  0.1949E-02  0.2739E-02  0.4385E-02  0.1102E-01  0.1949E-02  0.2739E-02  0.6292E-03  0.3637E-03  0.1108E-02  0.1292E-02  0.1737E-02  0.2144E-02  0.1108E-02  0.1292E-02  0.6292E-03  0.3637E-03
      4.316  0.6823E-01  0.1885E-01  0.8795E-02  0.1680E-02  0.3243E-02  0.2482E-02  0.8795E-02  0.1680E-02  0.4261E-02  0.3394E-03  0.2967E-02  0.4912E-03  0.1461E-02  0.5426E-03  0.2967E-02  0.4912E-03  0.4261E-02  0.3394E-03
      4.442  0.2441E-01  0.6470E-01  0.3539E-02  0.8706E-02  0.3443E-03  0.3370E-02  0.3539E-02  0.8706E-02  0.2745E-02  0.2248E-02  0.6185E-03  0.1677E-02  0.1023E-02  0.7604E-03  0.6185E-03  0.1677E-02  0.2745E-02  0.2248E-02
      4.568  0.1362E-01  0.2972E-01  0.1151E-02  0.4666E-02  0.2452E-02  0.4421E-03  0.1151E-02  0.4666E-02  0.8471E-03  0.1847E-02  0.1098E-02  0.3761E-03  0.1535E-02  0.7717E-03  0.1098E-02  0.3761E-03  0.8471E-03  0.1847E-02
      4.694  0.5102E-01  0.5639E-02  0.4803E-02  0.5048E-03  0.8424E-02  0.1090E-02  0.4803E-02  0.5048E-03  0.3571E-02  0.1333E-03  0.4860E-02  0.2014E-03  0.4559E-02  0.2591E-03  0.4860E-02  0.2014E-03  0.3571E-02  0.1333E-03
      4.820  0.6178E-01  0.3504E-01  0.6431E-02  0.2999E-02  0.1156E-01  0.7455E-02  0.6431E-02  0.2999E-02  0.3443E-02  0.9050E-03  0.8705E-02  0.1698E-02  0.2342E-02  0.1646E-02  0.8705E-02  0.1698E-02  0.3443E-02  0.9050E-03
      4.946  0.3597E-01  0.6033E-01  0.1913E-02  0.7466E-02  0.9350E-02  0.8983E-02  0.1913E-02  0.7466E-02  0.1699E-02  0.2653E-02  0.3225E-02  0.4282E-02  0.1435E-01  0.1896E-02  0.3225E-02  0.4282E-02  0.1699E-02  0.2653E-02
      5.072  0.3193E-01  0.4356E-01  0.5401E-02  0.4384E-02  0.2271E-02  0.9729E-02  0.5401E-02  0.4384E-02  0.5936E-02  0.1138E-02  0.4297E-02  0.3377E-02  0.4504E-02  0.1090E-02  0.4297E-02  0.3377E-02  0.5936E-02  0.1138E-02
      5.198  0.9162E-01  0.2377E-01  0.1844E-01  0.9100E-03  0.1394E-02  0.7857E-02  0.1844E-01  0.9100E-03  0.2569E-01  0.1648E-03  0.8587E-02  0.4152E-03  0.1603E-01  0.7271E-02  0.8587E-02  0.4152E-03  0.2569E-01  0.1648E-03
      5.323  0.1090E+00  0.3671E-01  0.1480E-01  0.6897E-02  0.1041E-01  0.3210E-02  0.1480E-01  0.6897E-02  0.4714E-01  0.3050E-02  0.4891E-01  0.1968E-02  0.3565E-01  0.2832E-02  0.4891E-01  0.1968E-02  0.4714E-01  0.3050E-02
      5.449  0.1171E+00  0.5566E-01  0.1182E-01  0.1201E-01  0.2123E-01  0.2212E-02  0.1182E-01  0.1201E-01  0.5170E-01  0.7099E-02  0.7173E-01  0.2490E-02  0.5716E-01  0.3302E-02  0.7173E-01  0.2490E-02  0.5170E-01  0.7099E-02
      5.575  0.7768E-01  0.5004E-01  0.7786E-02  0.1156E-01  0.1084E-01  0.9726E-03  0.7786E-02  0.1156E-01  0.4975E-01  0.7891E-02  0.7157E-01  0.2035E-02  0.7418E-01  0.3758E-02  0.7157E-01  0.2035E-02  0.4975E-01  0.7891E-02
      5.701  0.4565E-01  0.9438E-01  0.5717E-02  0.1493E-01  0.6349E-02  0.2044E-01  0.5717E-02  0.1493E-01  0.7029E-01  0.8149E-02  0.6283E-01  0.1350E-01  0.1818E-01  0.9029E-02  0.6283E-01  0.1350E-01  0.7029E-01  0.8149E-02
      5.827  0.5554E-01  0.3691E-01  0.9068E-02  0.5885E-02  0.1131E-01  0.6835E-02  0.9068E-02  0.5885E-02  0.8581E-01  0.4535E-02  0.5936E-01  0.4931E-02  0.6953E-01  0.5658E-02  0.5936E-01  0.4931E-02  0.8581E-01  0.4535E-02
      5.953  0.1212E+00  0.6604E-01  0.2347E-01  0.9957E-02  0.2763E-01  0.1446E-01  0.2347E-01  0.9957E-02  0.2012E+00  0.1438E-01  0.1748E+00  0.9787E-02  0.1874E+00  0.1339E-01  0.1748E+00  0.9787E-02  0.2012E+00  0.1438E-01
      6.079  0.4494E-01  0.8729E-01  0.1146E-01  0.1445E-01  0.1084E-01  0.1397E-01  0.1146E-01  0.1445E-01  0.6827E-01  0.1929E-01  0.1050E+00  0.2329E-01  0.8665E-01  0.2204E-01  0.1050E+00  0.2329E-01  0.6827E-01  0.1929E-01