   2   2   0   0
  0.2137190E+02  0.2470000E-09  0.2470000E-09  0.8090000E-09  0.5000000E-15
  1.000000000000000E-004
  CAR 
 Co-hcc                                  
     21.65519349     -4.15216010  301      3.19550342      1.00000000
     -4.152  0.0000E+00  0.0000E+00  0.0000E+00  0.0000E+00
     -4.066  0.0000E+00  0.0000E+00  0.0000E+00  0.0000E+00
     -3.980  0.0000E+00  0.0000E+00  0.0000E+00  0.0000E+00
     -3.894  0.0000E+00  0.0000E+00  0.0000E+00  0.0000E+00
     -3.808  0.0000E+00  0.0000E+00  0.0000E+00  0.0000E+00
     -3.722  0.0000E+00  0.0000E+00  0.0000E+00  0.0000E+00
     -3.636  0.0000E+00  0.0000E+00  0.0000E+00  0.0000E+00
     -3.550  0.0000E+00  0.0000E+00  0.0000E+00  0.0000E+00
     -3.464  0.0000E+00  0.0000E+00  0.0000E+00  0.0000E+00
     -3.378  0.0000E+00  0.0000E+00  0.0000E+00  0.0000E+00
     -3.292  0.0000E+00  0.0000E+00  0.0000E+00  0.0000E+00
     -3.206  0.1104E-11  0.0000E+00  0.9499E-13  0.0000E+00
     -3.120  0.6161E-06  0.3226E-17  0.5300E-07  0.2776E-18
     -3.034  0.1510E-02  0.1028E-09  0.1300E-03  0.8843E-11
     -2.948  0.3419E-01  0.1028E-04  0.3071E-02  0.8847E-06
     -2.862  0.4226E-01  0.5375E-02  0.6707E-02  0.4632E-03
     -2.776  0.2911E-01  0.4028E-01  0.9211E-02  0.3928E-02
     -2.690  0.2968E-01  0.3104E-01  0.1176E-01  0.6598E-02
     -2.604  0.1702E+00  0.2411E-01  0.2640E-01  0.8672E-02
     -2.518  0.3260E+00  0.3182E-01  0.5445E-01  0.1141E-01
     -2.432  0.2120E+00  0.2081E+00  0.7268E-01  0.2931E-01
     -2.346  0.1698E+00  0.2424E+00  0.8729E-01  0.5016E-01
     -2.260  0.1803E+00  0.1818E+00  0.1028E+00  0.6580E-01
     -2.174  0.2598E+00  0.1512E+00  0.1251E+00  0.7881E-01
     -2.088  0.1679E+00  0.1181E+00  0.1396E+00  0.8897E-01
     -2.002  0.6892E-02  0.1401E+00  0.1402E+00  0.1010E+00
     -1.916  0.1394E+00  0.1315E+00  0.1522E+00  0.1123E+00
     -1.829  0.2961E+00  0.2085E+00  0.1777E+00  0.1303E+00
     -1.743  0.2013E+00  0.2516E+00  0.1950E+00  0.1519E+00
     -1.657  0.2328E+00  0.2502E+00  0.2150E+00  0.1734E+00
     -1.571  0.5304E+00  0.1596E+00  0.2606E+00  0.1872E+00
     -1.485  0.5399E+00  0.1230E+00  0.3071E+00  0.1977E+00
     -1.399  0.2618E+00  0.3173E+00  0.3296E+00  0.2250E+00
     -1.313  0.2598E+00  0.3586E+00  0.3519E+00  0.2559E+00
     -1.227  0.2939E+00  0.2790E+00  0.3772E+00  0.2799E+00
     -1.141  0.3218E-01  0.3224E+00  0.3800E+00  0.3076E+00
     -1.055  0.5800E-04  0.2579E+00  0.3800E+00  0.3298E+00
     -0.969  0.2995E-01  0.1466E+00  0.3826E+00  0.3424E+00
     -0.883  0.6519E+00  0.1538E+00  0.4387E+00  0.3556E+00
     -0.797  0.2252E+01  0.2179E+00  0.6324E+00  0.3744E+00
     -0.711  0.2637E+01  0.6470E-01  0.8592E+00  0.3800E+00
     -0.625  0.2985E+01  0.4916E-03  0.1116E+01  0.3800E+00
     -0.539  0.1987E+01  0.4374E-01  0.1287E+01  0.3838E+00
     -0.453  0.1288E+01  0.4832E+00  0.1398E+01  0.4253E+00
     -0.367  0.2501E-01  0.4339E+00  0.1400E+01  0.4627E+00
     -0.281  0.2443E-01  0.3046E+00  0.1402E+01  0.4889E+00
     -0.195  0.8682E+00  0.3066E+00  0.1477E+01  0.5152E+00
     -0.109  0.2011E+01  0.5343E+00  0.1650E+01  0.5612E+00
     -0.023  0.3201E+01  0.6109E+00  0.1925E+01  0.6138E+00
      0.063  0.2693E+01  0.6878E+00  0.2157E+01  0.6729E+00
      0.149  0.3882E+01  0.3707E+00  0.2491E+01  0.7048E+00
      0.235  0.6123E+01  0.3348E+00  0.3017E+01  0.7336E+00
      0.321  0.3393E+01  0.9887E+00  0.3309E+01  0.8187E+00
      0.407  0.4256E+01  0.1104E+01  0.3675E+01  0.9136E+00
      0.493  0.4085E+01  0.1130E+01  0.4027E+01  0.1011E+01
      0.579  0.2551E+01  0.3185E+01  0.4246E+01  0.1285E+01
      0.665  0.3017E+01  0.1218E+01  0.4506E+01  0.1390E+01
      0.751  0.1624E+01  0.1296E+00  0.4646E+01  0.1401E+01
      0.837  0.3692E+01  0.2297E+00  0.4963E+01  0.1421E+01
      0.923  0.3002E+01  0.3023E+00  0.5221E+01  0.1447E+01
      1.009  0.5229E+01  0.3245E+00  0.5671E+01  0.1474E+01
      1.095  0.4508E+01  0.1357E+01  0.6059E+01  0.1591E+01
      1.181  0.4531E+01  0.2237E+01  0.6449E+01  0.1784E+01
      1.267  0.3830E+01  0.1105E+01  0.6778E+01  0.1879E+01
      1.353  0.6577E+01  0.1572E-01  0.7344E+01  0.1880E+01
      1.439  0.8089E+01  0.4465E-02  0.8040E+01  0.1880E+01
      1.525  0.8179E+01  0.4832E+00  0.8744E+01  0.1922E+01
      1.611  0.5860E+01  0.2908E+01  0.9248E+01  0.2172E+01
      1.698  0.3044E+01  0.3754E+01  0.9510E+01  0.2495E+01
      1.784  0.2892E+01  0.3706E+01  0.9758E+01  0.2814E+01
      1.870  0.1739E+01  0.5459E+01  0.9908E+01  0.3283E+01
      1.956  0.2035E+00  0.5027E+01  0.9925E+01  0.3716E+01
      2.042  0.1413E+01  0.4016E+01  0.1005E+02  0.4061E+01
      2.128  0.2054E+01  0.3184E+01  0.1022E+02  0.4335E+01
      2.214  0.2561E+01  0.3545E+01  0.1044E+02  0.4640E+01
      2.300  0.1304E+01  0.2744E+01  0.1056E+02  0.4876E+01
      2.386  0.6240E-01  0.3140E+01  0.1056E+02  0.5146E+01
      2.472  0.6343E-01  0.2038E+01  0.1057E+02  0.5322E+01
      2.558  0.9469E+00  0.1846E+01  0.1065E+02  0.5481E+01
      2.644  0.4110E+00  0.1532E+01  0.1068E+02  0.5612E+01
      2.730  0.2854E+00  0.2377E+01  0.1071E+02  0.5817E+01
      2.816  0.4020E+00  0.2185E+01  0.1074E+02  0.6005E+01
      2.902  0.2124E-01  0.1166E+01  0.1074E+02  0.6105E+01
      2.988  0.2245E-01  0.2921E+01  0.1075E+02  0.6356E+01
      3.074  0.6778E-01  0.4359E+01  0.1075E+02  0.6731E+01
      3.160  0.2592E+00  0.4268E+01  0.1077E+02  0.7098E+01
      3.246  0.8732E+00  0.2375E+01  0.1085E+02  0.7303E+01
      3.332  0.7608E+00  0.3659E+01  0.1092E+02  0.7618E+01
      3.418  0.7289E+00  0.7196E+01  0.1098E+02  0.8237E+01
      3.504  0.5265E+00  0.7085E+01  0.1102E+02  0.8846E+01
      3.590  0.6508E+00  0.5250E+01  0.1108E+02  0.9298E+01
      3.676  0.4849E+00  0.4667E+01  0.1112E+02  0.9699E+01
      3.762  0.5475E+00  0.4881E+01  0.1117E+02  0.1012E+02
      3.848  0.5474E+00  0.4026E+01  0.1122E+02  0.1047E+02
      3.934  0.1652E+00  0.1719E+01  0.1123E+02  0.1061E+02
      4.020  0.1688E+00  0.2747E+00  0.1124E+02  0.1064E+02
      4.106  0.2809E+00  0.1310E+00  0.1127E+02  0.1065E+02
      4.192  0.3707E+00  0.9645E-01  0.1130E+02  0.1066E+02
      4.278  0.7002E-01  0.3178E+00  0.1131E+02  0.1068E+02
      4.364  0.3890E-01  0.8925E+00  0.1131E+02  0.1076E+02
      4.450  0.1152E+00  0.8870E+00  0.1132E+02  0.1084E+02
      4.536  0.2528E+00  0.4887E+00  0.1134E+02  0.1088E+02
      4.622  0.3075E-01  0.1679E+01  0.1134E+02  0.1102E+02
      4.708  0.7213E-02  0.1171E+01  0.1134E+02  0.1112E+02
      4.794  0.1315E+00  0.9317E+00  0.1136E+02  0.1120E+02
      4.880  0.1664E+00  0.7476E+00  0.1137E+02  0.1127E+02
      4.966  0.8777E-01  0.3472E+00  0.1138E+02  0.1130E+02
      5.052  0.1459E+00  0.1205E+00  0.1139E+02  0.1131E+02
      5.138  0.1594E-01  0.1082E+00  0.1139E+02  0.1132E+02
      5.225  0.3093E+00  0.4150E+00  0.1142E+02  0.1135E+02
      5.311  0.1192E+01  0.2814E+00  0.1152E+02  0.1138E+02
      5.397  0.9518E+00  0.2139E+00  0.1160E+02  0.1140E+02
      5.483  0.8866E+00  0.1737E+00  0.1168E+02  0.1141E+02
      5.569  0.8038E+00  0.2459E+00  0.1175E+02  0.1143E+02
      5.655  0.9134E+00  0.1769E+00  0.1183E+02  0.1145E+02
      5.741  0.5122E+00  0.4682E-01  0.1187E+02  0.1145E+02
      5.827  0.4985E+00  0.3176E+00  0.1191E+02  0.1148E+02
      5.913  0.6303E+00  0.7136E+00  0.1197E+02  0.1154E+02
      5.999  0.5255E+00  0.7652E+00  0.1201E+02  0.1161E+02
      6.085  0.5272E+00  0.5140E+00  0.1206E+02  0.1165E+02
      6.171  0.2133E+00  0.1003E+01  0.1208E+02  0.1174E+02
      6.257  0.2448E+00  0.9842E+00  0.1210E+02  0.1182E+02
      6.343  0.1482E+00  0.7328E+00  0.1211E+02  0.1188E+02
      6.429  0.1637E+00  0.4864E+00  0.1212E+02  0.1193E+02
      6.515  0.2942E+00  0.4612E+00  0.1215E+02  0.1197E+02
      6.601  0.1365E+00  0.5241E+00  0.1216E+02  0.1201E+02
      6.687  0.9736E-01  0.4684E+00  0.1217E+02  0.1205E+02
      6.773  0.9188E-01  0.2872E+00  0.1218E+02  0.1208E+02
      6.859  0.2310E+00  0.4018E+00  0.1220E+02  0.1211E+02
      6.945  0.2702E-01  0.3052E+00  0.1220E+02  0.1214E+02
      7.031  0.8583E-02  0.3217E+00  0.1220E+02  0.1216E+02
      7.117  0.2803E+00  0.1096E+00  0.1222E+02  0.1217E+02
      7.203  0.5478E+00  0.1334E+00  0.1227E+02  0.1219E+02
      7.289  0.1102E+00  0.1384E+00  0.1228E+02  0.1220E+02
      7.375  0.1403E+00  0.7563E-01  0.1229E+02  0.1220E+02
      7.461  0.4001E+00  0.4783E-01  0.1233E+02  0.1221E+02
      7.547  0.5016E+00  0.2392E+00  0.1237E+02  0.1223E+02
      7.633  0.6320E+00  0.5320E+00  0.1243E+02  0.1227E+02
      7.719  0.4458E+00  0.1816E+00  0.1246E+02  0.1229E+02
      7.805  0.4797E+00  0.1340E+00  0.1251E+02  0.1230E+02
      7.891  0.3761E+00  0.3643E+00  0.1254E+02  0.1233E+02
      7.977  0.6277E+00  0.6549E+00  0.1259E+02  0.1239E+02
      8.063  0.2528E+00  0.4658E+00  0.1261E+02  0.1243E+02
      8.149  0.2334E+00  0.2878E+00  0.1263E+02  0.1245E+02
      8.235  0.3239E+00  0.6977E+00  0.1266E+02  0.1251E+02
      8.321  0.1939E+00  0.5260E+00  0.1268E+02  0.1256E+02
      8.407  0.1676E+00  0.1834E+00  0.1269E+02  0.1257E+02
      8.493  0.5509E+00  0.1640E+00  0.1274E+02  0.1259E+02
      8.579  0.3314E+00  0.4323E+00  0.1277E+02  0.1263E+02
      8.665  0.2760E+00  0.3540E+00  0.1279E+02  0.1266E+02
      8.752  0.3250E+00  0.4182E+00  0.1282E+02  0.1269E+02
      8.838  0.4150E+00  0.3642E+00  0.1286E+02  0.1272E+02
      8.924  0.1383E+00  0.1986E+00  0.1287E+02  0.1274E+02
      9.010  0.4528E-02  0.2624E+00  0.1287E+02  0.1276E+02
      9.096  0.1836E+00  0.3672E+00  0.1288E+02  0.1280E+02
      9.182  0.1607E+00  0.3545E+00  0.1290E+02  0.1283E+02
      9.268  0.8685E-01  0.2221E+00  0.1290E+02  0.1284E+02
      9.354  0.3991E+00  0.1447E+00  0.1294E+02  0.1286E+02
      9.440  0.6315E+00  0.3682E+00  0.1299E+02  0.1289E+02
      9.526  0.3268E+00  0.1835E+00  0.1302E+02  0.1290E+02
      9.612  0.3772E+00  0.1017E+00  0.1305E+02  0.1291E+02
      9.698  0.6724E-01  0.1645E+00  0.1306E+02  0.1293E+02
      9.784  0.2175E+00  0.3341E+00  0.1308E+02  0.1296E+02
      9.870  0.8737E+00  0.4340E+00  0.1315E+02  0.1299E+02
      9.956  0.1117E+01  0.1988E+00  0.1325E+02  0.1301E+02
     10.042  0.5652E+00  0.1479E+00  0.1330E+02  0.1302E+02
     10.128  0.7332E+00  0.7174E+00  0.1336E+02  0.1309E+02
     10.214  0.7139E+00  0.1001E+01  0.1342E+02  0.1317E+02
     10.300  0.7329E+00  0.2707E+00  0.1349E+02  0.1319E+02
     10.386  0.7053E+00  0.3043E+00  0.1355E+02  0.1322E+02
     10.472  0.2797E+00  0.1855E+00  0.1357E+02  0.1324E+02
     10.558  0.3614E+00  0.7747E+00  0.1360E+02  0.1330E+02
     10.644  0.3003E+00  0.7348E+00  0.1363E+02  0.1337E+02
     10.730  0.1927E+00  0.6051E+00  0.1364E+02  0.1342E+02
     10.816  0.6909E-01  0.1307E+01  0.1365E+02  0.1353E+02
     10.902  0.2409E-01  0.4692E+00  0.1365E+02  0.1357E+02
     10.988  0.3192E+00  0.4094E+00  0.1368E+02  0.1361E+02
     11.074  0.8069E+00  0.1690E+00  0.1375E+02  0.1362E+02
     11.160  0.3869E+00  0.1267E+00  0.1378E+02  0.1363E+02
     11.246  0.5287E+00  0.2736E+00  0.1383E+02  0.1366E+02
     11.332  0.4080E+00  0.2736E+00  0.1386E+02  0.1368E+02
     11.418  0.4954E+00  0.1243E+00  0.1391E+02  0.1369E+02
     11.504  0.5643E+00  0.2084E+00  0.1395E+02  0.1371E+02
     11.590  0.6179E+00  0.2416E+00  0.1401E+02  0.1373E+02
     11.676  0.1040E+01  0.9010E+00  0.1410E+02  0.1381E+02
     11.762  0.2850E+00  0.8938E+00  0.1412E+02  0.1388E+02
     11.848  0.2882E+00  0.6574E+00  0.1415E+02  0.1394E+02
     11.934  0.7993E+00  0.7044E+00  0.1421E+02  0.1400E+02
     12.020  0.5066E+00  0.9432E+00  0.1426E+02  0.1408E+02
     12.106  0.3346E+00  0.6970E+00  0.1429E+02  0.1414E+02
     12.192  0.1039E+01  0.5277E+00  0.1438E+02  0.1419E+02
     12.279  0.9357E+00  0.2533E+00  0.1446E+02  0.1421E+02
     12.365  0.5795E+00  0.3123E+00  0.1451E+02  0.1424E+02
     12.451  0.2049E+00  0.7379E+00  0.1452E+02  0.1430E+02
     12.537  0.5813E+00  0.6878E+00  0.1457E+02  0.1436E+02
     12.623  0.3904E+00  0.6904E+00  0.1461E+02  0.1442E+02
     12.709  0.9429E+00  0.6721E+00  0.1469E+02  0.1448E+02
     12.795  0.1205E+01  0.4959E+00  0.1479E+02  0.1452E+02
     12.881  0.4254E+00  0.5135E+00  0.1483E+02  0.1456E+02
     12.967  0.5505E+00  0.7422E+00  0.1488E+02  0.1463E+02
     13.053  0.4544E+00  0.9269E+00  0.1492E+02  0.1471E+02
     13.139  0.6809E+00  0.9907E+00  0.1497E+02  0.1479E+02
     13.225  0.5750E+00  0.5658E+00  0.1502E+02  0.1484E+02
     13.311  0.3348E+00  0.6000E+00  0.1505E+02  0.1489E+02
     13.397  0.2374E+00  0.4028E+00  0.1507E+02  0.1493E+02
     13.483  0.5276E+00  0.6844E+00  0.1512E+02  0.1498E+02
     13.569  0.1769E+00  0.4423E+00  0.1513E+02  0.1502E+02
     13.655  0.1221E+00  0.1567E+00  0.1514E+02  0.1504E+02
     13.741  0.4373E+00  0.4767E+00  0.1518E+02  0.1508E+02
     13.827  0.1165E+00  0.3045E+00  0.1519E+02  0.1510E+02
     13.913  0.5943E+00  0.1294E+00  0.1524E+02  0.1511E+02
     13.999  0.4469E+00  0.3148E+00  0.1528E+02  0.1514E+02
     14.085  0.5917E+00  0.3771E+00  0.1533E+02  0.1517E+02
     14.171  0.4808E+00  0.5127E+00  0.1537E+02  0.1522E+02
     14.257  0.7299E+00  0.3101E+00  0.1544E+02  0.1524E+02
     14.343  0.8201E-01  0.5632E+00  0.1544E+02  0.1529E+02
     14.429  0.1832E-02  0.6512E+00  0.1544E+02  0.1535E+02
     14.515  0.2193E-02  0.3515E+00  0.1544E+02  0.1538E+02
     14.601  0.9841E-01  0.3215E+00  0.1545E+02  0.1541E+02
     14.687  0.7302E-01  0.4257E+00  0.1546E+02  0.1544E+02
     14.773  0.7506E-03  0.1445E+00  0.1546E+02  0.1546E+02
     14.859  0.9121E-06  0.2991E-01  0.1546E+02  0.1546E+02
     14.945  0.6516E-02  0.6324E-04  0.1546E+02  0.1546E+02
     15.031  0.2874E+00  0.1269E-05  0.1548E+02  0.1546E+02
     15.117  0.3090E+00  0.7034E-02  0.1551E+02  0.1546E+02
     15.203  0.2013E+00  0.2428E+00  0.1553E+02  0.1548E+02
     15.289  0.6709E-01  0.2699E+00  0.1553E+02  0.1550E+02
     15.375  0.1071E-02  0.2114E+00  0.1553E+02  0.1552E+02
     15.461  0.6592E-01  0.1372E+00  0.1554E+02  0.1553E+02
     15.547  0.1098E+00  0.6396E-02  0.1555E+02  0.1553E+02
     15.633  0.1146E+00  0.1074E+00  0.1556E+02  0.1554E+02
     15.720  0.3917E+00  0.8775E-01  0.1559E+02  0.1555E+02
     15.806  0.2489E+00  0.5322E-02  0.1561E+02  0.1555E+02
     15.892  0.1196E+00  0.1097E-03  0.1562E+02  0.1555E+02
     15.978  0.2146E+00  0.5716E-01  0.1564E+02  0.1556E+02
     16.064  0.7055E-01  0.4571E+00  0.1565E+02  0.1560E+02
     16.150  0.1191E-02  0.2997E+00  0.1565E+02  0.1562E+02
     16.236  0.1092E+00  0.1697E+00  0.1566E+02  0.1564E+02
     16.322  0.2430E+00  0.1387E+00  0.1568E+02  0.1565E+02
     16.408  0.1974E+00  0.1020E+00  0.1570E+02  0.1566E+02
     16.494  0.2339E+00  0.2450E+00  0.1572E+02  0.1568E+02
     16.580  0.3855E+00  0.3099E-01  0.1575E+02  0.1568E+02
     16.666  0.1370E+00  0.3044E+00  0.1576E+02  0.1571E+02
     16.752  0.1220E-01  0.2444E+00  0.1576E+02  0.1573E+02
     16.838  0.1319E+00  0.1250E+00  0.1577E+02  0.1574E+02
     16.924  0.4700E-01  0.2368E+00  0.1578E+02  0.1576E+02
     17.010  0.1323E-01  0.2248E+00  0.1578E+02  0.1578E+02
     17.096  0.1624E-03  0.8659E-02  0.1578E+02  0.1578E+02
     17.182  0.2380E-02  0.1153E-04  0.1578E+02  0.1578E+02
     17.268  0.1004E+00  0.1059E-01  0.1579E+02  0.1578E+02
     17.354  0.7186E-01  0.1310E+00  0.1579E+02  0.1579E+02
     17.440  0.1267E+00  0.3272E-01  0.1580E+02  0.1579E+02
     17.526  0.2153E+00  0.8154E-04  0.1582E+02  0.1579E+02
     17.612  0.6454E-02  0.9914E-02  0.1582E+02  0.1579E+02
     17.698  0.1085E-05  0.2347E+00  0.1582E+02  0.1581E+02
     17.784  0.3834E-04  0.1036E+00  0.1582E+02  0.1582E+02
     17.870  0.2431E-01  0.5636E-03  0.1583E+02  0.1582E+02
     17.956  0.1358E+00  0.2208E-01  0.1584E+02  0.1583E+02
     18.042  0.2292E+00  0.1352E+00  0.1586E+02  0.1584E+02
     18.128  0.6227E+00  0.2442E-01  0.1591E+02  0.1584E+02
     18.214  0.2010E+00  0.2284E-01  0.1593E+02  0.1584E+02
     18.300  0.3644E-01  0.1047E+00  0.1593E+02  0.1585E+02
     18.386  0.8238E-04  0.4541E+00  0.1593E+02  0.1589E+02
     18.472  0.1770E-02  0.4784E+00  0.1593E+02  0.1593E+02
     18.558  0.9322E-01  0.1171E+00  0.1594E+02  0.1594E+02
     18.644  0.7842E-01  0.6463E-01  0.1595E+02  0.1595E+02
     18.730  0.9542E-03  0.4463E-02  0.1595E+02  0.1595E+02
     18.816  0.2037E-02  0.1007E-01  0.1595E+02  0.1595E+02
     18.902  0.1122E-01  0.4884E-03  0.1595E+02  0.1595E+02
     18.988  0.1274E-02  0.1469E-06  0.1595E+02  0.1595E+02
     19.074  0.1111E-05  0.4455E-04  0.1595E+02  0.1595E+02
     19.160  0.3276E-03  0.1717E-01  0.1595E+02  0.1595E+02
     19.247  0.7053E-01  0.7897E-01  0.1595E+02  0.1596E+02
     19.333  0.1813E+00  0.1389E+00  0.1597E+02  0.1597E+02
     19.419  0.1027E-01  0.2645E-01  0.1597E+02  0.1597E+02
     19.505  0.7582E-01  0.4072E-03  0.1598E+02  0.1597E+02
     19.591  0.9574E-01  0.5751E-01  0.1598E+02  0.1597E+02
     19.677  0.1964E-02  0.1125E+00  0.1598E+02  0.1598E+02
     19.763  0.2112E-06  0.3980E-02  0.1598E+02  0.1598E+02
     19.849  0.2176E-12  0.8180E-06  0.1598E+02  0.1599E+02
     19.935  0.2519E-06  0.1239E-03  0.1599E+02  0.1599E+02
     20.021  0.1553E-02  0.2523E-01  0.1599E+02  0.1599E+02
     20.107  0.5430E-01  0.5922E-01  0.1599E+02  0.1599E+02
     20.193  0.7915E-01  0.2607E-02  0.1600E+02  0.1599E+02
     20.279  0.3891E-01  0.6955E-06  0.1600E+02  0.1599E+02
     20.365  0.4533E-03  0.3953E-04  0.1600E+02  0.1599E+02
     20.451  0.2560E-07  0.1636E-01  0.1600E+02  0.1599E+02
     20.537  0.4782E-14  0.6548E-01  0.1600E+02  0.1600E+02
     20.623  0.0000E+00  0.5295E-02  0.1600E+02  0.1600E+02
     20.709  0.0000E+00  0.2985E-05  0.1600E+02  0.1600E+02
     20.795  0.0000E+00  0.6153E-11  0.1600E+02  0.1600E+02
     20.881  0.0000E+00  0.0000E+00  0.1600E+02  0.1600E+02
     20.967  0.0000E+00  0.0000E+00  0.1600E+02  0.1600E+02
     21.053  0.0000E+00  0.0000E+00  0.1600E+02  0.1600E+02
     21.139  0.0000E+00  0.0000E+00  0.1600E+02  0.1600E+02
     21.225  0.0000E+00  0.0000E+00  0.1600E+02  0.1600E+02
     21.311  0.0000E+00  0.0000E+00  0.1600E+02  0.1600E+02
     21.397  0.0000E+00  0.0000E+00  0.1600E+02  0.1600E+02
     21.483  0.0000E+00  0.0000E+00  0.1600E+02  0.1600E+02
     21.569  0.0000E+00  0.0000E+00  0.1600E+02  0.1600E+02
     21.655  0.0000E+00  0.0000E+00  0.1600E+02  0.1600E+02
