    2    2    1    2
  0.1064014E+02  0.2472000E-09  0.2472000E-09  0.4021144E-09  0.5000000E-15
  1.000000000000000E-004
  CAR 
 Co-hcc                                  
     18     70     16
 
  0.0000000E+00  0.0000000E+00  0.0000000E+00  0.1250000E-02
      1          1.500790        1.520389   1.000000   1.000000
      2          5.282008        6.256173   1.000000   1.000000
      3          7.829694        9.500702   1.000000   1.000000
      4          7.880152        9.567748   1.000000   1.000000
      5          7.880152        9.567749   1.000000   1.000000
      6          8.194556        9.936682   1.000000   1.000000
      7          8.194556        9.936682   1.000000   1.000000
      8          8.577480       10.332822   1.000000   0.999973
      9          8.577480       10.395644   1.000000   0.988197
     10          9.684934       10.395645   1.000000   0.988197
     11          9.684934       11.621271   1.000000   0.000000
     12         10.374816       11.621271   0.997832   0.000000
     13         16.949084       18.008728   0.000000   0.000000
     14         32.750230       32.489989   0.000000   0.000000
     15         35.548073       35.745006   0.000000   0.000000
     16         35.548353       35.835657   0.000000   0.000000
 
  0.1000000E+00 -0.6938894E-17  0.0000000E+00  0.7500000E-02
      1          1.856297        1.877482   1.000000   1.000000
      2          5.493649        6.497821   1.000000   1.000000
      3          7.578836        9.202368   1.000000   1.000000
      4          8.047288        9.474917   1.000000   1.000000
      5          8.059411        9.751669   1.000000   1.000000
      6          8.147188        9.764896   1.000000   1.000000
      7          8.307266        9.865772   1.000000   1.000000
      8          8.342567       10.099440   1.000000   1.000000
      9          8.475306       10.276228   1.000000   1.000000
     10          8.762272       10.300619   1.000000   1.000000
     11          9.726671       11.670944   1.000000   0.000000
     12         11.804876       12.787984   0.000000   0.000000
     13         17.010595       18.036382   0.000000   0.000000
     14         30.227349       30.409358   0.000000   0.000000
     15         32.869688       33.152878   0.000000   0.000000
     16         33.088986       33.223562   0.000000   0.000000
 
  0.2000000E+00 -0.1387779E-16  0.0000000E+00  0.7500000E-02
      1          2.862642        2.899637   1.000000   1.000000
      2          5.951559        7.059035   1.000000   1.000000
      3          7.266409        8.482813   1.000000   1.000000
      4          7.349342        8.774979   1.000000   1.000000
      5          7.904735        9.550470   1.000000   1.000000
      6          8.240555       10.004173   1.000000   1.000000
      7          8.433058       10.065666   1.000000   1.000000
      8          8.505656       10.241722   1.000000   1.000000
      9          8.506084       10.260613   1.000000   1.000000
     10          8.745690       10.544546   1.000000   0.025703
     11          9.804743       11.762497   1.000000   0.000000
     12         13.826356       14.683391   0.000000   0.000000
     13         17.236668       18.154789   0.000000   0.000000
     14         25.586556       26.001414   0.000000   0.000000
     15         30.052637       30.374999   0.000000   0.000000
     16         31.931963       32.085907   0.000000   0.000000
 
  0.3000000E+00  0.2775558E-16  0.0000000E+00  0.7500000E-02
      1          4.261451        4.401057   1.000000   1.000000
      2          6.074997        7.347452   1.000000   1.000000
      3          6.576577        7.769209   1.000000   1.000000
      4          7.247575        8.531453   1.000000   1.000000
      5          7.914435        9.495013   1.000000   1.000000
      6          7.988873        9.714703   1.000000   1.000000
      7          8.192101        9.781517   1.000000   1.000000
      8          9.117604       10.916381   1.000000   0.000000
      9          9.184000       10.950427   1.000000   0.000000
     10          9.281444       11.139672   1.000000   0.000000
     11          9.865160       11.832151   1.000000   0.000000
     12         16.117325       16.857016   0.000000   0.000000
     13         17.591702       18.322780   0.000000   0.000000
     14         21.421304       22.009684   0.000000   0.000000
     15         27.763451       28.029618   0.000000   0.000000
     16         28.872849       29.110567   0.000000   0.000000
 
  0.4000000E+00  0.5551115E-16  0.0000000E+00  0.7500000E-02
      1          5.344764        5.900329   1.000000   1.000000
      2          5.852525        7.132598   1.000000   1.000000
      3          6.111710        7.349636   1.000000   1.000000
      4          7.631560        8.552003   1.000000   1.000000
      5          7.804584        9.503774   1.000000   1.000000
      6          8.009171        9.555705   1.000000   1.000000
      7          8.172513        9.763627   1.000000   1.000000
      8          9.638456       11.548979   1.000000   0.000000
      9          9.771832       11.692377   1.000000   0.000000
     10          9.896851       11.868131   1.000000   0.000000
     11         10.398592       11.982515   0.985375   0.000000
     12         16.185874       16.930149   0.000000   0.000000
     13         18.577421       19.177562   0.000000   0.000000
     14         20.125630       20.704681   0.000000   0.000000
     15         25.455706       25.868679   0.000000   0.000000
     16         26.217431       26.416646   0.000000   0.000000
 
  0.5000000E+00  0.5551115E-16  0.0000000E+00  0.3750000E-02
      1          5.658520        6.608497   1.000000   1.000000
      2          5.702234        6.897742   1.000000   1.000000
      3          5.957533        7.212318   1.000000   1.000000
      4          7.737603        8.684770   1.000000   1.000000
      5          7.940835        9.427302   1.000000   1.000000
      6          7.981700        9.470345   1.000000   1.000000
      7          8.284414        9.893194   1.000000   1.000000
      8          9.835950       11.775109   1.000000   0.000000
      9          9.906091       11.878511   1.000000   0.000000
     10          9.984533       11.939621   1.000000   0.000000
     11         11.876305       13.150527   0.000000   0.000000
     12         13.945003       14.954159   0.000000   0.000000
     13         20.324143       20.771008   0.000000   0.000000
     14         21.000005       21.419120   0.000000   0.000000
     15         23.395620       23.975698   0.000000   0.000000
     16         24.694734       25.291064   0.000000   0.000000
 
  0.1000000E+00  0.1000000E+00  0.0000000E+00  0.7500000E-02
      1          2.540256        2.568866   1.000000   1.000000
      2          5.848049        6.914104   1.000000   1.000000
      3          7.301800        8.740025   1.000000   1.000000
      4          7.636563        8.858557   1.000000   1.000000
      5          7.986668        9.656391   1.000000   1.000000
      6          8.192114        9.935739   1.000000   1.000000
      7          8.274775       10.004012   1.000000   1.000000
      8          8.388806       10.125204   1.000000   1.000000
      9          8.597304       10.281147   1.000000   1.000000
     10          8.678130       10.459307   1.000000   0.678262
     11          9.767456       11.718496   1.000000   0.000000
     12         13.260263       14.151278   0.000000   0.000000
     13         17.160796       18.116083   0.000000   0.000000
     14         27.757156       28.053210   0.000000   0.000000
     15         28.444657       28.830723   0.000000   0.000000
     16         34.607171       34.535431   0.000000   0.000000
 
  0.2000000E+00  0.1000000E+00  0.0000000E+00  0.1500000E-01
      1          3.774934        3.847393   1.000000   1.000000
      2          6.226278        7.425549   1.000000   1.000000
      3          6.860758        8.027282   1.000000   1.000000
      4          7.022184        8.444567   1.000000   1.000000
      5          7.890540        9.493635   1.000000   1.000000
      6          7.916925        9.598479   1.000000   1.000000
      7          8.402206       10.069272   1.000000   1.000000
      8          8.627316       10.389302   1.000000   0.992715
      9          8.974112       10.771948   1.000000   0.000000
     10          9.293308       11.097111   1.000000   0.000000
     11          9.808769       11.766436   1.000000   0.000000
     12         15.298956       16.089340   0.000000   0.000000
     13         17.543169       18.352118   0.000000   0.000000
     14         23.507374       23.988330   0.000000   0.000000
     15         26.148525       26.523875   0.000000   0.000000
     16         30.900795       31.019241   0.000000   0.000000
 
  0.3000000E+00  0.1000000E+00  0.0000000E+00  0.1500000E-01
      1          5.113560        5.413198   1.000000   1.000000
      2          6.103602        7.405295   1.000000   1.000000
      3          6.309136        7.537329   1.000000   1.000000
      4          7.175387        8.344371   1.000000   1.000000
      5          7.739320        9.379424   1.000000   1.000000
      6          8.059361        9.642530   1.000000   1.000000
      7          8.145013        9.761934   1.000000   1.000000
      8          9.191963       10.999081   1.000000   0.000000
      9          9.548241       11.423562   1.000000   0.000000
     10          9.836627       11.798337   1.000000   0.000000
     11         10.180378       11.914504   1.000000   0.000000
     12         17.609164       18.253393   0.000000   0.000000
     13         17.652591       18.326932   0.000000   0.000000
     14         20.234973       20.862760   0.000000   0.000000
     15         24.553591       24.901175   0.000000   0.000000
     16         27.273854       27.583477   0.000000   0.000000
 
  0.4000000E+00  0.1000000E+00  0.0000000E+00  0.1500000E-01
      1          5.746087        6.581166   1.000000   1.000000
      2          5.894939        7.132485   1.000000   1.000000
      3          6.030791        7.295612   1.000000   1.000000
      4          7.633572        8.465208   1.000000   1.000000
      5          7.683926        9.329726   1.000000   1.000000
      6          7.941002        9.494851   1.000000   1.000000
      7          8.278515        9.893142   1.000000   1.000000
      8          9.721090       11.618583   1.000000   0.000000
      9          9.848150       11.773374   1.000000   0.000000
     10          9.848535       11.811235   1.000000   0.000000
     11         11.670905       13.032909   0.000000   0.000000
     12         15.019949       15.907810   0.000000   0.000000
     13         20.054682       20.576724   0.000000   0.000000
     14         20.861414       21.333112   0.000000   0.000000
     15         23.518779       23.857282   0.000000   0.000000
     16         24.237901       24.736646   0.000000   0.000000
 
  0.2000000E+00  0.2000000E+00  0.0000000E+00  0.7500000E-02
      1          5.047355        5.239683   1.000000   1.000000
      2          6.436784        7.660858   1.000000   1.000000
      3          6.506668        7.764413   1.000000   1.000000
      4          6.671643        8.012027   1.000000   1.000000
      5          7.638711        9.262454   1.000000   1.000000
      6          8.021451        9.604513   1.000000   1.000000
      7          8.242018        9.876659   1.000000   1.000000
      8          8.831875       10.628156   1.000000   0.000008
      9          9.552085       11.417482   1.000000   0.000000
     10          9.777874       11.730698   1.000000   0.000000
     11         10.216606       11.952992   1.000000   0.000000
     12         17.345166       18.052499   0.000000   0.000000
     13         18.188686       18.838791   0.000000   0.000000
     14         21.599227       22.115797   0.000000   0.000000
     15         22.214676       22.698825   0.000000   0.000000
     16         29.296882       29.385878   0.000000   0.000000
 
  0.3000000E+00  0.2000000E+00  0.0000000E+00  0.1500000E-01
      1          6.016592        6.615140   1.000000   1.000000
      2          6.168692        7.452691   1.000000   1.000000
      3          6.300346        7.571662   1.000000   1.000000
      4          6.929429        8.026101   1.000000   1.000000
      5          7.545282        9.131614   1.000000   1.000000
      6          7.977498        9.556269   1.000000   1.000000
      7          8.275549        9.892671   1.000000   1.000000
      8          9.230740       11.068313   1.000000   0.000000
      9          9.751117       11.699878   1.000000   0.000000
     10          9.848263       11.764498   1.000000   0.000000
     11         11.629657       13.088233   0.000000   0.000000
     12         17.225574       17.895485   0.000000   0.000000
     13         19.747183       20.349052   0.000000   0.000000
     14         19.950679       20.489709   0.000000   0.000000
     15         21.301543       21.768070   0.000000   0.000000
     16         26.184803       26.555531   0.000000   0.000000
 
  0.4000000E+00  0.2000000E+00  0.0000000E+00  0.7500000E-02
      1          6.078711        7.181496   1.000000   1.000000
      2          6.182359        7.388380   1.000000   1.000000
      3          6.212016        7.415393   1.000000   1.000000
      4          7.237189        8.143220   1.000000   1.000000
      5          7.581391        9.182696   1.000000   1.000000
      6          7.804115        9.328547   1.000000   1.000000
      7          8.402252       10.045967   1.000000   1.000000
      8          9.585535       11.464384   1.000000   0.000000
      9          9.741077       11.688200   1.000000   0.000000
     10          9.789332       11.703965   1.000000   0.000000
     11         13.338182       14.365931   0.000000   0.000000
     12         14.771720       15.759010   0.000000   0.000000
     13         19.970689       20.451950   0.000000   0.000000
     14         21.678544       22.154120   0.000000   0.000000
     15         21.994930       22.405367   0.000000   0.000000
     16         23.925459       24.454281   0.000000   0.000000
 
  0.3000000E+00  0.3000000E+00  0.0000000E+00  0.7500000E-02
      1          6.130491        7.442203   1.000000   1.000000
      2          6.416492        7.468722   1.000000   1.000000
      3          6.575360        7.754212   1.000000   1.000000
      4          6.806679        7.796180   1.000000   1.000000
      5          7.533898        9.079445   1.000000   1.000000
      6          7.730681        9.268214   1.000000   1.000000
      7          8.495661       10.147597   1.000000   1.000000
      8          9.415636       11.283551   1.000000   0.000000
      9          9.687799       11.627589   1.000000   0.000000
     10          9.743338       11.650059   1.000000   0.000000
     11         13.762462       14.806222   0.000000   0.000000
     12         16.789708       17.504257   0.000000   0.000000
     13         16.825287       17.519430   0.000000   0.000000
     14         22.226546       22.743642   0.000000   0.000000
     15         22.481727       22.905472   0.000000   0.000000
     16         25.107827       25.562690   0.000000   0.000000
 
  0.0000000E+00  0.0000000E+00  0.1250000E+00  0.2500000E-02
      1          1.659467        1.679678   1.000000   1.000000
      2          5.250835        6.140799   1.000000   1.000000
      3          7.788933        9.447861   1.000000   1.000000
      4          7.840472        9.526369   1.000000   1.000000
      5          7.840472        9.526369   1.000000   1.000000
      6          8.152302        9.888225   1.000000   1.000000
      7          8.152302        9.888226   1.000000   1.000000
      8          8.673153        9.941186   1.000000   1.000000
      9          8.673153       10.500309   1.000000   0.242942
     10          9.675800       10.500309   1.000000   0.242939
     11          9.675800       11.612958   1.000000   0.000000
     12          9.764904       11.612959   1.000000   0.000000
     13         17.870349       18.795912   0.000000   0.000000
     14         32.677316       32.389418   0.000000   0.000000
     15         34.759138       34.777429   0.000000   0.000000
     16         35.562513       35.398706   0.000000   0.000000
 
  0.1000000E+00 -0.6938894E-17  0.1250000E+00  0.1500000E-01
      1          2.011319        2.033612   1.000000   1.000000
      2          5.474634        6.394605   1.000000   1.000000
      3          7.582928        9.206357   1.000000   1.000000
      4          7.948619        9.212835   1.000000   1.000000
      5          7.978266        9.640258   1.000000   1.000000
      6          7.989513        9.692202   1.000000   1.000000
      7          8.292691        9.890899   1.000000   1.000000
      8          8.434801       10.041209   1.000000   1.000000
      9          8.600339       10.412965   1.000000   0.961934
     10          8.742041       10.437061   1.000000   0.862593
     11          9.711509       11.655304   1.000000   0.000000
     12         11.243624       12.492275   0.000000   0.000000
     13         18.004594       18.891016   0.000000   0.000000
     14         30.323247       30.485898   0.000000   0.000000
     15         33.027244       33.065214   0.000000   0.000000
     16         33.029638       33.378569   0.000000   0.000000
 
  0.2000000E+00 -0.1387779E-16  0.1250000E+00  0.1500000E-01
      1          3.002077        3.043655   1.000000   1.000000
      2          5.967547        6.996690   1.000000   1.000000
      3          7.211405        8.343683   1.000000   1.000000
      4          7.301419        8.804585   1.000000   1.000000
      5          7.837293        9.496183   1.000000   1.000000
      6          8.200052        9.893251   1.000000   1.000000
      7          8.295154        9.947961   1.000000   1.000000
      8          8.585653       10.352502   1.000000   0.999753
      9          8.705653       10.464795   1.000000   0.620817
     10          8.728576       10.532747   1.000000   0.053225
     11          9.777538       11.732192   1.000000   0.000000
     12         12.933201       14.004008   0.000000   0.000000
     13         18.471717       19.243575   0.000000   0.000000
     14         25.721952       26.132396   0.000000   0.000000
     15         30.243884       30.568995   0.000000   0.000000
     16         31.207894       31.370969   0.000000   0.000000
 
  0.3000000E+00  0.2775558E-16  0.1250000E+00  0.1500000E-01
      1          4.349007        4.512052   1.000000   1.000000
      2          6.107952        7.322400   1.000000   1.000000
      3          6.549392        7.731723   1.000000   1.000000
      4          7.225029        8.560497   1.000000   1.000000
      5          7.824235        9.382966   1.000000   1.000000
      6          8.033153        9.762090   1.000000   1.000000
      7          8.331007        9.849354   1.000000   1.000000
      8          9.136964       10.944434   1.000000   0.000000
      9          9.178297       10.968860   1.000000   0.000000
     10          9.236395       11.093371   1.000000   0.000000
     11          9.830820       11.792074   1.000000   0.000000
     12         14.650771       15.545574   0.000000   0.000000
     13         19.266321       19.888216   0.000000   0.000000
     14         21.594621       22.171338   0.000000   0.000000
     15         27.646546       27.993764   0.000000   0.000000
     16         27.982926       28.257087   0.000000   0.000000
 
  0.4000000E+00  0.5551115E-16  0.1250000E+00  0.1500000E-01
      1          5.290428        5.920426   1.000000   1.000000
      2          5.845685        7.089338   1.000000   1.000000
      3          6.294577        7.474087   1.000000   1.000000
      4          7.221800        8.404649   1.000000   1.000000
      5          7.867774        9.572882   1.000000   1.000000
      6          8.167409        9.704791   1.000000   1.000000
      7          8.538254        9.859330   1.000000   1.000000
      8          9.638933       11.554121   1.000000   0.000000
      9          9.690069       11.601859   1.000000   0.000000
     10          9.888459       11.848773   1.000000   0.000000
     11         10.313684       11.903670   0.999998   0.000000
     12         15.473453       16.177949   0.000000   0.000000
     13         18.367876       19.143566   0.000000   0.000000
     14         21.083738       21.536774   0.000000   0.000000
     15         24.534575       25.057426   0.000000   0.000000
     16         26.457533       26.669892   0.000000   0.000000
 
  0.5000000E+00  0.5551115E-16  0.1250000E+00  0.7500000E-02
      1          5.480421        6.476730   1.000000   1.000000
      2          5.690431        6.912404   1.000000   1.000000
      3          6.281548        7.472488   1.000000   1.000000
      4          7.248563        8.328045   1.000000   1.000000
      5          7.805697        9.501947   1.000000   1.000000
      6          8.288888        9.865732   1.000000   1.000000
      7          8.780641        9.978375   1.000000   1.000000
      8          9.765739       11.709211   1.000000   0.000000
      9          9.881186       11.831866   1.000000   0.000000
     10          9.980137       11.934705   1.000000   0.000000
     11         11.759199       12.969100   0.000000   0.000000
     12         13.846601       14.820045   0.000000   0.000000
     13         19.761384       20.313595   0.000000   0.000000
     14         20.134554       20.712141   0.000000   0.000000
     15         24.554839       24.998043   0.000000   0.000000
     16         25.581238       26.091070   0.000000   0.000000
 
  0.1000000E+00  0.1000000E+00  0.1250000E+00  0.1500000E-01
      1          2.686014        2.717514   1.000000   1.000000
      2          5.854125        6.838032   1.000000   1.000000
      3          7.322000        8.566918   1.000000   1.000000
      4          7.454831        8.883036   1.000000   1.000000
      5          7.975906        9.665911   1.000000   1.000000
      6          8.057083        9.702629   1.000000   1.000000
      7          8.285847        9.983714   1.000000   1.000000
      8          8.444831       10.200386   1.000000   1.000000
      9          8.697023       10.451068   1.000000   0.756749
     10          8.709758       10.491705   1.000000   0.325087
     11          9.747328       11.695482   1.000000   0.000000
     12         12.477575       13.591473   0.000000   0.000000
     13         18.311409       19.121088   0.000000   0.000000
     14         27.876002       28.164612   0.000000   0.000000
     15         28.592692       28.976434   0.000000   0.000000
     16         33.503700       33.527637   0.000000   0.000000
 
  0.2000000E+00  0.1000000E+00  0.1250000E+00  0.3000000E-01
      1          3.891301        3.975488   1.000000   1.000000
      2          6.270824        7.405582   1.000000   1.000000
      3          6.763870        7.927898   1.000000   1.000000
      4          7.061673        8.483845   1.000000   1.000000
      5          7.772805        9.403534   1.000000   1.000000
      6          8.018288        9.646326   1.000000   1.000000
      7          8.319660        9.992914   1.000000   1.000000
      8          8.682417       10.453904   1.000000   0.730942
      9          9.052399       10.853675   1.000000   0.000000
     10          9.242709       11.056354   1.000000   0.000000
     11          9.798704       11.745147   1.000000   0.000000
     12         14.087808       15.060408   0.000000   0.000000
     13         19.037921       19.712567   0.000000   0.000000
     14         23.653520       24.131753   0.000000   0.000000
     15         26.305444       26.683248   0.000000   0.000000
     16         29.820943       30.046251   0.000000   0.000000
 
  0.3000000E+00  0.1000000E+00  0.1250000E+00  0.3000000E-01
      1          5.137214        5.487403   1.000000   1.000000
      2          6.135145        7.370488   1.000000   1.000000
      3          6.347647        7.568277   1.000000   1.000000
      4          7.101666        8.367460   1.000000   1.000000
      5          7.773893        9.346599   1.000000   1.000000
      6          8.092009        9.719253   1.000000   1.000000
      7          8.235050        9.757934   1.000000   1.000000
      8          9.177694       10.993115   1.000000   0.000000
      9          9.592138       11.470226   1.000000   0.000000
     10          9.704623       11.609670   1.000000   0.000000
     11         10.215723       11.994547   1.000000   0.000000
     12         15.680091       16.438298   0.000000   0.000000
     13         19.220747       19.892143   0.000000   0.000000
     14         20.899622       21.432258   0.000000   0.000000
     15         24.693026       25.060130   0.000000   0.000000
     16         26.211833       26.609778   0.000000   0.000000
 
  0.4000000E+00  0.1000000E+00  0.1250000E+00  0.3000000E-01
      1          5.590731        6.515026   1.000000   1.000000
      2          5.883375        7.117386   1.000000   1.000000
      3          6.337526        7.507821   1.000000   1.000000
      4          7.174917        8.274434   1.000000   1.000000
      5          7.717335        9.361345   1.000000   1.000000
      6          8.311740        9.727331   1.000000   1.000000
      7          8.415911        9.925656   1.000000   1.000000
      8          9.675445       11.581583   1.000000   0.000000
      9          9.770501       11.698915   1.000000   0.000000
     10          9.875711       11.805402   1.000000   0.000000
     11         11.654044       12.982256   0.000000   0.000000
     12         14.857563       15.697174   0.000000   0.000000
     13         19.085839       19.759929   0.000000   0.000000
     14         21.204750       21.663385   0.000000   0.000000
     15         23.630916       24.022532   0.000000   0.000000
     16         24.505451       24.947859   0.000000   0.000000
 
  0.2000000E+00  0.2000000E+00  0.1250000E+00  0.1500000E-01
      1          5.109091        5.333100   1.000000   1.000000
      2          6.352702        7.573747   1.000000   1.000000
      3          6.622221        7.836680   1.000000   1.000000
      4          6.700237        8.052517   1.000000   1.000000
      5          7.680480        9.259401   1.000000   1.000000
      6          8.004570        9.596006   1.000000   1.000000
      7          8.175683        9.807572   1.000000   1.000000
      8          8.865253       10.663450   1.000000   0.000000
      9          9.610577       11.484164   1.000000   0.000000
     10          9.635490       11.543846   1.000000   0.000000
     11         10.286010       12.052424   1.000000   0.000000
     12         15.645215       16.457724   0.000000   0.000000
     13         20.075453       20.651830   0.000000   0.000000
     14         21.751539       22.268865   0.000000   0.000000
     15         22.409780       22.890592   0.000000   0.000000
     16         28.204431       28.428548   0.000000   0.000000
 
  0.3000000E+00  0.2000000E+00  0.1250000E+00  0.3000000E-01
      1          5.916346        6.636259   1.000000   1.000000
      2          6.285790        7.439857   1.000000   1.000000
      3          6.356538        7.628181   1.000000   1.000000
      4          6.890352        8.085164   1.000000   1.000000
      5          7.626002        9.158087   1.000000   1.000000
      6          7.950449        9.482176   1.000000   1.000000
      7          8.296107        9.913452   1.000000   1.000000
      8          9.240016       11.080328   1.000000   0.000000
      9          9.628104       11.552938   1.000000   0.000000
     10          9.888262       11.812872   1.000000   0.000000
     11         11.694210       13.140413   0.000000   0.000000
     12         16.719876       17.365148   0.000000   0.000000
     13         18.889763       19.590582   0.000000   0.000000
     14         20.767132       21.285838   0.000000   0.000000
     15         22.110334       22.543197   0.000000   0.000000
     16         25.236460       25.690790   0.000000   0.000000
 
  0.4000000E+00  0.2000000E+00  0.1250000E+00  0.1500000E-01
      1          5.923117        7.049371   1.000000   1.000000
      2          6.230733        7.456061   1.000000   1.000000
      3          6.472759        7.640792   1.000000   1.000000
      4          7.024990        8.052183   1.000000   1.000000
      5          7.551587        9.136410   1.000000   1.000000
      6          7.966860        9.386155   1.000000   1.000000
      7          8.437707       10.079562   1.000000   1.000000
      8          9.589653       11.470355   1.000000   0.000000
      9          9.606684       11.528990   1.000000   0.000000
     10          9.822303       11.742853   1.000000   0.000000
     11         13.431913       14.432238   0.000000   0.000000
     12         14.767058       15.729826   0.000000   0.000000
     13         19.888211       20.407716   0.000000   0.000000
     14         20.954401       21.493338   0.000000   0.000000
     15         21.244578       21.758502   0.000000   0.000000
     16         25.138035       25.575640   0.000000   0.000000
 
  0.3000000E+00  0.3000000E+00  0.1250000E+00  0.1500000E-01
      1          6.157642        7.471206   1.000000   1.000000
      2          6.435920        7.475655   1.000000   1.000000
      3          6.627356        7.810154   1.000000   1.000000
      4          6.773340        7.840018   1.000000   1.000000
      5          7.584758        9.079267   1.000000   1.000000
      6          7.677335        9.186092   1.000000   1.000000