PROCAR lm decomposed
# of k-points:   70         # of bands:   16         # of ions:    2

 k-point     1 :    0.00000000 0.00000000 0.00000000     weight = 0.00125000

band     1 # energy    1.50079033 # occ.  1.00000000
 
ion      s     py     pz     px    dxy    dyz    dz2    dxz  x2-y2    tot
    1  0.370  0.000  0.000  0.000  0.000  0.000  0.000  0.000  0.000  0.370
    2  0.370  0.000  0.000  0.000  0.000  0.000  0.000  0.000  0.000  0.370
tot    0.741  0.000  0.000  0.000  0.000  0.000  0.000  0.000  0.000  0.741
 
band     2 # energy    5.28200796 # occ.  1.00000000
 
ion      s     py     pz     px    dxy    dyz    dz2    dxz  x2-y2    tot
    1  0.083  0.000  0.000  0.000  0.000  0.000  0.367  0.000  0.000  0.451
    2  0.083  0.000  0.000  0.000  0.000  0.000  0.367  0.000  0.000  0.451
tot    0.167  0.000  0.000  0.000  0.000  0.000  0.734  0.000  0.000  0.901
 
band     3 # energy    7.82969428 # occ.  1.00000000
 
ion      s     py     pz     px    dxy    dyz    dz2    dxz  x2-y2    tot
    1  0.000  0.000  0.000  0.000  0.000  0.000  0.487  0.000  0.000  0.487
    2  0.000  0.000  0.000  0.000  0.000  0.000  0.487  0.000  0.000  0.487
tot    0.000  0.000  0.000  0.000  0.000  0.000  0.973  0.000  0.000  0.973
 
band     4 # energy    7.88015231 # occ.  1.00000000
 
ion      s     py     pz     px    dxy    dyz    dz2    dxz  x2-y2    tot
    1  0.000  0.000  0.000  0.001  0.483  0.000  0.000  0.000  0.000  0.484
    2  0.000  0.000  0.000  0.001  0.483  0.000  0.000  0.000  0.000  0.484
tot    0.000  0.000  0.000  0.001  0.966  0.000  0.000  0.000  0.000  0.968
 
band     5 # energy    7.88015245 # occ.  1.00000000
 
ion      s     py     pz     px    dxy    dyz    dz2    dxz  x2-y2    tot
    1  0.000  0.001  0.000  0.000  0.000  0.000  0.000  0.000  0.483  0.484
    2  0.000  0.001  0.000  0.000  0.000  0.000  0.000  0.000  0.483  0.484
tot    0.000  0.001  0.000  0.000  0.000  0.000  0.000  0.000  0.966  0.968
 
band     6 # energy    8.19455580 # occ.  1.00000000
 
ion      s     py     pz     px    dxy    dyz    dz2    dxz  x2-y2    tot
    1  0.000  0.000  0.000  0.001  0.487  0.000  0.000  0.000  0.000  0.488
    2  0.000  0.000  0.000  0.001  0.487  0.000  0.000  0.000  0.000  0.488
tot    0.000  0.000  0.000  0.001  0.975  0.000  0.000  0.000  0.000  0.976
 
band     7 # energy    8.19455590 # occ.  1.00000000
 
ion      s     py     pz     px    dxy    dyz    dz2    dxz  x2-y2    tot
    1  0.000  0.001  0.000  0.000  0.000  0.000  0.000  0.000  0.487  0.488
    2  0.000  0.001  0.000  0.000  0.000  0.000  0.000  0.000  0.487  0.488
tot    0.000  0.001  0.000  0.000  0.000  0.000  0.000  0.000  0.975  0.976
 
band     8 # energy    8.57748007 # occ.  1.00000000
 
ion      s     py     pz     px    dxy    dyz    dz2    dxz  x2-y2    tot
    1  0.000  0.000  0.000  0.000  0.000  0.000  0.000  0.490  0.000  0.490
    2  0.000  0.000  0.000  0.000  0.000  0.000  0.000  0.490  0.000  0.490
tot    0.000  0.000  0.000  0.000  0.000  0.000  0.000  0.980  0.000  0.980
 
band     9 # energy    8.57748008 # occ.  1.00000000
 
ion      s     py     pz     px    dxy    dyz    dz2    dxz  x2-y2    tot
    1  0.000  0.000  0.000  0.000  0.000  0.490  0.000  0.000  0.000  0.490
    2  0.000  0.000  0.000  0.000  0.000  0.490  0.000  0.000  0.000  0.490
tot    0.000  0.000  0.000  0.000  0.000  0.980  0.000  0.000  0.000  0.980
 
band    10 # energy    9.68493352 # occ.  1.00000000
 
ion      s     py     pz     px    dxy    dyz    dz2    dxz  x2-y2    tot
    1  0.000  0.000  0.000  0.000  0.000  0.000  0.000  0.493  0.000  0.493
    2  0.000  0.000  0.000  0.000  0.000  0.000  0.000  0.493  0.000  0.493
tot    0.000  0.000  0.000  0.000  0.000  0.000  0.000  0.985  0.000  0.985
 
band    11 # energy    9.68493358 # occ.  1.00000000
 
ion      s     py     pz     px    dxy    dyz    dz2    dxz  x2-y2    tot
    1  0.000  0.000  0.000  0.000  0.000  0.493  0.000  0.000  0.000  0.493
    2  0.000  0.000  0.000  0.000  0.000  0.493  0.000  0.000  0.000  0.493
tot    0.000  0.000  0.000  0.000  0.000  0.985  0.000  0.000  0.000  0.985
 
band    12 # energy   10.37481558 # occ.  0.99783198
 
ion      s     py     pz     px    dxy    dyz    dz2    dxz  x2-y2    tot
    1  0.000  0.000  0.352  0.000  0.000  0.000  0.000  0.000  0.000  0.352
    2  0.000  0.000  0.352  0.000  0.000  0.000  0.000  0.000  0.000  0.352
tot    0.000  0.000  0.704  0.000  0.000  0.000  0.000  0.000  0.000  0.704
 
band    13 # energy   16.94908407 # occ.  0.00000000
 
ion      s     py     pz     px    dxy    dyz    dz2    dxz  x2-y2    tot
    1  0.227  0.000  0.000  0.000  0.000  0.000  0.232  0.000  0.000  0.459
    2  0.227  0.000  0.000  0.000  0.000  0.000  0.232  0.000  0.000  0.459
tot    0.455  0.000  0.000  0.000  0.000  0.000  0.464  0.000  0.000  0.918
 
band    14 # energy   32.75022975 # occ.  0.00000000
 
ion      s     py     pz     px    dxy    dyz    dz2    dxz  x2-y2    tot
    1  0.007  0.000  0.000  0.000  0.000  0.000  0.032  0.000  0.000  0.038
    2  0.007  0.000  0.000  0.000  0.000  0.000  0.032  0.000  0.000  0.038
tot    0.013  0.000  0.000  0.000  0.000  0.000  0.064  0.000  0.000  0.077
 
band    15 # energy   35.54807317 # occ.  0.00000000
 
ion      s     py     pz     px    dxy    dyz    dz2    dxz  x2-y2    tot
    1  0.000  0.187  0.000  0.081  0.038  0.000  0.000  0.000  0.087  0.392
    2  0.000  0.187  0.000  0.081  0.038  0.000  0.000  0.000  0.087  0.392
tot    0.000  0.373  0.000  0.161  0.075  0.000  0.000  0.000  0.174  0.784
 
band    16 # energy   35.54835315 # occ.  0.00000000
 
ion      s     py     pz     px    dxy    dyz    dz2    dxz  x2-y2    tot
    1  0.000  0.080  0.000  0.187  0.087  0.000  0.000  0.000  0.038  0.392
    2  0.000  0.081  0.000  0.187  0.087  0.000  0.000  0.000  0.038  0.392
tot    0.000  0.161  0.000  0.373  0.174  0.000  0.000  0.000  0.075  0.784
 

 k-point     2 :    0.10000000-0.00000000 0.00000000     weight = 0.00750000

band     1 # energy    1.85629741 # occ.  1.00000000
 
ion      s     py     pz     px    dxy    dyz    dz2    dxz  x2-y2    tot
    1  0.358  0.003  0.000  0.009  0.000  0.000  0.000  0.000  0.000  0.371
    2  0.358  0.003  0.000  0.009  0.000  0.000  0.000  0.000  0.000  0.371
tot    0.716  0.006  0.000  0.018  0.000  0.000  0.000  0.000  0.000  0.742
 
band     2 # energy    5.49364916 # occ.  1.00000000
 
ion      s     py     pz     px    dxy    dyz    dz2    dxz  x2-y2    tot
    1  0.072  0.002  0.000  0.006  0.003  0.000  0.368  0.000  0.001  0.452
    2  0.072  0.002  0.000  0.006  0.003  0.000  0.368  0.000  0.001  0.452
tot    0.145  0.004  0.000  0.011  0.006  0.000  0.736  0.000  0.002  0.904
 
band     3 # energy    7.57883608 # occ.  1.00000000
 
ion      s     py     pz     px    dxy    dyz    dz2    dxz  x2-y2    tot
    1  0.000  0.000  0.000  0.001  0.237  0.000  0.163  0.000  0.079  0.481
    2  0.000  0.000  0.000  0.001  0.237  0.000  0.163  0.000  0.079  0.481
tot    0.000  0.001  0.000  0.003  0.474  0.000  0.326  0.000  0.158  0.962
 
band     4 # energy    8.04728788 # occ.  1.00000000
 
ion      s     py     pz     px    dxy    dyz    dz2    dxz  x2-y2    tot
    1  0.000  0.001  0.000  0.000  0.121  0.000  0.000  0.000  0.362  0.484
    2  0.000  0.001  0.000  0.000  0.121  0.000  0.000  0.000  0.362  0.484
tot    0.000  0.002  0.000  0.001  0.241  0.000  0.000  0.000  0.724  0.968
 
band     5 # energy    8.05941060 # occ.  1.00000000
 
ion      s     py     pz     px    dxy    dyz    dz2    dxz  x2-y2    tot
    1  0.001  0.000  0.000  0.001  0.217  0.000  0.196  0.000  0.072  0.486
    2  0.001  0.000  0.000  0.001  0.217  0.000  0.196  0.000  0.072  0.486
tot    0.001  0.000  0.000  0.001  0.433  0.000  0.392  0.000  0.144  0.973
 
band     6 # energy    8.14718767 # occ.  1.00000000
 
ion      s     py     pz     px    dxy    dyz    dz2    dxz  x2-y2    tot
    1  0.001  0.000  0.000  0.000  0.266  0.000  0.130  0.000  0.089  0.486
    2  0.001  0.000  0.000  0.000  0.266  0.000  0.130  0.000  0.089  0.486
tot    0.003  0.000  0.000  0.001  0.532  0.000  0.260  0.000  0.177  0.973
 
band     7 # energy    8.30726566 # occ.  1.00000000
 
ion      s     py     pz     px    dxy    dyz    dz2    dxz  x2-y2    tot
    1  0.000  0.000  0.032  0.000  0.000  0.110  0.000  0.330  0.000  0.472
    2  0.000  0.000  0.032  0.000  0.000  0.110  0.000  0.330  0.000  0.472
tot    0.000  0.000  0.064  0.000  0.000  0.220  0.000  0.660  0.000  0.944
 
band     8 # energy    8.34256662 # occ.  1.00000000
 
ion      s     py     pz     px    dxy    dyz    dz2    dxz  x2-y2    tot
    1  0.000  0.001  0.000  0.000  0.122  0.000  0.000  0.000  0.365  0.488
    2  0.000  0.001  0.000  0.000  0.122  0.000  0.000  0.000  0.365  0.488
tot    0.000  0.002  0.000  0.001  0.244  0.000  0.000  0.000  0.731  0.977
 
band     9 # energy    8.47530598 # occ.  1.00000000
 
ion      s     py     pz     px    dxy    dyz    dz2    dxz  x2-y2    tot
    1  0.000  0.000  0.000  0.000  0.000  0.367  0.000  0.122  0.000  0.489
    2  0.000  0.000  0.000  0.000  0.000  0.367  0.000  0.122  0.000  0.489
tot    0.000  0.000  0.000  0.000  0.000  0.733  0.000  0.244  0.000  0.978
 
band    10 # energy    8.76227213 # occ.  1.00000000
 
ion      s     py     pz     px    dxy    dyz    dz2    dxz  x2-y2    tot
    1  0.000  0.000  0.076  0.000  0.000  0.096  0.000  0.287  0.000  0.458
    2  0.000  0.000  0.076  0.000  0.000  0.096  0.000  0.287  0.000  0.458
tot    0.000  0.000  0.151  0.000  0.000  0.191  0.000  0.574  0.000  0.916
 
band    11 # energy    9.72667103 # occ.  1.00000000
 
ion      s     py     pz     px    dxy    dyz    dz2    dxz  x2-y2    tot
    1  0.000  0.000  0.000  0.000  0.000  0.370  0.000  0.123  0.000  0.494
    2  0.000  0.000  0.000  0.000  0.000  0.370  0.000  0.123  0.000  0.494
tot    0.000  0.000  0.000  0.000  0.000  0.740  0.000  0.247  0.000  0.987
 
band    12 # energy   11.80487637 # occ.  0.00000000
 
ion      s     py     pz     px    dxy    dyz    dz2    dxz  x2-y2    tot
    1  0.000  0.000  0.239  0.000  0.000  0.041  0.000  0.124  0.000  0.405
    2  0.000  0.000  0.239  0.000  0.000  0.041  0.000  0.124  0.000  0.405
tot    0.000  0.000  0.478  0.000  0.000  0.083  0.000  0.249  0.000  0.810
 
band    13 # energy   17.01059509 # occ.  0.00000000
 
ion      s     py     pz     px    dxy    dyz    dz2    dxz  x2-y2    tot
    1  0.222  0.003  0.000  0.008  0.000  0.000  0.223  0.000  0.000  0.456
    2  0.222  0.003  0.000  0.008  0.000  0.000  0.223  0.000  0.000  0.456
tot    0.443  0.005  0.000  0.016  0.000  0.000  0.446  0.000  0.000  0.911
 
band    14 # energy   30.22734855 # occ.  0.00000000
 
ion      s     py     pz     px    dxy    dyz    dz2    dxz  x2-y2    tot
    1  0.018  0.028  0.000  0.083  0.121  0.000  0.024  0.000  0.040  0.314
    2  0.018  0.028  0.000  0.083  0.121  0.000  0.024  0.000  0.040  0.314
tot    0.036  0.055  0.000  0.165  0.242  0.000  0.047  0.000  0.081  0.627
 
band    15 # energy   32.86968790 # occ.  0.00000000
 
ion      s     py     pz     px    dxy    dyz    dz2    dxz  x2-y2    tot
    1  0.000  0.176  0.000  0.059  0.042  0.000  0.000  0.000  0.125  0.402
    2  0.000  0.176  0.000  0.059  0.042  0.000  0.000  0.000  0.125  0.402
tot    0.000  0.352  0.000  0.117  0.084  0.000  0.000  0.000  0.251  0.804
 
band    16 # energy   33.08898589 # occ.  0.00000000
 
ion      s     py     pz     px    dxy    dyz    dz2    dxz  x2-y2    tot
    1  0.023  0.016  0.000  0.049  0.077  0.000  0.043  0.000  0.026  0.234
    2  0.023  0.016  0.000  0.049  0.077  0.000  0.043  0.000  0.026  0.234
tot    0.046  0.033  0.000  0.098  0.153  0.000  0.086  0.000  0.051  0.468
 

 k-point     3 :    0.20000000-0.00000000 0.00000000     weight = 0.00750000

band     1 # energy    2.86264177 # occ.  1.00000000
 
ion      s     py     pz     px    dxy    dyz    dz2    dxz  x2-y2    tot
    1  0.320  0.011  0.000  0.033  0.005  0.000  0.002  0.000  0.002  0.373
    2  0.320  0.011  0.000  0.033  0.005  0.000  0.002  0.000  0.002  0.373
tot    0.640  0.022  0.000  0.066  0.010  0.000  0.004  0.000  0.003  0.746
 
band     2 # energy    5.95155875 # occ.  1.00000000
 
ion      s     py     pz     px    dxy    dyz    dz2    dxz  x2-y2    tot
    1  0.043  0.005  0.000  0.014  0.042  0.000  0.339  0.000  0.014  0.457
    2  0.043  0.005  0.000  0.014  0.042  0.000  0.339  0.000  0.014  0.457
tot    0.086  0.010  0.000  0.029  0.084  0.000  0.678  0.000  0.028  0.914
 
band     3 # energy    7.26640911 # occ.  1.00000000
 
ion      s     py     pz     px    dxy    dyz    dz2    dxz  x2-y2    tot
    1  0.001  0.003  0.000  0.009  0.258  0.000  0.116  0.000  0.086  0.472
    2  0.001  0.003  0.000  0.009  0.258  0.000  0.116  0.000  0.086  0.472
tot    0.001  0.006  0.000  0.017  0.515  0.000  0.233  0.000  0.172  0.944
 
band     4 # energy    7.34934212 # occ.  1.00000000
 
ion      s     py     pz     px    dxy    dyz    dz2    dxz  x2-y2    tot
    1  0.000  0.000  0.063  0.000  0.000  0.096  0.000  0.288  0.000  0.448
    2  0.000  0.000  0.063  0.000  0.000  0.096  0.000  0.288  0.000  0.448
tot    0.000  0.000  0.127  0.000  0.000  0.192  0.000  0.577  0.000  0.896
 
band     5 # energy    7.90473510 # occ.  1.00000000
 
ion      s     py     pz     px    dxy    dyz    dz2    dxz  x2-y2    tot
    1  0.007  0.001  0.000  0.002  0.297  0.000  0.076  0.000  0.099  0.482
    2  0.007  0.001  0.000  0.002  0.297  0.000  0.076  0.000  0.099  0.482
tot    0.013  0.001  0.000  0.004  0.595  0.000  0.152  0.000  0.198  0.964
 
band     6 # energy    8.24055515 # occ.  1.00000000
 
ion      s     py     pz     px    dxy    dyz    dz2    dxz  x2-y2    tot
    1  0.000  0.000  0.000  0.000  0.000  0.365  0.000  0.122  0.000  0.486
    2  0.000  0.000  0.000  0.000  0.000  0.365  0.000  0.122  0.000  0.486
tot    0.000  0.000  0.000  0.000  0.000  0.730  0.000  0.243  0.000  0.973
 
band     7 # energy    8.43305765 # occ.  1.00000000
 
ion      s     py     pz     px    dxy    dyz    dz2    dxz  x2-y2    tot
    1  0.000  0.000  0.030  0.000  0.000  0.112  0.000  0.335  0.000  0.476
    2  0.000  0.000  0.030  0.000  0.000  0.112  0.000  0.335  0.000  0.476
tot    0.000  0.000  0.059  0.000  0.000  0.223  0.000  0.670  0.000  0.953
 
band     8 # energy    8.50565617 # occ.  1.00000000
 
ion      s     py     pz     px    dxy    dyz    dz2    dxz  x2-y2    tot
    1  0.003  0.001  0.000  0.002  0.108  0.000  0.336  0.000  0.036  0.487
    2  0.003  0.001  0.000  0.002  0.108  0.000  0.336  0.000  0.036  0.487
tot    0.006  0.002  0.000  0.005  0.217  0.000  0.672  0.000  0.072  0.973
 
band     9 # energy    8.50608397 # occ.  1.00000000
 
ion      s     py     pz     px    dxy    dyz    dz2    dxz  x2-y2    tot
    1  0.000  0.002  0.000  0.001  0.121  0.000  0.000  0.000  0.362  0.485
    2  0.000  0.002  0.000  0.001  0.121  0.000  0.000  0.000  0.362  0.485
tot    0.000  0.004  0.000  0.001  0.241  0.000  0.000  0.000  0.724  0.970
 
band    10 # energy    8.74569025 # occ.  1.00000000
 
ion      s     py     pz     px    dxy    dyz    dz2    dxz  x2-y2    tot
    1  0.000  0.002  0.000  0.001  0.122  0.000  0.000  0.000  0.365  0.489
    2  0.000  0.002  0.000  0.001  0.122  0.000  0.000  0.000  0.365  0.489
tot    0.000  0.004  0.000  0.001  0.243  0.000  0.000  0.000  0.730  0.978
 
band    11 # energy    9.80474304 # occ.  1.00000000
 
ion      s     py     pz     px    dxy    dyz    dz2    dxz  x2-y2    tot
    1  0.000  0.000  0.000  0.000  0.000  0.371  0.000  0.124  0.000  0.495
    2  0.000  0.000  0.000  0.000  0.000  0.371  0.000  0.124  0.000  0.495
tot    0.000  0.000  0.000  0.000  0.000  0.742  0.000  0.247  0.000  0.990
 
band    12 # energy   13.82635569 # occ.  0.00000000
 
ion      s     py     pz     px    dxy    dyz    dz2    dxz  x2-y2    tot
    1  0.000  0.000  0.240  0.000  0.000  0.043  0.000  0.128  0.000  0.411
    2  0.000  0.000  0.240  0.000  0.000  0.043  0.000  0.128  0.000  0.411
tot    0.000  0.000  0.480  0.000  0.000  0.086  0.000  0.257  0.000  0.823
 
band    13 # energy   17.23666834 # occ.  0.00000000
 
ion      s     py     pz     px    dxy    dyz    dz2    dxz  x2-y2    tot
    1  0.198  0.012  0.000  0.037  0.001  0.000  0.197  0.000  0.000  0.445
    2  0.198  0.012  0.000  0.037  0.001  0.000  0.197  0.000  0.000  0.445
tot    0.397  0.025  0.000  0.074  0.001  0.000  0.393  0.000  0.000  0.890
 
band    14 # energy   25.58655564 # occ.  0.00000000
 
ion      s     py     pz     px    dxy    dyz    dz2    dxz  x2-y2    tot
    1  0.059  0.037  0.000  0.112  0.117  0.000  0.022  0.000  0.039  0.387
    2  0.059  0.037  0.000  0.112  0.117  0.000  0.022  0.000  0.039  0.387
tot    0.118  0.075  0.000  0.225  0.234  0.000  0.044  0.000  0.078  0.774
 
band    15 # energy   30.05263724 # occ.  0.00000000
 
ion      s     py     pz     px    dxy    dyz    dz2    dxz  x2-y2    tot
    1  0.000  0.197  0.000  0.066  0.029  0.000  0.000  0.000  0.087  0.379
    2  0.000  0.197  0.000  0.066  0.029  0.000  0.000  0.000  0.087  0.379
tot    0.000  0.395  0.000  0.132  0.058  0.000  0.000  0.000  0.173  0.757
 
band    16 # energy   31.93196297 # occ.  0.00000000
 
ion      s     py     pz     px    dxy    dyz    dz2    dxz  x2-y2    tot
    1  0.016  0.004  0.000  0.013  0.184  0.000  0.047  0.000  0.061  0.326
    2  0.016  0.004  0.000  0.013  0.184  0.000  0.047  0.000  0.061  0.326
tot    0.032  0.009  0.000  0.027  0.367  0.000  0.094  0.000  0.122  0.651
 

 k-point     4 :    0.30000000 0.00000000 0.00000000     weight = 0.00750000

band     1 # energy    4.26145135 # occ.  1.00000000
 
ion      s     py     pz     px    dxy    dyz    dz2    dxz  x2-y2    tot
    1  0.248  0.018  0.000  0.055  0.039  0.000  0.011  0.000  0.013  0.385
    2  0.248  0.018  0.000  0.055  0.039  0.000  0.011  0.000  0.013  0.385
tot    0.495  0.037  0.000  0.110  0.078  0.000  0.023  0.000  0.026  0.769
 
band     2 # energy    6.07499674 # occ.  1.00000000
 
ion      s     py     pz     px    dxy    dyz    dz2    dxz  x2-y2    tot
    1  0.017  0.002  0.000  0.006  0.181  0.000  0.198  0.000  0.060  0.464
    2  0.017  0.002  0.000  0.006  0.181  0.000  0.198  0.000  0.060  0.464
tot    0.035  0.004  0.000  0.012  0.362  0.000  0.395  0.000  0.121  0.928
 
band     3 # energy    6.57657689 # occ.  1.00000000
 
ion      s     py     pz     px    dxy    dyz    dz2    dxz  x2-y2    tot
    1  0.000  0.000  0.043  0.000  0.000  0.101  0.000  0.304  0.000  0.448
    2  0.000  0.000  0.043  0.000  0.000  0.101  0.000  0.304  0.000  0.448
tot    0.000  0.000  0.085  0.000  0.000  0.202  0.000  0.607  0.000  0.895
 
band     4 # energy    7.24757487 # occ.  1.00000000
 
ion      s     py     pz     px    dxy    dyz    dz2    dxz  x2-y2    tot
    1  0.004  0.013  0.000  0.039  0.197  0.000  0.138  0.000  0.066  0.455
    2  0.004  0.013  0.000  0.039  0.197  0.000  0.138  0.000  0.066  0.455
tot    0.008  0.026  0.000  0.078  0.393  0.000  0.275  0.000  0.131  0.911
 
band     5 # energy    7.91443512 # occ.  1.00000000
 
ion      s     py     pz     px    dxy    dyz    dz2    dxz  x2-y2    tot
    1  0.011  0.003  0.000  0.008  0.173  0.000  0.227  0.000  0.058  0.479
    2  0.011  0.003  0.000  0.008  0.173  0.000  0.227  0.000  0.058  0.479
tot    0.022  0.005  0.000  0.016  0.345  0.000  0.454  0.000  0.115  0.958
 
band     6 # energy    7.98887281 # occ.  1.00000000
 
ion      s     py     pz     px    dxy    dyz    dz2    dxz  x2-y2    tot
    1  0.000  0.000  0.000  0.000  0.000  0.363  0.000  0.121  0.000  0.485
    2  0.000  0.000  0.000  0.000  0.000  0.363  0.000  0.121  0.000  0.485
tot    0.000  0.000  0.000  0.000  0.000  0.727  0.000  0.242  0.000  0.969
 
band     7 # energy    8.19210093 # occ.  1.00000000
 
ion      s     py     pz     px    dxy    dyz    dz2    dxz  x2-y2    tot
    1  0.000  0.000  0.028  0.000  0.000  0.112  0.000  0.336  0.000  0.476
    2  0.000  0.000  0.028  0.000  0.000  0.112  0.000  0.336  0.000  0.476
tot    0.000  0.000  0.055  0.000  0.000  0.224  0.000  0.673  0.000  0.952
 
band     8 # energy    9.11760431 # occ.  1.00000000
 
ion      s     py     pz     px    dxy    dyz    dz2    dxz  x2-y2    tot
    1  0.000  0.001  0.000  0.000  0.122  0.000  0.000  0.000  0.365  0.488
    2  0.000  0.001  0.000  0.000  0.122  0.000  0.000  0.000  0.365  0.488
tot    0.000  0.003  0.000  0.001  0.243  0.000  0.000  0.000  0.730  0.977
 
band     9 # energy    9.18399953 # occ.  1.00000000
 
ion      s     py     pz     px    dxy    dyz    dz2    dxz  x2-y2    tot
    1  0.012  0.004  0.000  0.012  0.104  0.000  0.318  0.000  0.035  0.484
    2  0.012  0.004  0.000  0.012  0.104  0.000  0.318  0.000  0.035  0.484
tot    0.024  0.008  0.000  0.023  0.207  0.000  0.635  0.000  0.069  0.967
 
band    10 # energy    9.28144437 # occ.  1.00000000
 
ion      s     py     pz     px    dxy    dyz    dz2    dxz  x2-y2    tot
    1  0.000  0.002  0.000  0.001  0.122  0.000  0.000  0.000  0.366  0.492
    2  0.000  0.002  0.000  0.001  0.122  0.000  0.000  0.000  0.366  0.492
tot    0.000  0.005  0.000  0.002  0.244  0.000  0.000  0.000  0.732  0.983
 
band    11 # energy    9.86515976 # occ.  1.00000000
 
ion      s     py     pz     px    dxy    dyz    dz2    dxz  x2-y2    tot
    1  0.000  0.000  0.000  0.000  0.000  0.372  0.000  0.124  0.000  0.496
    2  0.000  0.000  0.000  0.000  0.000  0.372  0.000  0.124  0.000  0.496
tot    0.000  0.000  0.000  0.000  0.000  0.744  0.000  0.248  0.000  0.992
 
band    12 # energy   16.11732503 # occ.  0.00000000
 
ion      s     py     pz     px    dxy    dyz    dz2    dxz  x2-y2    tot
    1  0.000  0.000  0.245  0.000  0.000  0.042  0.000  0.126  0.000  0.413
    2  0.000  0.000  0.245  0.000  0.000  0.042  0.000  0.126  0.000  0.413
tot    0.000  0.000  0.490  0.000  0.000  0.084  0.000  0.252  0.000  0.826
 
band    13 # energy   17.59170162 # occ.  0.00000000
 
ion      s     py     pz     px    dxy    dyz    dz2    dxz  x2-y2    tot
    1  0.113  0.039  0.000  0.116  0.000  0.000  0.161  0.000  0.000  0.429
    2  0.113  0.039  0.000  0.116  0.000  0.000  0.161  0.000  0.000  0.429
tot    0.227  0.077  0.000  0.232  0.000  0.000  0.321  0.000  0.000  0.858
 
band    14 # energy   21.42130429 # occ.  0.00000000
 
ion      s     py     pz     px    dxy    dyz    dz2    dxz  x2-y2    tot
    1  0.156  0.024  0.000  0.072  0.107  0.000  0.012  0.000  0.036  0.406
    2  0.156  0.024  0.000  0.072  0.107  0.000  0.012  0.000  0.036  0.406
tot    0.311  0.048  0.000  0.144  0.214  0.000  0.024  0.000  0.071  0.812
 
band    15 # energy   27.76345097 # occ.  0.00000000
 
ion      s     py     pz     px    dxy    dyz    dz2    dxz  x2-y2    tot
    1  0.000  0.219  0.000  0.073  0.015  0.000  0.000  0.000  0.046  0.353
    2  0.000  0.219  0.000  0.073  0.015  0.000  0.000  0.000  0.046  0.353
tot    0.000  0.438  0.000  0.146  0.030  0.000  0.000  0.000  0.091  0.706
 
band    16 # energy   28.87284934 # occ.  0.00000000
 
ion      s     py     pz     px    dxy    dyz    dz2    dxz  x2-y2    tot
    1  0.000  0.000  0.089  0.000  0.000  0.062  0.000  0.187  0.000  0.339
    2  0.000  0.000  0.089  0.000  0.000  0.062  0.000  0.187  0.000  0.339
tot    0.000  0.000  0.179  0.000  0.000  0.125  0.000  0.375  0.000  0.679
 

 k-point     5 :    0.40000000 0.00000000 0.00000000     weight = 0.00750000

band     1 # energy    5.34476407 # occ.  1.00000000
 
ion      s     py     pz     px    dxy    dyz    dz2    dxz  x2-y2    tot
    1  0.127  0.012  0.000  0.036  0.163  0.000  0.031  0.000  0.054  0.423
    2  0.127  0.012  0.000  0.036  0.163  0.000  0.031  0.000  0.054  0.423
tot    0.254  0.024  0.000  0.072  0.326  0.000  0.062  0.000  0.109  0.846
 
band     2 # energy    5.85252530 # occ.  1.00000000
 
ion      s     py     pz     px    dxy    dyz    dz2    dxz  x2-y2    tot
    1  0.020  0.001  0.000  0.002  0.246  0.000  0.112  0.000  0.082  0.463
    2  0.020  0.001  0.000  0.002  0.246  0.000  0.112  0.000  0.082  0.463
tot    0.041  0.001  0.000  0.003  0.491  0.000  0.225  0.000  0.164  0.925
 
band     3 # energy    6.11171000 # occ.  1.00000000
 
ion      s     py     pz     px    dxy    dyz    dz2    dxz  x2-y2    tot
    1  0.000  0.000  0.024  0.000  0.000  0.106  0.000  0.319  0.000  0.449
    2  0.000  0.000  0.024  0.000  0.000  0.106  0.000  0.319  0.000  0.449
tot    0.000  0.000  0.048  0.000  0.000  0.213  0.000  0.638  0.000  0.899
 
band     4 # energy    7.63155969 # occ.  1.00000000
 
ion      s     py     pz     px    dxy    dyz    dz2    dxz  x2-y2    tot
    1  0.026  0.028  0.000  0.085  0.093  0.000  0.166  0.000  0.031  0.429
    2  0.026  0.028  0.000  0.085  0.093  0.000  0.166  0.000  0.031  0.429
tot    0.052  0.057  0.000  0.170  0.186  0.000  0.331  0.000  0.062  0.858
 
band     5 # energy    7.80458386 # occ.  1.00000000
 
ion      s     py     pz     px    dxy    dyz    dz2    dxz  x2-y2    tot
    1  0.000  0.000  0.000  0.000  0.000  0.363  0.000  0.121  0.000  0.483
    2  0.000  0.000  0.000  0.000  0.000  0.363  0.000  0.121  0.000  0.483
tot    0.000  0.000  0.000  0.000  0.000  0.725  0.000  0.242  0.000  0.967
 
band     6 # energy    8.00917113 # occ.  1.00000000
 
ion      s     py     pz     px    dxy    dyz    dz2    dxz  x2-y2    tot
    1  0.000  0.000  0.029  0.000  0.000  0.111  0.000  0.334  0.000  0.475
    2  0.000  0.000  0.029  0.000  0.000  0.111  0.000  0.334  0.000  0.475
tot    0.000  0.000  0.058  0.000  0.000  0.223  0.000  0.668  0.000  0.949
 
band     7 # energy    8.17251330 # occ.  1.00000000
 
ion      s     py     pz     px    dxy    dyz    dz2    dxz  x2-y2    tot
    1  0.003  0.005  0.000  0.016  0.073  0.000  0.360  0.000  0.024  0.481
    2  0.003  0.005  0.000  0.016  0.073  0.000  0.360  0.000  0.024  0.481
tot    0.006  0.010  0.000  0.031  0.145  0.000  0.720  0.000  0.048  0.962
 
band     8 # energy    9.63845554 # occ.  1.00000000
 
ion      s     py     pz     px    dxy    dyz    dz2    dxz  x2-y2    tot
    1  0.000  0.000  0.000  0.000  0.123  0.000  0.000  0.000  0.370  0.493
    2  0.000  0.000  0.000  0.000  0.123  0.000  0.000  0.000  0.370  0.493
tot    0.000  0.001  0.000  0.000  0.247  0.000  0.000  0.000  0.740  0.987
 
band     9 # energy    9.77183233 # occ.  1.00000000
 
ion      s     py     pz     px    dxy    dyz    dz2    dxz  x2-y2    tot
    1  0.000  0.001  0.000  0.000  0.123  0.000  0.000  0.000  0.370  0.495
    2  0.000  0.001  0.000  0.000  0.123  0.000  0.000  0.000  0.370  0.495
tot    0.000  0.003  0.000  0.001  0.246  0.000  0.000  0.000  0.739  0.989
 
band    10 # energy    9.89685145 # occ.  1.00000000
 
ion      s     py     pz     px    dxy    dyz    dz2    dxz  x2-y2    tot
    1  0.000  0.000  0.000  0.000  0.000  0.372  0.000  0.124  0.000  0.496
    2  0.000  0.000  0.000  0.000  0.000  0.372  0.000  0.124  0.000  0.496
tot    0.000  0.000  0.000  0.000  0.000  0.744  0.000  0.248  0.000  0.993
 
band    11 # energy   10.39859248 # occ.  0.98537526
 
ion      s     py     pz     px    dxy    dyz    dz2    dxz  x2-y2    tot
    1  0.036  0.015  0.000  0.046  0.098  0.000  0.239  0.000  0.033  0.467
    2  0.036  0.015  0.000  0.046  0.098  0.000  0.239  0.000  0.033  0.467
tot    0.072  0.031  0.000  0.092  0.196  0.000  0.478  0.000  0.065  0.934
 
band    12 # energy   16.18587362 # occ.  0.00000000
 
ion      s     py     pz     px    dxy    dyz    dz2    dxz  x2-y2    tot
    1  0.030  0.058  0.000  0.173  0.045  0.000  0.105  0.000  0.015  0.425
    2  0.030  0.058  0.000  0.173  0.045  0.000  0.105  0.000  0.015  0.425
tot    0.059  0.115  0.000  0.345  0.091  0.000  0.209  0.000  0.030  0.850
 
band    13 # energy   18.57742068 # occ.  0.00000000
 
ion      s     py     pz     px    dxy    dyz    dz2    dxz  x2-y2    tot
    1  0.000  0.000  0.251  0.000  0.000  0.040  0.000  0.120  0.000  0.411
    2  0.000  0.000  0.251  0.000  0.000  0.040  0.000  0.120  0.000  0.411
tot    0.000  0.000  0.502  0.000  0.000  0.080  0.000  0.240  0.000  0.823
 
band    14 # energy   20.12562963 # occ.  0.00000000
 
ion      s     py     pz     px    dxy    dyz    dz2    dxz  x2-y2    tot
    1  0.227  0.017  0.000  0.050  0.067  0.000  0.021  0.000  0.022  0.404
    2  0.227  0.017  0.000  0.050  0.067  0.000  0.021  0.000  0.022  0.404
tot    0.453  0.034  0.000  0.101  0.133  0.000  0.042  0.000  0.044  0.807
 
band    15 # energy   25.45570591 # occ.  0.00000000
 
ion      s     py     pz     px    dxy    dyz    dz2    dxz  x2-y2    tot
    1  0.000  0.000  0.112  0.000  0.000  0.066  0.000  0.198  0.000  0.376
    2  0.000  0.000  0.112  0.000  0.000  0.066  0.000  0.198  0.000  0.376
tot    0.000  0.000  0.223  0.000  0.000  0.132  0.000  0.397  0.000  0.752
 
band    16 # energy   26.21743057 # occ.  0.00000000
 
ion      s     py     pz     px    dxy    dyz    dz2    dxz  x2-y2    tot
    1  0.000  0.236  0.000  0.079  0.004  0.000  0.000  0.000  0.013  0.332
    2  0.000  0.236  0.000  0.079  0.004  0.000  0.000  0.000  0.013  0.332
tot    0.000  0.472  0.000  0.157  0.009  0.000  0.000  0.000  0.026  0.664
 

 k-point     6 :    0.50000000 0.00000000 0.00000000     weight = 0.00375000

band     1 # energy    5.65851959 # occ.  1.00000000
 
ion      s     py     pz     px    dxy    dyz    dz2    dxz  x2-y2    tot
    1  0.010  0.000  0.000  0.001  0.264  0.000  0.094  0.000  0.088  0.458
    2  0.010  0.000  0.000  0.001  0.264  0.000  0.094  0.000  0.088  0.458
tot    0.019  0.001  0.000  0.002  0.529  0.000  0.188  0.000  0.176  0.915
 
band     2 # energy    5.70223387 # occ.  1.00000000
 
ion      s     py     pz     px    dxy    dyz    dz2    dxz  x2-y2    tot
    1  0.086  0.006  0.000  0.018  0.228  0.000  0.033  0.000  0.076  0.448
    2  0.086  0.006  0.000  0.018  0.228  0.000  0.033  0.000  0.076  0.448
tot    0.173  0.012  0.000  0.036  0.456  0.000  0.066  0.000  0.152  0.895