<?xml version="1.0" encoding="ISO-8859-1"?>
<modeling>
 <generator>
  <i name="program" type="string">vasp </i>
  <i name="version" type="string">6.3.2  </i>
  <i name="subversion" type="string">27Jun22 (build Aug 12 2022 00:53:59) complex                          parallel </i>
  <i name="platform" type="string">tv2STD </i>
  <i name="date" type="string">2024 11 30 </i>
  <i name="time" type="string">15:35:51 </i>
 </generator>
 <incar>
  <i type="string" name="SYSTEM">Co-hcc</i>
  <i type="int" name="ISTART">     0</i>
  <i type="string" name="PREC">Accurate      normal | accurate</i>
  <i type="string" name="ALGO">Normal     Normal, Fast, Very_Fast</i>
  <i type="logical" name="ADDGRID"> F  </i>
  <i type="int" name="ISPIN">     2</i>
  <i type="int" name="ICHARG">     2</i>
  <i type="int" name="INIWAV">     1</i>
  <i type="int" name="NELM">   100</i>
  <i type="int" name="IBRION">    -1</i>
  <i name="EDIFF">      0.00000100</i>
  <i name="EDIFFG">     -0.02000000</i>
  <i type="int" name="NSW">     0</i>
  <i type="int" name="ISIF">     2</i>
  <i type="int" name="ISYM">     1</i>
  <i name="ENCUT">    400.00000000</i>
  <v name="MAGMOM">      3.00000000      3.00000000</v>
  <i type="logical" name="LREAL"> F  </i>
  <i type="int" name="ISMEAR">     0</i>
  <i name="SIGMA">      0.05000000</i>
  <i type="int" name="NWRITE">     2</i>
  <i type="logical" name="LWAVE"> F  </i>
  <i type="logical" name="LCHARG"> F  </i>
 </incar>
 <primitive_cell>
  <structure name="primitive_cell" >
   <crystal>
    <varray name="basis" >
     <v>       2.47000000       0.00000000       0.00000000 </v>
     <v>      -1.23500000       2.13908275       0.00000000 </v>
     <v>       0.00000000       0.00000000       8.09000000 </v>
    </varray>
    <i name="volume">     42.74379318 </i>
    <varray name="rec_basis" >
     <v>       0.40485830       0.23374505       0.00000000 </v>
     <v>       0.00000000       0.46749010       0.00000000 </v>
     <v>       0.00000000       0.00000000       0.12360939 </v>
    </varray>
   </crystal>
   <varray name="positions" >
    <v>       0.00000000       0.00000000       0.00000000 </v>
    <v>       0.33333333       0.66666667       0.50000000 </v>
   </varray>
  </structure>
  <varray name="primitive_index" >
   <v type="int" >        1 </v>
   <v type="int" >        2 </v>
  </varray>
 </primitive_cell>
 <kpoints>
  <generation param="Gamma">
   <v type="int" name="divisions">      10       10        8 </v>
   <v name="usershift">      0.00000000       0.00000000       0.00000000 </v>
   <v name="genvec1">      0.10000000       0.00000000       0.00000000 </v>
   <v name="genvec2">      0.00000000       0.10000000       0.00000000 </v>
   <v name="genvec3">      0.00000000       0.00000000       0.12500000 </v>
   <v name="shift">      0.00000000       0.00000000       0.00000000 </v>
  </generation>
  <varray name="kpointlist" >
   <v>       0.00000000       0.00000000       0.00000000 </v>
   <v>       0.10000000      -0.00000000       0.00000000 </v>
   <v>       0.20000000      -0.00000000       0.00000000 </v>
   <v>       0.30000000      -0.00000000       0.00000000 </v>
   <v>       0.40000000      -0.00000000       0.00000000 </v>
   <v>       0.50000000      -0.00000000       0.00000000 </v>
   <v>       0.10000000       0.10000000       0.00000000 </v>
   <v>       0.20000000       0.10000000       0.00000000 </v>
   <v>       0.30000000       0.10000000       0.00000000 </v>
   <v>       0.40000000       0.10000000       0.00000000 </v>
   <v>       0.20000000       0.20000000       0.00000000 </v>
   <v>       0.30000000       0.20000000       0.00000000 </v>
   <v>       0.40000000       0.20000000       0.00000000 </v>
   <v>       0.30000000       0.30000000       0.00000000 </v>
   <v>       0.00000000       0.00000000       0.12500000 </v>
   <v>       0.10000000      -0.00000000       0.12500000 </v>
   <v>       0.20000000      -0.00000000       0.12500000 </v>
   <v>       0.30000000      -0.00000000       0.12500000 </v>
   <v>       0.40000000      -0.00000000       0.12500000 </v>
   <v>       0.50000000      -0.00000000       0.12500000 </v>
   <v>       0.10000000       0.10000000       0.12500000 </v>
   <v>       0.20000000       0.10000000       0.12500000 </v>
   <v>       0.30000000       0.10000000       0.12500000 </v>
   <v>       0.40000000       0.10000000       0.12500000 </v>
   <v>       0.20000000       0.20000000       0.12500000 </v>
   <v>       0.30000000       0.20000000       0.12500000 </v>
   <v>       0.40000000       0.20000000       0.12500000 </v>
   <v>       0.30000000       0.30000000       0.12500000 </v>
   <v>       0.00000000       0.00000000       0.25000000 </v>
   <v>       0.10000000      -0.00000000       0.25000000 </v>
   <v>       0.20000000      -0.00000000       0.25000000 </v>
   <v>       0.30000000      -0.00000000       0.25000000 </v>
   <v>       0.40000000      -0.00000000       0.25000000 </v>
   <v>       0.50000000      -0.00000000       0.25000000 </v>
   <v>       0.10000000       0.10000000       0.25000000 </v>
   <v>       0.20000000       0.10000000       0.25000000 </v>
   <v>       0.30000000       0.10000000       0.25000000 </v>
   <v>       0.40000000       0.10000000       0.25000000 </v>
   <v>       0.20000000       0.20000000       0.25000000 </v>
   <v>       0.30000000       0.20000000       0.25000000 </v>
   <v>       0.40000000       0.20000000       0.25000000 </v>
   <v>       0.30000000       0.30000000       0.25000000 </v>
   <v>       0.00000000       0.00000000       0.37500000 </v>
   <v>       0.10000000      -0.00000000       0.37500000 </v>
   <v>       0.20000000      -0.00000000       0.37500000 </v>
   <v>       0.30000000      -0.00000000       0.37500000 </v>
   <v>       0.40000000      -0.00000000       0.37500000 </v>
   <v>       0.50000000      -0.00000000       0.37500000 </v>
   <v>       0.10000000       0.10000000       0.37500000 </v>
   <v>       0.20000000       0.10000000       0.37500000 </v>
   <v>       0.30000000       0.10000000       0.37500000 </v>
   <v>       0.40000000       0.10000000       0.37500000 </v>
   <v>       0.20000000       0.20000000       0.37500000 </v>
   <v>       0.30000000       0.20000000       0.37500000 </v>
   <v>       0.40000000       0.20000000       0.37500000 </v>
   <v>       0.30000000       0.30000000       0.37500000 </v>
   <v>       0.00000000       0.00000000       0.50000000 </v>
   <v>       0.10000000      -0.00000000       0.50000000 </v>
   <v>       0.20000000      -0.00000000       0.50000000 </v>
   <v>       0.30000000      -0.00000000       0.50000000 </v>
   <v>       0.40000000      -0.00000000       0.50000000 </v>
   <v>       0.50000000      -0.00000000       0.50000000 </v>
   <v>       0.10000000       0.10000000       0.50000000 </v>
   <v>       0.20000000       0.10000000       0.50000000 </v>
   <v>       0.30000000       0.10000000       0.50000000 </v>
   <v>       0.40000000       0.10000000       0.50000000 </v>
   <v>       0.20000000       0.20000000       0.50000000 </v>
   <v>       0.30000000       0.20000000       0.50000000 </v>
   <v>       0.40000000       0.20000000       0.50000000 </v>
   <v>       0.30000000       0.30000000       0.50000000 </v>
  </varray>
  <varray name="weights" >
   <v>       0.00125000 </v>
   <v>       0.00750000 </v>
   <v>       0.00750000 </v>
   <v>       0.00750000 </v>
   <v>       0.00750000 </v>
   <v>       0.00375000 </v>
   <v>       0.00750000 </v>
   <v>       0.01500000 </v>
   <v>       0.01500000 </v>
   <v>       0.01500000 </v>
   <v>       0.00750000 </v>
   <v>       0.01500000 </v>
   <v>       0.00750000 </v>
   <v>       0.00750000 </v>
   <v>       0.00250000 </v>
   <v>       0.01500000 </v>
   <v>       0.01500000 </v>
   <v>       0.01500000 </v>
   <v>       0.01500000 </v>
   <v>       0.00750000 </v>
   <v>       0.01500000 </v>
   <v>       0.03000000 </v>
   <v>       0.03000000 </v>
   <v>       0.03000000 </v>
   <v>       0.01500000 </v>
   <v>       0.03000000 </v>
   <v>       0.01500000 </v>
   <v>       0.01500000 </v>
   <v>       0.00250000 </v>
   <v>       0.01500000 </v>
   <v>       0.01500000 </v>
   <v>       0.01500000 </v>
   <v>       0.01500000 </v>
   <v>       0.00750000 </v>
   <v>       0.01500000 </v>
   <v>       0.03000000 </v>
   <v>       0.03000000 </v>
   <v>       0.03000000 </v>
   <v>       0.01500000 </v>
   <v>       0.03000000 </v>
   <v>       0.01500000 </v>
   <v>       0.01500000 </v>
   <v>       0.00250000 </v>
   <v>       0.01500000 </v>
   <v>       0.01500000 </v>
   <v>       0.01500000 </v>
   <v>       0.01500000 </v>
   <v>       0.00750000 </v>
   <v>       0.01500000 </v>
   <v>       0.03000000 </v>
   <v>       0.03000000 </v>
   <v>       0.03000000 </v>
   <v>       0.01500000 </v>
   <v>       0.03000000 </v>
   <v>       0.01500000 </v>
   <v>       0.01500000 </v>
   <v>       0.00125000 </v>
   <v>       0.00750000 </v>
   <v>       0.00750000 </v>
   <v>       0.00750000 </v>
   <v>       0.00750000 </v>
   <v>       0.00375000 </v>
   <v>       0.00750000 </v>
   <v>       0.01500000 </v>
   <v>       0.01500000 </v>
   <v>       0.01500000 </v>
   <v>       0.00750000 </v>
   <v>       0.01500000 </v>
   <v>       0.00750000 </v>
   <v>       0.00750000 </v>
  </varray>
 </kpoints>
 <parameters>
  <separator name="general" >
   <i type="string" name="SYSTEM">Co-hcc</i>
   <i type="logical" name="LCOMPAT"> F  </i>
  </separator>
  <separator name="electronic" >
   <i type="string" name="PREC">accura</i>
   <i name="ENMAX">    400.00000000</i>
   <i name="ENAUG">    477.81800000</i>
   <i name="EDIFF">      0.00000100</i>
   <i type="int" name="IALGO">    38</i>
   <i type="int" name="IWAVPR">    10</i>
   <i type="int" name="NBANDS">    16</i>
   <i type="int" name="NBANDSLOW">    -1</i>
   <i type="int" name="NBANDSHIGH">    -1</i>
   <i name="NELECT">     18.00000000</i>
   <i type="int" name="TURBO">     0</i>
   <i type="int" name="IRESTART">     0</i>
   <i type="int" name="NREBOOT">     0</i>
   <i type="int" name="NMIN">     0</i>
   <i name="EREF">      0.00000000</i>
   <separator name="electronic smearing" >
    <i type="int" name="ISMEAR">     0</i>
    <i name="SIGMA">      0.05000000</i>
    <i name="KSPACING">      0.50000000</i>
    <i type="logical" name="KGAMMA"> T  </i>
    <i type="logical" name="KBLOWUP"> T  </i>
   </separator>
   <separator name="electronic projectors" >
    <i type="logical" name="LREAL"> F  </i>
    <v name="ROPT">      0.00000000</v>
    <i type="int" name="LMAXPAW">  -100</i>
    <i type="int" name="LMAXMIX">     2</i>
    <i type="logical" name="NLSPLINE"> F  </i>
   </separator>
   <separator name="electronic startup" >
    <i type="int" name="ISTART">     0</i>
    <i type="int" name="ICHARG">     2</i>
    <i type="int" name="INIWAV">     1</i>
   </separator>
   <separator name="electronic spin" >
    <i type="int" name="ISPIN">     2</i>
    <i type="logical" name="LNONCOLLINEAR"> F  </i>
    <v name="MAGMOM">      3.00000000      3.00000000</v>
    <i name="NUPDOWN">     -1.00000000</i>
    <i type="logical" name="LSORBIT"> F  </i>
    <v name="SAXIS">      0.00000000      0.00000000      1.00000000</v>
    <i type="logical" name="LSPIRAL"> F  </i>
    <v name="QSPIRAL">      0.00000000      0.00000000      0.00000000</v>
    <i type="logical" name="LZEROZ"> F  </i>
   </separator>
   <separator name="electronic exchange-correlation" >
    <i type="logical" name="LASPH"> F  </i>
    <i type="logical" name="LMETAGGA"> F  </i>
   </separator>
   <separator name="electronic convergence" >
    <i type="int" name="NELM">   100</i>
    <i type="int" name="NELMDL">    -5</i>
    <i type="int" name="NELMIN">     2</i>
    <i name="ENINI">    400.00000000</i>
    <separator name="electronic convergence detail" >
     <i type="logical" name="LDIAG"> T  </i>
     <i type="logical" name="LSUBROT"> F  </i>
     <i name="WEIMIN">      0.00000000</i>
     <i name="EBREAK">      0.00000002</i>
     <i name="DEPER">      0.30000000</i>
     <i type="int" name="NRMM">     4</i>
     <i name="TIME">      0.40000000</i>
    </separator>
   </separator>
   <separator name="electronic mixer" >
    <i name="AMIX">      0.40000000</i>
    <i name="BMIX">      1.00000000</i>
    <i name="AMIN">      0.10000000</i>
    <i name="AMIX_MAG">      1.60000000</i>
    <i name="BMIX_MAG">      1.00000000</i>
    <separator name="electronic mixer details" >
     <i type="int" name="IMIX">     4</i>
     <i type="logical" name="MIXFIRST"> F  </i>
     <i type="int" name="MAXMIX">   -45</i>
     <i name="WC">    100.00000000</i>
     <i type="int" name="INIMIX">     1</i>
     <i type="int" name="MIXPRE">     1</i>
     <i type="int" name="MREMOVE">     5</i>
    </separator>
   </separator>
   <separator name="electronic dipolcorrection" >
    <i type="logical" name="LDIPOL"> F  </i>
    <i type="logical" name="LMONO"> F  </i>
    <i type="int" name="IDIPOL">     0</i>
    <i name="EPSILON">      1.00000000</i>
    <v name="DIPOL">   -100.00000000   -100.00000000   -100.00000000</v>
    <i name="EFIELD">      0.00000000</i>
   </separator>
  </separator>
  <separator name="grids" >
   <i type="int" name="NGX">    16</i>
   <i type="int" name="NGY">    16</i>
   <i type="int" name="NGZ">    54</i>
   <i type="int" name="NGXF">    32</i>
   <i type="int" name="NGYF">    32</i>
   <i type="int" name="NGZF">   108</i>
   <i type="logical" name="ADDGRID"> F  </i>
  </separator>
  <separator name="ionic" >
   <i type="int" name="NSW">     0</i>
   <i type="int" name="IBRION">    -1</i>
   <i type="int" name="MDALGO">     0</i>
   <i type="int" name="ISIF">     2</i>
   <i name="PSTRESS">      0.00000000</i>
   <i name="EDIFFG">     -0.02000000</i>
   <i type="int" name="NFREE">     0</i>
   <i name="POTIM">      0.50000000</i>
   <i name="SMASS">     -3.00000000</i>
   <i name="SCALEE">      1.00000000</i>
  </separator>
  <separator name="ionic md" >
   <i name="TEBEG">      0.00010000</i>
   <i name="TEEND">      0.00010000</i>
   <i type="int" name="NBLOCK">     1</i>
   <i type="int" name="KBLOCK">     1</i>
   <i type="int" name="NPACO">   256</i>
   <i name="APACO">     10.00000000</i>
  </separator>
  <separator name="symmetry" >
   <i type="int" name="ISYM">     1</i>
   <i name="SYMPREC">      0.00001000</i>
  </separator>
  <separator name="dos" >
   <i type="int" name="LORBIT">     0</i>
   <v name="RWIGS">     -1.00000000</v>
   <i type="int" name="NEDOS">   301</i>
   <i name="EMIN">     10.00000000</i>
   <i name="EMAX">    -10.00000000</i>
   <i name="EFERMI">      0.00000000</i>
  </separator>
  <separator name="writing" >
   <i type="int" name="NWRITE">     2</i>
   <i type="logical" name="LWAVE"> F  </i>
   <i type="logical" name="LDOWNSAMPLE"> F  </i>
   <i type="logical" name="LCHARG"> F  </i>
   <i type="logical" name="LPARD"> F  </i>
   <i type="logical" name="LVTOT"> F  </i>
   <i type="logical" name="LVHAR"> F  </i>
   <i type="logical" name="LELF"> F  </i>
   <i type="logical" name="LOPTICS"> F  </i>
   <v name="STM">      0.00000000      0.00000000      0.00000000      0.00000000      0.00000000      0.00000000      0.00000000</v>
  </separator>
  <separator name="performance" >
   <i type="int" name="NPAR">     4</i>
   <i type="int" name="NSIM">     4</i>
   <i type="int" name="NBLK">    -1</i>
   <i type="logical" name="LPLANE"> T  </i>
   <i type="logical" name="LSCALAPACK"> T  </i>
   <i type="logical" name="LSCAAWARE"> F  </i>
   <i type="logical" name="LSCALU"> F  </i>
   <i type="logical" name="LASYNC"> F  </i>
   <i type="logical" name="LORBITALREAL"> F  </i>
  </separator>
  <separator name="miscellaneous" >
   <i type="int" name="IDIOT">     3</i>
   <i type="int" name="PHON_NSTRUCT">    -1</i>
   <i type="logical" name="LMUSIC"> F  </i>
   <v name="POMASS">     58.93300000</v>
   <v name="DARWINR">      0.00000000</v>
   <v name="DARWINV">      1.00000000</v>
   <i type="logical" name="LCORR"> T  </i>
  </separator>
  <i type="logical" name="GGA_COMPAT"> T  </i>
  <i type="logical" name="LBERRY"> F  </i>
  <i type="int" name="ICORELEVEL">     0</i>
  <i type="logical" name="LDAU"> F  </i>
  <i type="int" name="I_CONSTRAINED_M">     0</i>
  <separator name="electronic exchange-correlation" >
   <i type="string" name="GGA">--</i>
   <i type="int" name="VOSKOWN">     0</i>
   <i type="logical" name="LHFCALC"> F  </i>
   <i type="string" name="PRECFOCK"></i>
   <i type="logical" name="LSYMGRAD"> F  </i>
   <i type="logical" name="LHFONE"> F  </i>
   <i type="logical" name="LRHFCALC"> F  </i>
   <i type="logical" name="LTHOMAS"> F  </i>
   <i type="logical" name="LMODELHF"> F  </i>
   <i type="logical" name="LFOCKACE"> F  </i>
   <i name="ENCUT4O">     -1.00000000</i>
   <i type="int" name="EXXOEP">     0</i>
   <i type="int" name="FOURORBIT">     0</i>
   <i name="AEXX">      0.00000000</i>
   <i name="HFALPHA">      0.00000000</i>
   <i name="MCALPHA">      0.00000000</i>
   <i name="ALDAX">      1.00000000</i>
   <i name="AGGAX">      1.00000000</i>
   <i name="ALDAC">      1.00000000</i>
   <i name="AGGAC">      1.00000000</i>
   <i type="int" name="NKREDX">     1</i>
   <i type="int" name="NKREDY">     1</i>
   <i type="int" name="NKREDZ">     1</i>
   <i type="logical" name="SHIFTRED"> F  </i>
   <i type="logical" name="ODDONLY"> F  </i>
   <i type="logical" name="EVENONLY"> F  </i>
   <i type="int" name="LMAXFOCK">     0</i>
   <i type="int" name="NMAXFOCKAE">     0</i>
   <i type="logical" name="LFOCKAEDFT"> F  </i>
   <i name="HFSCREEN">      0.00000000</i>
   <i name="HFSCREENC">      0.00000000</i>
   <i type="int" name="NBANDSGWLOW">     0</i>
  </separator>
  <separator name="vdW DFT" >
   <i type="logical" name="LUSE_VDW"> F  </i>
   <i name="Zab_VDW">     -0.84910000</i>
   <i name="PARAM1">      0.12340000</i>
   <i name="PARAM2">      1.00000000</i>
   <i name="PARAM3">      0.00000000</i>
  </separator>
  <separator name="model GW" >
   <i type="int" name="MODEL_GW">     0</i>
   <i name="MODEL_EPS0">     12.82313795</i>
   <i name="MODEL_ALPHA">      1.00000000</i>
  </separator>
  <separator name="linear response parameters" >
   <i type="logical" name="LEPSILON"> F  </i>
   <i type="logical" name="LRPA"> F  </i>
   <i type="logical" name="LNABLA"> F  </i>
   <i type="logical" name="LVEL"> F  </i>
   <i name="CSHIFT">      0.10000000</i>
   <i name="OMEGAMAX">     -1.00000000</i>
   <i name="DEG_THRESHOLD">      0.00200000</i>
   <i name="RTIME">     -0.10000000</i>
   <i name="WPLASMAI">      0.00000000</i>
   <v name="DFIELD">      0.00000000      0.00000000      0.00000000</v>
   <v name="WPLASMA">      0.00000000      0.00000000      0.00000000      0.00000000      0.00000000      0.00000000      0.00000000      0.00000000      0.00000000</v>
  </separator>
  <separator name="orbital magnetization" >
   <i type="logical" name="NUCIND"> F  </i>
   <v name="MAGPOS">      0.00000000      0.00000000      0.00000000</v>
   <i type="logical" name="LNICSALL"> T  </i>
   <i type="logical" name="ORBITALMAG"> F  </i>
   <i type="logical" name="LMAGBLOCH"> F  </i>
   <i type="logical" name="LCHIMAG"> F  </i>
   <i type="logical" name="LGAUGE"> T  </i>
   <i type="int" name="MAGATOM">     0</i>
   <v name="MAGDIPOL">      0.00000000      0.00000000      0.00000000</v>
   <v name="AVECCONST">      0.00000000      0.00000000      0.00000000</v>
  </separator>
  <separator name="response functions" >
   <i type="logical" name="LFINITE_TEMPERATURE"> F  </i>
   <i type="logical" name="LADDER"> F  </i>
   <i type="logical" name="LRPAFORCE"> F  </i>
   <i type="logical" name="LFXC"> F  </i>
   <i type="logical" name="LHARTREE"> T  </i>
   <i type="int" name="IBSE">     0</i>
   <v type="int" name="KPOINT">    -1     0     0     0</v>
   <i type="logical" name="LTCTC"> F  </i>
   <i type="logical" name="LTCTE"> F  </i>
   <i type="logical" name="LTETE"> F  </i>
   <i type="logical" name="LTRIPLET"> F  </i>
   <i type="logical" name="LFXCEPS"> F  </i>
   <i type="logical" name="LFXHEG"> F  </i>
   <i type="int" name="NATURALO">     2</i>
   <i type="logical" name="LHOLEGF"> F  </i>
   <i type="logical" name="L2ORDER"> F  </i>
   <i type="logical" name="LDMP1"> F  </i>
   <i type="logical" name="LMP2LT"> F  </i>
   <i type="logical" name="LSMP2LT"> F  </i>
   <i type="logical" name="LGWLF"> F  </i>
   <i name="ENCUTGW">     -2.00000000</i>
   <i name="ENCUTGWSOFT">     -2.00000000</i>
   <i name="ENCUTLF">     -1.00000000</i>
   <i type="logical" name="LESF_SPLINES"> F  </i>
   <i type="int" name="LMAXMP2">    -1</i>
   <i name="SCISSOR">      0.00000000</i>
   <i type="int" name="NOMEGA">     0</i>
   <i type="int" name="NOMEGAR">     0</i>
   <i type="int" name="NBANDSGW">    -1</i>
   <i type="int" name="NBANDSO">    -1</i>
   <i type="int" name="NBANDSV">    -1</i>
   <i type="int" name="NELMGW">     1</i>
   <i type="int" name="NELMHF">     1</i>
   <i type="int" name="DIM">     3</i>
   <i type="int" name="IESPILON">     4</i>
   <i type="int" name="ANTIRES">     0</i>
   <i name="OMEGAMAX">    -30.00000000</i>
   <i name="OMEGAMIN">    -30.00000000</i>
   <i name="OMEGATL">   -200.00000000</i>
   <i type="int" name="OMEGAGRID">     0</i>
   <i name="CSHIFT">     -0.10000000</i>
   <i type="logical" name="LSELFENERGY"> F  </i>
   <i type="logical" name="LSPECTRAL"> F  </i>
   <i type="logical" name="LSPECTRALGW"> F  </i>
   <i type="logical" name="LSINGLES"> F  </i>
   <i type="logical" name="LFERMIGW"> F  </i>
   <i type="logical" name="ODDONLYGW"> F  </i>
   <i type="logical" name="EVENONLYGW"> F  </i>
   <i type="int" name="NKREDLFX">     1</i>
   <i type="int" name="NKREDLFY">     1</i>
   <i type="int" name="NKREDLFZ">     1</i>
   <i type="int" name="MAXMEM">  2800</i>
   <i type="int" name="TELESCOPE">     0</i>
   <i type="int" name="NTAUPAR">    -1</i>
   <i type="int" name="NOMEGAPAR">    -1</i>
   <i name="DAMP_NEWTON">      0.80000001</i>
   <i name="LAMBDA">      1.00000000</i>
  </separator>
  <separator name="External order field" >
   <i name="OFIELD_KAPPA">      0.00000000</i>
   <v name="OFIELD_K">      0.00000000      0.00000000      0.00000000</v>
   <i name="OFIELD_Q6_NEAR">      0.00000000</i>
   <i name="OFIELD_Q6_FAR">      0.00000000</i>
   <i name="OFIELD_A">      0.00000000</i>
  </separator>
  <separator name="optional k-points parameters" >
   <i type="int" name="KPOINTS_OPT_MODE">     1</i>
   <i type="logical" name="LKPOINTS_OPT"> F  </i>
  </separator>
 </parameters>
 <atominfo>
  <atoms>       2 </atoms>
  <types>       1 </types>
  <array name="atoms" >
   <dimension dim="1">ion</dimension>
   <field type="string">element</field>
   <field type="int">atomtype</field>
   <set>
    <rc><c>Co</c><c>   1</c></rc>
    <rc><c>Co</c><c>   1</c></rc>
   </set>
  </array>
  <array name="atomtypes" >
   <dimension dim="1">type</dimension>
   <field type="int">atomspertype</field>
   <field type="string">element</field>
   <field>mass</field>
   <field>valence</field>
   <field type="string">pseudopotential</field>
   <set>
    <rc><c>   2</c><c>Co</c><c>     58.93300000</c><c>      9.00000000</c><c>  PAW_PBE Co 02Aug2007                  </c></rc>
   </set>
  </array>
 </atominfo>
 <structure name="initialpos" >
  <crystal>
   <varray name="basis" >
    <v>       2.47000000       0.00000000       0.00000000 </v>
    <v>      -1.23500000       2.13908275       0.00000000 </v>
    <v>       0.00000000       0.00000000       8.09000000 </v>
   </varray>
   <i name="volume">     42.74379318 </i>
   <varray name="rec_basis" >
    <v>       0.40485830       0.23374505       0.00000000 </v>
    <v>       0.00000000       0.46749010       0.00000000 </v>
    <v>       0.00000000       0.00000000       0.12360939 </v>
   </varray>
  </crystal>
  <varray name="positions" >
   <v>       0.00000000       0.00000000       0.00000000 </v>
   <v>       0.33333333       0.66666667       0.50000000 </v>
  </varray>
 </structure>
 <calculation>
  <scstep>
   <time name="dav">    0.45    0.46</time>
   <time name="total">    0.47    0.47</time>
   <energy>
    <i name="alphaZ">     39.63868225 </i>
    <i name="ewald">  -1054.56880693 </i>
    <i name="hartreedc">   -595.60964206 </i>
    <i name="XCdc">     33.36921587 </i>
    <i name="pawpsdc">   1439.98163886 </i>
    <i name="pawaedc">  -1545.88690193 </i>
    <i name="eentropy">     -0.00393596 </i>
    <i name="bandstr">    133.46258114 </i>
    <i name="atom">   1626.71546820 </i>
    <i name="e_fr_energy">     77.09829945 </i>
    <i name="e_wo_entrp">     77.10223541 </i>
    <i name="e_0_energy">     77.10026743 </i>
   </energy>
  </scstep>
  <scstep>
   <time name="dav">    0.45    0.45</time>
   <time name="total">    0.45    0.45</time>
   <energy>
    <i name="e_fr_energy">    -10.58968871 </i>
    <i name="e_wo_entrp">    -10.58559324 </i>
    <i name="e_0_energy">    -10.58764097 </i>
   </energy>
  </scstep>
  <scstep>
   <time name="dav">    0.53    0.54</time>
   <time name="total">    0.54    0.54</time>
   <energy>
    <i name="e_fr_energy">    -12.70063023 </i>
    <i name="e_wo_entrp">    -12.69683607 </i>
    <i name="e_0_energy">    -12.69873315 </i>
   </energy>
  </scstep>
  <scstep>
   <time name="dav">    0.57    0.58</time>
   <time name="total">    0.57    0.58</time>
   <energy>
    <i name="e_fr_energy">    -12.73473981 </i>
    <i name="e_wo_entrp">    -12.73093576 </i>
    <i name="e_0_energy">    -12.73283778 </i>
   </energy>
  </scstep>
  <scstep>
   <time name="dav">    0.52    0.52</time>
   <time name="total">    0.55    0.55</time>
   <energy>
    <i name="e_fr_energy">    -12.73498434 </i>
    <i name="e_wo_entrp">    -12.73117992 </i>
    <i name="e_0_energy">    -12.73308213 </i>
   </energy>
  </scstep>
  <scstep>
   <time name="dav">    0.49    0.49</time>
   <time name="total">    0.54    0.54</time>
   <energy>
    <i name="e_fr_energy">    -12.54481855 </i>
    <i name="e_wo_entrp">    -12.53510948 </i>
    <i name="e_0_energy">    -12.53996402 </i>
   </energy>
  </scstep>
  <scstep>
   <time name="dav">    0.50    0.50</time>
   <time name="total">    0.55    0.55</time>
   <energy>
    <i name="e_fr_energy">    -11.12709699 </i>
    <i name="e_wo_entrp">    -11.12411234 </i>
    <i name="e_0_energy">    -11.12560467 </i>
   </energy>
  </scstep>
  <scstep>
   <time name="dav">    0.52    0.53</time>
   <time name="total">    0.57    0.57</time>
   <energy>
    <i name="e_fr_energy">    -11.18681707 </i>
    <i name="e_wo_entrp">    -11.18251309 </i>
    <i name="e_0_energy">    -11.18466508 </i>
   </energy>
  </scstep>
  <scstep>
   <time name="dav">    0.51    0.52</time>
   <time name="total">    0.56    0.56</time>
   <energy>
    <i name="e_fr_energy">    -11.22438646 </i>
    <i name="e_wo_entrp">    -11.22027238 </i>
    <i name="e_0_energy">    -11.22232942 </i>
   </energy>
  </scstep>
  <scstep>
   <time name="dav">    0.52    0.52</time>
   <time name="total">    0.56    0.57</time>
   <energy>
    <i name="e_fr_energy">    -11.23040415 </i>
    <i name="e_wo_entrp">    -11.22614902 </i>
    <i name="e_0_energy">    -11.22827659 </i>
   </energy>
  </scstep>
  <scstep>
   <time name="dav">    0.52    0.52</time>
   <time name="total">    0.57    0.57</time>
   <energy>
    <i name="e_fr_energy">    -11.23188214 </i>
    <i name="e_wo_entrp">    -11.22769046 </i>
    <i name="e_0_energy">    -11.22978630 </i>
   </energy>
  </scstep>
  <scstep>
   <time name="dav">    0.49    0.49</time>
   <time name="total">    0.53    0.54</time>
   <energy>
    <i name="e_fr_energy">    -11.23358702 </i>
    <i name="e_wo_entrp">    -11.22960403 </i>
    <i name="e_0_energy">    -11.23159553 </i>
   </energy>
  </scstep>
  <scstep>
   <time name="dav">    0.51    0.52</time>
   <time name="total">    0.56    0.56</time>
   <energy>
    <i name="e_fr_energy">    -11.23367923 </i>
    <i name="e_wo_entrp">    -11.22967864 </i>
    <i name="e_0_energy">    -11.23167894 </i>
   </energy>
  </scstep>
  <scstep>
   <time name="dav">    0.47    0.47</time>
   <time name="total">    0.51    0.52</time>
   <energy>
    <i name="e_fr_energy">    -11.23375062 </i>
    <i name="e_wo_entrp">    -11.22976645 </i>
    <i name="e_0_energy">    -11.23175853 </i>
   </energy>
  </scstep>
  <scstep>
   <time name="dav">    0.48    0.48</time>
   <time name="total">    0.52    0.52</time>
   <energy>
    <i name="e_fr_energy">    -11.23375944 </i>
    <i name="e_wo_entrp">    -11.22974096 </i>
    <i name="e_0_energy">    -11.23175020 </i>
   </energy>
  </scstep>
  <scstep>
   <time name="dav">    0.43    0.43</time>
   <time name="total">    0.45    0.45</time>
   <energy>
    <i name="alphaZ">     39.63868225 </i>
    <i name="ewald">  -1054.56880693 </i>
    <i name="hartreedc">   -569.41012835 </i>
    <i name="XCdc">     31.25553233 </i>
    <i name="pawpsdc">   1613.87213838 </i>
    <i name="pawaedc">  -1719.38741692 </i>
    <i name="eentropy">     -0.00402039 </i>
    <i name="bandstr">     20.65479172 </i>
    <i name="atom">   1626.71546820 </i>
    <i name="e_fr_energy">    -11.23375971 </i>
    <i name="e_wo_entrp">    -11.22973932 </i>
    <i name="e_0_energy">    -11.23174952 </i>
   </energy>
  </scstep>
  <structure>
   <crystal>
    <varray name="basis" >
     <v>       2.47000000       0.00000000       0.00000000 </v>
     <v>      -1.23500000       2.13908275       0.00000000 </v>
     <v>       0.00000000       0.00000000       8.09000000 </v>
    </varray>
    <i name="volume">     42.74379318 </i>
    <varray name="rec_basis" >
     <v>       0.40485830       0.23374505       0.00000000 </v>
     <v>       0.00000000       0.46749010       0.00000000 </v>
     <v>       0.00000000       0.00000000       0.12360939 </v>
    </varray>
   </crystal>
   <varray name="positions" >
    <v>       0.00000000       0.00000000       0.00000000 </v>
    <v>       0.33333333       0.66666667       0.50000000 </v>
   </varray>
  </structure>
  <varray name="forces" >
   <v>      -0.00000000      -0.00000000       0.00000000 </v>
   <v>       0.00000000       0.00000000       0.00000000 </v>
  </varray>
  <varray name="stress" >
   <v>    -142.93196133       0.00000000      -0.00000000 </v>
   <v>      -0.00000000    -142.93196133      -0.00000000 </v>
   <v>       0.00000000       0.00000000     -49.26658552 </v>
  </varray>
  <energy>
   <i name="e_fr_energy">    -11.23375971 </i>
   <i name="e_wo_entrp">    -11.22973932 </i>
   <i name="e_0_energy">    -11.23174952 </i>
  </energy>
  <time name="totalsc">    8.67    8.72</time>
  <eigenvalues>
   <array>
    <dimension dim="1">band</dimension>
    <dimension dim="2">kpoint</dimension>
    <dimension dim="3">spin</dimension>
    <field>eigene</field>
    <field>occ</field>
    <set>
     <set comment="spin 1">
      <set comment="kpoint 1">
       <r>   -2.9791    1.0000 </r>
       <r>   -2.5032    1.0000 </r>
       <r>   -0.0240    1.0000 </r>
       <r>    0.8975    1.0000 </r>
       <r>    0.8975    1.0000 </r>
       <r>    0.8984    1.0000 </r>
       <r>    0.8985    1.0000 </r>
       <r>    1.0045    1.0000 </r>
       <r>    1.8075    1.0000 </r>
       <r>    1.8075    1.0000 </r>
       <r>    1.8105    1.0000 </r>
       <r>    1.8105    1.0000 </r>
       <r>    2.2189    1.0000 </r>
       <r>    6.5065    0.0000 </r>
       <r>   10.9325    0.0000 </r>
       <r>   18.8545    0.0000 </r>
      </set>
      <set comment="kpoint 2">
       <r>   -2.6150    1.0000 </r>
       <r>   -2.1518    1.0000 </r>
       <r>    0.0888    1.0000 </r>
       <r>    0.7892    1.0000 </r>
       <r>    0.7913    1.0000 </r>
       <r>    1.0538    1.0000 </r>
       <r>    1.0548    1.0000 </r>
       <r>    1.0887    1.0000 </r>
       <r>    1.2274    1.0000 </r>
       <r>    1.5263    1.0000 </r>
       <r>    1.7756    1.0000 </r>
       <r>    1.7801    1.0000 </r>
       <r>    3.0416    1.0000 </r>
       <r>    7.0795    0.0000 </r>
       <r>   11.1514    0.0000 </r>
       <r>   19.2753    0.0000 </r>
      </set>
      <set comment="kpoint 3">
       <r>   -1.6325    1.0000 </r>
       <r>   -1.2607    1.0000 </r>
       <r>    0.3873    1.0000 </r>
       <r>    0.6183    1.0000 </r>
       <r>    0.6248    1.0000 </r>
       <r>    0.6493    1.0000 </r>
       <r>    0.9581    1.0000 </r>
       <r>    1.3686    1.0000 </r>
       <r>    1.4795    1.0000 </r>
       <r>    1.4804    1.0000 </r>
       <r>    1.6932    1.0000 </r>
       <r>    1.7006    1.0000 </r>
       <r>    4.3712    0.0000 </r>
       <r>    8.5219    0.0000 </r>
       <r>   11.8220    0.0000 </r>
       <r>   20.1882    0.0000 </r>
      </set>
      <set comment="kpoint 4">
       <r>   -0.8213    1.0000 </r>
       <r>   -0.7131    1.0000 </r>
       <r>    0.2201    1.0000 </r>
       <r>    0.4298    1.0000 </r>
       <r>    0.8021    1.0000 </r>
       <r>    0.9235    1.0000 </r>
       <r>    1.2331    1.0000 </r>
       <r>    1.5929    1.0000 </r>
       <r>    1.6031    1.0000 </r>
       <r>    2.0441    1.0000 </r>
       <r>    2.0449    1.0000 </r>
       <r>    2.2035    1.0000 </r>
       <r>    6.1355    0.0000 </r>
       <r>   10.4852    0.0000 </r>
       <r>   12.8656    0.0000 </r>
       <r>   15.6403    0.0000 </r>
      </set>
      <set comment="kpoint 5">
       <r>   -0.8409    1.0000 </r>
       <r>   -0.8186    1.0000 </r>
       <r>   -0.0412    1.0000 </r>
       <r>    0.0751    1.0000 </r>
       <r>    1.1198    1.0000 </r>
       <r>    1.2637    1.0000 </r>
       <r>    1.5126    1.0000 </r>
       <r>    1.5250    1.0000 </r>
       <r>    2.5385    1.0000 </r>
       <r>    2.5388    1.0000 </r>
       <r>    3.3482    0.0000 </r>
       <r>    4.1830    0.0000 </r>
       <r>    8.3681    0.0000 </r>
       <r>   11.4288    0.0000 </r>
       <r>   12.3459    0.0000 </r>
       <r>   12.5126    0.0000 </r>
      </set>
      <set comment="kpoint 6">
       <r>   -0.9105    1.0000 </r>
       <r>   -0.9060    1.0000 </r>
       <r>   -0.1240    1.0000 </r>
       <r>   -0.0533    1.0000 </r>
       <r>    1.2530    1.0000 </r>
       <r>    1.3512    1.0000 </r>
       <r>    1.4822    1.0000 </r>
       <r>    1.4955    1.0000 </r>
       <r>    2.7378    1.0000 </r>
       <r>    2.7380    1.0000 </r>
       <r>    5.2370    0.0000 </r>
       <r>    5.5850    0.0000 </r>
       <r>    9.3356    0.0000 </r>
       <r>   10.1504    0.0000 </r>
       <r>   10.5458    0.0000 </r>
       <r>   11.6894    0.0000 </r>
      </set>
      <set comment="kpoint 7">
       <r>   -1.9251    1.0000 </r>
       <r>   -1.5065    1.0000 </r>
       <r>    0.2977    1.0000 </r>
       <r>    0.5947    1.0000 </r>
       <r>    0.5967    1.0000 </r>
       <r>    0.7998    1.0000 </r>
       <r>    1.1281    1.0000 </r>
       <r>    1.2042    1.0000 </r>
       <r>    1.3838    1.0000 </r>
       <r>    1.4448    1.0000 </r>
       <r>    1.7051    1.0000 </r>
       <r>    1.7094    1.0000 </r>
       <r>    3.9793    0.0000 </r>
       <r>    8.0760    0.0000 </r>
       <r>   11.5995    0.0000 </r>
       <r>   20.0950    0.0000 </r>
      </set>
      <set comment="kpoint 8">
       <r>   -0.8370    1.0000 </r>
       <r>   -0.6094    1.0000 </r>
       <r>    0.3874    1.0000 </r>
       <r>    0.4667    1.0000 </r>
       <r>    0.4750    1.0000 </r>
       <r>    0.6404    1.0000 </r>
       <r>    0.6692    1.0000 </r>
       <r>    1.4597    1.0000 </r>
       <r>    1.5775    1.0000 </r>
       <r>    1.5851    1.0000 </r>
       <r>    2.0309    1.0000 </r>
       <r>    2.2673    1.0000 </r>
       <r>    5.4721    0.0000 </r>
       <r>    9.7642    0.0000 </r>
       <r>   12.5123    0.0000 </r>
       <r>   18.0701    0.0000 </r>
      </set>
      <set comment="kpoint 9">
       <r>   -0.5608    1.0000 </r>
       <r>   -0.5234    1.0000 </r>
       <r>    0.0991    1.0000 </r>
       <r>    0.2540    1.0000 </r>
       <r>    0.9606    1.0000 </r>
       <r>    1.0162    1.0000 </r>
       <r>    1.4468    1.0000 </r>
       <r>    1.4541    1.0000 </r>
       <r>    1.4577    1.0000 </r>
       <r>    1.8527    1.0000 </r>
       <r>    3.1660    0.7976 </r>
       <r>    3.7976    0.0000 </r>
       <r>    7.4629    0.0000 </r>
       <r>   11.8662    0.0000 </r>
       <r>   13.1853    0.0000 </r>
       <r>   13.9501    0.0000 </r>
      </set>
      <set comment="kpoint 10">
       <r>   -0.6965    1.0000 </r>
       <r>   -0.6889    1.0000 </r>
       <r>   -0.0396    1.0000 </r>
       <r>    0.0410    1.0000 </r>
       <r>    1.2248    1.0000 </r>
       <r>    1.3206    1.0000 </r>
       <r>    1.3652    1.0000 </r>
       <r>    1.3778    1.0000 </r>
       <r>    2.1617    1.0000 </r>
       <r>    2.2210    1.0000 </r>
       <r>    5.2219    0.0000 </r>
       <r>    5.8808    0.0000 </r>
       <r>    9.9005    0.0000 </r>
       <r>   10.1102    0.0000 </r>
       <r>   11.0555    0.0000 </r>
       <r>   12.7674    0.0000 </r>
      </set>
      <set comment="kpoint 11">
       <r>    0.1520    1.0000 </r>
       <r>    0.1584    1.0000 </r>
       <r>    0.1659    1.0000 </r>
       <r>    0.2027    1.0000 </r>
       <r>    0.2286    1.0000 </r>
       <r>    0.3803    1.0000 </r>
       <r>    1.0551    1.0000 </r>
       <r>    1.3557    1.0000 </r>
       <r>    1.3677    1.0000 </r>
       <r>    1.5661    1.0000 </r>
       <r>    3.2445    0.0827 </r>
       <r>    3.8375    0.0000 </r>
       <r>    7.1710    0.0000 </r>
       <r>   11.6140    0.0000 </r>
       <r>   13.6462    0.0000 </r>
       <r>   16.3662    0.0000 </r>
      </set>
      <set comment="kpoint 12">
       <r>   -0.1073    1.0000 </r>
       <r>   -0.1008    1.0000 </r>
       <r>    0.1370    1.0000 </r>
       <r>    0.2406    1.0000 </r>
       <r>    0.9276    1.0000 </r>
       <r>    0.9618    1.0000 </r>
       <r>    1.1305    1.0000 </r>
       <r>    1.1473    1.0000 </r>
       <r>    1.3563    1.0000 </r>
       <r>    1.6046    1.0000 </r>
       <r>    5.2584    0.0000 </r>
       <r>    6.0829    0.0000 </r>
       <r>    9.4095    0.0000 </r>
       <r>   12.2438    0.0000 </r>
       <r>   13.2461    0.0000 </r>
       <r>   13.6874    0.0000 </r>
      </set>
      <set comment="kpoint 13">
       <r>   -0.2088    1.0000 </r>
       <r>   -0.2036    1.0000 </r>
       <r>    0.1393    1.0000 </r>
       <r>    0.1973    1.0000 </r>
       <r>    1.0325    1.0000 </r>
       <r>    1.0493    1.0000 </r>
       <r>    1.2707    1.0000 </r>
       <r>    1.3295    1.0000 </r>
       <r>    1.4595    1.0000 </r>
       <r>    1.4804    1.0000 </r>
       <r>    7.4034    0.0000 </r>
       <r>    7.7513    0.0000 </r>
       <r>    9.8876    0.0000 </r>
       <r>   10.6313    0.0000 </r>
       <r>   11.7079    0.0000 </r>
       <r>   12.6816    0.0000 </r>
      </set>
      <set comment="kpoint 14">
       <r>    0.3283    1.0000 </r>
       <r>    0.3375    1.0000 </r>
       <r>    0.3430    1.0000 </r>
       <r>    0.3996    1.0000 </r>
       <r>    0.7568    1.0000 </r>
       <r>    0.7886    1.0000 </r>
       <r>    0.8140    1.0000 </r>
       <r>    0.8190    1.0000 </r>
       <r>    1.2912    1.0000 </r>
       <r>    1.3706    1.0000 </r>
       <r>    7.9328    0.0000 </r>
       <r>    8.8302    0.0000 </r>
       <r>   11.2587    0.0000 </r>
       <r>   11.5826    0.0000 </r>
       <r>   11.8958    0.0000 </r>
       <r>   12.6973    0.0000 </r>
      </set>
      <set comment="kpoint 15">
       <r>   -2.9621    1.0000 </r>
       <r>   -2.5223    1.0000 </r>
       <r>   -0.0085    1.0000 </r>
       <r>    0.8802    1.0000 </r>
       <r>    0.8976    1.0000 </r>
       <r>    0.8976    1.0000 </r>
       <r>    0.8984    1.0000 </r>
       <r>    0.8984    1.0000 </r>
       <r>    1.8076    1.0000 </r>
       <r>    1.8077    1.0000 </r>
       <r>    1.8103    1.0000 </r>
       <r>    1.8103    1.0000 </r>
       <r>    2.4274    1.0000 </r>
       <r>    6.2634    0.0000 </r>
       <r>   11.2428    0.0000 </r>
       <r>   18.1793    0.0000 </r>
      </set>
      <set comment="kpoint 16">
       <r>   -2.5983    1.0000 </r>
       <r>   -2.1701    1.0000 </r>
       <r>    0.1031    1.0000 </r>
       <r>    0.7888    1.0000 </r>
       <r>    0.7912    1.0000 </r>
       <r>    0.9275    1.0000 </r>
       <r>    1.0539    1.0000 </r>
       <r>    1.0547    1.0000 </r>
       <r>    1.3344    1.0000 </r>
       <r>    1.5252    1.0000 </r>
       <r>    1.7758    1.0000 </r>
       <r>    1.7799    1.0000 </r>
       <r>    3.1802    0.6672 </r>
       <r>    6.8213    0.0000 </r>
       <r>   11.4796    0.0000 </r>
       <r>   18.5543    0.0000 </r>
      </set>
      <set comment="kpoint 17">
       <r>   -1.6183    1.0000 </r>
       <r>   -1.2744    1.0000 </r>
       <r>    0.3962    1.0000 </r>
       <r>    0.6181    1.0000 </r>
       <r>    0.6246    1.0000 </r>
       <r>    0.6411    1.0000 </r>
       <r>    0.9633    1.0000 </r>
       <r>    1.3300    1.0000 </r>
       <r>    1.4796    1.0000 </r>
       <r>    1.4804    1.0000 </r>
       <r>    1.6936    1.0000 </r>
       <r>    1.7004    1.0000 </r>
       <r>    4.4994    0.0000 </r>
       <r>    8.2145    0.0000 </r>
       <r>   12.2015    0.0000 </r>
       <r>   19.5099    0.0000 </r>
      </set>
      <set comment="kpoint 18">
       <r>   -0.8170    1.0000 </r>
       <r>   -0.7169    1.0000 </r>
       <r>    0.2247    1.0000 </r>
       <r>    0.4135    1.0000 </r>
       <r>    0.8188    1.0000 </r>
       <r>    0.9231    1.0000 </r>
       <r>    1.2556    1.0000 </r>
       <r>    1.5933    1.0000 </r>
       <r>    1.6027    1.0000 </r>
       <r>    2.0441    1.0000 </r>
       <r>    2.0448    1.0000 </r>
       <r>    2.1483    1.0000 </r>
       <r>    6.2587    0.0000 </r>
       <r>   10.1009    0.0000 </r>
       <r>   13.3023    0.0000 </r>
       <r>   15.6641    0.0000 </r>
      </set>
      <set comment="kpoint 19">
       <r>   -0.8401    1.0000 </r>
       <r>   -0.8195    1.0000 </r>
       <r>   -0.0376    1.0000 </r>
       <r>    0.0697    1.0000 </r>
       <r>    1.1274    1.0000 </r>
       <r>    1.2601    1.0000 </r>
       <r>    1.5132    1.0000 </r>
       <r>    1.5245    1.0000 </r>
       <r>    2.5385    1.0000 </r>
       <r>    2.5388    1.0000 </r>
       <r>    3.3704    0.0000 </r>
       <r>    4.1366    0.0000 </r>
       <r>    8.4794    0.0000 </r>
       <r>   11.3892    0.0000 </r>
       <r>   12.1229    0.0000 </r>
       <r>   12.4856    0.0000 </r>
      </set>
      <set comment="kpoint 20">
       <r>   -0.9104    1.0000 </r>
       <r>   -0.9063    1.0000 </r>
       <r>   -0.1219    1.0000 </r>
       <r>   -0.0565    1.0000 </r>
       <r>    1.2577    1.0000 </r>
       <r>    1.3485    1.0000 </r>
       <r>    1.4826    1.0000 </r>
       <r>    1.4948    1.0000 </r>
       <r>    2.7377    1.0000 </r>
       <r>    2.7379    1.0000 </r>
       <r>    5.2474    0.0000 </r>
       <r>    5.5688    0.0000 </r>
       <r>    9.3347    0.0000 </r>
       <r>    9.9756    0.0000 </r>
       <r>   10.7793    0.0000 </r>
       <r>   11.7454    0.0000 </r>
      </set>
      <set comment="kpoint 21">
       <r>   -1.9095    1.0000 </r>
       <r>   -1.5223    1.0000 </r>
       <r>    0.3091    1.0000 </r>
       <r>    0.5948    1.0000 </r>
       <r>    0.5967    1.0000 </r>
       <r>    0.7713    1.0000 </r>
       <r>    1.1293    1.0000 </r>
       <r>    1.1960    1.0000 </r>
       <r>    1.3842    1.0000 </r>
       <r>    1.4346    1.0000 </r>
       <r>    1.7054    1.0000 </r>
       <r>    1.7093    1.0000 </r>
       <r>    4.1090    0.0000 </r>
       <r>    7.7851    0.0000 </r>
       <r>   11.9625    0.0000 </r>
       <r>   19.2648    0.0000 </r>
      </set>
      <set comment="kpoint 22">
       <r>   -0.8276    1.0000 </r>
       <r>   -0.6172    1.0000 </r>
       <r>    0.3904    1.0000 </r>
       <r>    0.4661    1.0000 </r>
       <r>    0.4751    1.0000 </r>
       <r>    0.5848    1.0000 </r>
       <r>    0.7413    1.0000 </r>
       <r>    1.4327    1.0000 </r>
       <r>    1.5778    1.0000 </r>
       <r>    1.5848    1.0000 </r>
       <r>    2.0334    1.0000 </r>
       <r>    2.2414    1.0000 </r>
       <r>    5.5977    0.0000 </r>
       <r>    9.4091    0.0000 </r>
       <r>   12.9377    0.0000 </r>
       <r>   18.0815    0.0000 </r>
      </set>
      <set comment="kpoint 23">
       <r>   -0.5594    1.0000 </r>
       <r>   -0.5249    1.0000 </r>
       <r>    0.1035    1.0000 </r>
       <r>    0.2457    1.0000 </r>
       <r>    0.9657    1.0000 </r>
       <r>    1.0159    1.0000 </r>
       <r>    1.4460    1.0000 </r>
       <r>    1.4569    1.0000 </r>
       <r>    1.4711    1.0000 </r>
       <r>    1.8394    1.0000 </r>
       <r>    3.1790    0.6793 </r>
       <r>    3.7548    0.0000 </r>
       <r>    7.5840    0.0000 </r>
       <r>   11.4238    0.0000 </r>
       <r>   13.4449    0.0000 </r>
       <r>   14.0479    0.0000 </r>
      </set>
      <set comment="kpoint 24">
       <r>   -0.6962    1.0000 </r>
       <r>   -0.6892    1.0000 </r>
       <r>   -0.0370    1.0000 </r>
       <r>    0.0374    1.0000 </r>
       <r>    1.2295    1.0000 </r>
       <r>    1.3180    1.0000 </r>
       <r>    1.3659    1.0000 </r>
       <r>    1.3777    1.0000 </r>
       <r>    2.1637    1.0000 </r>
       <r>    2.2186    1.0000 </r>
       <r>    5.2399    0.0000 </r>
       <r>    5.8453    0.0000 </r>
       <r>    9.9393    0.0000 </r>
       <r>   10.1584    0.0000 </r>
       <r>   11.0316    0.0000 </r>
       <r>   12.7328    0.0000 </r>
      </set>
      <set comment="kpoint 25">
       <r>    0.1522    1.0000 </r>
       <r>    0.1582    1.0000 </r>
       <r>    0.1664    1.0000 </r>
       <r>    0.1976    1.0000 </r>
       <r>    0.2361    1.0000 </r>
       <r>    0.3722    1.0000 </r>
       <r>    1.0777    1.0000 </r>
       <r>    1.3560    1.0000 </r>
       <r>    1.3671    1.0000 </r>
       <r>    1.5491    1.0000 </r>
       <r>    3.2566    0.0421 </r>
       <r>    3.7957    0.0000 </r>
       <r>    7.2954    0.0000 </r>
       <r>   11.1901    0.0000 </r>
       <r>   14.1190    0.0000 </r>
       <r>   16.3922    0.0000 </r>
      </set>
      <set comment="kpoint 26">
       <r>   -0.1072    1.0000 </r>
       <r>   -0.1011    1.0000 </r>
       <r>    0.1404    1.0000 </r>
       <r>    0.2358    1.0000 </r>
       <r>    0.9289    1.0000 </r>
       <r>    0.9604    1.0000 </r>
       <r>    1.1310    1.0000 </r>
       <r>    1.1467    1.0000 </r>
       <r>    1.3671    1.0000 </r>
       <r>    1.5962    1.0000 </r>
       <r>    5.2791    0.0000 </r>
       <r>    6.0324    0.0000 </r>
       <r>    9.5292    0.0000 </r>
       <r>   12.2465    0.0000 </r>
       <r>   13.0992    0.0000 </r>
       <r>   13.4706    0.0000 </r>
      </set>
      <set comment="kpoint 27">
       <r>   -0.2087    1.0000 </r>
       <r>   -0.2039    1.0000 </r>
       <r>    0.1413    1.0000 </r>
       <r>    0.1948    1.0000 </r>
       <r>    1.0326    1.0000 </r>
       <r>    1.0484    1.0000 </r>
       <r>    1.2751    1.0000 </r>
       <r>    1.3301    1.0000 </r>
       <r>    1.4584    1.0000 </r>
       <r>    1.4785    1.0000 </r>
       <r>    7.4164    0.0000 </r>
       <r>    7.7387    0.0000 </r>
       <r>    9.8803    0.0000 </r>
       <r>   10.5182    0.0000 </r>
       <r>   11.8839    0.0000 </r>
       <r>   12.7588    0.0000 </r>
      </set>
      <set comment="kpoint 28">
       <r>    0.3286    1.0000 </r>
       <r>    0.3359    1.0000 </r>
       <r>    0.3460    1.0000 </r>
       <r>    0.3970    1.0000 </r>
       <r>    0.7571    1.0000 </r>
       <r>    0.7858    1.0000 </r>
       <r>    0.8158    1.0000 </r>
       <r>    0.8197    1.0000 </r>
       <r>    1.2946    1.0000 </r>
       <r>    1.3680    1.0000 </r>
       <r>    7.9565    0.0000 </r>
       <r>    8.7770    0.0000 </r>
       <r>   11.2804    0.0000 </r>
       <r>   11.5897    0.0000 </r>
       <r>   11.9751    0.0000 </r>
       <r>   12.6926    0.0000 </r>
      </set>
      <set comment="kpoint 29">
       <r>   -2.9133    1.0000 </r>
       <r>   -2.5764    1.0000 </r>
       <r>    0.0392    1.0000 </r>
       <r>    0.6451    1.0000 </r>
       <r>    0.8976    1.0000 </r>
       <r>    0.8976    1.0000 </r>
       <r>    0.8983    1.0000 </r>
       <r>    0.8983    1.0000 </r>
       <r>    1.8079    1.0000 </r>
       <r>    1.8079    1.0000 </r>
       <r>    1.8100    1.0000 </r>
       <r>    1.8100    1.0000 </r>
       <r>    2.9103    1.0000 </r>
       <r>    5.6782    0.0000 </r>
       <r>   12.0295    0.0000 </r>
       <r>   16.9201    0.0000 </r>
      </set>
      <set comment="kpoint 30">
       <r>   -2.5502    1.0000 </r>
       <r>   -2.2221    1.0000 </r>
       <r>    0.1476    1.0000 </r>
       <r>    0.7019    1.0000 </r>
       <r>    0.7910    1.0000 </r>
       <r>    0.7912    1.0000 </r>
       <r>    1.0540    1.0000 </r>
       <r>    1.0546    1.0000 </r>
       <r>    1.4261    1.0000 </r>
       <r>    1.5217    1.0000 </r>
       <r>    1.7763    1.0000 </r>
       <r>    1.7794    1.0000 </r>
       <r>    3.5597    0.0000 </r>
       <r>    6.2158    0.0000 </r>
       <r>   12.2958    0.0000 </r>
       <r>   17.2600    0.0000 </r>
      </set>
      <set comment="kpoint 31">
       <r>   -1.5776    1.0000 </r>
       <r>   -1.3138    1.0000 </r>
       <r>    0.4225    1.0000 </r>
       <r>    0.6100    1.0000 </r>
       <r>    0.6234    1.0000 </r>
       <r>    0.6240    1.0000 </r>
       <r>    0.9797    1.0000 </r>
       <r>    1.2389    1.0000 </r>
       <r>    1.4797    1.0000 </r>
       <r>    1.4803    1.0000 </r>
       <r>    1.6944    1.0000 </r>
       <r>    1.6995    1.0000 </r>
       <r>    4.8567    0.0000 </r>
       <r>    7.5407    0.0000 </r>
       <r>   13.0922    0.0000 </r>
       <r>   18.1822    0.0000 </r>
      </set>
      <set comment="kpoint 32">
       <r>   -0.8046    1.0000 </r>
       <r>   -0.7281    1.0000 </r>
       <r>    0.2386    1.0000 </r>
       <r>    0.3757    1.0000 </r>
       <r>    0.8539    1.0000 </r>
       <r>    0.9214    1.0000 </r>
       <r>    1.3271    1.0000 </r>
       <r>    1.5943    1.0000 </r>
       <r>    1.6016    1.0000 </r>
       <r>    2.0035    1.0000 </r>
       <r>    2.0442    1.0000 </r>
       <r>    2.0447    1.0000 </r>
       <r>    6.6066    0.0000 </r>
       <r>    9.3445    0.0000 </r>
       <r>   14.1976    0.0000 </r>
       <r>   15.7281    0.0000 </r>
      </set>
      <set comment="kpoint 33">
       <r>   -0.8378    1.0000 </r>
       <r>   -0.8221    1.0000 </r>
       <r>   -0.0270    1.0000 </r>
       <r>    0.0545    1.0000 </r>
       <r>    1.1478    1.0000 </r>
       <r>    1.2491    1.0000 </r>
       <r>    1.5144    1.0000 </r>
       <r>    1.5232    1.0000 </r>
       <r>    2.5385    1.0000 </r>
       <r>    2.5387    1.0000 </r>
       <r>    3.4368    0.0000 </r>
       <r>    4.0141    0.0000 </r>
       <r>    8.7951    0.0000 </r>
       <r>   11.1057    0.0000 </r>
       <r>   11.8723    0.0000 </r>
       <r>   12.3560    0.0000 </r>
      </set>
      <set comment="kpoint 34">
       <r>   -0.9100    1.0000 </r>
       <r>   -0.9068    1.0000 </r>
       <r>   -0.1152    1.0000 </r>
       <r>   -0.0652    1.0000 </r>
       <r>    1.2707    1.0000 </r>
       <r>    1.3405    1.0000 </r>
       <r>    1.4840    1.0000 </r>
       <r>    1.4934    1.0000 </r>
       <r>    2.7378    1.0000 </r>
       <r>    2.7379    1.0000 </r>
       <r>    5.2783    0.0000 </r>
       <r>    5.5241    0.0000 </r>
       <r>    9.3402    0.0000 </r>
       <r>    9.7449    0.0000 </r>
       <r>   11.1734    0.0000 </r>
       <r>   11.8771    0.0000 </r>
      </set>
      <set comment="kpoint 35">
       <r>   -1.8648    1.0000 </r>
       <r>   -1.5678    1.0000 </r>
       <r>    0.3437    1.0000 </r>
       <r>    0.5950    1.0000 </r>
       <r>    0.5964    1.0000 </r>
       <r>    0.6930    1.0000 </r>
       <r>    1.1325    1.0000 </r>
       <r>    1.1779    1.0000 </r>
       <r>    1.3855    1.0000 </r>
       <r>    1.4158    1.0000 </r>
       <r>    1.7057    1.0000 </r>
       <r>    1.7088    1.0000 </r>
       <r>    4.4691    0.0000 </r>
       <r>    7.1333    0.0000 </r>
       <r>   12.8312    0.0000 </r>
       <r>   17.9084    0.0000 </r>
      </set>
      <set comment="kpoint 36">
       <r>   -0.8013    1.0000 </r>
       <r>   -0.6400    1.0000 </r>
       <r>    0.3995    1.0000 </r>
       <r>    0.4634    1.0000 </r>
       <r>    0.4758    1.0000 </r>
       <r>    0.5324    1.0000 </r>
       <r>    0.8438    1.0000 </r>
       <r>    1.3542    1.0000 </r>
       <r>    1.5786    1.0000 </r>
       <r>    1.5841    1.0000 </r>
       <r>    2.0417    1.0000 </r>
       <r>    2.1834    1.0000 </r>
       <r>    5.9502    0.0000 </r>
       <r>    8.6795    0.0000 </r>
       <r>   13.8784    0.0000 </r>
       <r>   18.0533    0.0000 </r>
      </set>
      <set comment="kpoint 37">
       <r>   -0.5554    1.0000 </r>
       <r>   -0.5290    1.0000 </r>
       <r>    0.1165    1.0000 </r>
       <r>    0.2238    1.0000 </r>
       <r>    0.9780    1.0000 </r>
       <r>    1.0145    1.0000 </r>
       <r>    1.4470    1.0000 </r>
       <r>    1.4556    1.0000 </r>
       <r>    1.5162    1.0000 </r>
       <r>    1.8004    1.0000 </r>
       <r>    3.2191    0.2525 </r>
       <r>    3.6464    0.0000 </r>
       <r>    7.9260    0.0000 </r>
       <r>   10.6394    0.0000 </r>
       <r>   13.6979    0.0000 </r>
       <r>   14.2048    0.0000 </r>
      </set>
      <set comment="kpoint 38">
       <r>   -0.6955    1.0000 </r>
       <r>   -0.6902    1.0000 </r>
       <r>   -0.0294    1.0000 </r>
       <r>    0.0274    1.0000 </r>
       <r>    1.2423    1.0000 </r>
       <r>    1.3100    1.0000 </r>
       <r>    1.3678    1.0000 </r>
       <r>    1.3769    1.0000 </r>
       <r>    2.1695    1.0000 </r>
       <r>    2.2116    1.0000 </r>
       <r>    5.2934    0.0000 </r>
       <r>    5.7507    0.0000 </r>
       <r>   10.0234    0.0000 </r>
       <r>   10.2738    0.0000 </r>
       <r>   11.0313    0.0000 </r>
       <r>   12.5432    0.0000 </r>
      </set>
      <set comment="kpoint 39">
       <r>    0.1531    1.0000 </r>
       <r>    0.1577    1.0000 </r>
       <r>    0.1683    1.0000 </r>
       <r>    0.1894    1.0000 </r>
       <r>    0.2524    1.0000 </r>
       <r>    0.3513    1.0000 </r>
       <r>    1.1399    1.0000 </r>
       <r>    1.3570    1.0000 </r>
       <r>    1.3659    1.0000 </r>
       <r>    1.4997    1.0000 </r>
       <r>    3.2935    0.0028 </r>
       <r>    3.6914    0.0000 </r>
       <r>    7.6452    0.0000 </r>
       <r>   10.4018    0.0000 </r>
       <r>   15.0355    0.0000 </r>
       <r>   16.4672    0.0000 </r>
      </set>
      <set comment="kpoint 40">
       <r>   -0.1067    1.0000 </r>
       <r>   -0.1021    1.0000 </r>
       <r>    0.1501    1.0000 </r>
       <r>    0.2226    1.0000 </r>
       <r>    0.9324    1.0000 </r>
       <r>    0.9565    1.0000 </r>
       <r>    1.1327    1.0000 </r>
       <r>    1.1448    1.0000 </r>
       <r>    1.3972    1.0000 </r>
       <r>    1.5721    1.0000 </r>
       <r>    5.3409    0.0000 </r>
       <r>    5.9032    0.0000 </r>
       <r>    9.8639    0.0000 </r>
       <r>   12.1489    0.0000 </r>
       <r>   12.7150    0.0000 </r>
       <r>   13.1993    0.0000 </r>
      </set>
      <set comment="kpoint 41">
       <r>   -0.2082    1.0000 </r>
       <r>   -0.2046    1.0000 </r>
       <r>    0.1471    1.0000 </r>
       <r>    0.1879    1.0000 </r>
       <r>    1.0332    1.0000 </r>
       <r>    1.0456    1.0000 </r>
       <r>    1.2868    1.0000 </r>
       <r>    1.3303    1.0000 </r>
       <r>    1.4562    1.0000 </r>
       <r>    1.4732    1.0000 </r>
       <r>    7.4537    0.0000 </r>
       <r>    7.7019    0.0000 </r>
       <r>    9.8729    0.0000 </r>
       <r>   10.3048    0.0000 </r>
       <r>   12.2757    0.0000 </r>
       <r>   12.9519    0.0000 </r>
      </set>
      <set comment="kpoint 42">
       <r>    0.3295    1.0000 </r>
       <r>    0.3342    1.0000 </r>
       <r>    0.3521    1.0000 </r>
       <r>    0.3901    1.0000 </r>
       <r>    0.7581    1.0000 </r>
       <r>    0.7795    1.0000 </r>
       <r>    0.8193    1.0000 </r>
       <r>    0.8215    1.0000 </r>
       <r>    1.3041    1.0000 </r>
       <r>    1.3602    1.0000 </r>
       <r>    8.0267    0.0000 </r>
       <r>    8.6402    0.0000 </r>
       <r>   11.3428    0.0000 </r>
       <r>   11.6054    0.0000 </r>
       <r>   12.1228    0.0000 </r>
       <r>   12.6691    0.0000 </r>
      </set>
      <set comment="kpoint 43">
       <r>   -2.8387    1.0000 </r>
       <r>   -2.6563    1.0000 </r>
       <r>    0.1232    1.0000 </r>
       <r>    0.4242    1.0000 </r>
       <r>    0.8977    1.0000 </r>
       <r>    0.8977    1.0000 </r>
       <r>    0.8982    1.0000 </r>
       <r>    0.8982    1.0000 </r>
       <r>    1.8084    1.0000 </r>
       <r>    1.8084    1.0000 </r>
       <r>    1.8094    1.0000 </r>
       <r>    1.8094    1.0000 </r>
       <r>    3.5279    0.0000 </r>
       <r>    4.9601    0.0000 </r>
       <r>   13.0834    0.0000 </r>
       <r>   15.5846    0.0000 </r>
      </set>
      <set comment="kpoint 44">
       <r>   -2.4772    1.0000 </r>
       <r>   -2.2994    1.0000 </r>
       <r>    0.2256    1.0000 </r>
       <r>    0.5021    1.0000 </r>
       <r>    0.7905    1.0000 </r>
       <r>    0.7909    1.0000 </r>
       <r>    1.0542    1.0000 </r>
       <r>    1.0545    1.0000 </r>
       <r>    1.4753    1.0000 </r>
       <r>    1.5144    1.0000 </r>
       <r>    1.7769    1.0000 </r>
       <r>    1.7787    1.0000 </r>
       <r>    4.1094    0.0000 </r>
       <r>    5.4923    0.0000 </r>
       <r>   13.3725    0.0000 </r>
       <r>   15.9054    0.0000 </r>
      </set>
      <set comment="kpoint 45">
       <r>   -1.5167    1.0000 </r>
       <r>   -1.3735    1.0000 </r>
       <r>    0.4646    1.0000 </r>
       <r>    0.5697    1.0000 </r>
       <r>    0.6216    1.0000 </r>
       <r>    0.6231    1.0000 </r>
       <r>    1.0110    1.0000 </r>
       <r>    1.1406    1.0000 </r>
       <r>    1.4799    1.0000 </r>
       <r>    1.4802    1.0000 </r>
       <r>    1.6955    1.0000 </r>
       <r>    1.6984    1.0000 </r>
       <r>    5.3882    0.0000 </r>
       <r>    6.7788    0.0000 </r>
       <r>   14.2189    0.0000 </r>
       <r>   16.8056    0.0000 </r>
      </set>
      <set comment="kpoint 46">
       <r>   -0.7865    1.0000 </r>
       <r>   -0.7451    1.0000 </r>
       <r>    0.2615    1.0000 </r>
       <r>    0.3326    1.0000 </r>
       <r>    0.8852    1.0000 </r>
       <r>    0.9163    1.0000 </r>
       <r>    1.4512    1.0000 </r>
       <r>    1.5961    1.0000 </r>
       <r>    1.6000    1.0000 </r>
       <r>    1.8137    1.0000 </r>
       <r>    2.0443    1.0000 </r>
       <r>    2.0446    1.0000 </r>
       <r>    7.1323    0.0000 </r>
       <r>    8.5421    0.0000 </r>
       <r>   15.1211    0.0000 </r>
       <r>   15.7882    0.0000 </r>
      </set>
      <set comment="kpoint 47">
       <r>   -0.8343    1.0000 </r>
       <r>   -0.8258    1.0000 </r>
       <r>   -0.0105    1.0000 </r>
       <r>    0.0334    1.0000 </r>
       <r>    1.1759    1.0000 </r>
       <r>    1.2305    1.0000 </r>
       <r>    1.5164    1.0000 </r>
       <r>    1.5212    1.0000 </r>
       <r>    2.5385    1.0000 </r>
       <r>    2.5386    1.0000 </r>
       <r>    3.5448    0.0000 </r>
       <r>    3.8528    0.0000 </r>
       <r>    9.2726    0.0000 </r>
       <r>   10.5122    0.0000 </r>
       <r>   11.8863    0.0000 </r>
       <r>   12.1808    0.0000 </r>
      </set>
      <set comment="kpoint 48">
       <r>   -0.9094    1.0000 </r>
       <r>   -0.9077    1.0000 </r>
       <r>   -0.1047    1.0000 </r>
       <r>   -0.0777    1.0000 </r>
       <r>    1.2891    1.0000 </r>
       <r>    1.3271    1.0000 </r>
       <r>    1.4862    1.0000 </r>
       <r>    1.4913    1.0000 </r>
       <r>    2.7378    1.0000 </r>
       <r>    2.7379    1.0000 </r>
       <r>    5.3277    0.0000 </r>
       <r>    5.4607    0.0000 </r>
       <r>    9.3701    0.0000 </r>
       <r>    9.5644    0.0000 </r>
       <r>   11.5757    0.0000 </r>
       <r>   11.9723    0.0000 </r>
      </set>
      <set comment="kpoint 49">
       <r>   -1.7974    1.0000 </r>
       <r>   -1.6362    1.0000 </r>
       <r>    0.4030    1.0000 </r>
       <r>    0.5885    1.0000 </r>
       <r>    0.5953    1.0000 </r>
       <r>    0.5964    1.0000 </r>
       <r>    1.1383    1.0000 </r>
       <r>    1.1602    1.0000 </r>
       <r>    1.3880    1.0000 </r>
       <r>    1.4014    1.0000 </r>
       <r>    1.7065    1.0000 </r>
       <r>    1.7081    1.0000 </r>
       <r>    5.0018    0.0000 </r>
       <r>    6.3843    0.0000 </r>
       <r>   13.9450    0.0000 </r>
       <r>   16.5253    0.0000 </r>
      </set>
      <set comment="kpoint 50">
       <r>   -0.7625    1.0000 </r>
       <r>   -0.6751    1.0000 </r>
       <r>    0.4147    1.0000 </r>
       <r>    0.4544    1.0000 </r>
       <r>    0.4777    1.0000 </r>
       <r>    0.4974    1.0000 </r>
       <r>    0.9648    1.0000 </r>
       <r>    1.2360    1.0000 </r>
       <r>    1.5799    1.0000 </r>
       <r>    1.5829    1.0000 </r>
       <r>    2.0575    1.0000 </r>
       <r>    2.1261    1.0000 </r>
       <r>    6.4796    0.0000 </r>
       <r>    7.8878    0.0000 </r>
       <r>   15.0211    0.0000 </r>
       <r>   17.4523    0.0000 </r>
      </set>
      <set comment="kpoint 51">
       <r>   -0.5495    1.0000 </r>
       <r>   -0.5352    1.0000 </r>
       <r>    0.1372    1.0000 </r>
       <r>    0.1945    1.0000 </r>
       <r>    0.9918    1.0000 </r>
       <r>    1.0106    1.0000 </r>
       <r>    1.4490    1.0000 </r>
       <r>    1.4536    1.0000 </r>
       <r>    1.5839    1.0000 </r>
       <r>    1.7390    1.0000 </r>
       <r>    3.2883    0.0043 </r>
       <r>    3.5130    0.0000 </r>
       <r>    8.4434    0.0000 </r>
       <r>    9.8370    0.0000 </r>
       <r>   13.8692    0.0000 </r>
       <r>   14.1748    0.0000 </r>
      </set>
      <set comment="kpoint 52">
       <r>   -0.6944    1.0000 </r>
       <r>   -0.6915    1.0000 </r>
       <r>   -0.0175    1.0000 </r>
       <r>    0.0132    1.0000 </r>
       <r>    1.2603    1.0000 </r>
       <r>    1.2969    1.0000 </r>
       <r>    1.3703    1.0000 </r>
       <r>    1.3754    1.0000 </r>
       <r>    2.1786    1.0000 </r>
       <r>    2.2014    1.0000 </r>
       <r>    5.3802    0.0000 </r>
       <r>    5.6245    0.0000 </r>
       <r>   10.1249    0.0000 </r>
       <r>   10.3123    0.0000 </r>
       <r>   11.2318    0.0000 </r>
       <r>   12.1405    0.0000 </r>
      </set>
      <set comment="kpoint 53">
       <r>    0.1543    1.0000 </r>
       <r>    0.1568    1.0000 </r>
       <r>    0.1713    1.0000 </r>
       <r>    0.1819    1.0000 </r>
       <r>    0.2732    1.0000 </r>
       <r>    0.3247    1.0000 </r>
       <r>    1.2282    1.0000 </r>
       <r>    1.3581    1.0000 </r>
       <r>    1.3642    1.0000 </r>
       <r>    1.4236    1.0000 </r>
       <r>    3.3573    0.0000 </r>
       <r>    3.5654    0.0000 </r>
       <r>    8.1722    0.0000 </r>
       <r>    9.5875    0.0000 </r>
       <r>   15.9674    0.0000 </r>
       <r>   16.5737    0.0000 </r>
      </set>
      <set comment="kpoint 54">
       <r>   -0.1058    1.0000 </r>
       <r>   -0.1035    1.0000 </r>
       <r>    0.1651    1.0000 </r>
       <r>    0.2041    1.0000 </r>
       <r>    0.9377    1.0000 </r>
       <r>    0.9508    1.0000 </r>
       <r>    1.1354    1.0000 </r>
       <r>    1.1420    1.0000 </r>
       <r>    1.4403    1.0000 </r>
       <r>    1.5347    1.0000 </r>
       <r>    5.4422    0.0000 </r>
       <r>    5.7396    0.0000 </r>
       <r>   10.3624    0.0000 </r>
       <r>   11.6319    0.0000 </r>
       <r>   12.6473    0.0000 </r>
       <r>   12.9763    0.0000 </r>
      </set>
      <set comment="kpoint 55">
       <r>   -0.2075    1.0000 </r>
       <r>   -0.2056    1.0000 </r>
       <r>    0.1558    1.0000 </r>
       <r>    0.1778    1.0000 </r>
       <r>    1.0349    1.0000 </r>
       <r>    1.0418    1.0000 </r>
       <r>    1.3024    1.0000 </r>
       <r>    1.3269    1.0000 </r>
       <r>    1.4557    1.0000 </r>
       <r>    1.4659    1.0000 </r>
       <r>    7.5104    0.0000 </r>
       <r>    7.6455    0.0000 </r>
       <r>    9.8953    0.0000 </r>
       <r>   10.1101    0.0000 </r>
       <r>   12.7222    0.0000 </r>
       <r>   13.1304    0.0000 </r>
      </set>
      <set comment="kpoint 56">
       <r>    0.3307    1.0000 </r>
       <r>    0.3329    1.0000 </r>
       <r>    0.3602    1.0000 </r>
       <r>    0.3804    1.0000 </r>
       <r>    0.7608    1.0000 </r>
       <r>    0.7722    1.0000 </r>
       <r>    0.8222    1.0000 </r>
       <r>    0.8232    1.0000 </r>
       <r>    1.3179    1.0000 </r>
       <r>    1.3482    1.0000 </r>
       <r>    8.1403    0.0000 </r>
       <r>    8.4653    0.0000 </r>
       <r>   11.4352    0.0000 </r>
       <r>   11.5975    0.0000 </r>
       <r>   12.2060    0.0000 </r>
       <r>   12.4667    0.0000 </r>
      </set>
      <set comment="kpoint 57">
       <r>   -2.7486    1.0000 </r>
       <r>   -2.7486    1.0000 </r>
       <r>    0.2497    1.0000 </r>
       <r>    0.2497    1.0000 </r>
       <r>    0.8979    1.0000 </r>
       <r>    0.8979    1.0000 </r>
       <r>    0.8979    1.0000 </r>
       <r>    0.8979    1.0000 </r>
       <r>    1.8088    1.0000 </r>
       <r>    1.8088    1.0000 </r>
       <r>    1.8088    1.0000 </r>
       <r>    1.8088    1.0000 </r>
       <r>    4.2243    0.0000 </r>
       <r>    4.2243    0.0000 </r>
       <r>   14.2885    0.0000 </r>
       <r>   14.2885    0.0000 </r>
      </set>
      <set comment="kpoint 58">
       <r>   -2.3891    1.0000 </r>
       <r>   -2.3891    1.0000 </r>
       <r>    0.3424    1.0000 </r>
       <r>    0.3424    1.0000 </r>
       <r>    0.7906    1.0000 </r>
       <r>    0.7906    1.0000 </r>
       <r>    1.0543    1.0000 </r>
       <r>    1.0543    1.0000 </r>
       <r>    1.5008    1.0000 </r>
       <r>    1.5008    1.0000 </r>
       <r>    1.7778    1.0000 </r>
       <r>    1.7778    1.0000 </r>
       <r>    4.7698    0.0000 </r>
       <r>    4.7698    0.0000 </r>
       <r>   14.5943    0.0000 </r>
       <r>   14.5943    0.0000 </r>
      </set>
      <set comment="kpoint 59">
       <r>   -1.4448    1.0000 </r>
       <r>   -1.4448    1.0000 </r>
       <r>    0.5169    1.0000 </r>
       <r>    0.5169    1.0000 </r>
       <r>    0.6222    1.0000 </r>
       <r>    0.6222    1.0000 </r>
       <r>    1.0629    1.0000 </r>
       <r>    1.0629    1.0000 </r>
       <r>    1.4801    1.0000 </r>
       <r>    1.4801    1.0000 </r>
       <r>    1.6970    1.0000 </r>
       <r>    1.6970    1.0000 </r>
       <r>    6.0433    0.0000 </r>
       <r>    6.0433    0.0000 </r>
       <r>   15.4721    0.0000 </r>
       <r>   15.4721    0.0000 </r>
      </set>
      <set comment="kpoint 60">
       <r>   -0.7655    1.0000 </r>
       <r>   -0.7655    1.0000 </r>
       <r>    0.2934    1.0000 </r>
       <r>    0.2934    1.0000 </r>
       <r>    0.9054    1.0000 </r>
       <r>    0.9054    1.0000 </r>
       <r>    1.5981    1.0000 </r>
       <r>    1.5981    1.0000 </r>
       <r>    1.6198    1.0000 </r>
       <r>    1.6199    1.0000 </r>
       <r>    2.0445    1.0000 </r>
       <r>    2.0445    1.0000 </r>
       <r>    7.7902    0.0000 </r>
       <r>    7.7902    0.0000 </r>
       <r>   15.6775    0.0000 </r>
       <r>   15.6775    0.0000 </r>
      </set>
      <set comment="kpoint 61">
       <r>   -0.8301    1.0000 </r>
       <r>   -0.8301    1.0000 </r>
       <r>    0.0105    1.0000 </r>
       <r>    0.0105    1.0000 </r>
       <r>    1.2051    1.0000 </r>
       <r>    1.2051    1.0000 </r>
       <r>    1.5188    1.0000 </r>
       <r>    1.5188    1.0000 </r>
       <r>    2.5386    1.0000 </r>
       <r>    2.5386    1.0000 </r>
       <r>    3.6882    0.0000 </r>
       <r>    3.6882    0.0000 </r>
       <r>    9.8637    0.0000 </r>
       <r>    9.8637    0.0000 </r>
       <r>   12.0118    0.0000 </r>
       <r>   12.0118    0.0000 </r>
      </set>
      <set comment="kpoint 62">
       <r>   -0.9086    1.0000 </r>
       <r>   -0.9086    1.0000 </r>
       <r>   -0.0916    1.0000 </r>
       <r>   -0.0916    1.0000 </r>
       <r>    1.3091    1.0000 </r>
       <r>    1.3091    1.0000 </r>
       <r>    1.4888    1.0000 </r>
       <r>    1.4888    1.0000 </r>
       <r>    2.7378    1.0000 </r>
       <r>    2.7378    1.0000 </r>
       <r>    5.3913    0.0000 </r>
       <r>    5.3913    0.0000 </r>
       <r>    9.4411    0.0000 </r>
       <r>    9.4411    0.0000 </r>
       <r>   11.8802    0.0000 </r>
       <r>   11.8802    0.0000 </r>
      </set>
      <set comment="kpoint 63">
       <r>   -1.7170    1.0000 </r>
       <r>   -1.7170    1.0000 </r>
       <r>    0.4866    1.0000 </r>
       <r>    0.4866    1.0000 </r>
       <r>    0.5957    1.0000 </r>
       <r>    0.5957    1.0000 </r>
       <r>    1.1472    1.0000 </r>
       <r>    1.1472    1.0000 </r>
       <r>    1.3928    1.0000 </r>
       <r>    1.3928    1.0000 </r>
       <r>    1.7073    1.0000 </r>
       <r>    1.7073    1.0000 </r>
       <r>    5.6550    0.0000 </r>
       <r>    5.6550    0.0000 </r>
       <r>   15.1923    0.0000 </r>
       <r>   15.1923    0.0000 </r>
      </set>
      <set comment="kpoint 64">
       <r>   -0.7181    1.0000 </r>
       <r>   -0.7181    1.0000 </r>
       <r>    0.4351    1.0000 </r>
       <r>    0.4351    1.0000 </r>
       <r>    0.4826    1.0000 </r>
       <r>    0.4826    1.0000 </r>
       <r>    1.0995    1.0000 </r>
       <r>    1.0995    1.0000 </r>
       <r>    1.5814    1.0000 </r>
       <r>    1.5814    1.0000 </r>
       <r>    2.0842    1.0000 </r>
       <r>    2.0843    1.0000 </r>
       <r>    7.1387    0.0000 </r>
       <r>    7.1387    0.0000 </r>
       <r>   16.2527    0.0000 </r>
       <r>   16.2527    0.0000 </r>
      </set>
      <set comment="kpoint 65">
       <r>   -0.5424    1.0000 </r>
       <r>   -0.5424    1.0000 </r>
       <r>    0.1641    1.0000 </r>
       <r>    0.1641    1.0000 </r>
       <r>    1.0031    1.0000 </r>
       <r>    1.0031    1.0000 </r>
       <r>    1.4513    1.0000 </r>
       <r>    1.4513    1.0000 </r>
       <r>    1.6628    1.0000 </r>
       <r>    1.6628    1.0000 </r>
       <r>    3.3879    0.0000 </r>
       <r>    3.3879    0.0000 </r>
       <r>    9.0924    0.0000 </r>
       <r>    9.0924    0.0000 </r>
       <r>   14.0334    0.0000 </r>
       <r>   14.0334    0.0000 </r>
      </set>
      <set comment="kpoint 66">
       <r>   -0.6930    1.0000 </r>
       <r>   -0.6930    1.0000 </r>
       <r>   -0.0026    1.0000 </r>
       <r>   -0.0026    1.0000 </r>
       <r>    1.2796    1.0000 </r>
       <r>    1.2796    1.0000 </r>
       <r>    1.3731    1.0000 </r>
       <r>    1.3731    1.0000 </r>
       <r>    2.1898    1.0000 </r>
       <r>    2.1898    1.0000 </r>
       <r>    5.4944    0.0000 </r>
       <r>    5.4944    0.0000 </r>
       <r>   10.2341    0.0000 </r>
       <r>   10.2341    0.0000 </r>
       <r>   11.6506    0.0000 </r>
       <r>   11.6506    0.0000 </r>
      </set>
      <set comment="kpoint 67">
       <r>    0.1556    1.0000 </r>
       <r>    0.1556    1.0000 </r>
       <r>    0.1758    1.0000 </r>
       <r>    0.1758    1.0000 </r>
       <r>    0.2977    1.0000 </r>
       <r>    0.2977    1.0000 </r>
       <r>    1.3256    1.0000 </r>
       <r>    1.3257    1.0000 </r>
       <r>    1.3636    1.0000 </r>
       <r>    1.3636    1.0000 </r>
       <r>    3.4491    0.0000 </r>
       <r>    3.4491    0.0000 </r>
       <r>    8.8315    0.0000 </r>
       <r>    8.8315    0.0000 </r>
       <r>   16.5610    0.0000 </r>
       <r>   16.5610    0.0000 </r>
      </set>
      <set comment="kpoint 68">
       <r>   -0.1048    1.0000 </r>
       <r>   -0.1048    1.0000 </r>
       <r>    0.1839    1.0000 </r>
       <r>    0.1839    1.0000 </r>
       <r>    0.9441    1.0000 </r>
       <r>    0.9441    1.0000 </r>
       <r>    1.1387    1.0000 </r>
       <r>    1.1387    1.0000 </r>
       <r>    1.4886    1.0000 </r>
       <r>    1.4886    1.0000 </r>
       <r>    5.5787    0.0000 </r>
       <r>    5.5787    0.0000 </r>
       <r>   10.9723    0.0000 </r>
       <r>   10.9723    0.0000 </r>
       <r>   12.7818    0.0000 </r>
       <r>   12.7818    0.0000 </r>
      </set>
      <set comment="kpoint 69">
       <r>   -0.2066    1.0000 </r>
       <r>   -0.2066    1.0000 </r>
       <r>    0.1666    1.0000 </r>
       <r>    0.1666    1.0000 </r>
       <r>    1.0380    1.0000 </r>
       <r>    1.0380    1.0000 </r>
       <r>    1.3171    1.0000 </r>
       <r>    1.3171    1.0000 </r>
       <r>    1.4592    1.0000 </r>
       <r>    1.4593    1.0000 </r>
       <r>    7.5780    0.0000 </r>
       <r>    7.5780    0.0000 </r>
       <r>    9.9713    0.0000 </r>
       <r>    9.9713    0.0000 </r>
       <r>   13.0702    0.0000 </r>
       <r>   13.0702    0.0000 </r>
      </set>
      <set comment="kpoint 70">
       <r>    0.3319    1.0000 </r>
       <r>    0.3319    1.0000 </r>
       <r>    0.3700    1.0000 </r>
       <r>    0.3700    1.0000 </r>
       <r>    0.7656    1.0000 </r>
       <r>    0.7656    1.0000 </r>
       <r>    0.8236    1.0000 </r>
       <r>    0.8236    1.0000 </r>
       <r>    1.3335    1.0000 </r>
       <r>    1.3335    1.0000 </r>
       <r>    8.2908    0.0000 </r>
       <r>    8.2908    0.0000 </r>
       <r>   11.5335    0.0000 </r>
       <r>   11.5335    0.0000 </r>
       <r>   12.3030    0.0000 </r>
       <r>   12.3030    0.0000 </r>
      </set>
     </set>
     <set comment="spin 2">
      <set comment="kpoint 1">
       <r>   -2.8330    1.0000 </r>
       <r>   -2.1848    1.0000 </r>
       <r>    1.5978    1.0000 </r>
       <r>    2.1613    1.0000 </r>
       <r>    2.5241    1.0000 </r>
       <r>    2.5241    1.0000 </r>
       <r>    2.5254    1.0000 </r>
       <r>    2.5254    1.0000 </r>
       <r>    2.8137    1.0000 </r>
       <r>    3.9103    0.0000 </r>
       <r>    3.9103    0.0000 </r>
       <r>    3.9142    0.0000 </r>
       <r>    3.9142    0.0000 </r>
       <r>    6.6531    0.0000 </r>
       <r>   11.2276    0.0000 </r>
       <r>   18.7517    0.0000 </r>
      </set>
      <set comment="kpoint 2">
       <r>   -2.4659    1.0000 </r>
       <r>   -1.8148    1.0000 </r>
       <r>    1.7422    1.0000 </r>
       <r>    2.0985    1.0000 </r>
       <r>    2.3875    1.0000 </r>
       <r>    2.3907    1.0000 </r>
       <r>    2.6962    1.0000 </r>
       <r>    2.6975    1.0000 </r>
       <r>    2.8936    1.0000 </r>
       <r>    3.4736    0.0000 </r>
       <r>    3.8726    0.0000 </r>
       <r>    3.8786    0.0000 </r>
       <r>    4.1945    0.0000 </r>
       <r>    7.3741    0.0000 </r>
       <r>   11.4160    0.0000 </r>
       <r>   19.1906    0.0000 </r>
      </set>
      <set comment="kpoint 3">
       <r>   -1.4322    1.0000 </r>
       <r>   -0.8035    1.0000 </r>
       <r>    1.9227    1.0000 </r>
       <r>    1.9709    1.0000 </r>
       <r>    2.1260    1.0000 </r>
       <r>    2.2661    1.0000 </r>
       <r>    2.7500    1.0000 </r>
       <r>    3.1096    0.9925 </r>
       <r>    3.1675    0.7862 </r>
       <r>    3.1688    0.7751 </r>
       <r>    3.7756    0.0000 </r>
       <r>    3.7857    0.0000 </r>
       <r>    5.0672    0.0000 </r>
       <r>    8.9499    0.0000 </r>
       <r>   12.0020    0.0000 </r>
       <r>   20.4821    0.0000 </r>
      </set>
      <set comment="kpoint 4">
       <r>   -0.1433    1.0000 </r>
       <r>    0.2314    1.0000 </r>
       <r>    1.7084    1.0000 </r>
       <r>    2.0629    1.0000 </r>
       <r>    2.1524    1.0000 </r>
       <r>    2.4071    1.0000 </r>
       <r>    2.7511    1.0000 </r>
       <r>    3.4221    0.0000 </r>
       <r>    3.6578    0.0000 </r>
       <r>    3.6719    0.0000 </r>
       <r>    3.7990    0.0000 </r>
       <r>    3.8002    0.0000 </r>
       <r>    6.5509    0.0000 </r>
       <r>   10.9448    0.0000 </r>
       <r>   12.9511    0.0000 </r>
       <r>   16.0073    0.0000 </r>
      </set>
      <set comment="kpoint 5">
       <r>    0.3024    1.0000 </r>
       <r>    0.3785    1.0000 </r>
       <r>    1.5533    1.0000 </r>
       <r>    1.7667    1.0000 </r>
       <r>    3.0736    0.9997 </r>
       <r>    3.3355    0.0000 </r>
       <r>    3.5637    0.0000 </r>
       <r>    3.5809    0.0000 </r>
       <r>    3.6841    0.0000 </r>
       <r>    4.3598    0.0000 </r>
       <r>    4.3603    0.0000 </r>
       <r>    4.4252    0.0000 </r>
       <r>    8.6168    0.0000 </r>
       <r>   11.9387    0.0000 </r>
       <r>   12.8388    0.0000 </r>
       <r>   12.9090    0.0000 </r>
      </set>
      <set comment="kpoint 6">
       <r>    0.3017    1.0000 </r>
       <r>    0.3176    1.0000 </r>
       <r>    1.5085    1.0000 </r>
       <r>    1.6234    1.0000 </r>
       <r>    3.3230    0.0002 </r>
       <r>    3.4680    0.0000 </r>
       <r>    3.5281    0.0000 </r>
       <r>    3.5465    0.0000 </r>
       <r>    4.5882    0.0000 </r>
       <r>    4.5885    0.0000 </r>
       <r>    5.1978    0.0000 </r>
       <r>    5.5696    0.0000 </r>
       <r>   10.0726    0.0000 </r>
       <r>   10.7221    0.0000 </r>
       <r>   10.9273    0.0000 </r>
       <r>   11.8482    0.0000 </r>
      </set>
      <set comment="kpoint 7">
       <r>   -1.7588    1.0000 </r>
       <r>   -1.1123    1.0000 </r>
       <r>    1.9837    1.0000 </r>
       <r>    2.0037    1.0000 </r>
       <r>    2.1437    1.0000 </r>
       <r>    2.1466    1.0000 </r>
       <r>    2.9530    1.0000 </r>
       <r>    3.0359    1.0000 </r>
       <r>    3.0532    1.0000 </r>
       <r>    3.0594    0.9999 </r>
       <r>    3.7886    0.0000 </r>
       <r>    3.7946    0.0000 </r>
       <r>    4.7848    0.0000 </r>
       <r>    8.4824    0.0000 </r>
       <r>   11.8067    0.0000 </r>
       <r>   20.0402    0.0000 </r>
      </set>
      <set comment="kpoint 8">
       <r>   -0.5008    1.0000 </r>
       <r>    0.0583    1.0000 </r>
       <r>    1.8128    1.0000 </r>
       <r>    1.8459    1.0000 </r>
       <r>    1.9015    1.0000 </r>
       <r>    2.3869    1.0000 </r>
       <r>    2.4634    1.0000 </r>
       <r>    3.2804    0.0082 </r>
       <r>    3.6352    0.0000 </r>
       <r>    3.6457    0.0000 </r>
       <r>    3.7010    0.0000 </r>
       <r>    3.7565    0.0000 </r>
       <r>    5.9855    0.0000 </r>
       <r>   10.2299    0.0000 </r>
       <r>   12.6235    0.0000 </r>
       <r>   18.3833    0.0000 </r>
      </set>
      <set comment="kpoint 9">
       <r>    0.4688    1.0000 </r>
       <r>    0.6370    1.0000 </r>
       <r>    1.6660    1.0000 </r>
       <r>    1.9674    1.0000 </r>
       <r>    2.3067    1.0000 </r>
       <r>    2.5499    1.0000 </r>
       <r>    2.9628    1.0000 </r>
       <r>    3.4773    0.0000 </r>
       <r>    3.4917    0.0000 </r>
       <r>    3.5299    0.0000 </r>
       <r>    4.5441    0.0000 </r>
       <r>    4.8213    0.0000 </r>
       <r>    7.7836    0.0000 </r>
       <r>   12.3330    0.0000 </r>
       <r>   13.4144    0.0000 </r>
[...]
       <r>    14.0850     0.5917    15.3324 </r>
       <r>    14.1711     0.4808    15.3738 </r>
       <r>    14.2571     0.7299    15.4365 </r>
       <r>    14.3431     0.0820    15.4436 </r>
       <r>    14.4291     0.0018    15.4437 </r>
       <r>    14.5152     0.0022    15.4439 </r>
       <r>    14.6012     0.0984    15.4524 </r>
       <r>    14.6872     0.0730    15.4587 </r>
       <r>    14.7732     0.0008    15.4587 </r>
       <r>    14.8593     0.0000    15.4588 </r>
       <r>    14.9453     0.0065    15.4593 </r>
       <r>    15.0313     0.2874    15.4840 </r>
       <r>    15.1173     0.3090    15.5106 </r>
       <r>    15.2034     0.2013    15.5279 </r>
       <r>    15.2894     0.0671    15.5337 </r>
       <r>    15.3754     0.0011    15.5338 </r>
       <r>    15.4614     0.0659    15.5395 </r>
       <r>    15.5475     0.1098    15.5489 </r>
       <r>    15.6335     0.1146    15.5588 </r>
       <r>    15.7195     0.3917    15.5925 </r>
       <r>    15.8055     0.2489    15.6139 </r>
       <r>    15.8916     0.1196    15.6242 </r>
       <r>    15.9776     0.2146    15.6426 </r>
       <r>    16.0636     0.0706    15.6487 </r>
       <r>    16.1496     0.0012    15.6488 </r>
       <r>    16.2356     0.1092    15.6582 </r>
       <r>    16.3217     0.2430    15.6791 </r>
       <r>    16.4077     0.1974    15.6961 </r>
       <r>    16.4937     0.2339    15.7162 </r>
       <r>    16.5797     0.3855    15.7494 </r>
       <r>    16.6658     0.1370    15.7612 </r>
       <r>    16.7518     0.0122    15.7622 </r>
       <r>    16.8378     0.1319    15.7736 </r>
       <r>    16.9238     0.0470    15.7776 </r>
       <r>    17.0099     0.0132    15.7787 </r>
       <r>    17.0959     0.0002    15.7788 </r>
       <r>    17.1819     0.0024    15.7790 </r>
       <r>    17.2679     0.1004    15.7876 </r>
       <r>    17.3540     0.0719    15.7938 </r>
       <r>    17.4400     0.1267    15.8047 </r>
       <r>    17.5260     0.2153    15.8232 </r>
       <r>    17.6120     0.0065    15.8237 </r>
       <r>    17.6981     0.0000    15.8238 </r>
       <r>    17.7841     0.0000    15.8238 </r>
       <r>    17.8701     0.0243    15.8258 </r>
       <r>    17.9561     0.1358    15.8375 </r>
       <r>    18.0422     0.2292    15.8573 </r>
       <r>    18.1282     0.6227    15.9108 </r>
       <r>    18.2142     0.2010    15.9281 </r>
       <r>    18.3002     0.0364    15.9312 </r>
       <r>    18.3863     0.0001    15.9313 </r>
       <r>    18.4723     0.0018    15.9314 </r>
       <r>    18.5583     0.0932    15.9394 </r>
       <r>    18.6443     0.0784    15.9462 </r>
       <r>    18.7304     0.0010    15.9463 </r>
       <r>    18.8164     0.0020    15.9464 </r>
       <r>    18.9024     0.0112    15.9474 </r>
       <r>    18.9884     0.0013    15.9475 </r>
       <r>    19.0745     0.0000    15.9475 </r>
       <r>    19.1605     0.0003    15.9475 </r>
       <r>    19.2465     0.0705    15.9536 </r>
       <r>    19.3325     0.1813    15.9692 </r>
       <r>    19.4186     0.0103    15.9701 </r>
       <r>    19.5046     0.0758    15.9766 </r>
       <r>    19.5906     0.0957    15.9848 </r>
       <r>    19.6766     0.0020    15.9850 </r>
       <r>    19.7627     0.0000    15.9850 </r>
       <r>    19.8487     0.0000    15.9850 </r>
       <r>    19.9347     0.0000    15.9850 </r>
       <r>    20.0207     0.0016    15.9851 </r>
       <r>    20.1068     0.0543    15.9898 </r>
       <r>    20.1928     0.0792    15.9966 </r>
       <r>    20.2788     0.0389    16.0000 </r>
       <r>    20.3648     0.0005    16.0000 </r>
       <r>    20.4509     0.0000    16.0000 </r>
       <r>    20.5369     0.0000    16.0000 </r>
       <r>    20.6229     0.0000    16.0000 </r>
       <r>    20.7089     0.0000    16.0000 </r>
       <r>    20.7949     0.0000    16.0000 </r>
       <r>    20.8810     0.0000    16.0000 </r>
       <r>    20.9670     0.0000    16.0000 </r>
       <r>    21.0530     0.0000    16.0000 </r>
       <r>    21.1390     0.0000    16.0000 </r>
       <r>    21.2251     0.0000    16.0000 </r>
       <r>    21.3111     0.0000    16.0000 </r>
       <r>    21.3971     0.0000    16.0000 </r>
       <r>    21.4831     0.0000    16.0000 </r>
       <r>    21.5692     0.0000    16.0000 </r>
       <r>    21.6552     0.0000    16.0000 </r>
      </set>
      <set comment="spin 2">
       <r>    -4.1522     0.0000     0.0000 </r>
       <r>    -4.0661     0.0000     0.0000 </r>
       <r>    -3.9801     0.0000     0.0000 </r>
       <r>    -3.8941     0.0000     0.0000 </r>
       <r>    -3.8081     0.0000     0.0000 </r>
       <r>    -3.7220     0.0000     0.0000 </r>
       <r>    -3.6360     0.0000     0.0000 </r>
       <r>    -3.5500     0.0000     0.0000 </r>
       <r>    -3.4640     0.0000     0.0000 </r>
       <r>    -3.3779     0.0000     0.0000 </r>
       <r>    -3.2919     0.0000     0.0000 </r>
       <r>    -3.2059     0.0000     0.0000 </r>
       <r>    -3.1199     0.0000     0.0000 </r>
       <r>    -3.0338     0.0000     0.0000 </r>
       <r>    -2.9478     0.0000     0.0000 </r>
       <r>    -2.8618     0.0054     0.0005 </r>
       <r>    -2.7758     0.0403     0.0039 </r>
       <r>    -2.6897     0.0310     0.0066 </r>
       <r>    -2.6037     0.0241     0.0087 </r>
       <r>    -2.5177     0.0318     0.0114 </r>
       <r>    -2.4317     0.2081     0.0293 </r>
       <r>    -2.3456     0.2424     0.0502 </r>
       <r>    -2.2596     0.1818     0.0658 </r>
       <r>    -2.1736     0.1512     0.0788 </r>
       <r>    -2.0876     0.1181     0.0890 </r>
       <r>    -2.0015     0.1401     0.1010 </r>
       <r>    -1.9155     0.1315     0.1123 </r>
       <r>    -1.8295     0.2085     0.1303 </r>
       <r>    -1.7435     0.2516     0.1519 </r>
       <r>    -1.6574     0.2502     0.1734 </r>
       <r>    -1.5714     0.1596     0.1872 </r>
       <r>    -1.4854     0.1230     0.1977 </r>
       <r>    -1.3994     0.3173     0.2250 </r>
       <r>    -1.3134     0.3586     0.2559 </r>
       <r>    -1.2273     0.2790     0.2799 </r>
       <r>    -1.1413     0.3224     0.3076 </r>
       <r>    -1.0553     0.2579     0.3298 </r>
       <r>    -0.9693     0.1466     0.3424 </r>
       <r>    -0.8832     0.1538     0.3556 </r>
       <r>    -0.7972     0.2179     0.3744 </r>
       <r>    -0.7112     0.0647     0.3800 </r>
       <r>    -0.6252     0.0005     0.3800 </r>
       <r>    -0.5391     0.0437     0.3838 </r>
       <r>    -0.4531     0.4832     0.4253 </r>
       <r>    -0.3671     0.4339     0.4627 </r>
       <r>    -0.2811     0.3046     0.4889 </r>
       <r>    -0.1950     0.3066     0.5152 </r>
       <r>    -0.1090     0.5343     0.5612 </r>
       <r>    -0.0230     0.6109     0.6138 </r>
       <r>     0.0630     0.6878     0.6729 </r>
       <r>     0.1491     0.3707     0.7048 </r>
       <r>     0.2351     0.3348     0.7336 </r>
       <r>     0.3211     0.9887     0.8187 </r>
       <r>     0.4071     1.1040     0.9136 </r>
       <r>     0.4932     1.1299     1.0108 </r>
       <r>     0.5792     3.1855     1.2849 </r>
       <r>     0.6652     1.2176     1.3896 </r>
       <r>     0.7512     0.1296     1.4008 </r>
       <r>     0.8373     0.2297     1.4205 </r>
       <r>     0.9233     0.3023     1.4465 </r>
       <r>     1.0093     0.3245     1.4744 </r>
       <r>     1.0953     1.3570     1.5912 </r>
       <r>     1.1814     2.2365     1.7836 </r>
       <r>     1.2674     1.1052     1.8786 </r>
       <r>     1.3534     0.0157     1.8800 </r>
       <r>     1.4394     0.0045     1.8804 </r>
       <r>     1.5255     0.4832     1.9220 </r>
       <r>     1.6115     2.9082     2.1721 </r>
       <r>     1.6975     3.7537     2.4950 </r>
       <r>     1.7835     3.7065     2.8139 </r>
       <r>     1.8696     5.4587     3.2835 </r>
       <r>     1.9556     5.0267     3.7159 </r>
       <r>     2.0416     4.0164     4.0614 </r>
       <r>     2.1276     3.1837     4.3353 </r>
       <r>     2.2137     3.5450     4.6402 </r>
       <r>     2.2997     2.7443     4.8763 </r>
       <r>     2.3857     3.1400     5.1464 </r>
       <r>     2.4717     2.0379     5.3217 </r>
       <r>     2.5578     1.8465     5.4806 </r>
       <r>     2.6438     1.5320     5.6124 </r>
       <r>     2.7298     2.3767     5.8168 </r>
       <r>     2.8158     2.1854     6.0048 </r>
       <r>     2.9018     1.1656     6.1051 </r>
       <r>     2.9879     2.9205     6.3563 </r>
       <r>     3.0739     4.3593     6.7313 </r>
       <r>     3.1599     4.2680     7.0985 </r>
       <r>     3.2459     2.3749     7.3028 </r>
       <r>     3.3320     3.6590     7.6175 </r>
       <r>     3.4180     7.1956     8.2365 </r>
       <r>     3.5040     7.0854     8.8461 </r>
       <r>     3.5900     5.2502     9.2977 </r>
       <r>     3.6761     4.6669     9.6992 </r>
       <r>     3.7621     4.8809    10.1191 </r>
       <r>     3.8481     4.0259    10.4654 </r>
       <r>     3.9341     1.7186    10.6132 </r>
       <r>     4.0202     0.2747    10.6369 </r>
       <r>     4.1062     0.1310    10.6481 </r>
       <r>     4.1922     0.0964    10.6564 </r>
       <r>     4.2782     0.3178    10.6838 </r>
       <r>     4.3643     0.8925    10.7605 </r>
       <r>     4.4503     0.8870    10.8368 </r>
       <r>     4.5363     0.4887    10.8789 </r>
       <r>     4.6223     1.6786    11.0233 </r>
       <r>     4.7084     1.1711    11.1240 </r>
       <r>     4.7944     0.9317    11.2042 </r>
       <r>     4.8804     0.7476    11.2685 </r>
       <r>     4.9664     0.3472    11.2983 </r>
       <r>     5.0525     0.1205    11.3087 </r>
       <r>     5.1385     0.1082    11.3180 </r>
       <r>     5.2245     0.4150    11.3537 </r>
       <r>     5.3105     0.2814    11.3779 </r>
       <r>     5.3966     0.2139    11.3963 </r>
       <r>     5.4826     0.1737    11.4112 </r>
       <r>     5.5686     0.2459    11.4324 </r>
       <r>     5.6546     0.1769    11.4476 </r>
       <r>     5.7407     0.0468    11.4517 </r>
       <r>     5.8267     0.3176    11.4790 </r>
       <r>     5.9127     0.7136    11.5404 </r>
       <r>     5.9987     0.7652    11.6062 </r>
       <r>     6.0848     0.5140    11.6504 </r>
       <r>     6.1708     1.0034    11.7367 </r>
       <r>     6.2568     0.9842    11.8214 </r>
       <r>     6.3428     0.7328    11.8844 </r>
       <r>     6.4289     0.4864    11.9263 </r>
       <r>     6.5149     0.4612    11.9659 </r>
       <r>     6.6009     0.5241    12.0110 </r>
       <r>     6.6869     0.4684    12.0513 </r>
       <r>     6.7730     0.2872    12.0760 </r>
       <r>     6.8590     0.4018    12.1106 </r>
       <r>     6.9450     0.3052    12.1368 </r>
       <r>     7.0310     0.3217    12.1645 </r>
       <r>     7.1171     0.1096    12.1739 </r>
       <r>     7.2031     0.1334    12.1854 </r>
       <r>     7.2891     0.1384    12.1973 </r>
       <r>     7.3751     0.0756    12.2038 </r>
       <r>     7.4611     0.0478    12.2079 </r>
       <r>     7.5472     0.2392    12.2285 </r>
       <r>     7.6332     0.5320    12.2743 </r>
       <r>     7.7192     0.1816    12.2899 </r>
       <r>     7.8052     0.1340    12.3014 </r>
       <r>     7.8913     0.3643    12.3328 </r>
       <r>     7.9773     0.6549    12.3891 </r>
       <r>     8.0633     0.4658    12.4292 </r>
       <r>     8.1493     0.2878    12.4539 </r>
       <r>     8.2354     0.6977    12.5139 </r>
       <r>     8.3214     0.5260    12.5592 </r>
       <r>     8.4074     0.1834    12.5750 </r>
       <r>     8.4934     0.1640    12.5891 </r>
       <r>     8.5795     0.4323    12.6263 </r>
       <r>     8.6655     0.3540    12.6567 </r>
       <r>     8.7515     0.4182    12.6927 </r>
       <r>     8.8375     0.3642    12.7240 </r>
       <r>     8.9236     0.1986    12.7411 </r>
       <r>     9.0096     0.2624    12.7637 </r>
       <r>     9.0956     0.3672    12.7953 </r>
       <r>     9.1816     0.3545    12.8258 </r>
       <r>     9.2677     0.2221    12.8449 </r>
       <r>     9.3537     0.1447    12.8573 </r>
       <r>     9.4397     0.3682    12.8890 </r>
       <r>     9.5257     0.1835    12.9048 </r>
       <r>     9.6118     0.1017    12.9135 </r>
       <r>     9.6978     0.1645    12.9277 </r>
       <r>     9.7838     0.3341    12.9564 </r>
       <r>     9.8698     0.4340    12.9938 </r>
       <r>     9.9559     0.1988    13.0109 </r>
       <r>    10.0419     0.1479    13.0236 </r>
       <r>    10.1279     0.7174    13.0853 </r>
       <r>    10.2139     1.0007    13.1714 </r>
       <r>    10.3000     0.2707    13.1947 </r>
       <r>    10.3860     0.3043    13.2208 </r>
       <r>    10.4720     0.1855    13.2368 </r>
       <r>    10.5580     0.7747    13.3034 </r>
       <r>    10.6441     0.7348    13.3667 </r>
       <r>    10.7301     0.6051    13.4187 </r>
       <r>    10.8161     1.3068    13.5311 </r>
       <r>    10.9021     0.4692    13.5715 </r>
       <r>    10.9882     0.4094    13.6067 </r>
       <r>    11.0742     0.1690    13.6212 </r>
       <r>    11.1602     0.1267    13.6321 </r>
       <r>    11.2462     0.2736    13.6557 </r>
       <r>    11.3323     0.2736    13.6792 </r>
       <r>    11.4183     0.1243    13.6899 </r>
       <r>    11.5043     0.2084    13.7078 </r>
       <r>    11.5903     0.2416    13.7286 </r>
       <r>    11.6764     0.9010    13.8061 </r>
       <r>    11.7624     0.8938    13.8830 </r>
       <r>    11.8484     0.6574    13.9396 </r>
       <r>    11.9344     0.7044    14.0002 </r>
       <r>    12.0204     0.9432    14.0813 </r>
       <r>    12.1065     0.6970    14.1413 </r>
       <r>    12.1925     0.5277    14.1867 </r>
       <r>    12.2785     0.2533    14.2084 </r>
       <r>    12.3645     0.3123    14.2353 </r>
       <r>    12.4506     0.7379    14.2988 </r>
       <r>    12.5366     0.6878    14.3580 </r>
       <r>    12.6226     0.6904    14.4173 </r>
       <r>    12.7086     0.6721    14.4752 </r>
       <r>    12.7947     0.4959    14.5178 </r>
       <r>    12.8807     0.5135    14.5620 </r>
       <r>    12.9667     0.7422    14.6258 </r>
       <r>    13.0527     0.9269    14.7056 </r>
       <r>    13.1388     0.9907    14.7908 </r>
       <r>    13.2248     0.5658    14.8395 </r>
       <r>    13.3108     0.6000    14.8911 </r>
       <r>    13.3968     0.4028    14.9257 </r>
       <r>    13.4829     0.6844    14.9846 </r>
       <r>    13.5689     0.4423    15.0227 </r>
       <r>    13.6549     0.1567    15.0361 </r>
       <r>    13.7409     0.4767    15.0771 </r>
       <r>    13.8270     0.3045    15.1033 </r>
       <r>    13.9130     0.1294    15.1145 </r>
       <r>    13.9990     0.3148    15.1415 </r>
       <r>    14.0850     0.3771    15.1740 </r>
       <r>    14.1711     0.5127    15.2181 </r>
       <r>    14.2571     0.3101    15.2448 </r>
       <r>    14.3431     0.5632    15.2932 </r>
       <r>    14.4291     0.6512    15.3492 </r>
       <r>    14.5152     0.3515    15.3795 </r>
       <r>    14.6012     0.3215    15.4071 </r>
       <r>    14.6872     0.4257    15.4437 </r>
       <r>    14.7732     0.1445    15.4562 </r>
       <r>    14.8593     0.0299    15.4587 </r>
       <r>    14.9453     0.0001    15.4587 </r>
       <r>    15.0313     0.0000    15.4588 </r>
       <r>    15.1173     0.0070    15.4594 </r>
       <r>    15.2034     0.2428    15.4802 </r>
       <r>    15.2894     0.2699    15.5035 </r>
       <r>    15.3754     0.2114    15.5216 </r>
       <r>    15.4614     0.1372    15.5335 </r>
       <r>    15.5475     0.0064    15.5340 </r>
       <r>    15.6335     0.1074    15.5432 </r>
       <r>    15.7195     0.0877    15.5508 </r>
       <r>    15.8055     0.0053    15.5512 </r>
       <r>    15.8916     0.0001    15.5513 </r>
       <r>    15.9776     0.0572    15.5562 </r>
       <r>    16.0636     0.4571    15.5955 </r>
       <r>    16.1496     0.2997    15.6213 </r>
       <r>    16.2356     0.1697    15.6359 </r>
       <r>    16.3217     0.1387    15.6478 </r>
       <r>    16.4077     0.1020    15.6566 </r>
       <r>    16.4937     0.2450    15.6777 </r>
       <r>    16.5797     0.0310    15.6803 </r>
       <r>    16.6658     0.3044    15.7065 </r>
       <r>    16.7518     0.2444    15.7275 </r>
       <r>    16.8378     0.1250    15.7383 </r>
       <r>    16.9238     0.2368    15.7587 </r>
       <r>    17.0099     0.2248    15.7780 </r>
       <r>    17.0959     0.0087    15.7787 </r>
       <r>    17.1819     0.0000    15.7788 </r>
       <r>    17.2679     0.0106    15.7797 </r>
       <r>    17.3540     0.1310    15.7909 </r>
       <r>    17.4400     0.0327    15.7937 </r>
       <r>    17.5260     0.0001    15.7938 </r>
       <r>    17.6120     0.0099    15.7946 </r>
       <r>    17.6981     0.2347    15.8148 </r>
       <r>    17.7841     0.1036    15.8237 </r>
       <r>    17.8701     0.0006    15.8238 </r>
       <r>    17.9561     0.0221    15.8257 </r>
       <r>    18.0422     0.1352    15.8373 </r>
       <r>    18.1282     0.0244    15.8394 </r>
       <r>    18.2142     0.0228    15.8413 </r>
       <r>    18.3002     0.1047    15.8504 </r>
       <r>    18.3863     0.4541    15.8894 </r>
       <r>    18.4723     0.4784    15.9306 </r>
       <r>    18.5583     0.1171    15.9406 </r>
       <r>    18.6443     0.0646    15.9462 </r>
       <r>    18.7304     0.0045    15.9466 </r>
       <r>    18.8164     0.0101    15.9475 </r>
       <r>    18.9024     0.0005    15.9475 </r>
       <r>    18.9884     0.0000    15.9475 </r>
       <r>    19.0745     0.0000    15.9475 </r>
       <r>    19.1605     0.0172    15.9490 </r>
       <r>    19.2465     0.0790    15.9558 </r>
       <r>    19.3325     0.1389    15.9677 </r>
       <r>    19.4186     0.0265    15.9700 </r>
       <r>    19.5046     0.0004    15.9700 </r>
       <r>    19.5906     0.0575    15.9750 </r>
       <r>    19.6766     0.1125    15.9847 </r>
       <r>    19.7627     0.0040    15.9850 </r>
       <r>    19.8487     0.0000    15.9850 </r>
       <r>    19.9347     0.0001    15.9850 </r>
       <r>    20.0207     0.0252    15.9872 </r>
       <r>    20.1068     0.0592    15.9923 </r>
       <r>    20.1928     0.0026    15.9925 </r>
       <r>    20.2788     0.0000    15.9925 </r>
       <r>    20.3648     0.0000    15.9925 </r>
       <r>    20.4509     0.0164    15.9939 </r>
       <r>    20.5369     0.0655    15.9995 </r>
       <r>    20.6229     0.0053    16.0000 </r>
       <r>    20.7089     0.0000    16.0000 </r>
       <r>    20.7949     0.0000    16.0000 </r>
       <r>    20.8810     0.0000    16.0000 </r>
       <r>    20.9670     0.0000    16.0000 </r>
       <r>    21.0530     0.0000    16.0000 </r>
       <r>    21.1390     0.0000    16.0000 </r>
       <r>    21.2251     0.0000    16.0000 </r>
       <r>    21.3111     0.0000    16.0000 </r>
       <r>    21.3971     0.0000    16.0000 </r>
       <r>    21.4831     0.0000    16.0000 </r>
       <r>    21.5692     0.0000    16.0000 </r>
       <r>    21.6552     0.0000    16.0000 </r>
      </set>
     </set>
    </array>
   </total>
  </dos>
 </calculation>
 <structure name="finalpos" >
  <crystal>
   <varray name="basis" >
    <v>       2.47000000       0.00000000       0.00000000 </v>
    <v>      -1.23500000       2.13908275       0.00000000 </v>
    <v>       0.00000000       0.00000000       8.09000000 </v>
   </varray>
   <i name="volume">     42.74379318 </i>
   <varray name="rec_basis" >
    <v>       0.40485830       0.23374505       0.00000000 </v>
    <v>       0.00000000       0.46749010       0.00000000 </v>
    <v>       0.00000000       0.00000000       0.12360939 </v>
   </varray>
  </crystal>
  <varray name="positions" >
   <v>       0.00000000       0.00000000       0.00000000 </v>
   <v>       0.33333333       0.66666667       0.50000000 </v>
  </varray>
 </structure>
</modeling>
