<?xml version="1.0" encoding="ISO-8859-1"?>
<modeling>
 <generator>
  <i name="program" type="string">vasp </i>
  <i name="version" type="string">6.3.2  </i>
  <i name="subversion" type="string">27Jun22 (build Aug 12 2022 00:53:59) complex                          parallel </i>
  <i name="platform" type="string">tv2STD </i>
  <i name="date" type="string">2024 12 02 </i>
  <i name="time" type="string">16:51:53 </i>
 </generator>
 <incar>
  <i type="string" name="SYSTEM">Co-hcc</i>
  <i type="int" name="ISTART">     0</i>
  <i type="string" name="PREC">Accurate      normal | accurate</i>
  <i type="string" name="ALGO">Normal     Normal, Fast, Very_Fast</i>
  <i type="logical" name="ADDGRID"> F  </i>
  <i type="int" name="ISPIN">     2</i>
  <i type="int" name="ICHARG">     2</i>
  <i type="int" name="INIWAV">     1</i>
  <i type="int" name="NELM">   100</i>
  <i type="int" name="IBRION">    -1</i>
  <i name="EDIFF">      0.00000100</i>
  <i name="EDIFFG">     -0.02000000</i>
  <i type="int" name="NSW">     0</i>
  <i type="int" name="ISIF">     2</i>
  <i type="int" name="ISYM">     1</i>
  <i name="ENCUT">    425.00000000</i>
  <v name="MAGMOM">      3.00000000      3.00000000</v>
  <i type="logical" name="LREAL"> F  </i>
  <i type="int" name="ISMEAR">     0</i>
  <i name="SIGMA">      0.05000000</i>
  <i type="int" name="NWRITE">     2</i>
  <i type="logical" name="LWAVE"> F  </i>
  <i type="logical" name="LCHARG"> F  </i>
  <i type="int" name="LORBIT">    11</i>
 </incar>
 <primitive_cell>
  <structure name="primitive_cell" >
   <crystal>
    <varray name="basis" >
     <v>       1.23599995      -2.14081471       0.00000000 </v>
     <v>       1.23599995       2.14081471       0.00000000 </v>
     <v>       0.00000000       0.00000000       4.02114408 </v>
    </varray>
    <i name="volume">     21.28027152 </i>
    <varray name="rec_basis" >
     <v>       0.40453076      -0.23355594       0.00000000 </v>
     <v>       0.40453076       0.23355594       0.00000000 </v>
     <v>       0.00000000       0.00000000       0.24868544 </v>
    </varray>
   </crystal>
   <varray name="positions" >
    <v>       0.33333333       0.66666667       0.25000000 </v>
    <v>       0.66666667       0.33333333       0.75000000 </v>
   </varray>
  </structure>
  <varray name="primitive_index" >
   <v type="int" >        1 </v>
   <v type="int" >        2 </v>
  </varray>
 </primitive_cell>
 <kpoints>
  <generation param="Gamma">
   <v type="int" name="divisions">      10       10        8 </v>
   <v name="usershift">      0.00000000       0.00000000       0.00000000 </v>
   <v name="genvec1">      0.10000000       0.00000000       0.00000000 </v>
   <v name="genvec2">      0.00000000       0.10000000       0.00000000 </v>
   <v name="genvec3">      0.00000000       0.00000000       0.12500000 </v>
   <v name="shift">      0.00000000       0.00000000       0.00000000 </v>
  </generation>
  <varray name="kpointlist" >
   <v>       0.00000000       0.00000000       0.00000000 </v>
   <v>       0.10000000      -0.00000000       0.00000000 </v>
   <v>       0.20000000      -0.00000000       0.00000000 </v>
   <v>       0.30000000       0.00000000       0.00000000 </v>
   <v>       0.40000000       0.00000000       0.00000000 </v>
   <v>       0.50000000       0.00000000       0.00000000 </v>
   <v>       0.10000000       0.10000000       0.00000000 </v>
   <v>       0.20000000       0.10000000       0.00000000 </v>
   <v>       0.30000000       0.10000000       0.00000000 </v>
   <v>       0.40000000       0.10000000       0.00000000 </v>
   <v>       0.20000000       0.20000000       0.00000000 </v>
   <v>       0.30000000       0.20000000       0.00000000 </v>
   <v>       0.40000000       0.20000000       0.00000000 </v>
   <v>       0.30000000       0.30000000       0.00000000 </v>
   <v>       0.00000000       0.00000000       0.12500000 </v>
   <v>       0.10000000      -0.00000000       0.12500000 </v>
   <v>       0.20000000      -0.00000000       0.12500000 </v>
   <v>       0.30000000       0.00000000       0.12500000 </v>
   <v>       0.40000000       0.00000000       0.12500000 </v>
   <v>       0.50000000       0.00000000       0.12500000 </v>
   <v>       0.10000000       0.10000000       0.12500000 </v>
   <v>       0.20000000       0.10000000       0.12500000 </v>
   <v>       0.30000000       0.10000000       0.12500000 </v>
   <v>       0.40000000       0.10000000       0.12500000 </v>
   <v>       0.20000000       0.20000000       0.12500000 </v>
   <v>       0.30000000       0.20000000       0.12500000 </v>
   <v>       0.40000000       0.20000000       0.12500000 </v>
   <v>       0.30000000       0.30000000       0.12500000 </v>
   <v>       0.00000000       0.00000000       0.25000000 </v>
   <v>       0.10000000      -0.00000000       0.25000000 </v>
   <v>       0.20000000      -0.00000000       0.25000000 </v>
   <v>       0.30000000       0.00000000       0.25000000 </v>
   <v>       0.40000000       0.00000000       0.25000000 </v>
   <v>       0.50000000       0.00000000       0.25000000 </v>
   <v>       0.10000000       0.10000000       0.25000000 </v>
   <v>       0.20000000       0.10000000       0.25000000 </v>
   <v>       0.30000000       0.10000000       0.25000000 </v>
   <v>       0.40000000       0.10000000       0.25000000 </v>
   <v>       0.20000000       0.20000000       0.25000000 </v>
   <v>       0.30000000       0.20000000       0.25000000 </v>
   <v>       0.40000000       0.20000000       0.25000000 </v>
   <v>       0.30000000       0.30000000       0.25000000 </v>
   <v>       0.00000000       0.00000000       0.37500000 </v>
   <v>       0.10000000      -0.00000000       0.37500000 </v>
   <v>       0.20000000      -0.00000000       0.37500000 </v>
   <v>       0.30000000       0.00000000       0.37500000 </v>
   <v>       0.40000000       0.00000000       0.37500000 </v>
   <v>       0.50000000       0.00000000       0.37500000 </v>
   <v>       0.10000000       0.10000000       0.37500000 </v>
   <v>       0.20000000       0.10000000       0.37500000 </v>
   <v>       0.30000000       0.10000000       0.37500000 </v>
   <v>       0.40000000       0.10000000       0.37500000 </v>
   <v>       0.20000000       0.20000000       0.37500000 </v>
   <v>       0.30000000       0.20000000       0.37500000 </v>
   <v>       0.40000000       0.20000000       0.37500000 </v>
   <v>       0.30000000       0.30000000       0.37500000 </v>
   <v>       0.00000000       0.00000000       0.50000000 </v>
   <v>       0.10000000      -0.00000000       0.50000000 </v>
   <v>       0.20000000      -0.00000000       0.50000000 </v>
   <v>       0.30000000       0.00000000       0.50000000 </v>
   <v>       0.40000000       0.00000000       0.50000000 </v>
   <v>       0.50000000       0.00000000       0.50000000 </v>
   <v>       0.10000000       0.10000000       0.50000000 </v>
   <v>       0.20000000       0.10000000       0.50000000 </v>
   <v>       0.30000000       0.10000000       0.50000000 </v>
   <v>       0.40000000       0.10000000       0.50000000 </v>
   <v>       0.20000000       0.20000000       0.50000000 </v>
   <v>       0.30000000       0.20000000       0.50000000 </v>
   <v>       0.40000000       0.20000000       0.50000000 </v>
   <v>       0.30000000       0.30000000       0.50000000 </v>
  </varray>
  <varray name="weights" >
   <v>       0.00125000 </v>
   <v>       0.00750000 </v>
   <v>       0.00750000 </v>
   <v>       0.00750000 </v>
   <v>       0.00750000 </v>
   <v>       0.00375000 </v>
   <v>       0.00750000 </v>
   <v>       0.01500000 </v>
   <v>       0.01500000 </v>
   <v>       0.01500000 </v>
   <v>       0.00750000 </v>
   <v>       0.01500000 </v>
   <v>       0.00750000 </v>
   <v>       0.00750000 </v>
   <v>       0.00250000 </v>
   <v>       0.01500000 </v>
   <v>       0.01500000 </v>
   <v>       0.01500000 </v>
   <v>       0.01500000 </v>
   <v>       0.00750000 </v>
   <v>       0.01500000 </v>
   <v>       0.03000000 </v>
   <v>       0.03000000 </v>
   <v>       0.03000000 </v>
   <v>       0.01500000 </v>
   <v>       0.03000000 </v>
   <v>       0.01500000 </v>
   <v>       0.01500000 </v>
   <v>       0.00250000 </v>
   <v>       0.01500000 </v>
   <v>       0.01500000 </v>
   <v>       0.01500000 </v>
   <v>       0.01500000 </v>
   <v>       0.00750000 </v>
   <v>       0.01500000 </v>
   <v>       0.03000000 </v>
   <v>       0.03000000 </v>
   <v>       0.03000000 </v>
   <v>       0.01500000 </v>
   <v>       0.03000000 </v>
   <v>       0.01500000 </v>
   <v>       0.01500000 </v>
   <v>       0.00250000 </v>
   <v>       0.01500000 </v>
   <v>       0.01500000 </v>
   <v>       0.01500000 </v>
   <v>       0.01500000 </v>
   <v>       0.00750000 </v>
   <v>       0.01500000 </v>
   <v>       0.03000000 </v>
   <v>       0.03000000 </v>
   <v>       0.03000000 </v>
   <v>       0.01500000 </v>
   <v>       0.03000000 </v>
   <v>       0.01500000 </v>
   <v>       0.01500000 </v>
   <v>       0.00125000 </v>
   <v>       0.00750000 </v>
   <v>       0.00750000 </v>
   <v>       0.00750000 </v>
   <v>       0.00750000 </v>
   <v>       0.00375000 </v>
   <v>       0.00750000 </v>
   <v>       0.01500000 </v>
   <v>       0.01500000 </v>
   <v>       0.01500000 </v>
   <v>       0.00750000 </v>
   <v>       0.01500000 </v>
   <v>       0.00750000 </v>
   <v>       0.00750000 </v>
  </varray>
 </kpoints>
 <parameters>
  <separator name="general" >
   <i type="string" name="SYSTEM">Co-hcc</i>
   <i type="logical" name="LCOMPAT"> F  </i>
  </separator>
  <separator name="electronic" >
   <i type="string" name="PREC">accura</i>
   <i name="ENMAX">    425.00000000</i>
   <i name="ENAUG">    477.81800000</i>
   <i name="EDIFF">      0.00000100</i>
   <i type="int" name="IALGO">    38</i>
   <i type="int" name="IWAVPR">    10</i>
   <i type="int" name="NBANDS">    16</i>
   <i type="int" name="NBANDSLOW">    -1</i>
   <i type="int" name="NBANDSHIGH">    -1</i>
   <i name="NELECT">     18.00000000</i>
   <i type="int" name="TURBO">     0</i>
   <i type="int" name="IRESTART">     0</i>
   <i type="int" name="NREBOOT">     0</i>
   <i type="int" name="NMIN">     0</i>
   <i name="EREF">      0.00000000</i>
   <separator name="electronic smearing" >
    <i type="int" name="ISMEAR">     0</i>
    <i name="SIGMA">      0.05000000</i>
    <i name="KSPACING">      0.50000000</i>
    <i type="logical" name="KGAMMA"> T  </i>
    <i type="logical" name="KBLOWUP"> T  </i>
   </separator>
   <separator name="electronic projectors" >
    <i type="logical" name="LREAL"> F  </i>
    <v name="ROPT">      0.00000000</v>
    <i type="int" name="LMAXPAW">  -100</i>
    <i type="int" name="LMAXMIX">     2</i>
    <i type="logical" name="NLSPLINE"> F  </i>
   </separator>
   <separator name="electronic startup" >
    <i type="int" name="ISTART">     0</i>
    <i type="int" name="ICHARG">     2</i>
    <i type="int" name="INIWAV">     1</i>
   </separator>
   <separator name="electronic spin" >
    <i type="int" name="ISPIN">     2</i>
    <i type="logical" name="LNONCOLLINEAR"> F  </i>
    <v name="MAGMOM">      3.00000000      3.00000000</v>
    <i name="NUPDOWN">     -1.00000000</i>
    <i type="logical" name="LSORBIT"> F  </i>
    <v name="SAXIS">      0.00000000      0.00000000      1.00000000</v>
    <i type="logical" name="LSPIRAL"> F  </i>
    <v name="QSPIRAL">      0.00000000      0.00000000      0.00000000</v>
    <i type="logical" name="LZEROZ"> F  </i>
   </separator>
   <separator name="electronic exchange-correlation" >
    <i type="logical" name="LASPH"> F  </i>
    <i type="logical" name="LMETAGGA"> F  </i>
   </separator>
   <separator name="electronic convergence" >
    <i type="int" name="NELM">   100</i>
    <i type="int" name="NELMDL">    -5</i>
    <i type="int" name="NELMIN">     2</i>
    <i name="ENINI">    425.00000000</i>
    <separator name="electronic convergence detail" >
     <i type="logical" name="LDIAG"> T  </i>
     <i type="logical" name="LSUBROT"> F  </i>
     <i name="WEIMIN">      0.00000000</i>
     <i name="EBREAK">      0.00000002</i>
     <i name="DEPER">      0.30000000</i>
     <i type="int" name="NRMM">     4</i>
     <i name="TIME">      0.40000000</i>
    </separator>
   </separator>
   <separator name="electronic mixer" >
    <i name="AMIX">      0.40000000</i>
    <i name="BMIX">      1.00000000</i>
    <i name="AMIN">      0.10000000</i>
    <i name="AMIX_MAG">      1.60000000</i>
    <i name="BMIX_MAG">      1.00000000</i>
    <separator name="electronic mixer details" >
     <i type="int" name="IMIX">     4</i>
     <i type="logical" name="MIXFIRST"> F  </i>
     <i type="int" name="MAXMIX">   -45</i>
     <i name="WC">    100.00000000</i>
     <i type="int" name="INIMIX">     1</i>
     <i type="int" name="MIXPRE">     1</i>
     <i type="int" name="MREMOVE">     5</i>
    </separator>
   </separator>
   <separator name="electronic dipolcorrection" >
    <i type="logical" name="LDIPOL"> F  </i>
    <i type="logical" name="LMONO"> F  </i>
    <i type="int" name="IDIPOL">     0</i>
    <i name="EPSILON">      1.00000000</i>
    <v name="DIPOL">   -100.00000000   -100.00000000   -100.00000000</v>
    <i name="EFIELD">      0.00000000</i>
   </separator>
  </separator>
  <separator name="grids" >
   <i type="int" name="NGX">    18</i>
   <i type="int" name="NGY">    18</i>
   <i type="int" name="NGZ">    28</i>
   <i type="int" name="NGXF">    36</i>
   <i type="int" name="NGYF">    36</i>
   <i type="int" name="NGZF">    56</i>
   <i type="logical" name="ADDGRID"> F  </i>
  </separator>
  <separator name="ionic" >
   <i type="int" name="NSW">     0</i>
   <i type="int" name="IBRION">    -1</i>
   <i type="int" name="MDALGO">     0</i>
   <i type="int" name="ISIF">     2</i>
   <i name="PSTRESS">      0.00000000</i>
   <i name="EDIFFG">     -0.02000000</i>
   <i type="int" name="NFREE">     0</i>
   <i name="POTIM">      0.50000000</i>
   <i name="SMASS">     -3.00000000</i>
   <i name="SCALEE">      1.00000000</i>
  </separator>
  <separator name="ionic md" >
   <i name="TEBEG">      0.00010000</i>
   <i name="TEEND">      0.00010000</i>
   <i type="int" name="NBLOCK">     1</i>
   <i type="int" name="KBLOCK">     1</i>
   <i type="int" name="NPACO">   256</i>
   <i name="APACO">     10.00000000</i>
  </separator>
  <separator name="symmetry" >
   <i type="int" name="ISYM">     1</i>
   <i name="SYMPREC">      0.00001000</i>
  </separator>
  <separator name="dos" >
   <i type="int" name="LORBIT">    11</i>
   <v name="RWIGS">     -1.00000000</v>
   <i type="int" name="NEDOS">   301</i>
   <i name="EMIN">     10.00000000</i>
   <i name="EMAX">    -10.00000000</i>
   <i name="EFERMI">      0.00000000</i>
  </separator>
  <separator name="writing" >
   <i type="int" name="NWRITE">     2</i>
   <i type="logical" name="LWAVE"> F  </i>
   <i type="logical" name="LDOWNSAMPLE"> F  </i>
   <i type="logical" name="LCHARG"> F  </i>
   <i type="logical" name="LPARD"> F  </i>
   <i type="logical" name="LVTOT"> F  </i>
   <i type="logical" name="LVHAR"> F  </i>
   <i type="logical" name="LELF"> F  </i>
   <i type="logical" name="LOPTICS"> F  </i>
   <v name="STM">      0.00000000      0.00000000      0.00000000      0.00000000      0.00000000      0.00000000      0.00000000</v>
  </separator>
  <separator name="performance" >
   <i type="int" name="NPAR">     4</i>
   <i type="int" name="NSIM">     4</i>
   <i type="int" name="NBLK">    -1</i>
   <i type="logical" name="LPLANE"> T  </i>
   <i type="logical" name="LSCALAPACK"> T  </i>
   <i type="logical" name="LSCAAWARE"> F  </i>
   <i type="logical" name="LSCALU"> F  </i>
   <i type="logical" name="LASYNC"> F  </i>
   <i type="logical" name="LORBITALREAL"> F  </i>
  </separator>
  <separator name="miscellaneous" >
   <i type="int" name="IDIOT">     3</i>
   <i type="int" name="PHON_NSTRUCT">    -1</i>
   <i type="logical" name="LMUSIC"> F  </i>
   <v name="POMASS">     58.93300000</v>
   <v name="DARWINR">      0.00000000</v>
   <v name="DARWINV">      1.00000000</v>
   <i type="logical" name="LCORR"> T  </i>
  </separator>
  <i type="logical" name="GGA_COMPAT"> T  </i>
  <i type="logical" name="LBERRY"> F  </i>
  <i type="int" name="ICORELEVEL">     0</i>
  <i type="logical" name="LDAU"> F  </i>
  <i type="int" name="I_CONSTRAINED_M">     0</i>
  <separator name="electronic exchange-correlation" >
   <i type="string" name="GGA">--</i>
   <i type="int" name="VOSKOWN">     0</i>
   <i type="logical" name="LHFCALC"> F  </i>
   <i type="string" name="PRECFOCK"></i>
   <i type="logical" name="LSYMGRAD"> F  </i>
   <i type="logical" name="LHFONE"> F  </i>
   <i type="logical" name="LRHFCALC"> F  </i>
   <i type="logical" name="LTHOMAS"> F  </i>
   <i type="logical" name="LMODELHF"> F  </i>
   <i type="logical" name="LFOCKACE"> F  </i>
   <i name="ENCUT4O">     -1.00000000</i>
   <i type="int" name="EXXOEP">     0</i>
   <i type="int" name="FOURORBIT">     0</i>
   <i name="AEXX">      0.00000000</i>
   <i name="HFALPHA">      0.00000000</i>
   <i name="MCALPHA">      0.00000000</i>
   <i name="ALDAX">      1.00000000</i>
   <i name="AGGAX">      1.00000000</i>
   <i name="ALDAC">      1.00000000</i>
   <i name="AGGAC">      1.00000000</i>
   <i type="int" name="NKREDX">     1</i>
   <i type="int" name="NKREDY">     1</i>
   <i type="int" name="NKREDZ">     1</i>
   <i type="logical" name="SHIFTRED"> F  </i>
   <i type="logical" name="ODDONLY"> F  </i>
   <i type="logical" name="EVENONLY"> F  </i>
   <i type="int" name="LMAXFOCK">     0</i>
   <i type="int" name="NMAXFOCKAE">     0</i>
   <i type="logical" name="LFOCKAEDFT"> F  </i>
   <i name="HFSCREEN">      0.00000000</i>
   <i name="HFSCREENC">      0.00000000</i>
   <i type="int" name="NBANDSGWLOW">     0</i>
  </separator>
  <separator name="vdW DFT" >
   <i type="logical" name="LUSE_VDW"> F  </i>
   <i name="Zab_VDW">     -0.84910000</i>
   <i name="PARAM1">      0.12340000</i>
   <i name="PARAM2">      1.00000000</i>
   <i name="PARAM3">      0.00000000</i>
  </separator>
  <separator name="model GW" >
   <i type="int" name="MODEL_GW">     0</i>
   <i name="MODEL_EPS0">      6.38408146</i>
   <i name="MODEL_ALPHA">      1.00000000</i>
  </separator>
  <separator name="linear response parameters" >
   <i type="logical" name="LEPSILON"> F  </i>
   <i type="logical" name="LRPA"> F  </i>
   <i type="logical" name="LNABLA"> F  </i>
   <i type="logical" name="LVEL"> F  </i>
   <i name="CSHIFT">      0.10000000</i>
   <i name="OMEGAMAX">     -1.00000000</i>
   <i name="DEG_THRESHOLD">      0.00200000</i>
   <i name="RTIME">     -0.10000000</i>
   <i name="WPLASMAI">      0.00000000</i>
   <v name="DFIELD">      0.00000000      0.00000000      0.00000000</v>
   <v name="WPLASMA">      0.00000000      0.00000000      0.00000000      0.00000000      0.00000000      0.00000000      0.00000000      0.00000000      0.00000000</v>
  </separator>
  <separator name="orbital magnetization" >
   <i type="logical" name="NUCIND"> F  </i>
   <v name="MAGPOS">      0.00000000      0.00000000      0.00000000</v>
   <i type="logical" name="LNICSALL"> T  </i>
   <i type="logical" name="ORBITALMAG"> F  </i>
   <i type="logical" name="LMAGBLOCH"> F  </i>
   <i type="logical" name="LCHIMAG"> F  </i>
   <i type="logical" name="LGAUGE"> T  </i>
   <i type="int" name="MAGATOM">     0</i>
   <v name="MAGDIPOL">      0.00000000      0.00000000      0.00000000</v>
   <v name="AVECCONST">      0.00000000      0.00000000      0.00000000</v>
  </separator>
  <separator name="response functions" >
   <i type="logical" name="LFINITE_TEMPERATURE"> F  </i>
   <i type="logical" name="LADDER"> F  </i>
   <i type="logical" name="LRPAFORCE"> F  </i>
   <i type="logical" name="LFXC"> F  </i>
   <i type="logical" name="LHARTREE"> T  </i>
   <i type="int" name="IBSE">     0</i>
   <v type="int" name="KPOINT">    -1     0     0     0</v>
   <i type="logical" name="LTCTC"> F  </i>
   <i type="logical" name="LTCTE"> F  </i>
   <i type="logical" name="LTETE"> F  </i>
   <i type="logical" name="LTRIPLET"> F  </i>
   <i type="logical" name="LFXCEPS"> F  </i>
   <i type="logical" name="LFXHEG"> F  </i>
   <i type="int" name="NATURALO">     2</i>
   <i type="logical" name="LHOLEGF"> F  </i>
   <i type="logical" name="L2ORDER"> F  </i>
   <i type="logical" name="LDMP1"> F  </i>
   <i type="logical" name="LMP2LT"> F  </i>
   <i type="logical" name="LSMP2LT"> F  </i>
   <i type="logical" name="LGWLF"> F  </i>
   <i name="ENCUTGW">     -2.00000000</i>
   <i name="ENCUTGWSOFT">     -2.00000000</i>
   <i name="ENCUTLF">     -1.00000000</i>
   <i type="logical" name="LESF_SPLINES"> F  </i>
   <i type="int" name="LMAXMP2">    -1</i>
   <i name="SCISSOR">      0.00000000</i>
   <i type="int" name="NOMEGA">     0</i>
   <i type="int" name="NOMEGAR">     0</i>
   <i type="int" name="NBANDSGW">    -1</i>
   <i type="int" name="NBANDSO">    -1</i>
   <i type="int" name="NBANDSV">    -1</i>
   <i type="int" name="NELMGW">     1</i>
   <i type="int" name="NELMHF">     1</i>
   <i type="int" name="DIM">     3</i>
   <i type="int" name="IESPILON">     4</i>
   <i type="int" name="ANTIRES">     0</i>
   <i name="OMEGAMAX">    -30.00000000</i>
   <i name="OMEGAMIN">    -30.00000000</i>
   <i name="OMEGATL">   -200.00000000</i>
   <i type="int" name="OMEGAGRID">     0</i>
   <i name="CSHIFT">     -0.10000000</i>
   <i type="logical" name="LSELFENERGY"> F  </i>
   <i type="logical" name="LSPECTRAL"> F  </i>
   <i type="logical" name="LSPECTRALGW"> F  </i>
   <i type="logical" name="LSINGLES"> F  </i>
   <i type="logical" name="LFERMIGW"> F  </i>
   <i type="logical" name="ODDONLYGW"> F  </i>
   <i type="logical" name="EVENONLYGW"> F  </i>
   <i type="int" name="NKREDLFX">     1</i>
   <i type="int" name="NKREDLFY">     1</i>
   <i type="int" name="NKREDLFZ">     1</i>
   <i type="int" name="MAXMEM">  2800</i>
   <i type="int" name="TELESCOPE">     0</i>
   <i type="int" name="NTAUPAR">    -1</i>
   <i type="int" name="NOMEGAPAR">    -1</i>
   <i name="DAMP_NEWTON">      0.80000001</i>
   <i name="LAMBDA">      1.00000000</i>
  </separator>
  <separator name="External order field" >
   <i name="OFIELD_KAPPA">      0.00000000</i>
   <v name="OFIELD_K">      0.00000000      0.00000000      0.00000000</v>
   <i name="OFIELD_Q6_NEAR">      0.00000000</i>
   <i name="OFIELD_Q6_FAR">      0.00000000</i>
   <i name="OFIELD_A">      0.00000000</i>
  </separator>
  <separator name="optional k-points parameters" >
   <i type="int" name="KPOINTS_OPT_MODE">     1</i>
   <i type="logical" name="LKPOINTS_OPT"> F  </i>
  </separator>
 </parameters>
 <atominfo>
  <atoms>       2 </atoms>
  <types>       1 </types>
  <array name="atoms" >
   <dimension dim="1">ion</dimension>
   <field type="string">element</field>
   <field type="int">atomtype</field>
   <set>
    <rc><c>Co</c><c>   1</c></rc>
    <rc><c>Co</c><c>   1</c></rc>
   </set>
  </array>
  <array name="atomtypes" >
   <dimension dim="1">type</dimension>
   <field type="int">atomspertype</field>
   <field type="string">element</field>
   <field>mass</field>
   <field>valence</field>
   <field type="string">pseudopotential</field>
   <set>
    <rc><c>   2</c><c>Co</c><c>     58.93300000</c><c>      9.00000000</c><c>  PAW_PBE Co 02Aug2007                  </c></rc>
   </set>
  </array>
 </atominfo>
 <structure name="initialpos" >
  <crystal>
   <varray name="basis" >
    <v>       1.23599995      -2.14081471       0.00000000 </v>
    <v>       1.23599995       2.14081471       0.00000000 </v>
    <v>       0.00000000       0.00000000       4.02114408 </v>
   </varray>
   <i name="volume">     21.28027152 </i>
   <varray name="rec_basis" >
    <v>       0.40453076      -0.23355594       0.00000000 </v>
    <v>       0.40453076       0.23355594       0.00000000 </v>
    <v>       0.00000000       0.00000000       0.24868544 </v>
   </varray>
  </crystal>
  <varray name="positions" >
   <v>       0.33333333       0.66666667       0.25000000 </v>
   <v>       0.66666667       0.33333333       0.75000000 </v>
  </varray>
 </structure>
 <calculation>
  <scstep>
   <time name="dav">    0.42    0.43</time>
   <time name="total">    0.44    0.44</time>
   <energy>
    <i name="alphaZ">     79.61870385 </i>
    <i name="ewald">  -1531.60263765 </i>
    <i name="hartreedc">   -295.86427829 </i>
    <i name="XCdc">     35.75670864 </i>
    <i name="pawpsdc">   1439.98163886 </i>
    <i name="pawaedc">  -1545.88690193 </i>
    <i name="eentropy">     -0.00197851 </i>
    <i name="bandstr">    260.63219418 </i>
    <i name="atom">   1626.72322989 </i>
    <i name="e_fr_energy">     69.35667904 </i>
    <i name="e_wo_entrp">     69.35865755 </i>
    <i name="e_0_energy">     69.35766830 </i>
   </energy>
  </scstep>
  <scstep>
   <time name="dav">    0.41    0.41</time>
   <time name="total">    0.41    0.41</time>
   <energy>
    <i name="e_fr_energy">    -13.65925512 </i>
    <i name="e_wo_entrp">    -13.65745428 </i>
    <i name="e_0_energy">    -13.65835470 </i>
   </energy>
  </scstep>
  <scstep>
   <time name="dav">    0.48    0.48</time>
   <time name="total">    0.48    0.49</time>
   <energy>
    <i name="e_fr_energy">    -15.57845976 </i>
    <i name="e_wo_entrp">    -15.57644590 </i>
    <i name="e_0_energy">    -15.57745283 </i>
   </energy>
  </scstep>
  <scstep>
   <time name="dav">    0.56    0.56</time>
   <time name="total">    0.56    0.56</time>
   <energy>
    <i name="e_fr_energy">    -15.61137227 </i>
    <i name="e_wo_entrp">    -15.60939250 </i>
    <i name="e_0_energy">    -15.61038239 </i>
   </energy>
  </scstep>
  <scstep>
   <time name="dav">    0.48    0.48</time>
   <time name="total">    0.51    0.51</time>
   <energy>
    <i name="e_fr_energy">    -15.61155222 </i>
    <i name="e_wo_entrp">    -15.60957209 </i>
    <i name="e_0_energy">    -15.61056215 </i>
   </energy>
  </scstep>
  <scstep>
   <time name="dav">    0.43    0.43</time>
   <time name="total">    0.46    0.46</time>
   <energy>
    <i name="e_fr_energy">    -14.41500577 </i>
    <i name="e_wo_entrp">    -14.41258809 </i>
    <i name="e_0_energy">    -14.41379693 </i>
   </energy>
  </scstep>
  <scstep>
   <time name="dav">    0.45    0.45</time>
   <time name="total">    0.48    0.48</time>
   <energy>
    <i name="e_fr_energy">    -14.10303257 </i>
    <i name="e_wo_entrp">    -14.10007848 </i>
    <i name="e_0_energy">    -14.10155552 </i>
   </energy>
  </scstep>
  <scstep>
   <time name="dav">    0.55    0.55</time>
   <time name="total">    0.58    0.58</time>
   <energy>
    <i name="e_fr_energy">    -14.08052302 </i>
    <i name="e_wo_entrp">    -14.07798047 </i>
    <i name="e_0_energy">    -14.07925174 </i>
   </energy>
  </scstep>
  <scstep>
   <time name="dav">    0.56    0.57</time>
   <time name="total">    0.60    0.60</time>
   <energy>
    <i name="e_fr_energy">    -14.06553101 </i>
    <i name="e_wo_entrp">    -14.06306511 </i>
    <i name="e_0_energy">    -14.06429806 </i>
   </energy>
  </scstep>
  <scstep>
   <time name="dav">    0.53    0.54</time>
   <time name="total">    0.57    0.57</time>
   <energy>
    <i name="e_fr_energy">    -14.06496354 </i>
    <i name="e_wo_entrp">    -14.06243633 </i>
    <i name="e_0_energy">    -14.06369993 </i>
   </energy>
  </scstep>
  <scstep>
   <time name="dav">    0.56    0.56</time>
   <time name="total">    0.59    0.60</time>
   <energy>
    <i name="e_fr_energy">    -14.06494466 </i>
    <i name="e_wo_entrp">    -14.06236853 </i>
    <i name="e_0_energy">    -14.06365660 </i>
   </energy>
  </scstep>
  <scstep>
   <time name="dav">    0.44    0.44</time>
   <time name="total">    0.47    0.47</time>
   <energy>
    <i name="e_fr_energy">    -14.06494124 </i>
    <i name="e_wo_entrp">    -14.06236809 </i>
    <i name="e_0_energy">    -14.06365467 </i>
   </energy>
  </scstep>
  <scstep>
   <time name="dav">    0.32    0.32</time>
   <time name="total">    0.33    0.33</time>
   <energy>
    <i name="alphaZ">     79.61870385 </i>
    <i name="ewald">  -1531.60263765 </i>
    <i name="hartreedc">   -260.39498965 </i>
    <i name="XCdc">     33.00510181 </i>
    <i name="pawpsdc">   1829.74124862 </i>
    <i name="pawaedc">  -1935.98554789 </i>
    <i name="eentropy">     -0.00257746 </i>
    <i name="bandstr">    144.83252810 </i>
    <i name="atom">   1626.72322989 </i>
    <i name="e_fr_energy">    -14.06494038 </i>
    <i name="e_wo_entrp">    -14.06236292 </i>
    <i name="e_0_energy">    -14.06365165 </i>
   </energy>
  </scstep>
  <structure>
   <crystal>
    <varray name="basis" >
     <v>       1.23599995      -2.14081471       0.00000000 </v>
     <v>       1.23599995       2.14081471       0.00000000 </v>
     <v>       0.00000000       0.00000000       4.02114408 </v>
    </varray>
    <i name="volume">     21.28027152 </i>
    <varray name="rec_basis" >
     <v>       0.40453076      -0.23355594       0.00000000 </v>
     <v>       0.40453076       0.23355594       0.00000000 </v>
     <v>       0.00000000       0.00000000       0.24868544 </v>
    </varray>
   </crystal>
   <varray name="positions" >
    <v>       0.33333333       0.66666667       0.25000000 </v>
    <v>       0.66666667       0.33333333       0.75000000 </v>
   </varray>
  </structure>
  <varray name="forces" >
   <v>      -0.00000000       0.00000000       0.00000000 </v>
   <v>       0.00000000      -0.00000000      -0.00000000 </v>
  </varray>
  <varray name="stress" >
   <v>      52.00066839       0.00000000      -0.00000000 </v>
   <v>       0.00000000      52.00066839       0.00000000 </v>
   <v>      -0.00000000       0.00000000      33.12574659 </v>
  </varray>
  <energy>
   <i name="e_fr_energy">    -14.06494038 </i>
   <i name="e_wo_entrp">    -14.06236292 </i>
   <i name="e_0_energy">    -14.06365165 </i>
  </energy>
  <time name="totalsc">    6.58    6.63</time>
  <eigenvalues>
   <array>
    <dimension dim="1">band</dimension>
    <dimension dim="2">kpoint</dimension>
    <dimension dim="3">spin</dimension>
    <field>eigene</field>
    <field>occ</field>
    <set>
     <set comment="spin 1">
      <set comment="kpoint 1">
       <r>    1.5008    1.0000 </r>
       <r>    5.2820    1.0000 </r>
       <r>    7.8297    1.0000 </r>
       <r>    7.8802    1.0000 </r>
       <r>    7.8802    1.0000 </r>
       <r>    8.1946    1.0000 </r>
       <r>    8.1946    1.0000 </r>
       <r>    8.5775    1.0000 </r>
       <r>    8.5775    1.0000 </r>
       <r>    9.6849    1.0000 </r>
       <r>    9.6849    1.0000 </r>
       <r>   10.3748    0.9978 </r>
       <r>   16.9491    0.0000 </r>
       <r>   32.7502    0.0000 </r>
       <r>   35.5481    0.0000 </r>
       <r>   35.5484    0.0000 </r>
      </set>
      <set comment="kpoint 2">
       <r>    1.8563    1.0000 </r>
       <r>    5.4936    1.0000 </r>
       <r>    7.5788    1.0000 </r>
       <r>    8.0473    1.0000 </r>
       <r>    8.0594    1.0000 </r>
       <r>    8.1472    1.0000 </r>
       <r>    8.3073    1.0000 </r>
       <r>    8.3426    1.0000 </r>
       <r>    8.4753    1.0000 </r>
       <r>    8.7623    1.0000 </r>
       <r>    9.7267    1.0000 </r>
       <r>   11.8049    0.0000 </r>
       <r>   17.0106    0.0000 </r>
       <r>   30.2273    0.0000 </r>
       <r>   32.8697    0.0000 </r>
       <r>   33.0890    0.0000 </r>
      </set>
      <set comment="kpoint 3">
       <r>    2.8626    1.0000 </r>
       <r>    5.9516    1.0000 </r>
       <r>    7.2664    1.0000 </r>
       <r>    7.3493    1.0000 </r>
       <r>    7.9047    1.0000 </r>
       <r>    8.2406    1.0000 </r>
       <r>    8.4331    1.0000 </r>
       <r>    8.5057    1.0000 </r>
       <r>    8.5061    1.0000 </r>
       <r>    8.7457    1.0000 </r>
       <r>    9.8047    1.0000 </r>
       <r>   13.8264    0.0000 </r>
       <r>   17.2367    0.0000 </r>
       <r>   25.5866    0.0000 </r>
       <r>   30.0526    0.0000 </r>
       <r>   31.9320    0.0000 </r>
      </set>
      <set comment="kpoint 4">
       <r>    4.2615    1.0000 </r>
       <r>    6.0750    1.0000 </r>
       <r>    6.5766    1.0000 </r>
       <r>    7.2476    1.0000 </r>
       <r>    7.9144    1.0000 </r>
       <r>    7.9889    1.0000 </r>
       <r>    8.1921    1.0000 </r>
       <r>    9.1176    1.0000 </r>
       <r>    9.1840    1.0000 </r>
       <r>    9.2814    1.0000 </r>
       <r>    9.8652    1.0000 </r>
       <r>   16.1173    0.0000 </r>
       <r>   17.5917    0.0000 </r>
       <r>   21.4213    0.0000 </r>
       <r>   27.7635    0.0000 </r>
       <r>   28.8728    0.0000 </r>
      </set>
      <set comment="kpoint 5">
       <r>    5.3448    1.0000 </r>
       <r>    5.8525    1.0000 </r>
       <r>    6.1117    1.0000 </r>
       <r>    7.6316    1.0000 </r>
       <r>    7.8046    1.0000 </r>
       <r>    8.0092    1.0000 </r>
       <r>    8.1725    1.0000 </r>
       <r>    9.6385    1.0000 </r>
       <r>    9.7718    1.0000 </r>
       <r>    9.8969    1.0000 </r>
       <r>   10.3986    0.9854 </r>
       <r>   16.1859    0.0000 </r>
       <r>   18.5774    0.0000 </r>
       <r>   20.1256    0.0000 </r>
       <r>   25.4557    0.0000 </r>
       <r>   26.2174    0.0000 </r>
      </set>
      <set comment="kpoint 6">
       <r>    5.6585    1.0000 </r>
       <r>    5.7022    1.0000 </r>
       <r>    5.9575    1.0000 </r>
       <r>    7.7376    1.0000 </r>
       <r>    7.9408    1.0000 </r>
       <r>    7.9817    1.0000 </r>
       <r>    8.2844    1.0000 </r>
       <r>    9.8359    1.0000 </r>
       <r>    9.9061    1.0000 </r>
       <r>    9.9845    1.0000 </r>
       <r>   11.8763    0.0000 </r>
       <r>   13.9450    0.0000 </r>
       <r>   20.3241    0.0000 </r>
       <r>   21.0000    0.0000 </r>
       <r>   23.3956    0.0000 </r>
       <r>   24.6947    0.0000 </r>
      </set>
      <set comment="kpoint 7">
       <r>    2.5403    1.0000 </r>
       <r>    5.8480    1.0000 </r>
       <r>    7.3018    1.0000 </r>
       <r>    7.6366    1.0000 </r>
       <r>    7.9867    1.0000 </r>
       <r>    8.1921    1.0000 </r>
       <r>    8.2748    1.0000 </r>
       <r>    8.3888    1.0000 </r>
       <r>    8.5973    1.0000 </r>
       <r>    8.6781    1.0000 </r>
       <r>    9.7675    1.0000 </r>
       <r>   13.2603    0.0000 </r>
       <r>   17.1608    0.0000 </r>
       <r>   27.7572    0.0000 </r>
       <r>   28.4447    0.0000 </r>
       <r>   34.6072    0.0000 </r>
      </set>
      <set comment="kpoint 8">
       <r>    3.7749    1.0000 </r>
       <r>    6.2263    1.0000 </r>
       <r>    6.8608    1.0000 </r>
       <r>    7.0222    1.0000 </r>
       <r>    7.8905    1.0000 </r>
       <r>    7.9169    1.0000 </r>
       <r>    8.4022    1.0000 </r>
       <r>    8.6273    1.0000 </r>
       <r>    8.9741    1.0000 </r>
       <r>    9.2933    1.0000 </r>
       <r>    9.8088    1.0000 </r>
       <r>   15.2990    0.0000 </r>
       <r>   17.5432    0.0000 </r>
       <r>   23.5074    0.0000 </r>
       <r>   26.1485    0.0000 </r>
       <r>   30.9008    0.0000 </r>
      </set>
      <set comment="kpoint 9">
       <r>    5.1136    1.0000 </r>
       <r>    6.1036    1.0000 </r>
       <r>    6.3091    1.0000 </r>
       <r>    7.1754    1.0000 </r>
       <r>    7.7393    1.0000 </r>
       <r>    8.0594    1.0000 </r>
       <r>    8.1450    1.0000 </r>
       <r>    9.1920    1.0000 </r>
       <r>    9.5482    1.0000 </r>
       <r>    9.8366    1.0000 </r>
       <r>   10.1804    1.0000 </r>
       <r>   17.6092    0.0000 </r>
       <r>   17.6526    0.0000 </r>
       <r>   20.2350    0.0000 </r>
       <r>   24.5536    0.0000 </r>
       <r>   27.2739    0.0000 </r>
      </set>
      <set comment="kpoint 10">
       <r>    5.7461    1.0000 </r>
       <r>    5.8949    1.0000 </r>
       <r>    6.0308    1.0000 </r>
       <r>    7.6336    1.0000 </r>
       <r>    7.6839    1.0000 </r>
       <r>    7.9410    1.0000 </r>
       <r>    8.2785    1.0000 </r>
       <r>    9.7211    1.0000 </r>
       <r>    9.8482    1.0000 </r>
       <r>    9.8485    1.0000 </r>
       <r>   11.6709    0.0000 </r>
       <r>   15.0199    0.0000 </r>
       <r>   20.0547    0.0000 </r>
       <r>   20.8614    0.0000 </r>
       <r>   23.5188    0.0000 </r>
       <r>   24.2379    0.0000 </r>
      </set>
      <set comment="kpoint 11">
       <r>    5.0474    1.0000 </r>
       <r>    6.4368    1.0000 </r>
       <r>    6.5067    1.0000 </r>
       <r>    6.6716    1.0000 </r>
       <r>    7.6387    1.0000 </r>
       <r>    8.0215    1.0000 </r>
       <r>    8.2420    1.0000 </r>
       <r>    8.8319    1.0000 </r>
       <r>    9.5521    1.0000 </r>
       <r>    9.7779    1.0000 </r>
       <r>   10.2166    1.0000 </r>
       <r>   17.3452    0.0000 </r>
       <r>   18.1887    0.0000 </r>
       <r>   21.5992    0.0000 </r>
       <r>   22.2147    0.0000 </r>
       <r>   29.2969    0.0000 </r>
      </set>
      <set comment="kpoint 12">
       <r>    6.0166    1.0000 </r>
       <r>    6.1687    1.0000 </r>
       <r>    6.3003    1.0000 </r>
       <r>    6.9294    1.0000 </r>
       <r>    7.5453    1.0000 </r>
       <r>    7.9775    1.0000 </r>
       <r>    8.2755    1.0000 </r>
       <r>    9.2307    1.0000 </r>
       <r>    9.7511    1.0000 </r>
       <r>    9.8483    1.0000 </r>
       <r>   11.6297    0.0000 </r>
       <r>   17.2256    0.0000 </r>
       <r>   19.7472    0.0000 </r>
       <r>   19.9507    0.0000 </r>
       <r>   21.3015    0.0000 </r>
       <r>   26.1848    0.0000 </r>
      </set>
      <set comment="kpoint 13">
       <r>    6.0787    1.0000 </r>
       <r>    6.1824    1.0000 </r>
       <r>    6.2120    1.0000 </r>
       <r>    7.2372    1.0000 </r>
       <r>    7.5814    1.0000 </r>
       <r>    7.8041    1.0000 </r>
       <r>    8.4023    1.0000 </r>
       <r>    9.5855    1.0000 </r>
       <r>    9.7411    1.0000 </r>
       <r>    9.7893    1.0000 </r>
       <r>   13.3382    0.0000 </r>
       <r>   14.7717    0.0000 </r>
       <r>   19.9707    0.0000 </r>
       <r>   21.6785    0.0000 </r>
       <r>   21.9949    0.0000 </r>
       <r>   23.9255    0.0000 </r>
      </set>
      <set comment="kpoint 14">
       <r>    6.1305    1.0000 </r>
       <r>    6.4165    1.0000 </r>
       <r>    6.5754    1.0000 </r>
       <r>    6.8067    1.0000 </r>
       <r>    7.5339    1.0000 </r>
       <r>    7.7307    1.0000 </r>
       <r>    8.4957    1.0000 </r>
       <r>    9.4156    1.0000 </r>
       <r>    9.6878    1.0000 </r>
       <r>    9.7433    1.0000 </r>
       <r>   13.7625    0.0000 </r>
       <r>   16.7897    0.0000 </r>
       <r>   16.8253    0.0000 </r>
       <r>   22.2265    0.0000 </r>
       <r>   22.4817    0.0000 </r>
       <r>   25.1078    0.0000 </r>
      </set>
      <set comment="kpoint 15">
       <r>    1.6595    1.0000 </r>
       <r>    5.2508    1.0000 </r>
       <r>    7.7889    1.0000 </r>
       <r>    7.8405    1.0000 </r>
       <r>    7.8405    1.0000 </r>
       <r>    8.1523    1.0000 </r>
       <r>    8.1523    1.0000 </r>
       <r>    8.6732    1.0000 </r>
       <r>    8.6732    1.0000 </r>
       <r>    9.6758    1.0000 </r>
       <r>    9.6758    1.0000 </r>
       <r>    9.7649    1.0000 </r>
       <r>   17.8703    0.0000 </r>
       <r>   32.6773    0.0000 </r>
       <r>   34.7591    0.0000 </r>
       <r>   35.5625    0.0000 </r>
      </set>
      <set comment="kpoint 16">
       <r>    2.0113    1.0000 </r>
       <r>    5.4746    1.0000 </r>
       <r>    7.5829    1.0000 </r>
       <r>    7.9486    1.0000 </r>
       <r>    7.9783    1.0000 </r>
       <r>    7.9895    1.0000 </r>
       <r>    8.2927    1.0000 </r>
       <r>    8.4348    1.0000 </r>
       <r>    8.6003    1.0000 </r>
       <r>    8.7420    1.0000 </r>
       <r>    9.7115    1.0000 </r>
       <r>   11.2436    0.0000 </r>
       <r>   18.0046    0.0000 </r>
       <r>   30.3232    0.0000 </r>
       <r>   33.0272    0.0000 </r>
       <r>   33.0296    0.0000 </r>
      </set>
      <set comment="kpoint 17">
       <r>    3.0021    1.0000 </r>
       <r>    5.9675    1.0000 </r>
       <r>    7.2114    1.0000 </r>
       <r>    7.3014    1.0000 </r>
       <r>    7.8373    1.0000 </r>
       <r>    8.2001    1.0000 </r>
       <r>    8.2952    1.0000 </r>
       <r>    8.5857    1.0000 </r>
       <r>    8.7057    1.0000 </r>
       <r>    8.7286    1.0000 </r>
       <r>    9.7775    1.0000 </r>
       <r>   12.9332    0.0000 </r>
       <r>   18.4717    0.0000 </r>
       <r>   25.7220    0.0000 </r>
       <r>   30.2439    0.0000 </r>
       <r>   31.2079    0.0000 </r>
      </set>
      <set comment="kpoint 18">
       <r>    4.3490    1.0000 </r>
       <r>    6.1080    1.0000 </r>
       <r>    6.5494    1.0000 </r>
       <r>    7.2250    1.0000 </r>
       <r>    7.8242    1.0000 </r>
       <r>    8.0332    1.0000 </r>
       <r>    8.3310    1.0000 </r>
       <r>    9.1370    1.0000 </r>
       <r>    9.1783    1.0000 </r>
       <r>    9.2364    1.0000 </r>
       <r>    9.8308    1.0000 </r>
       <r>   14.6508    0.0000 </r>
       <r>   19.2663    0.0000 </r>
       <r>   21.5946    0.0000 </r>
       <r>   27.6465    0.0000 </r>
       <r>   27.9829    0.0000 </r>
      </set>
      <set comment="kpoint 19">
       <r>    5.2904    1.0000 </r>
       <r>    5.8457    1.0000 </r>
       <r>    6.2946    1.0000 </r>
       <r>    7.2218    1.0000 </r>
       <r>    7.8678    1.0000 </r>
       <r>    8.1674    1.0000 </r>
       <r>    8.5383    1.0000 </r>
       <r>    9.6389    1.0000 </r>
       <r>    9.6901    1.0000 </r>
       <r>    9.8885    1.0000 </r>
       <r>   10.3137    1.0000 </r>
       <r>   15.4735    0.0000 </r>
       <r>   18.3679    0.0000 </r>
       <r>   21.0837    0.0000 </r>
       <r>   24.5346    0.0000 </r>
       <r>   26.4575    0.0000 </r>
      </set>
      <set comment="kpoint 20">
       <r>    5.4804    1.0000 </r>
       <r>    5.6904    1.0000 </r>
       <r>    6.2815    1.0000 </r>
       <r>    7.2486    1.0000 </r>
       <r>    7.8057    1.0000 </r>
       <r>    8.2889    1.0000 </r>
       <r>    8.7806    1.0000 </r>
       <r>    9.7657    1.0000 </r>
       <r>    9.8812    1.0000 </r>
       <r>    9.9801    1.0000 </r>
       <r>   11.7592    0.0000 </r>
       <r>   13.8466    0.0000 </r>
       <r>   19.7614    0.0000 </r>
       <r>   20.1346    0.0000 </r>
       <r>   24.5548    0.0000 </r>
       <r>   25.5812    0.0000 </r>
      </set>
      <set comment="kpoint 21">
       <r>    2.6860    1.0000 </r>
       <r>    5.8541    1.0000 </r>
       <r>    7.3220    1.0000 </r>
       <r>    7.4548    1.0000 </r>
       <r>    7.9759    1.0000 </r>
       <r>    8.0571    1.0000 </r>
       <r>    8.2858    1.0000 </r>
       <r>    8.4448    1.0000 </r>
       <r>    8.6970    1.0000 </r>
       <r>    8.7098    1.0000 </r>
       <r>    9.7473    1.0000 </r>
       <r>   12.4776    0.0000 </r>
       <r>   18.3114    0.0000 </r>
       <r>   27.8760    0.0000 </r>
       <r>   28.5927    0.0000 </r>
       <r>   33.5037    0.0000 </r>
      </set>
      <set comment="kpoint 22">
       <r>    3.8913    1.0000 </r>
       <r>    6.2708    1.0000 </r>
       <r>    6.7639    1.0000 </r>
       <r>    7.0617    1.0000 </r>
       <r>    7.7728    1.0000 </r>
       <r>    8.0183    1.0000 </r>
       <r>    8.3197    1.0000 </r>
       <r>    8.6824    1.0000 </r>
       <r>    9.0524    1.0000 </r>
       <r>    9.2427    1.0000 </r>
       <r>    9.7987    1.0000 </r>
       <r>   14.0878    0.0000 </r>
       <r>   19.0379    0.0000 </r>
       <r>   23.6535    0.0000 </r>
       <r>   26.3054    0.0000 </r>
       <r>   29.8209    0.0000 </r>
      </set>
      <set comment="kpoint 23">
       <r>    5.1372    1.0000 </r>
       <r>    6.1351    1.0000 </r>
       <r>    6.3476    1.0000 </r>
       <r>    7.1017    1.0000 </r>
       <r>    7.7739    1.0000 </r>
       <r>    8.0920    1.0000 </r>
       <r>    8.2351    1.0000 </r>
       <r>    9.1777    1.0000 </r>
       <r>    9.5921    1.0000 </r>
       <r>    9.7046    1.0000 </r>
       <r>   10.2157    1.0000 </r>
       <r>   15.6801    0.0000 </r>
       <r>   19.2207    0.0000 </r>
       <r>   20.8996    0.0000 </r>
       <r>   24.6930    0.0000 </r>
       <r>   26.2118    0.0000 </r>
      </set>
      <set comment="kpoint 24">
       <r>    5.5907    1.0000 </r>
       <r>    5.8834    1.0000 </r>
       <r>    6.3375    1.0000 </r>
       <r>    7.1749    1.0000 </r>
       <r>    7.7173    1.0000 </r>
       <r>    8.3117    1.0000 </r>
       <r>    8.4159    1.0000 </r>
       <r>    9.6754    1.0000 </r>
       <r>    9.7705    1.0000 </r>
       <r>    9.8757    1.0000 </r>
       <r>   11.6540    0.0000 </r>
       <r>   14.8576    0.0000 </r>
       <r>   19.0858    0.0000 </r>
       <r>   21.2047    0.0000 </r>
       <r>   23.6309    0.0000 </r>
       <r>   24.5055    0.0000 </r>
      </set>
      <set comment="kpoint 25">
       <r>    5.1091    1.0000 </r>
       <r>    6.3527    1.0000 </r>
       <r>    6.6222    1.0000 </r>
       <r>    6.7002    1.0000 </r>
       <r>    7.6805    1.0000 </r>
       <r>    8.0046    1.0000 </r>
       <r>    8.1757    1.0000 </r>
       <r>    8.8653    1.0000 </r>
       <r>    9.6106    1.0000 </r>
       <r>    9.6355    1.0000 </r>
       <r>   10.2860    1.0000 </r>
       <r>   15.6452    0.0000 </r>
       <r>   20.0755    0.0000 </r>
       <r>   21.7515    0.0000 </r>
       <r>   22.4098    0.0000 </r>
       <r>   28.2044    0.0000 </r>
      </set>
      <set comment="kpoint 26">
       <r>    5.9163    1.0000 </r>
       <r>    6.2858    1.0000 </r>
       <r>    6.3565    1.0000 </r>
       <r>    6.8904    1.0000 </r>
       <r>    7.6260    1.0000 </r>
       <r>    7.9504    1.0000 </r>
       <r>    8.2961    1.0000 </r>
       <r>    9.2400    1.0000 </r>
       <r>    9.6281    1.0000 </r>
       <r>    9.8883    1.0000 </r>
       <r>   11.6942    0.0000 </r>
       <r>   16.7199    0.0000 </r>
       <r>   18.8898    0.0000 </r>
       <r>   20.7671    0.0000 </r>
       <r>   22.1103    0.0000 </r>
       <r>   25.2365    0.0000 </r>
      </set>
      <set comment="kpoint 27">
       <r>    5.9231    1.0000 </r>
       <r>    6.2307    1.0000 </r>
       <r>    6.4728    1.0000 </r>
       <r>    7.0250    1.0000 </r>
       <r>    7.5516    1.0000 </r>
       <r>    7.9669    1.0000 </r>
       <r>    8.4377    1.0000 </r>
       <r>    9.5897    1.0000 </r>
       <r>    9.6067    1.0000 </r>
       <r>    9.8223    1.0000 </r>
       <r>   13.4319    0.0000 </r>
       <r>   14.7671    0.0000 </r>
       <r>   19.8882    0.0000 </r>
       <r>   20.9544    0.0000 </r>
       <r>   21.2446    0.0000 </r>
       <r>   25.1380    0.0000 </r>
      </set>
      <set comment="kpoint 28">
       <r>    6.1576    1.0000 </r>
       <r>    6.4359    1.0000 </r>
       <r>    6.6274    1.0000 </r>
       <r>    6.7733    1.0000 </r>
       <r>    7.5848    1.0000 </r>
       <r>    7.6773    1.0000 </r>
       <r>    8.4857    1.0000 </r>
       <r>    9.4379    1.0000 </r>
       <r>    9.5553    1.0000 </r>
       <r>    9.7708    1.0000 </r>
       <r>   13.8866    0.0000 </r>
       <r>   16.7949    0.0000 </r>
       <r>   16.9390    0.0000 </r>
       <r>   20.9087    0.0000 </r>
       <r>   22.9367    0.0000 </r>
       <r>   24.0895    0.0000 </r>
      </set>
      <set comment="kpoint 29">
       <r>    2.1242    1.0000 </r>
       <r>    5.0849    1.0000 </r>
       <r>    7.6824    1.0000 </r>
       <r>    7.7816    1.0000 </r>
       <r>    7.7816    1.0000 </r>
       <r>    8.0459    1.0000 </r>
       <r>    8.0459    1.0000 </r>
       <r>    8.6337    1.0000 </r>
       <r>    8.8913    1.0000 </r>
       <r>    8.8913    1.0000 </r>
       <r>    9.6343    1.0000 </r>
       <r>    9.6343    1.0000 </r>
       <r>   19.9988    0.0000 </r>
       <r>   31.5871    0.0000 </r>
       <r>   33.1432    0.0000 </r>
       <r>   34.8409    0.0000 </r>
      </set>
      <set comment="kpoint 30">
       <r>    2.4651    1.0000 </r>
       <r>    5.3399    1.0000 </r>
       <r>    7.6079    1.0000 </r>
       <r>    7.6607    1.0000 </r>
       <r>    7.7315    1.0000 </r>
       <r>    7.9163    1.0000 </r>
       <r>    8.1844    1.0000 </r>
       <r>    8.3091    1.0000 </r>
       <r>    8.8439    1.0000 </r>
       <r>    8.9005    1.0000 </r>
       <r>    9.6547    1.0000 </r>
       <r>   10.3973    0.9867 </r>
       <r>   20.2033    0.0000 </r>
       <r>   30.5928    0.0000 </r>
       <r>   31.9268    0.0000 </r>
       <r>   33.1606    0.0000 </r>
      </set>
      <set comment="kpoint 31">
       <r>    3.4079    1.0000 </r>
       <r>    5.9250    1.0000 </r>
       <r>    6.9482    1.0000 </r>
       <r>    7.3672    1.0000 </r>
       <r>    7.6471    1.0000 </r>
       <r>    8.1670    1.0000 </r>
       <r>    8.1693    1.0000 </r>
       <r>    8.5560    1.0000 </r>
       <r>    8.8622    1.0000 </r>
       <r>    8.9892    1.0000 </r>
       <r>    9.6920    1.0000 </r>
       <r>   11.6017    0.0000 </r>
       <r>   20.8373    0.0000 </r>
       <r>   26.1235    0.0000 </r>
       <r>   29.9231    0.0000 </r>
       <r>   30.8092    0.0000 </r>
      </set>
      <set comment="kpoint 32">
       <r>    4.5968    1.0000 </r>
       <r>    6.0959    1.0000 </r>
       <r>    6.5132    1.0000 </r>
       <r>    7.2046    1.0000 </r>
       <r>    7.7665    1.0000 </r>
       <r>    8.1614    1.0000 </r>
       <r>    8.4776    1.0000 </r>
       <r>    9.0675    1.0000 </r>
       <r>    9.2321    1.0000 </r>
       <r>    9.2531    1.0000 </r>
       <r>    9.7386    1.0000 </r>
       <r>   12.9059    0.0000 </r>
       <r>   21.3515    0.0000 </r>
       <r>   22.3556    0.0000 </r>
       <r>   26.2106    0.0000 </r>
       <r>   28.6248    0.0000 </r>
      </set>
      <set comment="kpoint 33">
       <r>    5.2398    1.0000 </r>
       <r>    5.8462    1.0000 </r>
       <r>    6.5096    1.0000 </r>
       <r>    6.9256    1.0000 </r>
       <r>    8.0515    1.0000 </r>
       <r>    8.2364    1.0000 </r>
       <r>    9.3012    1.0000 </r>
       <r>    9.4264    1.0000 </r>
       <r>    9.6823    1.0000 </r>
       <r>    9.8618    1.0000 </r>
       <r>   10.0634    1.0000 </r>
       <r>   14.0217    0.0000 </r>
       <r>   18.5178    0.0000 </r>
       <r>   21.5054    0.0000 </r>
       <r>   24.8769    0.0000 </r>
       <r>   27.1541    0.0000 </r>
      </set>
      <set comment="kpoint 34">
       <r>    5.3136    1.0000 </r>
       <r>    5.7376    1.0000 </r>
       <r>    6.6613    1.0000 </r>
       <r>    6.7322    1.0000 </r>
       <r>    8.0039    1.0000 </r>
       <r>    8.3955    1.0000 </r>
       <r>    9.5008    1.0000 </r>
       <r>    9.5916    1.0000 </r>
       <r>    9.8859    1.0000 </r>
       <r>    9.9675    1.0000 </r>
       <r>   11.4720    0.0000 </r>
       <r>   13.5246    0.0000 </r>
       <r>   18.8366    0.0000 </r>
       <r>   18.9787    0.0000 </r>
       <r>   26.6070    0.0000 </r>
       <r>   26.6268    0.0000 </r>
      </set>
      <set comment="kpoint 35">
       <r>    3.1116    1.0000 </r>
       <r>    5.7842    1.0000 </r>
       <r>    7.1263    1.0000 </r>
       <r>    7.3864    1.0000 </r>
       <r>    7.7067    1.0000 </r>
       <r>    8.0964    1.0000 </r>
       <r>    8.1454    1.0000 </r>
       <r>    8.4350    1.0000 </r>
       <r>    8.9032    1.0000 </r>
       <r>    8.9154    1.0000 </r>
       <r>    9.6794    1.0000 </r>
       <r>   11.2751    0.0000 </r>
       <r>   20.6299    0.0000 </r>
       <r>   28.2261    0.0000 </r>
       <r>   29.0194    0.0000 </r>
       <r>   32.0196    0.0000 </r>
      </set>
      <set comment="kpoint 36">
       <r>    4.2254    1.0000 </r>
       <r>    6.2957    1.0000 </r>
       <r>    6.5912    1.0000 </r>
       <r>    7.1546    1.0000 </r>
       <r>    7.6194    1.0000 </r>
       <r>    8.0512    1.0000 </r>
       <r>    8.2254    1.0000 </r>
       <r>    8.7986    1.0000 </r>
       <r>    9.1745    1.0000 </r>
       <r>    9.2193    1.0000 </r>
       <r>    9.7591    1.0000 </r>
       <r>   12.4817    0.0000 </r>
       <r>   21.4867    0.0000 </r>
       <r>   24.0880    0.0000 </r>
       <r>   26.7289    0.0000 </r>
       <r>   28.4059    0.0000 </r>
      </set>
      <set comment="kpoint 37">
       <r>    5.2210    1.0000 </r>
       <r>    6.1132    1.0000 </r>
       <r>    6.4406    1.0000 </r>
       <r>    7.0903    1.0000 </r>
       <r>    7.7703    1.0000 </r>
       <r>    8.1757    1.0000 </r>
       <r>    8.4637    1.0000 </r>
       <r>    9.1566    1.0000 </r>
       <r>    9.4612    1.0000 </r>
       <r>    9.7105    1.0000 </r>
       <r>   10.2581    1.0000 </r>
       <r>   13.8703    0.0000 </r>
       <r>   19.9859    0.0000 </r>
       <r>   22.5694    0.0000 </r>
       <r>   24.7141    0.0000 </r>
       <r>   25.6741    0.0000 </r>
      </set>
      <set comment="kpoint 38">
       <r>    5.4550    1.0000 </r>
       <r>    5.9332    1.0000 </r>
       <r>    6.6227    1.0000 </r>
       <r>    6.8627    1.0000 </r>
       <r>    7.7398    1.0000 </r>
       <r>    8.4779    1.0000 </r>
       <r>    8.9131    1.0000 </r>
       <r>    9.4127    1.0000 </r>
       <r>    9.7175    1.0000 </r>
       <r>    9.9445    1.0000 </r>
       <r>   11.6622    0.0000 </r>
       <r>   14.3077    0.0000 </r>
       <r>   18.2984    0.0000 </r>
       <r>   20.3546    0.0000 </r>
       <r>   24.4059    0.0000 </r>
       <r>   26.0527    0.0000 </r>
      </set>
      <set comment="kpoint 39">
       <r>    5.2805    1.0000 </r>
       <r>    6.2278    1.0000 </r>
       <r>    6.7971    1.0000 </r>
       <r>    6.8108    1.0000 </r>
       <r>    7.7146    1.0000 </r>
       <r>    7.8763    1.0000 </r>
       <r>    8.1373    1.0000 </r>
       <r>    8.9935    1.0000 </r>
       <r>    9.3919    1.0000 </r>
       <r>    9.7350    1.0000 </r>
       <r>   10.3955    0.9883 </r>
       <r>   13.8362    0.0000 </r>
       <r>   22.1913    0.0000 </r>
       <r>   22.1964    0.0000 </r>
       <r>   23.1699    0.0000 </r>
       <r>   26.8518    0.0000 </r>
      </set>
      <set comment="kpoint 40">
       <r>    5.8453    1.0000 </r>
       <r>    6.2956    1.0000 </r>
       <r>    6.5010    1.0000 </r>
       <r>    7.0168    1.0000 </r>
       <r>    7.5823    1.0000 </r>
       <r>    7.9761    1.0000 </r>
       <r>    8.3724    1.0000 </r>
       <r>    9.2093    1.0000 </r>
       <r>    9.4338    1.0000 </r>
       <r>    9.9657    1.0000 </r>
       <r>   11.8864    0.0000 </r>
       <r>   15.4044    0.0000 </r>
       <r>   18.9372    0.0000 </r>
       <r>   21.2887    0.0000 </r>
       <r>   22.5154    0.0000 </r>
       <r>   25.2690    0.0000 </r>
      </set>
      <set comment="kpoint 41">
       <r>    5.8318    1.0000 </r>
       <r>    6.3393    1.0000 </r>
       <r>    6.7086    1.0000 </r>
       <r>    6.8725    1.0000 </r>
       <r>    7.4374    1.0000 </r>
       <r>    8.1528    1.0000 </r>
       <r>    8.5514    1.0000 </r>
       <r>    9.2885    1.0000 </r>
       <r>    9.6120    1.0000 </r>
       <r>    9.8760    1.0000 </r>
       <r>   13.6866    0.0000 </r>
       <r>   14.7404    0.0000 </r>
       <r>   19.2411    0.0000 </r>
       <r>   19.6071    0.0000 </r>
       <r>   21.2592    0.0000 </r>
       <r>   25.3967    0.0000 </r>
      </set>
      <set comment="kpoint 42">
       <r>    6.2259    1.0000 </r>
       <r>    6.4602    1.0000 </r>
       <r>    6.7501    1.0000 </r>
       <r>    6.7696    1.0000 </r>
       <r>    7.5534    1.0000 </r>
       <r>    7.6602    1.0000 </r>
       <r>    8.4689    1.0000 </r>
       <r>    9.2136    1.0000 </r>
       <r>    9.5307    1.0000 </r>
       <r>    9.8219    1.0000 </r>
       <r>   14.2182    0.0000 </r>
       <r>   16.5961    0.0000 </r>
       <r>   17.3756    0.0000 </r>
       <r>   19.8183    0.0000 </r>
       <r>   21.9406    0.0000 </r>
       <r>   22.6432    0.0000 </r>
      </set>
      <set comment="kpoint 43">
       <r>    2.8545    1.0000 </r>
       <r>    4.5911    1.0000 </r>
       <r>    7.5608    1.0000 </r>
       <r>    7.7682    1.0000 </r>
       <r>    7.7682    1.0000 </r>
       <r>    7.8120    1.0000 </r>
       <r>    7.9200    1.0000 </r>
       <r>    7.9200    1.0000 </r>
       <r>    9.1410    1.0000 </r>
       <r>    9.1410    1.0000 </r>
       <r>    9.5350    1.0000 </r>
       <r>    9.5350    1.0000 </r>
       <r>   22.6682    0.0000 </r>
       <r>   28.6779    0.0000 </r>
       <r>   33.1339    0.0000 </r>
       <r>   34.0810    0.0000 </r>
      </set>
      <set comment="kpoint 44">
       <r>    3.1776    1.0000 </r>
       <r>    4.8730    1.0000 </r>
       <r>    7.3624    1.0000 </r>
       <r>    7.4959    1.0000 </r>
       <r>    7.6849    1.0000 </r>
       <r>    7.9010    1.0000 </r>
       <r>    8.0387    1.0000 </r>
       <r>    8.0576    1.0000 </r>
       <r>    9.1094    1.0000 </r>
       <r>    9.1898    1.0000 </r>
       <r>    9.5365    1.0000 </r>
       <r>    9.8596    1.0000 </r>
       <r>   22.9029    0.0000 </r>
       <r>   28.9265    0.0000 </r>
       <r>   31.1225    0.0000 </r>
       <r>   32.5044    0.0000 </r>
      </set>
      <set comment="kpoint 45">
       <r>    4.0378    1.0000 </r>
       <r>    5.5284    1.0000 </r>
       <r>    6.8796    1.0000 </r>
       <r>    7.3257    1.0000 </r>
       <r>    7.5668    1.0000 </r>
       <r>    7.9840    1.0000 </r>
       <r>    8.2000    1.0000 </r>
       <r>    8.4222    1.0000 </r>
       <r>    9.1010    1.0000 </r>
       <r>    9.3567    1.0000 </r>
       <r>    9.5437    1.0000 </r>
       <r>   10.5626    0.0070 </r>
       <r>   23.5747    0.0000 </r>
       <r>   26.7733    0.0000 </r>
       <r>   28.5978    0.0000 </r>
       <r>   29.9187    0.0000 </r>
      </set>
      <set comment="kpoint 46">
       <r>    4.9634    1.0000 </r>
       <r>    5.8097    1.0000 </r>
       <r>    6.6682    1.0000 </r>
       <r>    7.1170    1.0000 </r>
       <r>    7.8927    1.0000 </r>
       <r>    8.3593    1.0000 </r>
       <r>    8.4023    1.0000 </r>
       <r>    8.8533    1.0000 </r>
       <r>    9.3381    1.0000 </r>
       <r>    9.6114    1.0000 </r>
       <r>    9.6251    1.0000 </r>
       <r>   11.4518    0.0000 </r>
       <r>   22.3917    0.0000 </r>
       <r>   23.8882    0.0000 </r>
       <r>   25.6917    0.0000 </r>
       <r>   29.6465    0.0000 </r>
      </set>
      <set comment="kpoint 47">
       <r>    5.2948    1.0000 </r>
       <r>    5.7014    1.0000 </r>
       <r>    6.5790    1.0000 </r>
       <r>    6.8880    1.0000 </r>
       <r>    8.3379    1.0000 </r>
       <r>    8.5613    1.0000 </r>
       <r>    9.0786    1.0000 </r>
       <r>    9.6288    1.0000 </r>
       <r>    9.7230    1.0000 </r>
       <r>    9.8208    1.0000 </r>
       <r>   10.2104    1.0000 </r>
       <r>   12.5485    0.0000 </r>
       <r>   18.9978    0.0000 </r>
       <r>   20.6428    0.0000 </r>
       <r>   26.9931    0.0000 </r>
       <r>   28.2472    0.0000 </r>
      </set>
      <set comment="kpoint 48">
       <r>    5.3034    1.0000 </r>
       <r>    5.6449    1.0000 </r>
       <r>    6.5629    1.0000 </r>
       <r>    6.7859    1.0000 </r>
       <r>    8.3136    1.0000 </r>
       <r>    8.8036    1.0000 </r>
       <r>    9.1195    1.0000 </r>
       <r>    9.9039    1.0000 </r>
       <r>    9.9353    1.0000 </r>
       <r>    9.9486    1.0000 </r>
       <r>   11.4693    0.0000 </r>
       <r>   12.9409    0.0000 </r>
       <r>   18.1833    0.0000 </r>
       <r>   18.2186    0.0000 </r>
       <r>   27.7463    0.0000 </r>
       <r>   28.8082    0.0000 </r>
      </set>
      <set comment="kpoint 49">
       <r>    3.7766    1.0000 </r>
       <r>    5.3629    1.0000 </r>
       <r>    6.9842    1.0000 </r>
       <r>    7.3809    1.0000 </r>
       <r>    7.5505    1.0000 </r>
       <r>    7.9348    1.0000 </r>
       <r>    8.1457    1.0000 </r>
       <r>    8.3208    1.0000 </r>
       <r>    9.1283    1.0000 </r>
       <r>    9.2672    1.0000 </r>
       <r>    9.5580    1.0000 </r>
       <r>   10.3608    0.9994 </r>
       <r>   23.3689    0.0000 </r>
       <r>   28.7851    0.0000 </r>
       <r>   29.3370    0.0000 </r>
       <r>   29.5969    0.0000 </r>
      </set>
      <set comment="kpoint 50">
       <r>    4.7304    1.0000 </r>
       <r>    5.9011    1.0000 </r>
       <r>    6.7460    1.0000 </r>
       <r>    7.2139    1.0000 </r>
       <r>    7.5004    1.0000 </r>
       <r>    7.8718    1.0000 </r>
       <r>    8.3334    1.0000 </r>
       <r>    8.7225    1.0000 </r>
       <r>    9.3396    1.0000 </r>
       <r>    9.4713    1.0000 </r>
       <r>    9.7128    1.0000 </r>
       <r>   11.1617    0.0000 </r>
       <r>   24.0719    0.0000 </r>
       <r>   24.8610    0.0000 </r>
       <r>   26.7457    0.0000 </r>
       <r>   27.8869    0.0000 </r>
      </set>
      <set comment="kpoint 51">
       <r>    5.3821    1.0000 </r>
       <r>    5.8919    1.0000 </r>
       <r>    6.6476    1.0000 </r>
       <r>    7.0866    1.0000 </r>
       <r>    7.8832    1.0000 </r>
       <r>    8.2673    1.0000 </r>
       <r>    8.5620    1.0000 </r>
       <r>    8.9446    1.0000 </r>
       <r>    9.5610    1.0000 </r>
       <r>    9.8333    1.0000 </r>
       <r>   10.4207    0.9399 </r>
       <r>   12.3199    0.0000 </r>
       <r>   20.6981    0.0000 </r>
       <r>   22.5294    0.0000 </r>
       <r>   25.8258    0.0000 </r>
       <r>   26.7228    0.0000 </r>
      </set>
      <set comment="kpoint 52">
       <r>    5.4616    1.0000 </r>
       <r>    5.8240    1.0000 </r>
       <r>    6.6065    1.0000 </r>
       <r>    6.9334    1.0000 </r>
       <r>    7.9539    1.0000 </r>
       <r>    8.7602    1.0000 </r>
       <r>    8.9105    1.0000 </r>
       <r>    9.2579    1.0000 </r>
       <r>    9.7229    1.0000 </r>
       <r>    9.9625    1.0000 </r>
       <r>   11.9076    0.0000 </r>
       <r>   13.4381    0.0000 </r>
       <r>   18.1795    0.0000 </r>
       <r>   19.3388    0.0000 </r>
       <r>   25.3573    0.0000 </r>
       <r>   27.7421    0.0000 </r>
      </set>
      <set comment="kpoint 53">
       <r>    5.5251    1.0000 </r>
       <r>    6.0424    1.0000 </r>
       <r>    6.9650    1.0000 </r>
       <r>    7.0218    1.0000 </r>
       <r>    7.6257    1.0000 </r>
       <r>    7.6411    1.0000 </r>
       <r>    8.2683    1.0000 </r>
       <r>    8.8519    1.0000 </r>
       <r>    9.5717    1.0000 </r>
       <r>    9.8414    1.0000 </r>
       <r>   10.5790    0.0017 </r>
       <r>   12.3138    0.0000 </r>
       <r>   22.8703    0.0000 </r>
       <r>   23.3539    0.0000 </r>
       <r>   24.4143    0.0000 </r>
       <r>   25.7699    0.0000 </r>
      </set>
      <set comment="kpoint 54">
       <r>    5.8660    1.0000 </r>
       <r>    6.1357    1.0000 </r>
       <r>    6.7421    1.0000 </r>
       <r>    7.2559    1.0000 </r>
       <r>    7.4482    1.0000 </r>
       <r>    7.9537    1.0000 </r>
       <r>    8.4699    1.0000 </r>
       <r>    8.8847    1.0000 </r>
       <r>    9.6251    1.0000 </r>
       <r>    9.9891    1.0000 </r>
       <r>   12.2666    0.0000 </r>
       <r>   14.0460    0.0000 </r>
       <r>   19.4863    0.0000 </r>
       <r>   21.2289    0.0000 </r>
       <r>   22.3677    0.0000 </r>
       <r>   24.4290    0.0000 </r>
      </set>
      <set comment="kpoint 55">
       <r>    5.8610    1.0000 </r>
       <r>    6.2343    1.0000 </r>
       <r>    6.7121    1.0000 </r>
       <r>    7.2233    1.0000 </r>
       <r>    7.3352    1.0000 </r>
       <r>    8.1264    1.0000 </r>
       <r>    8.7037    1.0000 </r>
       <r>    8.9773    1.0000 </r>
       <r>    9.6785    1.0000 </r>
       <r>    9.8772    1.0000 </r>
       <r>   14.0444    0.0000 </r>
       <r>   14.6437    0.0000 </r>
       <r>   18.5047    0.0000 </r>
       <r>   18.6330    0.0000 </r>
       <r>   21.9337    0.0000 </r>
       <r>   24.1059    0.0000 </r>
      </set>
      <set comment="kpoint 56">
       <r>    6.3060    1.0000 </r>
       <r>    6.4330    1.0000 </r>
       <r>    6.8252    1.0000 </r>
       <r>    6.9285    1.0000 </r>
       <r>    7.4572    1.0000 </r>
       <r>    7.6482    1.0000 </r>
       <r>    8.4852    1.0000 </r>
       <r>    8.8512    1.0000 </r>
       <r>    9.6556    1.0000 </r>
       <r>    9.8359    1.0000 </r>
       <r>   14.7095    0.0000 </r>
       <r>   16.0595    0.0000 </r>
       <r>   18.0506    0.0000 </r>
       <r>   19.3263    0.0000 </r>
       <r>   20.9171    0.0000 </r>
       <r>   21.4513    0.0000 </r>
      </set>
      <set comment="kpoint 57">
       <r>    3.7514    1.0000 </r>
       <r>    3.7514    1.0000 </r>
       <r>    7.5318    1.0000 </r>
       <r>    7.5318    1.0000 </r>
       <r>    7.8177    1.0000 </r>
       <r>    7.8177    1.0000 </r>
       <r>    7.8177    1.0000 </r>
       <r>    7.8177    1.0000 </r>
       <r>    9.3665    1.0000 </r>
       <r>    9.3665    1.0000 </r>
       <r>    9.3665    1.0000 </r>
       <r>    9.3665    1.0000 </r>
       <r>   25.6119    0.0000 </r>
       <r>   25.6119    0.0000 </r>
       <r>   33.4842    0.0000 </r>
       <r>   33.4842    0.0000 </r>
      </set>
      <set comment="kpoint 58">
       <r>    4.0528    1.0000 </r>
       <r>    4.0528    1.0000 </r>
       <r>    7.3318    1.0000 </r>
       <r>    7.3318    1.0000 </r>
       <r>    7.8248    1.0000 </r>
       <r>    7.8248    1.0000 </r>
       <r>    7.9529    1.0000 </r>
       <r>    7.9529    1.0000 </r>
       <r>    9.3502    1.0000 </r>
       <r>    9.3502    1.0000 </r>
       <r>    9.5028    1.0000 </r>
       <r>    9.5028    1.0000 </r>
       <r>   25.8599    0.0000 </r>
       <r>   25.8599    0.0000 </r>
       <r>   31.7568    0.0000 </r>
       <r>   31.7568    0.0000 </r>
      </set>
      <set comment="kpoint 59">
       <r>    4.8026    1.0000 </r>
       <r>    4.8026    1.0000 </r>
       <r>    7.0689    1.0000 </r>
       <r>    7.0689    1.0000 </r>
       <r>    7.7572    1.0000 </r>
       <r>    7.7572    1.0000 </r>
       <r>    8.2912    1.0000 </r>
       <r>    8.2912    1.0000 </r>
       <r>    9.3397    1.0000 </r>
       <r>    9.3397    1.0000 </r>
       <r>    9.8519    1.0000 </r>
       <r>    9.8519    1.0000 </r>
       <r>   26.4153    0.0000 </r>
       <r>   26.4153    0.0000 </r>
       <r>   27.8591    0.0000 </r>
       <r>   27.8591    0.0000 </r>
      </set>
      <set comment="kpoint 60">
       <r>    5.3910    1.0000 </r>
       <r>    5.3910    1.0000 </r>
       <r>    6.9101    1.0000 </r>
       <r>    6.9101    1.0000 </r>
       <r>    8.1593    1.0000 </r>
       <r>    8.1593    1.0000 </r>
       <r>    8.6020    1.0000 </r>
       <r>    8.6020    1.0000 </r>
       <r>    9.4714    1.0000 </r>
       <r>    9.4714    1.0000 </r>
       <r>   10.3546    0.9997 </r>
       <r>   10.3546    0.9997 </r>
       <r>   23.2889    0.0000 </r>
       <r>   23.2889    0.0000 </r>
       <r>   27.9830    0.0000 </r>
       <r>   27.9830    0.0000 </r>
      </set>
      <set comment="kpoint 61">
       <r>    5.4662    1.0000 </r>
       <r>    5.4662    1.0000 </r>
       <r>    6.7459    1.0000 </r>
       <r>    6.7459    1.0000 </r>
       <r>    8.6956    1.0000 </r>
       <r>    8.6956    1.0000 </r>
       <r>    9.0996    1.0000 </r>
       <r>    9.0996    1.0000 </r>
       <r>    9.7719    1.0000 </r>
       <r>    9.7719    1.0000 </r>
       <r>   11.2656    0.0000 </r>
       <r>   11.2656    0.0000 </r>
       <r>   19.7241    0.0000 </r>
       <r>   19.7241    0.0000 </r>
       <r>   29.3808    0.0000 </r>
       <r>   29.3808    0.0000 </r>
      </set>
      <set comment="kpoint 62">
       <r>    5.4376    1.0000 </r>
       <r>    5.4376    1.0000 </r>
       <r>    6.6752    1.0000 </r>
       <r>    6.6752    1.0000 </r>
       <r>    8.7018    1.0000 </r>
       <r>    8.7018    1.0000 </r>
       <r>    9.4495    1.0000 </r>
       <r>    9.4495    1.0000 </r>
       <r>    9.9262    1.0000 </r>
       <r>    9.9262    1.0000 </r>
       <r>   12.1580    0.0000 </r>
       <r>   12.1580    0.0000 </r>
       <r>   17.9610    0.0000 </r>
       <r>   17.9610    0.0000 </r>
       <r>   29.1865    0.0000 </r>
       <r>   29.1865    0.0000 </r>
      </set>
      <set comment="kpoint 63">
       <r>    4.5908    1.0000 </r>
       <r>    4.5908    1.0000 </r>
       <r>    7.1297    1.0000 </r>
       <r>    7.1297    1.0000 </r>
       <r>    7.7214    1.0000 </r>
       <r>    7.7214    1.0000 </r>
       <r>    8.2122    1.0000 </r>
       <r>    8.2122    1.0000 </r>
       <r>    9.3468    1.0000 </r>
       <r>    9.3468    1.0000 </r>
       <r>    9.7463    1.0000 </r>
       <r>    9.7463    1.0000 </r>
       <r>   26.3264    0.0000 </r>
       <r>   26.3264    0.0000 </r>
       <r>   29.4695    0.0000 </r>
       <r>   29.4695    0.0000 </r>
      </set>
      <set comment="kpoint 64">
       <r>    5.3250    1.0000 </r>
       <r>    5.3250    1.0000 </r>
       <r>    7.0128    1.0000 </r>
       <r>    7.0128    1.0000 </r>
       <r>    7.6444    1.0000 </r>
       <r>    7.6444    1.0000 </r>
       <r>    8.5209    1.0000 </r>
       <r>    8.5209    1.0000 </r>
       <r>    9.5006    1.0000 </r>
       <r>    9.5006    1.0000 </r>
       <r>   10.1951    1.0000 </r>
       <r>   10.1951    1.0000 </r>
       <r>   25.4584    0.0000 </r>
       <r>   25.4584    0.0000 </r>
       <r>   27.3666    0.0000 </r>
       <r>   27.3666    0.0000 </r>
      </set>
      <set comment="kpoint 65">
       <r>    5.6170    1.0000 </r>
       <r>    5.6170    1.0000 </r>
       <r>    6.8996    1.0000 </r>
       <r>    6.8996    1.0000 </r>
       <r>    8.1581    1.0000 </r>
       <r>    8.1581    1.0000 </r>
       <r>    8.6656    1.0000 </r>
       <r>    8.6656    1.0000 </r>
       <r>    9.7854    1.0000 </r>
       <r>    9.7854    1.0000 </r>
       <r>   11.1144    0.0000 </r>
       <r>   11.1144    0.0000 </r>
       <r>   21.5704    0.0000 </r>
       <r>   21.5704    0.0000 </r>
       <r>   27.1470    0.0000 </r>
       <r>   27.1470    0.0000 </r>
      </set>
      <set comment="kpoint 66">
       <r>    5.6040    1.0000 </r>
       <r>    5.6040    1.0000 </r>
       <r>    6.7812    1.0000 </r>
       <r>    6.7812    1.0000 </r>
       <r>    8.4005    1.0000 </r>
       <r>    8.4005    1.0000 </r>
       <r>    9.1242    1.0000 </r>
       <r>    9.1242    1.0000 </r>
       <r>    9.8395    1.0000 </r>
       <r>    9.8395    1.0000 </r>
       <r>   12.5483    0.0000 </r>
       <r>   12.5483    0.0000 </r>
       <r>   18.5747    0.0000 </r>
       <r>   18.5747    0.0000 </r>
       <r>   26.4948    0.0000 </r>
       <r>   26.4948    0.0000 </r>
      </set>
      <set comment="kpoint 67">
       <r>    5.7955    1.0000 </r>
       <r>    5.7955    1.0000 </r>
       <r>    7.1208    1.0000 </r>
       <r>    7.1208    1.0000 </r>
       <r>    7.5089    1.0000 </r>
       <r>    7.5089    1.0000 </r>
       <r>    8.5282    1.0000 </r>
       <r>    8.5282    1.0000 </r>
       <r>    9.8369    1.0000 </r>
       <r>    9.8369    1.0000 </r>
       <r>   11.1705    0.0000 </r>
       <r>   11.1705    0.0000 </r>
       <r>   23.6663    0.0000 </r>
       <r>   23.6663    0.0000 </r>
       <r>   24.5709    0.0000 </r>
       <r>   24.5709    0.0000 </r>
      </set>
      <set comment="kpoint 68">
       <r>    5.9721    1.0000 </r>
       <r>    5.9721    1.0000 </r>
       <r>    7.0269    1.0000 </r>
       <r>    7.0269    1.0000 </r>
       <r>    7.7434    1.0000 </r>
       <r>    7.7434    1.0000 </r>
       <r>    8.6114    1.0000 </r>
       <r>    8.6114    1.0000 </r>
       <r>    9.8751    1.0000 </r>
       <r>    9.8751    1.0000 </r>
       <r>   12.9674    0.0000 </r>
       <r>   12.9674    0.0000 </r>
       <r>   20.3011    0.0000 </r>
       <r>   20.3011    0.0000 </r>
       <r>   23.2717    0.0000 </r>
       <r>   23.2717    0.0000 </r>
      </set>
      <set comment="kpoint 69">
       <r>    6.0055    1.0000 </r>
       <r>    6.0055    1.0000 </r>
       <r>    6.9611    1.0000 </r>
       <r>    6.9611    1.0000 </r>
       <r>    7.7963    1.0000 </r>
       <r>    7.7963    1.0000 </r>
       <r>    8.8246    1.0000 </r>
       <r>    8.8246    1.0000 </r>
       <r>    9.7910    1.0000 </r>
       <r>    9.7910    1.0000 </r>
       <r>   14.4057    0.0000 </r>
       <r>   14.4057    0.0000 </r>
       <r>   18.2442    0.0000 </r>
       <r>   18.2442    0.0000 </r>
       <r>   22.9160    0.0000 </r>
       <r>   22.9160    0.0000 </r>
      </set>
      <set comment="kpoint 70">
       <r>    6.3765    1.0000 </r>
       <r>    6.3765    1.0000 </r>
       <r>    6.9348    1.0000 </r>
       <r>    6.9348    1.0000 </r>
       <r>    7.5272    1.0000 </r>
       <r>    7.5272    1.0000 </r>
       <r>    8.5956    1.0000 </r>
       <r>    8.5956    1.0000 </r>
       <r>    9.7761    1.0000 </r>
       <r>    9.7761    1.0000 </r>
       <r>   15.3482    0.0000 </r>
       <r>   15.3482    0.0000 </r>
       <r>   18.8237    0.0000 </r>
       <r>   18.8237    0.0000 </r>
       <r>   20.7262    0.0000 </r>
       <r>   20.7262    0.0000 </r>
      </set>
     </set>
     <set comment="spin 2">
      <set comment="kpoint 1">
       <r>    1.5204    1.0000 </r>
       <r>    6.2562    1.0000 </r>
       <r>    9.5007    1.0000 </r>
       <r>    9.5677    1.0000 </r>
       <r>    9.5677    1.0000 </r>
       <r>    9.9367    1.0000 </r>
       <r>    9.9367    1.0000 </r>
       <r>   10.3328    1.0000 </r>
       <r>   10.3956    0.9882 </r>
       <r>   10.3956    0.9882 </r>
       <r>   11.6213    0.0000 </r>
       <r>   11.6213    0.0000 </r>
       <r>   18.0087    0.0000 </r>
       <r>   32.4900    0.0000 </r>
       <r>   35.7450    0.0000 </r>
       <r>   35.8357    0.0000 </r>
      </set>
      <set comment="kpoint 2">
       <r>    1.8775    1.0000 </r>
       <r>    6.4978    1.0000 </r>
       <r>    9.2024    1.0000 </r>
       <r>    9.4749    1.0000 </r>
       <r>    9.7517    1.0000 </r>
       <r>    9.7649    1.0000 </r>
       <r>    9.8658    1.0000 </r>
       <r>   10.0994    1.0000 </r>
       <r>   10.2762    1.0000 </r>
       <r>   10.3006    1.0000 </r>
       <r>   11.6709    0.0000 </r>
       <r>   12.7880    0.0000 </r>
       <r>   18.0364    0.0000 </r>
       <r>   30.4094    0.0000 </r>
       <r>   33.1529    0.0000 </r>
       <r>   33.2236    0.0000 </r>
      </set>
      <set comment="kpoint 3">
       <r>    2.8996    1.0000 </r>
       <r>    7.0590    1.0000 </r>
       <r>    8.4828    1.0000 </r>
       <r>    8.7750    1.0000 </r>
       <r>    9.5505    1.0000 </r>
       <r>   10.0042    1.0000 </r>
       <r>   10.0657    1.0000 </r>
       <r>   10.2417    1.0000 </r>
       <r>   10.2606    1.0000 </r>
       <r>   10.5445    0.0257 </r>
       <r>   11.7625    0.0000 </r>
       <r>   14.6834    0.0000 </r>
       <r>   18.1548    0.0000 </r>
       <r>   26.0014    0.0000 </r>
       <r>   30.3750    0.0000 </r>
       <r>   32.0859    0.0000 </r>
      </set>
      <set comment="kpoint 4">
       <r>    4.4011    1.0000 </r>
       <r>    7.3475    1.0000 </r>
       <r>    7.7692    1.0000 </r>
       <r>    8.5315    1.0000 </r>
       <r>    9.4950    1.0000 </r>
       <r>    9.7147    1.0000 </r>
       <r>    9.7815    1.0000 </r>
       <r>   10.9164    0.0000 </r>
       <r>   10.9504    0.0000 </r>
       <r>   11.1397    0.0000 </r>
       <r>   11.8322    0.0000 </r>
       <r>   16.8570    0.0000 </r>
       <r>   18.3228    0.0000 </r>
       <r>   22.0097    0.0000 </r>
       <r>   28.0296    0.0000 </r>
       <r>   29.1106    0.0000 </r>
      </set>
      <set comment="kpoint 5">
       <r>    5.9003    1.0000 </r>
       <r>    7.1326    1.0000 </r>
       <r>    7.3496    1.0000 </r>
       <r>    8.5520    1.0000 </r>
       <r>    9.5038    1.0000 </r>
       <r>    9.5557    1.0000 </r>
       <r>    9.7636    1.0000 </r>
       <r>   11.5490    0.0000 </r>
       <r>   11.6924    0.0000 </r>
       <r>   11.8681    0.0000 </r>
       <r>   11.9825    0.0000 </r>
       <r>   16.9301    0.0000 </r>
       <r>   19.1776    0.0000 </r>
       <r>   20.7047    0.0000 </r>
       <r>   25.8687    0.0000 </r>
       <r>   26.4166    0.0000 </r>
      </set>
      <set comment="kpoint 6">
       <r>    6.6085    1.0000 </r>
       <r>    6.8977    1.0000 </r>
       <r>    7.2123    1.0000 </r>
       <r>    8.6848    1.0000 </r>
       <r>    9.4273    1.0000 </r>
       <r>    9.4703    1.0000 </r>
       <r>    9.8932    1.0000 </r>
       <r>   11.7751    0.0000 </r>
       <r>   11.8785    0.0000 </r>
       <r>   11.9396    0.0000 </r>
       <r>   13.1505    0.0000 </r>
       <r>   14.9542    0.0000 </r>
       <r>   20.7710    0.0000 </r>
       <r>   21.4191    0.0000 </r>
       <r>   23.9757    0.0000 </r>
       <r>   25.2911    0.0000 </r>
      </set>
      <set comment="kpoint 7">
       <r>    2.5689    1.0000 </r>
       <r>    6.9141    1.0000 </r>
       <r>    8.7400    1.0000 </r>
       <r>    8.8586    1.0000 </r>
       <r>    9.6564    1.0000 </r>
       <r>    9.9357    1.0000 </r>
       <r>   10.0040    1.0000 </r>
       <r>   10.1252    1.0000 </r>
       <r>   10.2811    1.0000 </r>
       <r>   10.4593    0.6783 </r>
       <r>   11.7185    0.0000 </r>
       <r>   14.1513    0.0000 </r>
       <r>   18.1161    0.0000 </r>
       <r>   28.0532    0.0000 </r>
       <r>   28.8307    0.0000 </r>
       <r>   34.5354    0.0000 </r>
      </set>
      <set comment="kpoint 8">
       <r>    3.8474    1.0000 </r>
       <r>    7.4255    1.0000 </r>
       <r>    8.0273    1.0000 </r>
       <r>    8.4446    1.0000 </r>
       <r>    9.4936    1.0000 </r>
       <r>    9.5985    1.0000 </r>
       <r>   10.0693    1.0000 </r>
       <r>   10.3893    0.9927 </r>
       <r>   10.7719    0.0000 </r>
       <r>   11.0971    0.0000 </r>
       <r>   11.7664    0.0000 </r>
       <r>   16.0893    0.0000 </r>
       <r>   18.3521    0.0000 </r>
       <r>   23.9883    0.0000 </r>
       <r>   26.5239    0.0000 </r>
       <r>   31.0192    0.0000 </r>
      </set>
      <set comment="kpoint 9">
       <r>    5.4132    1.0000 </r>
       <r>    7.4053    1.0000 </r>
       <r>    7.5373    1.0000 </r>
       <r>    8.3444    1.0000 </r>
       <r>    9.3794    1.0000 </r>
       <r>    9.6425    1.0000 </r>
       <r>    9.7619    1.0000 </r>
       <r>   10.9991    0.0000 </r>
       <r>   11.4236    0.0000 </r>
       <r>   11.7983    0.0000 </r>
       <r>   11.9145    0.0000 </r>
       <r>   18.2534    0.0000 </r>
       <r>   18.3269    0.0000 </r>
       <r>   20.8628    0.0000 </r>
       <r>   24.9012    0.0000 </r>
       <r>   27.5835    0.0000 </r>
      </set>
      <set comment="kpoint 10">
       <r>    6.5812    1.0000 </r>
       <r>    7.1325    1.0000 </r>
       <r>    7.2956    1.0000 </r>
       <r>    8.4652    1.0000 </r>
       <r>    9.3297    1.0000 </r>
       <r>    9.4949    1.0000 </r>
       <r>    9.8931    1.0000 </r>
       <r>   11.6186    0.0000 </r>
       <r>   11.7734    0.0000 </r>
       <r>   11.8112    0.0000 </r>
       <r>   13.0329    0.0000 </r>
       <r>   15.9078    0.0000 </r>
       <r>   20.5767    0.0000 </r>
       <r>   21.3331    0.0000 </r>
       <r>   23.8573    0.0000 </r>
       <r>   24.7366    0.0000 </r>
      </set>
      <set comment="kpoint 11">
       <r>    5.2397    1.0000 </r>
       <r>    7.6609    1.0000 </r>
[...]
       </set>
       <set comment="band 12">
        <r>  0.0400  0.0047  0.0182  0.0533  0.0263  0.0128  0.0694  0.1217  0.1354 </r>
        <r>  0.0270  0.0031  0.0271  0.0359  0.0178  0.0190  0.0468  0.1804  0.0913 </r>
       </set>
       <set comment="band 13">
        <r>  0.0336  0.0190  0.0387  0.0218  0.0373  0.0422  0.0072  0.0777  0.0044 </r>
        <r>  0.1432  0.0810  0.0091  0.0928  0.1587  0.0099  0.0308  0.0183  0.0187 </r>
       </set>
       <set comment="band 14">
        <r>  0.1432  0.0810  0.0091  0.0928  0.1587  0.0099  0.0308  0.0183  0.0187 </r>
        <r>  0.0336  0.0190  0.0387  0.0218  0.0373  0.0422  0.0072  0.0777  0.0044 </r>
       </set>
       <set comment="band 15">
        <r>  0.0153  0.0491  0.0077  0.0499  0.0426  0.0498  0.0247  0.0606  0.0000 </r>
        <r>  0.0363  0.1166  0.0032  0.1186  0.1011  0.0210  0.0586  0.0255  0.0001 </r>
       </set>
       <set comment="band 16">
        <r>  0.0363  0.1166  0.0032  0.1186  0.1011  0.0210  0.0586  0.0255  0.0001 </r>
        <r>  0.0153  0.0491  0.0077  0.0499  0.0426  0.0498  0.0247  0.0606  0.0000 </r>
       </set>
      </set>
      <set comment="kpoint 66">
       <set comment="band 1">
        <r>  0.0830  0.0040  0.0032  0.0156  0.1451  0.0243  0.0156  0.0974  0.0551 </r>
        <r>  0.0375  0.0018  0.0071  0.0071  0.0656  0.0538  0.0071  0.2156  0.0249 </r>
       </set>
       <set comment="band 2">
        <r>  0.0375  0.0018  0.0071  0.0071  0.0656  0.0538  0.0071  0.2156  0.0249 </r>
        <r>  0.0830  0.0040  0.0032  0.0156  0.1451  0.0243  0.0156  0.0974  0.0551 </r>
       </set>
       <set comment="band 3">
        <r>  0.0007  0.0063  0.0071  0.0103  0.1559  0.0212  0.1085  0.0886  0.0442 </r>
        <r>  0.0009  0.0076  0.0059  0.0125  0.1882  0.0175  0.1309  0.0734  0.0534 </r>
       </set>
       <set comment="band 4">
        <r>  0.0009  0.0076  0.0059  0.0125  0.1882  0.0175  0.1309  0.0734  0.0534 </r>
        <r>  0.0007  0.0063  0.0071  0.0103  0.1559  0.0212  0.1085  0.0886  0.0442 </r>
       </set>
       <set comment="band 5">
        <r>  0.0011  0.0027  0.0359  0.0075  0.0037  0.3573  0.0107  0.0769  0.0032 </r>
        <r>  0.0137  0.0331  0.0029  0.0929  0.0456  0.0288  0.1327  0.0062  0.0394 </r>
       </set>
       <set comment="band 6">
        <r>  0.0137  0.0331  0.0029  0.0929  0.0456  0.0288  0.1327  0.0062  0.0394 </r>
        <r>  0.0011  0.0027  0.0359  0.0075  0.0037  0.3573  0.0107  0.0769  0.0032 </r>
       </set>
       <set comment="band 7">
        <r>  0.0025  0.0174  0.0035  0.0415  0.1075  0.0697  0.0911  0.0143  0.1488 </r>
        <r>  0.0006  0.0044  0.0141  0.0104  0.0269  0.2782  0.0228  0.0571  0.0373 </r>
       </set>
       <set comment="band 8">
        <r>  0.0006  0.0044  0.0141  0.0104  0.0269  0.2782  0.0228  0.0571  0.0373 </r>
        <r>  0.0025  0.0174  0.0035  0.0415  0.1075  0.0697  0.0911  0.0143  0.1488 </r>
       </set>
       <set comment="band 9">
        <r>  0.0003  0.0000  0.0011  0.0013  0.0428  0.0238  0.2286  0.0673  0.1770 </r>
        <r>  0.0002  0.0000  0.0015  0.0009  0.0297  0.0343  0.1586  0.0970  0.1228 </r>
       </set>
       <set comment="band 10">
        <r>  0.0002  0.0000  0.0015  0.0009  0.0297  0.0343  0.1586  0.0970  0.1228 </r>
        <r>  0.0003  0.0000  0.0011  0.0013  0.0428  0.0238  0.2286  0.0673  0.1770 </r>
       </set>
       <set comment="band 11">
        <r>  0.0040  0.0062  0.0613  0.0279  0.0081  0.0182  0.0071  0.0984  0.0364 </r>
        <r>  0.0262  0.0408  0.0094  0.1819  0.0532  0.0028  0.0461  0.0151  0.2371 </r>
       </set>
       <set comment="band 12">
        <r>  0.0262  0.0408  0.0094  0.1819  0.0532  0.0028  0.0461  0.0151  0.2371 </r>
        <r>  0.0040  0.0062  0.0613  0.0279  0.0081  0.0182  0.0071  0.0984  0.0364 </r>
       </set>
       <set comment="band 13">
        <r>  0.3198  0.0502  0.0001  0.0286  0.1892  0.0002  0.0233  0.0005  0.0364 </r>
        <r>  0.0012  0.0002  0.0361  0.0001  0.0007  0.0600  0.0001  0.1405  0.0001 </r>
       </set>
       <set comment="band 14">
        <r>  0.0012  0.0002  0.0361  0.0001  0.0007  0.0600  0.0001  0.1405  0.0001 </r>
        <r>  0.3198  0.0502  0.0001  0.0286  0.1892  0.0002  0.0233  0.0005  0.0364 </r>
       </set>
       <set comment="band 15">
        <r>  0.0112  0.0357  0.0088  0.0164  0.0149  0.0899  0.0066  0.0447  0.0014 </r>
        <r>  0.0664  0.2110  0.0015  0.0972  0.0882  0.0152  0.0388  0.0076  0.0085 </r>
       </set>
       <set comment="band 16">
        <r>  0.0664  0.2110  0.0015  0.0972  0.0882  0.0152  0.0388  0.0076  0.0085 </r>
        <r>  0.0112  0.0357  0.0088  0.0164  0.0149  0.0899  0.0066  0.0447  0.0014 </r>
       </set>
      </set>
      <set comment="kpoint 67">
       <set comment="band 1">
        <r>  0.1007  0.0010  0.0421  0.0435  0.0046  0.0001  0.0032  0.1784  0.0254 </r>
        <r>  0.1357  0.0013  0.0312  0.0586  0.0061  0.0001  0.0043  0.1323  0.0343 </r>
       </set>
       <set comment="band 2">
        <r>  0.1357  0.0013  0.0312  0.0586  0.0061  0.0001  0.0043  0.1323  0.0343 </r>
        <r>  0.1007  0.0010  0.0421  0.0435  0.0046  0.0001  0.0032  0.1784  0.0254 </r>
       </set>
       <set comment="band 3">
        <r>  0.0224  0.0311  0.0013  0.0309  0.5721  0.0002  0.0787  0.0036  0.0471 </r>
        <r>  0.0014  0.0019  0.0213  0.0019  0.0346  0.0030  0.0048  0.0592  0.0028 </r>
       </set>
       <set comment="band 4">
        <r>  0.0014  0.0019  0.0213  0.0019  0.0346  0.0030  0.0048  0.0592  0.0028 </r>
        <r>  0.0224  0.0311  0.0013  0.0309  0.5721  0.0002  0.0787  0.0036  0.0471 </r>
       </set>
       <set comment="band 5">
        <r>  0.0004  0.0018  0.0007  0.0108  0.0447  0.0892  0.1277  0.0505  0.0126 </r>
        <r>  0.0011  0.0050  0.0002  0.0297  0.1236  0.0323  0.3528  0.0183  0.0347 </r>
       </set>
       <set comment="band 6">
        <r>  0.0011  0.0050  0.0002  0.0297  0.1236  0.0323  0.3528  0.0183  0.0347 </r>
        <r>  0.0004  0.0018  0.0007  0.0108  0.0447  0.0892  0.1277  0.0505  0.0126 </r>
       </set>
       <set comment="band 7">
        <r>  0.0002  0.0000  0.0010  0.0002  0.0038  0.6450  0.0003  0.0428  0.0081 </r>
        <r>  0.0035  0.0003  0.0001  0.0032  0.0682  0.0360  0.0055  0.0024  0.1449 </r>
       </set>
       <set comment="band 8">
        <r>  0.0035  0.0003  0.0001  0.0032  0.0682  0.0360  0.0055  0.0024  0.1449 </r>
        <r>  0.0002  0.0000  0.0010  0.0002  0.0038  0.6450  0.0003  0.0428  0.0081 </r>
       </set>
       <set comment="band 9">
        <r>  0.0000  0.0000  0.0020  0.0000  0.0001  0.1273  0.0082  0.1569  0.0094 </r>
        <r>  0.0001  0.0000  0.0001  0.0000  0.0057  0.0033  0.3141  0.0041  0.3602 </r>
       </set>
       <set comment="band 10">
        <r>  0.0001  0.0000  0.0001  0.0000  0.0057  0.0033  0.3141  0.0041  0.3602 </r>
        <r>  0.0000  0.0000  0.0020  0.0000  0.0001  0.1273  0.0082  0.1569  0.0094 </r>
       </set>
       <set comment="band 11">
        <r>  0.0064  0.0001  0.0454  0.0076  0.0025  0.0090  0.0039  0.2860  0.0259 </r>
        <r>  0.0705  0.0013  0.0041  0.0845  0.0275  0.0008  0.0427  0.0258  0.2862 </r>
       </set>
       <set comment="band 12">
        <r>  0.0705  0.0013  0.0041  0.0845  0.0275  0.0008  0.0427  0.0258  0.2862 </r>
        <r>  0.0064  0.0001  0.0454  0.0076  0.0025  0.0090  0.0039  0.2860  0.0259 </r>
       </set>
       <set comment="band 13">
        <r>  0.0019  0.2649  0.0001  0.0189  0.3427  0.0001  0.0116  0.0001  0.0000 </r>
        <r>  0.0000  0.0003  0.0669  0.0000  0.0004  0.0502  0.0000  0.0479  0.0000 </r>
       </set>
       <set comment="band 14">
        <r>  0.0000  0.0003  0.0669  0.0000  0.0004  0.0502  0.0000  0.0479  0.0000 </r>
        <r>  0.0019  0.2649  0.0001  0.0189  0.3427  0.0001  0.0116  0.0001  0.0000 </r>
       </set>
       <set comment="band 15">
        <r>  0.2198  0.0120  0.0001  0.2591  0.0144  0.0029  0.0925  0.0039  0.0093 </r>
        <r>  0.0079  0.0004  0.0032  0.0093  0.0005  0.0802  0.0033  0.1094  0.0003 </r>
       </set>
       <set comment="band 16">
        <r>  0.0079  0.0004  0.0032  0.0093  0.0005  0.0802  0.0033  0.1094  0.0003 </r>
        <r>  0.2198  0.0120  0.0001  0.2591  0.0144  0.0029  0.0925  0.0039  0.0093 </r>
       </set>
      </set>
      <set comment="kpoint 68">
       <set comment="band 1">
        <r>  0.0666  0.0061  0.0089  0.0330  0.0504  0.0092  0.0256  0.1796  0.0396 </r>
        <r>  0.0484  0.0044  0.0122  0.0240  0.0367  0.0126  0.0186  0.2470  0.0288 </r>
       </set>
       <set comment="band 2">
        <r>  0.0484  0.0044  0.0122  0.0240  0.0367  0.0126  0.0186  0.2470  0.0288 </r>
        <r>  0.0666  0.0061  0.0089  0.0330  0.0504  0.0092  0.0256  0.1796  0.0396 </r>
       </set>
       <set comment="band 3">
        <r>  0.0077  0.0242  0.0115  0.0095  0.2979  0.0156  0.0582  0.0322  0.0341 </r>
        <r>  0.0064  0.0201  0.0139  0.0079  0.2478  0.0187  0.0484  0.0387  0.0283 </r>
       </set>
       <set comment="band 4">
        <r>  0.0064  0.0201  0.0139  0.0079  0.2478  0.0187  0.0484  0.0387  0.0283 </r>
        <r>  0.0077  0.0242  0.0115  0.0095  0.2979  0.0156  0.0582  0.0322  0.0341 </r>
       </set>
       <set comment="band 5">
        <r>  0.0078  0.0108  0.0065  0.0710  0.0410  0.0925  0.1734  0.0012  0.0955 </r>
        <r>  0.0036  0.0050  0.0140  0.0331  0.0191  0.1982  0.0809  0.0025  0.0446 </r>
       </set>
       <set comment="band 6">
        <r>  0.0036  0.0050  0.0140  0.0331  0.0191  0.1982  0.0809  0.0025  0.0446 </r>
        <r>  0.0078  0.0108  0.0065  0.0710  0.0410  0.0925  0.1734  0.0012  0.0955 </r>
       </set>
       <set comment="band 7">
        <r>  0.0052  0.0017  0.0004  0.0041  0.0798  0.1843  0.0276  0.0340  0.1251 </r>
        <r>  0.0033  0.0011  0.0007  0.0026  0.0501  0.2938  0.0173  0.0542  0.0785 </r>
       </set>
       <set comment="band 8">
        <r>  0.0033  0.0011  0.0007  0.0026  0.0501  0.2938  0.0173  0.0542  0.0785 </r>
        <r>  0.0052  0.0017  0.0004  0.0041  0.0798  0.1843  0.0276  0.0340  0.1251 </r>
       </set>
       <set comment="band 9">
        <r>  0.0000  0.0000  0.0032  0.0003  0.0012  0.0802  0.0483  0.1913  0.0160 </r>
        <r>  0.0001  0.0001  0.0003  0.0031  0.0113  0.0085  0.4539  0.0203  0.1507 </r>
       </set>
       <set comment="band 10">
        <r>  0.0001  0.0001  0.0003  0.0031  0.0113  0.0085  0.4539  0.0203  0.1507 </r>
        <r>  0.0000  0.0000  0.0032  0.0003  0.0012  0.0802  0.0483  0.1913  0.0160 </r>
       </set>
       <set comment="band 11">
        <r>  0.0415  0.0055  0.0322  0.1104  0.0138  0.0036  0.0027  0.0590  0.2119 </r>
        <r>  0.0309  0.0041  0.0432  0.0823  0.0103  0.0048  0.0020  0.0791  0.1580 </r>
       </set>
       <set comment="band 12">
        <r>  0.0309  0.0041  0.0432  0.0823  0.0103  0.0048  0.0020  0.0791  0.1580 </r>
        <r>  0.0415  0.0055  0.0322  0.1104  0.0138  0.0036  0.0027  0.0590  0.2119 </r>
       </set>
       <set comment="band 13">
        <r>  0.1046  0.1166  0.0171  0.0279  0.1524  0.0220  0.0124  0.0326  0.0041 </r>
        <r>  0.0573  0.0639  0.0312  0.0153  0.0835  0.0402  0.0068  0.0594  0.0023 </r>
       </set>
       <set comment="band 14">
        <r>  0.0573  0.0639  0.0312  0.0153  0.0835  0.0402  0.0068  0.0594  0.0023 </r>
        <r>  0.1046  0.1166  0.0171  0.0279  0.1524  0.0220  0.0124  0.0326  0.0041 </r>
       </set>
       <set comment="band 15">
        <r>  0.1023  0.0619  0.0104  0.0606  0.0433  0.0553  0.0232  0.0376  0.0004 </r>
        <r>  0.1132  0.0685  0.0094  0.0670  0.0479  0.0500  0.0257  0.0340  0.0005 </r>
       </set>
       <set comment="band 16">
        <r>  0.1132  0.0685  0.0094  0.0670  0.0479  0.0500  0.0257  0.0340  0.0005 </r>
        <r>  0.1023  0.0619  0.0104  0.0606  0.0433  0.0553  0.0232  0.0376  0.0004 </r>
       </set>
      </set>
      <set comment="kpoint 69">
       <set comment="band 1">
        <r>  0.0310  0.0113  0.0019  0.0084  0.0698  0.0680  0.0202  0.2038  0.0254 </r>
        <r>  0.0468  0.0170  0.0012  0.0127  0.1054  0.0450  0.0306  0.1349  0.0384 </r>
       </set>
       <set comment="band 2">
        <r>  0.0468  0.0170  0.0012  0.0127  0.1054  0.0450  0.0306  0.1349  0.0384 </r>
        <r>  0.0310  0.0113  0.0019  0.0084  0.0698  0.0680  0.0202  0.2038  0.0254 </r>
       </set>
       <set comment="band 3">
        <r>  0.0005  0.0119  0.0057  0.0064  0.1293  0.0612  0.0903  0.0645  0.0463 </r>
        <r>  0.0007  0.0179  0.0038  0.0096  0.1948  0.0406  0.1361  0.0428  0.0698 </r>
       </set>
       <set comment="band 4">
        <r>  0.0007  0.0179  0.0038  0.0096  0.1948  0.0406  0.1361  0.0428  0.0698 </r>
        <r>  0.0005  0.0119  0.0057  0.0064  0.1293  0.0612  0.0903  0.0645  0.0463 </r>
       </set>
       <set comment="band 5">
        <r>  0.0166  0.0345  0.0018  0.1035  0.0849  0.0125  0.0439  0.0046  0.1661 </r>
        <r>  0.0008  0.0017  0.0375  0.0050  0.0041  0.2584  0.0021  0.0956  0.0080 </r>
       </set>
       <set comment="band 6">
        <r>  0.0008  0.0017  0.0375  0.0050  0.0041  0.2584  0.0021  0.0956  0.0080 </r>
        <r>  0.0166  0.0345  0.0018  0.1035  0.0849  0.0125  0.0439  0.0046  0.1661 </r>
       </set>
       <set comment="band 7">
        <r>  0.0001  0.0009  0.0048  0.0024  0.0139  0.2539  0.0015  0.1259  0.0316 </r>
        <r>  0.0007  0.0086  0.0005  0.0234  0.1339  0.0263  0.0149  0.0131  0.3047 </r>
       </set>
       <set comment="band 8">
        <r>  0.0007  0.0086  0.0005  0.0234  0.1339  0.0263  0.0149  0.0131  0.3047 </r>
        <r>  0.0001  0.0009  0.0048  0.0024  0.0139  0.2539  0.0015  0.1259  0.0316 </r>
       </set>
       <set comment="band 9">
        <r>  0.0002  0.0004  0.0008  0.0001  0.0160  0.0744  0.2312  0.1044  0.0145 </r>
        <r>  0.0004  0.0007  0.0005  0.0002  0.0267  0.0446  0.3853  0.0627  0.0241 </r>
       </set>
       <set comment="band 10">
        <r>  0.0004  0.0007  0.0005  0.0002  0.0267  0.0446  0.3853  0.0627  0.0241 </r>
        <r>  0.0002  0.0004  0.0008  0.0001  0.0160  0.0744  0.2312  0.1044  0.0145 </r>
       </set>
       <set comment="band 11">
        <r>  0.0069  0.0685  0.0198  0.1952  0.0837  0.0064  0.0061  0.0061  0.1996 </r>
        <r>  0.0016  0.0161  0.0841  0.0459  0.0197  0.0273  0.0014  0.0259  0.0469 </r>
       </set>
       <set comment="band 12">
        <r>  0.0016  0.0161  0.0841  0.0459  0.0197  0.0273  0.0014  0.0259  0.0469 </r>
        <r>  0.0069  0.0685  0.0198  0.1952  0.0837  0.0064  0.0061  0.0061  0.1996 </r>
       </set>
       <set comment="band 13">
        <r>  0.0926  0.0237  0.0201  0.0129  0.0574  0.0350  0.0046  0.1045  0.0206 </r>
        <r>  0.1884  0.0482  0.0099  0.0264  0.1169  0.0172  0.0093  0.0513  0.0420 </r>
       </set>
       <set comment="band 14">
        <r>  0.1884  0.0482  0.0099  0.0264  0.1169  0.0172  0.0093  0.0513  0.0420 </r>
        <r>  0.0926  0.0237  0.0201  0.0129  0.0574  0.0350  0.0046  0.1045  0.0206 </r>
       </set>
       <set comment="band 15">
        <r>  0.0654  0.0585  0.0144  0.0196  0.0206  0.0872  0.0123  0.0368  0.0069 </r>
        <r>  0.1514  0.1354  0.0062  0.0453  0.0477  0.0377  0.0285  0.0159  0.0160 </r>
       </set>
       <set comment="band 16">
        <r>  0.1514  0.1354  0.0062  0.0453  0.0477  0.0377  0.0285  0.0159  0.0160 </r>
        <r>  0.0654  0.0585  0.0144  0.0196  0.0206  0.0872  0.0123  0.0368  0.0069 </r>
       </set>
      </set>
      <set comment="kpoint 70">
       <set comment="band 1">
        <r>  0.0366  0.0206  0.0006  0.0295  0.0631  0.0000  0.0650  0.1454  0.0452 </r>
        <r>  0.0147  0.0083  0.0015  0.0118  0.0253  0.0001  0.0261  0.3622  0.0181 </r>
       </set>
       <set comment="band 2">
        <r>  0.0147  0.0083  0.0015  0.0118  0.0253  0.0001  0.0261  0.3622  0.0181 </r>
        <r>  0.0366  0.0206  0.0006  0.0295  0.0631  0.0000  0.0650  0.1454  0.0452 </r>
       </set>
       <set comment="band 3">
        <r>  0.0161  0.0301  0.0020  0.0053  0.1440  0.1571  0.0938  0.0061  0.0045 </r>
        <r>  0.0104  0.0194  0.0031  0.0034  0.0929  0.2437  0.0605  0.0095  0.0029 </r>
       </set>
       <set comment="band 4">
        <r>  0.0104  0.0194  0.0031  0.0034  0.0929  0.2437  0.0605  0.0095  0.0029 </r>
        <r>  0.0161  0.0301  0.0020  0.0053  0.1440  0.1571  0.0938  0.0061  0.0045 </r>
       </set>
       <set comment="band 5">
        <r>  0.0006  0.0205  0.0160  0.0674  0.1821  0.0240  0.0275  0.0001  0.2003 </r>
        <r>  0.0004  0.0122  0.0268  0.0404  0.1090  0.0401  0.0165  0.0001  0.1199 </r>
       </set>
       <set comment="band 6">
        <r>  0.0004  0.0122  0.0268  0.0404  0.1090  0.0401  0.0165  0.0001  0.1199 </r>
        <r>  0.0006  0.0205  0.0160  0.0674  0.1821  0.0240  0.0275  0.0001  0.2003 </r>
       </set>
       <set comment="band 7">
        <r>  0.0000  0.0000  0.0003  0.0001  0.0029  0.3044  0.0002  0.1471  0.0049 </r>
        <r>  0.0028  0.0008  0.0000  0.0084  0.1746  0.0050  0.0144  0.0024  0.2961 </r>
       </set>
       <set comment="band 8">
        <r>  0.0028  0.0008  0.0000  0.0084  0.1746  0.0050  0.0144  0.0024  0.2961 </r>
        <r>  0.0000  0.0000  0.0003  0.0001  0.0029  0.3044  0.0002  0.1471  0.0049 </r>
       </set>
       <set comment="band 9">
        <r>  0.0011  0.0000  0.0003  0.0008  0.0018  0.0478  0.3789  0.0754  0.0178 </r>
        <r>  0.0008  0.0000  0.0004  0.0006  0.0013  0.0648  0.2797  0.1021  0.0132 </r>
       </set>
       <set comment="band 10">
        <r>  0.0008  0.0000  0.0004  0.0006  0.0013  0.0648  0.2797  0.1021  0.0132 </r>
        <r>  0.0011  0.0000  0.0003  0.0008  0.0018  0.0478  0.3789  0.0754  0.0178 </r>
       </set>
       <set comment="band 11">
        <r>  0.0272  0.0158  0.0252  0.2198  0.0290  0.0013  0.0004  0.0123  0.2496 </r>
        <r>  0.0073  0.0043  0.0936  0.0592  0.0078  0.0047  0.0001  0.0456  0.0672 </r>
       </set>
       <set comment="band 12">
        <r>  0.0073  0.0043  0.0936  0.0592  0.0078  0.0047  0.0001  0.0456  0.0672 </r>
        <r>  0.0272  0.0158  0.0252  0.2198  0.0290  0.0013  0.0004  0.0123  0.2496 </r>
       </set>
       <set comment="band 13">
        <r>  0.0005  0.0308  0.0411  0.0023  0.0280  0.0431  0.0000  0.0809  0.0012 </r>
        <r>  0.0043  0.2905  0.0044  0.0214  0.2643  0.0046  0.0000  0.0086  0.0117 </r>
       </set>
       <set comment="band 14">
        <r>  0.0043  0.2905  0.0044  0.0214  0.2643  0.0046  0.0000  0.0086  0.0117 </r>
        <r>  0.0005  0.0308  0.0411  0.0023  0.0280  0.0431  0.0000  0.0809  0.0012 </r>
       </set>
       <set comment="band 15">
        <r>  0.1219  0.0000  0.0014  0.0127  0.0000  0.1138  0.0127  0.0725  0.0006 </r>
        <r>  0.3700  0.0000  0.0005  0.0385  0.0000  0.0375  0.0385  0.0239  0.0019 </r>
       </set>
       <set comment="band 16">
        <r>  0.3700  0.0000  0.0005  0.0385  0.0000  0.0375  0.0385  0.0239  0.0019 </r>
        <r>  0.1219  0.0000  0.0014  0.0127  0.0000  0.1138  0.0127  0.0725  0.0006 </r>
       </set>
      </set>
     </set>
    </set>
   </array>
  </projected>
 </calculation>
 <structure name="finalpos" >
  <crystal>
   <varray name="basis" >
    <v>       1.23599995      -2.14081471       0.00000000 </v>
    <v>       1.23599995       2.14081471       0.00000000 </v>
    <v>       0.00000000       0.00000000       4.02114408 </v>
   </varray>
   <i name="volume">     21.28027152 </i>
   <varray name="rec_basis" >
    <v>       0.40453076      -0.23355594       0.00000000 </v>
    <v>       0.40453076       0.23355594       0.00000000 </v>
    <v>       0.00000000       0.00000000       0.24868544 </v>
   </varray>
  </crystal>
  <varray name="positions" >
   <v>       0.33333333       0.66666667       0.25000000 </v>
   <v>       0.66666667       0.33333333       0.75000000 </v>
  </varray>
 </structure>
</modeling>
