   2   2   1   0
  0.1064014E+02  0.2472000E-09  0.2472000E-09  0.4021144E-09  0.5000000E-15
  1.000000000000000E-004
  CAR 
 Co-hcc                                  
     37.58410217     -0.20940625  301     10.51722052      1.00000000
     -0.209  0.0000E+00  0.0000E+00  0.0000E+00  0.0000E+00
     -0.083  0.0000E+00  0.0000E+00  0.0000E+00  0.0000E+00
      0.043  0.0000E+00  0.0000E+00  0.0000E+00  0.0000E+00
      0.169  0.0000E+00  0.0000E+00  0.0000E+00  0.0000E+00
      0.295  0.0000E+00  0.0000E+00  0.0000E+00  0.0000E+00
      0.420  0.0000E+00  0.0000E+00  0.0000E+00  0.0000E+00
      0.546  0.0000E+00  0.0000E+00  0.0000E+00  0.0000E+00
      0.672  0.0000E+00  0.0000E+00  0.0000E+00  0.0000E+00
      0.798  0.0000E+00  0.0000E+00  0.0000E+00  0.0000E+00
      0.924  0.0000E+00  0.0000E+00  0.0000E+00  0.0000E+00
      1.050  0.0000E+00  0.0000E+00  0.0000E+00  0.0000E+00
      1.176  0.0000E+00  0.0000E+00  0.0000E+00  0.0000E+00
      1.302  0.2677E-10  0.5705E-10  0.3372E-11  0.7187E-11
      1.428  0.1730E-03  0.2414E-03  0.2179E-04  0.3042E-04
      1.554  0.1800E-01  0.1841E-01  0.2289E-02  0.2350E-02
      1.680  0.2526E-02  0.2054E-02  0.2608E-02  0.2609E-02
      1.806  0.2636E-01  0.2771E-01  0.5929E-02  0.6099E-02
      1.932  0.1496E-01  0.1361E-01  0.7814E-02  0.7814E-02
      2.058  0.5341E-01  0.5523E-01  0.1454E-01  0.1477E-01
      2.184  0.7057E-01  0.6875E-01  0.2343E-01  0.2343E-01
      2.310  0.6086E-01  0.5758E-01  0.3110E-01  0.3069E-01
      2.436  0.1867E+00  0.1899E+00  0.5462E-01  0.5461E-01
      2.562  0.6928E-02  0.5052E-02  0.5550E-01  0.5525E-01
      2.688  0.3470E-01  0.3645E-01  0.5987E-01  0.5984E-01
      2.814  0.2229E-03  0.4122E-03  0.5990E-01  0.5990E-01
      2.940  0.7332E-06  0.6733E-07  0.5990E-01  0.5990E-01
      3.066  0.5267E-01  0.2244E-01  0.6653E-01  0.6272E-01
      3.192  0.3169E+00  0.3409E+00  0.1065E+00  0.1057E+00
      3.318  0.7175E-01  0.3143E-01  0.1155E+00  0.1096E+00
      3.444  0.1786E+00  0.2222E+00  0.1380E+00  0.1376E+00
      3.570  0.8127E-01  0.2879E-01  0.1482E+00  0.1412E+00
      3.696  0.4868E-01  0.9806E-01  0.1544E+00  0.1536E+00
      3.822  0.2641E+00  0.1115E+00  0.1876E+00  0.1677E+00
      3.948  0.2621E-01  0.1781E+00  0.1909E+00  0.1901E+00
      4.074  0.2286E+00  0.1010E+00  0.2197E+00  0.2028E+00
      4.200  0.7294E-01  0.1473E+00  0.2289E+00  0.2214E+00
      4.326  0.2214E+00  0.1566E+00  0.2568E+00  0.2411E+00
      4.452  0.2130E+00  0.1189E+00  0.2836E+00  0.2561E+00
      4.578  0.1686E-02  0.2181E+00  0.2839E+00  0.2836E+00
      4.704  0.3512E-02  0.2373E-02  0.2843E+00  0.2839E+00
      4.830  0.2618E+00  0.3475E-03  0.3173E+00  0.2839E+00
      4.956  0.5470E+00  0.1776E+00  0.3862E+00  0.3063E+00
      5.082  0.2267E+00  0.1827E+00  0.4147E+00  0.3293E+00
      5.208  0.8019E+00  0.6482E+00  0.5158E+00  0.4109E+00
      5.334  0.9578E+00  0.2485E-01  0.6364E+00  0.4141E+00
      5.460  0.2526E+00  0.9216E-01  0.6682E+00  0.4257E+00
      5.586  0.9728E+00  0.5332E+00  0.7908E+00  0.4928E+00
      5.712  0.1565E+01  0.7283E+00  0.9880E+00  0.5846E+00
      5.838  0.8193E+00  0.1403E-01  0.1091E+01  0.5864E+00
      5.964  0.1050E+01  0.2240E+00  0.1223E+01  0.6146E+00
      6.090  0.2537E+01  0.5993E-01  0.1543E+01  0.6221E+00
      6.215  0.2293E+01  0.4239E-01  0.1832E+01  0.6275E+00
      6.341  0.8050E+00  0.8933E+00  0.1933E+01  0.7400E+00
      6.467  0.1622E+01  0.6818E+00  0.2138E+01  0.8259E+00
      6.593  0.1782E+01  0.1502E+01  0.2362E+01  0.1015E+01
      6.719  0.1809E+01  0.7805E+00  0.2590E+01  0.1113E+01
      6.845  0.1747E+01  0.7252E+00  0.2810E+01  0.1205E+01
      6.971  0.1283E+01  0.7188E+00  0.2972E+01  0.1295E+01
      7.097  0.3366E+01  0.1077E+01  0.3396E+01  0.1431E+01
      7.223  0.1604E+01  0.1367E+01  0.3598E+01  0.1603E+01
      7.349  0.1440E+01  0.1355E+01  0.3779E+01  0.1774E+01
      7.475  0.4521E+00  0.1284E+01  0.3836E+01  0.1936E+01
      7.601  0.2425E+01  0.1101E+01  0.4142E+01  0.2074E+01
      7.727  0.2815E+01  0.1563E+01  0.4496E+01  0.2271E+01
      7.853  0.3278E+01  0.8458E+00  0.4909E+01  0.2378E+01
      7.979  0.2259E+01  0.1623E+01  0.5194E+01  0.2582E+01
      8.105  0.2817E+01  0.1496E+01  0.5549E+01  0.2771E+01
      8.231  0.2573E+01  0.1818E+01  0.5873E+01  0.3000E+01
      8.357  0.4225E+01  0.2048E+01  0.6405E+01  0.3258E+01
      8.483  0.1903E+01  0.2139E+01  0.6645E+01  0.3527E+01
      8.609  0.2166E+01  0.1068E+01  0.6918E+01  0.3662E+01
      8.735  0.2056E+01  0.8782E+00  0.7177E+01  0.3772E+01
      8.861  0.1356E+01  0.1200E+01  0.7348E+01  0.3923E+01
      8.987  0.2635E+01  0.5694E+00  0.7679E+01  0.3995E+01
      9.113  0.1876E+01  0.1883E+01  0.7916E+01  0.4232E+01
      9.239  0.1804E+01  0.3092E+01  0.8143E+01  0.4622E+01
      9.365  0.6729E+00  0.1987E+01  0.8228E+01  0.4872E+01
      9.491  0.1978E+01  0.1631E+01  0.8477E+01  0.5078E+01
      9.617  0.3724E+01  0.2743E+01  0.8946E+01  0.5423E+01
      9.743  0.3732E+01  0.2961E+01  0.9416E+01  0.5796E+01
      9.869  0.3820E+01  0.2084E+01  0.9898E+01  0.6059E+01
      9.995  0.3468E+01  0.3807E+01  0.1033E+02  0.6538E+01
     10.121  0.1434E+01  0.1687E+01  0.1052E+02  0.6751E+01
     10.247  0.7674E+00  0.1508E+01  0.1061E+02  0.6941E+01
     10.373  0.9022E-01  0.1992E+01  0.1062E+02  0.7192E+01
     10.499  0.1384E-01  0.1280E+01  0.1062E+02  0.7353E+01
     10.625  0.1855E-04  0.1070E+01  0.1063E+02  0.7488E+01
     10.751  0.2288E-02  0.2014E+01  0.1063E+02  0.7742E+01
     10.877  0.4103E+00  0.1553E+01  0.1068E+02  0.7937E+01
     11.003  0.2341E+00  0.1555E+01  0.1071E+02  0.8133E+01
     11.129  0.3327E+00  0.9343E+00  0.1075E+02  0.8251E+01
     11.255  0.1561E-01  0.7696E+00  0.1075E+02  0.8348E+01
     11.381  0.3835E+00  0.1984E+01  0.1080E+02  0.8598E+01
     11.507  0.2338E+00  0.3492E+01  0.1083E+02  0.9038E+01
     11.633  0.1450E+00  0.3541E+01  0.1085E+02  0.9484E+01
     11.759  0.9036E+00  0.3902E+01  0.1096E+02  0.9975E+01
     11.885  0.3306E+00  0.3312E+01  0.1100E+02  0.1039E+02
     12.010  0.4181E+00  0.1935E+01  0.1105E+02  0.1064E+02
     12.136  0.6325E-01  0.3659E-01  0.1106E+02  0.1064E+02
     12.262  0.3259E+00  0.5482E+00  0.1110E+02  0.1071E+02
     12.388  0.1180E+00  0.1939E+00  0.1112E+02  0.1073E+02
     12.514  0.4554E+00  0.1986E-01  0.1118E+02  0.1074E+02
     12.640  0.5502E-01  0.3835E+00  0.1118E+02  0.1079E+02
     12.766  0.6350E+00  0.1924E+00  0.1126E+02  0.1081E+02
     12.892  0.3327E+00  0.3928E+00  0.1130E+02  0.1086E+02
     13.018  0.6446E-01  0.5744E+00  0.1131E+02  0.1093E+02
     13.144  0.2049E+00  0.8280E+00  0.1134E+02  0.1104E+02
     13.270  0.1966E+00  0.3860E+00  0.1136E+02  0.1108E+02
     13.396  0.1544E+00  0.2922E-01  0.1138E+02  0.1109E+02
     13.522  0.1405E-03  0.2930E+00  0.1138E+02  0.1112E+02
     13.648  0.1168E-04  0.9190E+00  0.1138E+02  0.1124E+02
     13.774  0.5359E-01  0.2487E+00  0.1139E+02  0.1127E+02
     13.900  0.7660E-01  0.1662E+00  0.1140E+02  0.1129E+02
     14.026  0.5212E+00  0.2814E+00  0.1146E+02  0.1133E+02
     14.152  0.1584E+00  0.1843E+00  0.1148E+02  0.1135E+02
     14.278  0.2307E+00  0.1774E-01  0.1151E+02  0.1135E+02
     14.404  0.1378E+00  0.2261E+00  0.1153E+02  0.1138E+02
     14.530  0.9654E-02  0.4582E-02  0.1153E+02  0.1138E+02
     14.656  0.3829E+00  0.4949E-01  0.1158E+02  0.1139E+02
     14.782  0.3736E+00  0.5610E+00  0.1163E+02  0.1146E+02
     14.908  0.2326E+00  0.2664E-01  0.1166E+02  0.1146E+02
     15.034  0.3276E+00  0.2332E+00  0.1170E+02  0.1149E+02
     15.160  0.3754E+00  0.1429E+00  0.1175E+02  0.1151E+02
     15.286  0.6759E+00  0.1673E+00  0.1183E+02  0.1153E+02
     15.412  0.3493E+00  0.2196E+00  0.1187E+02  0.1156E+02
     15.538  0.1722E+00  0.2699E+00  0.1190E+02  0.1159E+02
     15.664  0.7755E-01  0.4920E+00  0.1191E+02  0.1166E+02
     15.790  0.6312E-05  0.3703E+00  0.1191E+02  0.1170E+02
     15.916  0.3277E-14  0.4054E+00  0.1191E+02  0.1175E+02
     16.042  0.0000E+00  0.3792E+00  0.1191E+02  0.1180E+02
     16.168  0.0000E+00  0.5776E+00  0.1191E+02  0.1187E+02
     16.294  0.0000E+00  0.4505E-01  0.1191E+02  0.1188E+02
     16.420  0.1500E-10  0.2135E+00  0.1191E+02  0.1191E+02
     16.546  0.5011E-03  0.1791E-02  0.1191E+02  0.1191E+02
     16.672  0.1866E+00  0.2310E-09  0.1193E+02  0.1191E+02
     16.798  0.6420E-01  0.0000E+00  0.1194E+02  0.1191E+02
     16.924  0.2063E+00  0.0000E+00  0.1196E+02  0.1191E+02
     17.050  0.2300E+00  0.5431E-10  0.1199E+02  0.1191E+02
     17.176  0.7716E-01  0.9222E-03  0.1200E+02  0.1191E+02
     17.302  0.2892E-01  0.2006E+00  0.1201E+02  0.1193E+02
     17.428  0.1443E+00  0.4675E-01  0.1202E+02  0.1194E+02
     17.554  0.7483E-01  0.9685E-01  0.1203E+02  0.1195E+02
     17.680  0.5871E-04  0.2620E+00  0.1203E+02  0.1198E+02
     17.805  0.1686E-03  0.1305E-01  0.1203E+02  0.1198E+02
     17.931  0.1820E+00  0.5718E-03  0.1206E+02  0.1198E+02
     18.057  0.3108E+00  0.9529E-01  0.1210E+02  0.1200E+02
     18.183  0.1797E-01  0.9029E-01  0.1210E+02  0.1201E+02
     18.309  0.4937E+00  0.2007E+00  0.1216E+02  0.1203E+02
     18.435  0.1005E+01  0.5893E-02  0.1229E+02  0.1203E+02
     18.561  0.2623E+00  0.1196E+00  0.1232E+02  0.1205E+02
     18.687  0.3211E+00  0.2537E+00  0.1236E+02  0.1208E+02
     18.813  0.6347E+00  0.1196E+00  0.1244E+02  0.1210E+02
     18.939  0.3334E+00  0.2484E+00  0.1248E+02  0.1213E+02
     19.065  0.3167E+00  0.4098E+00  0.1252E+02  0.1218E+02
     19.191  0.6724E-01  0.8344E+00  0.1253E+02  0.1228E+02
     19.317  0.3972E+00  0.2481E+00  0.1258E+02  0.1232E+02
     19.443  0.3338E+00  0.4836E+00  0.1262E+02  0.1238E+02
     19.569  0.3255E+00  0.5126E+00  0.1266E+02  0.1244E+02
     19.695  0.2776E+00  0.2982E+00  0.1270E+02  0.1248E+02
     19.821  0.2178E+00  0.3661E+00  0.1273E+02  0.1252E+02
     19.947  0.5929E-01  0.4411E+00  0.1273E+02  0.1258E+02
     20.073  0.6641E+00  0.3648E+00  0.1282E+02  0.1263E+02
     20.199  0.6331E+00  0.9647E-01  0.1290E+02  0.1264E+02
     20.325  0.3729E-01  0.5574E+00  0.1290E+02  0.1271E+02
     20.451  0.4900E+00  0.1729E+00  0.1296E+02  0.1273E+02
     20.577  0.2547E+00  0.2463E+00  0.1300E+02  0.1276E+02
     20.703  0.2600E+00  0.5611E+00  0.1303E+02  0.1283E+02
     20.829  0.4792E+00  0.5644E+00  0.1309E+02  0.1290E+02
     20.955  0.2469E+00  0.2342E+00  0.1312E+02  0.1293E+02
     21.081  0.1465E+00  0.2882E+00  0.1314E+02  0.1297E+02
     21.207  0.5170E+00  0.1668E+00  0.1320E+02  0.1299E+02
     21.333  0.1264E+00  0.6593E+00  0.1322E+02  0.1307E+02
     21.459  0.9461E+00  0.3583E+00  0.1334E+02  0.1312E+02
     21.585  0.3545E+00  0.1378E+00  0.1338E+02  0.1314E+02
     21.711  0.3778E+00  0.3693E+00  0.1343E+02  0.1318E+02
     21.837  0.2684E+00  0.3842E+00  0.1346E+02  0.1323E+02
     21.963  0.4435E+00  0.8496E+00  0.1352E+02  0.1334E+02
     22.089  0.1379E+00  0.3308E+00  0.1354E+02  0.1338E+02
     22.215  0.1753E+00  0.4020E+00  0.1356E+02  0.1343E+02
     22.341  0.2222E+00  0.2173E+00  0.1359E+02  0.1346E+02
     22.467  0.1691E+00  0.2425E+00  0.1361E+02  0.1349E+02
     22.593  0.1028E+00  0.3298E+00  0.1362E+02  0.1353E+02
     22.719  0.1126E+00  0.2243E+00  0.1364E+02  0.1356E+02
     22.845  0.5634E+00  0.2467E+00  0.1371E+02  0.1359E+02
     22.971  0.5445E+00  0.2691E+00  0.1378E+02  0.1362E+02
     23.097  0.5290E+00  0.6239E-01  0.1384E+02  0.1363E+02
     23.223  0.7248E+00  0.4120E+00  0.1393E+02  0.1368E+02
     23.349  0.2126E-01  0.4411E+00  0.1394E+02  0.1374E+02
     23.475  0.1672E+00  0.3937E+00  0.1396E+02  0.1379E+02
     23.601  0.2784E-01  0.8618E+00  0.1396E+02  0.1390E+02
     23.726  0.2888E+00  0.3101E+00  0.1400E+02  0.1393E+02
     23.852  0.6641E+00  0.4314E-01  0.1408E+02  0.1394E+02
     23.978  0.1577E-01  0.1225E+00  0.1408E+02  0.1396E+02
     24.104  0.2224E-02  0.1234E+00  0.1408E+02  0.1397E+02
     24.230  0.3879E+00  0.5896E+00  0.1413E+02  0.1405E+02
     24.356  0.4845E+00  0.2985E+00  0.1419E+02  0.1408E+02
     24.482  0.2612E+00  0.1424E-02  0.1423E+02  0.1408E+02
     24.608  0.5311E+00  0.3502E+00  0.1429E+02  0.1413E+02
     24.734  0.5106E+00  0.5166E+00  0.1436E+02  0.1419E+02
     24.860  0.7065E+00  0.1555E+00  0.1445E+02  0.1421E+02
     24.986  0.8184E-01  0.5804E+00  0.1446E+02  0.1429E+02
     25.112  0.4398E+00  0.3639E+00  0.1451E+02  0.1433E+02
     25.238  0.1276E+00  0.5160E+00  0.1453E+02  0.1440E+02
     25.364  0.2473E+00  0.4284E+00  0.1456E+02  0.1445E+02
     25.490  0.2212E-02  0.3810E+00  0.1456E+02  0.1450E+02
     25.616  0.6943E-01  0.2269E+00  0.1457E+02  0.1453E+02
     25.742  0.6492E+00  0.2149E+00  0.1465E+02  0.1455E+02
     25.868  0.3116E+00  0.4906E-01  0.1469E+02  0.1456E+02
     25.994  0.9128E-01  0.5742E-01  0.1470E+02  0.1457E+02
     26.120  0.6162E+00  0.5357E+00  0.1478E+02  0.1463E+02
     26.246  0.3205E+00  0.4571E+00  0.1482E+02  0.1469E+02
     26.372  0.2370E+00  0.1485E+00  0.1485E+02  0.1471E+02
     26.498  0.1220E+00  0.7287E+00  0.1486E+02  0.1480E+02
     26.624  0.2559E+00  0.1911E+00  0.1490E+02  0.1483E+02
     26.750  0.6958E+00  0.3629E+00  0.1498E+02  0.1487E+02
     26.876  0.2562E-01  0.4056E-01  0.1499E+02  0.1488E+02
     27.002  0.4466E+00  0.1037E+00  0.1504E+02  0.1489E+02
     27.128  0.9243E+00  0.7767E+00  0.1516E+02  0.1499E+02
     27.254  0.6069E+00  0.2389E+00  0.1524E+02  0.1502E+02
     27.380  0.1566E+00  0.3893E+00  0.1526E+02  0.1507E+02
     27.506  0.3377E+00  0.8836E+00  0.1530E+02  0.1518E+02
     27.632  0.4109E-02  0.6594E+00  0.1530E+02  0.1526E+02
     27.758  0.1138E+00  0.2308E+00  0.1531E+02  0.1529E+02
     27.884  0.1343E+00  0.6637E-01  0.1533E+02  0.1530E+02
     28.010  0.1385E+00  0.3399E-04  0.1535E+02  0.1530E+02
     28.136  0.3376E+00  0.1138E+00  0.1539E+02  0.1531E+02
     28.262  0.1440E+00  0.2772E+00  0.1541E+02  0.1535E+02
     28.388  0.4462E-04  0.3439E+00  0.1541E+02  0.1539E+02
     28.514  0.2006E-07  0.1333E+00  0.1541E+02  0.1541E+02
     28.640  0.1164E-01  0.6374E-04  0.1541E+02  0.1541E+02
     28.766  0.2307E+00  0.2213E-04  0.1544E+02  0.1541E+02
     28.892  0.1187E+00  0.1058E+00  0.1545E+02  0.1542E+02
     29.018  0.2009E+00  0.1425E+00  0.1548E+02  0.1544E+02
     29.144  0.4349E+00  0.9841E-01  0.1553E+02  0.1545E+02
     29.270  0.4157E+00  0.3329E+00  0.1559E+02  0.1549E+02
     29.396  0.1993E+00  0.3107E+00  0.1561E+02  0.1553E+02
     29.521  0.4755E-03  0.4687E+00  0.1561E+02  0.1559E+02
     29.647  0.1982E-02  0.1533E+00  0.1561E+02  0.1561E+02
     29.773  0.4084E-01  0.3583E-04  0.1562E+02  0.1561E+02
     29.899  0.4118E+00  0.4940E-01  0.1567E+02  0.1562E+02
     30.025  0.8616E-01  0.3203E+00  0.1568E+02  0.1566E+02
     30.151  0.2228E+00  0.1675E+00  0.1571E+02  0.1568E+02
     30.277  0.1752E+00  0.2314E-03  0.1573E+02  0.1568E+02
     30.403  0.9485E-01  0.1043E+00  0.1574E+02  0.1569E+02
     30.529  0.1393E-04  0.1770E+00  0.1574E+02  0.1572E+02
     30.655  0.5902E-05  0.2130E+00  0.1574E+02  0.1574E+02
     30.781  0.5289E-01  0.1734E-02  0.1575E+02  0.1574E+02
     30.907  0.3075E+00  0.6059E-01  0.1579E+02  0.1575E+02
     31.033  0.1165E-01  0.3073E+00  0.1579E+02  0.1579E+02
     31.159  0.1974E-07  0.4237E-02  0.1579E+02  0.1579E+02
     31.285  0.0000E+00  0.1565E-08  0.1579E+02  0.1579E+02
     31.411  0.4882E-08  0.8634E-14  0.1579E+02  0.1579E+02
     31.537  0.6642E-02  0.1074E-04  0.1579E+02  0.1579E+02
     31.663  0.2287E+00  0.8894E-01  0.1582E+02  0.1580E+02
     31.789  0.1272E-01  0.1589E+00  0.1582E+02  0.1582E+02
     31.915  0.1873E-06  0.1699E-03  0.1582E+02  0.1582E+02
     32.041  0.2536E-01  0.3355E-03  0.1582E+02  0.1582E+02
     32.167  0.3155E+00  0.1768E+00  0.1586E+02  0.1584E+02
     32.293  0.3118E-01  0.1037E+00  0.1587E+02  0.1586E+02
     32.419  0.7754E-01  0.2352E-01  0.1588E+02  0.1586E+02
     32.545  0.2082E+00  0.1661E+00  0.1590E+02  0.1588E+02
     32.671  0.2497E+00  0.2124E+00  0.1593E+02  0.1591E+02
     32.797  0.6270E-01  0.2259E+00  0.1594E+02  0.1593E+02
     32.923  0.8391E-01  0.1722E+00  0.1595E+02  0.1596E+02
     33.049  0.1804E-01  0.1086E+00  0.1596E+02  0.1597E+02
     33.175  0.1458E+00  0.3150E-01  0.1597E+02  0.1597E+02
     33.301  0.1643E-02  0.3825E-01  0.1597E+02  0.1598E+02
     33.427  0.1086E-02  0.1471E-02  0.1597E+02  0.1598E+02
     33.553  0.3810E-01  0.1648E-08  0.1598E+02  0.1598E+02
     33.679  0.2155E-02  0.0000E+00  0.1598E+02  0.1598E+02
     33.805  0.4401E-08  0.4590E-16  0.1598E+02  0.1598E+02
     33.931  0.2216E-04  0.2634E-06  0.1598E+02  0.1598E+02
     34.057  0.2540E-01  0.9619E-02  0.1598E+02  0.1598E+02
     34.183  0.1592E-01  0.7037E-01  0.1598E+02  0.1599E+02
     34.309  0.9932E-02  0.2696E-02  0.1599E+02  0.1599E+02
     34.435  0.3132E-01  0.7076E-08  0.1599E+02  0.1599E+02
     34.561  0.8827E-04  0.0000E+00  0.1599E+02  0.1599E+02
     34.687  0.2804E-11  0.0000E+00  0.1599E+02  0.1599E+02
     34.813  0.0000E+00  0.0000E+00  0.1599E+02  0.1599E+02
     34.939  0.0000E+00  0.1553E-10  0.1599E+02  0.1599E+02
     35.065  0.2295E-17  0.1975E-03  0.1599E+02  0.1599E+02
     35.191  0.5850E-07  0.3430E-01  0.1599E+02  0.1599E+02
     35.316  0.5434E-02  0.6848E-02  0.1599E+02  0.1599E+02
     35.442  0.3562E-01  0.1192E-06  0.1599E+02  0.1599E+02
     35.568  0.2362E-01  0.1265E-08  0.1600E+02  0.1599E+02
     35.694  0.1801E-01  0.8706E-03  0.1600E+02  0.1599E+02
     35.820  0.4037E-05  0.2113E-01  0.1600E+02  0.1600E+02
     35.946  0.6493E-14  0.1910E-01  0.1600E+02  0.1600E+02
     36.072  0.0000E+00  0.2414E-03  0.1600E+02  0.1600E+02
     36.198  0.0000E+00  0.5705E-10  0.1600E+02  0.1600E+02
     36.324  0.0000E+00  0.0000E+00  0.1600E+02  0.1600E+02
     36.450  0.0000E+00  0.0000E+00  0.1600E+02  0.1600E+02
     36.576  0.0000E+00  0.0000E+00  0.1600E+02  0.1600E+02
     36.702  0.0000E+00  0.0000E+00  0.1600E+02  0.1600E+02
     36.828  0.0000E+00  0.0000E+00  0.1600E+02  0.1600E+02
     36.954  0.0000E+00  0.0000E+00  0.1600E+02  0.1600E+02
     37.080  0.0000E+00  0.0000E+00  0.1600E+02  0.1600E+02
     37.206  0.0000E+00  0.0000E+00  0.1600E+02  0.1600E+02
     37.332  0.0000E+00  0.0000E+00  0.1600E+02  0.1600E+02
     37.458  0.0000E+00  0.0000E+00  0.1600E+02  0.1600E+02
     37.584  0.0000E+00  0.0000E+00  0.1600E+02  0.1600E+02
     37.58410217     -0.20940625  301     10.51722052      1.00000000
     -0.209  0.0000E+00  0.0000E+00  0.0000E+00  0.0000E+00  0.0000E+00  0.0000E+00  0.0000E+00  0.0000E+00  0.0000E+00  0.0000E+00  0.0000E+00  0.0000E+00  0.0000E+00  0.0000E+00  0.0000E+00  0.0000E+00  0.0000E+00  0.0000E+00
     -0.083  0.0000E+00  0.0000E+00  0.0000E+00  0.0000E+00  0.0000E+00  0.0000E+00  0.0000E+00  0.0000E+00  0.0000E+00  0.0000E+00  0.0000E+00  0.0000E+00  0.0000E+00  0.0000E+00  0.0000E+00  0.0000E+00  0.0000E+00  0.0000E+00
      0.043  0.0000E+00  0.0000E+00  0.0000E+00  0.0000E+00  0.0000E+00  0.0000E+00  0.0000E+00  0.0000E+00  0.0000E+00  0.0000E+00  0.0000E+00  0.0000E+00  0.0000E+00  0.0000E+00  0.0000E+00  0.0000E+00  0.0000E+00  0.0000E+00
      0.169  0.0000E+00  0.0000E+00  0.0000E+00  0.0000E+00  0.0000E+00  0.0000E+00  0.0000E+00  0.0000E+00  0.0000E+00  0.0000E+00  0.0000E+00  0.0000E+00  0.0000E+00  0.0000E+00  0.0000E+00  0.0000E+00  0.0000E+00  0.0000E+00
      0.295  0.0000E+00  0.0000E+00  0.0000E+00  0.0000E+00  0.0000E+00  0.0000E+00  0.0000E+00  0.0000E+00  0.0000E+00  0.0000E+00  0.0000E+00  0.0000E+00  0.0000E+00  0.0000E+00  0.0000E+00  0.0000E+00  0.0000E+00  0.0000E+00
      0.420  0.0000E+00  0.0000E+00  0.0000E+00  0.0000E+00  0.0000E+00  0.0000E+00  0.0000E+00  0.0000E+00  0.0000E+00  0.0000E+00  0.0000E+00  0.0000E+00  0.0000E+00  0.0000E+00  0.0000E+00  0.0000E+00  0.0000E+00  0.0000E+00
      0.546  0.0000E+00  0.0000E+00  0.0000E+00  0.0000E+00  0.0000E+00  0.0000E+00  0.0000E+00  0.0000E+00  0.0000E+00  0.0000E+00  0.0000E+00  0.0000E+00  0.0000E+00  0.0000E+00  0.0000E+00  0.0000E+00  0.0000E+00  0.0000E+00
      0.672  0.0000E+00  0.0000E+00  0.0000E+00  0.0000E+00  0.0000E+00  0.0000E+00  0.0000E+00  0.0000E+00  0.0000E+00  0.0000E+00  0.0000E+00  0.0000E+00  0.0000E+00  0.0000E+00  0.0000E+00  0.0000E+00  0.0000E+00  0.0000E+00
      0.798  0.0000E+00  0.0000E+00  0.0000E+00  0.0000E+00  0.0000E+00  0.0000E+00  0.0000E+00  0.0000E+00  0.0000E+00  0.0000E+00  0.0000E+00  0.0000E+00  0.0000E+00  0.0000E+00  0.0000E+00  0.0000E+00  0.0000E+00  0.0000E+00
      0.924  0.0000E+00  0.0000E+00  0.0000E+00  0.0000E+00  0.0000E+00  0.0000E+00  0.0000E+00  0.0000E+00  0.0000E+00  0.0000E+00  0.0000E+00  0.0000E+00  0.0000E+00  0.0000E+00  0.0000E+00  0.0000E+00  0.0000E+00  0.0000E+00
      1.050  0.0000E+00  0.0000E+00  0.0000E+00  0.0000E+00  0.0000E+00  0.0000E+00  0.0000E+00  0.0000E+00  0.0000E+00  0.0000E+00  0.0000E+00  0.0000E+00  0.0000E+00  0.0000E+00  0.0000E+00  0.0000E+00  0.0000E+00  0.0000E+00
      1.176  0.0000E+00  0.0000E+00  0.0000E+00  0.0000E+00  0.0000E+00  0.0000E+00  0.0000E+00  0.0000E+00  0.0000E+00  0.0000E+00  0.0000E+00  0.0000E+00  0.0000E+00  0.0000E+00  0.0000E+00  0.0000E+00  0.0000E+00  0.0000E+00
      1.302  0.9918E-11  0.2115E-10  0.1490E-26  0.3521E-26  0.3263E-26  0.1006E-26  0.1490E-26  0.3521E-26  0.6669E-25  0.5343E-24  0.4424E-22  0.3389E-22  0.6237E-17  0.4375E-16  0.4424E-22  0.3389E-22  0.6669E-25  0.5343E-24
      1.428  0.6409E-04  0.8950E-04  0.9626E-20  0.1490E-19  0.2109E-19  0.4258E-20  0.9626E-20  0.1490E-19  0.4310E-18  0.2261E-17  0.2859E-15  0.1434E-15  0.4030E-10  0.1852E-09  0.2859E-15  0.1434E-15  0.4310E-18  0.2261E-17
      1.554  0.6669E-02  0.6826E-02  0.1002E-17  0.1137E-17  0.2542E-14  0.4707E-14  0.1002E-17  0.1137E-17  0.4485E-16  0.1725E-15  0.2975E-13  0.1094E-13  0.4194E-08  0.1412E-07  0.2975E-13  0.1094E-13  0.4485E-16  0.1725E-15
      1.680  0.9355E-03  0.7609E-03  0.1458E-18  0.1657E-18  0.2669E-06  0.3647E-06  0.1458E-18  0.1657E-18  0.6274E-17  0.2184E-16  0.4130E-14  0.1210E-14  0.7998E-08  0.8357E-08  0.4130E-14  0.1210E-14  0.6274E-17  0.2184E-16
      1.806  0.9511E-02  0.9998E-02  0.1730E-15  0.2520E-15  0.2557E-03  0.2707E-03  0.1730E-15  0.2520E-15  0.5496E-16  0.2198E-14  0.7695E-15  0.9259E-14  0.7105E-05  0.5055E-05  0.7695E-15  0.9259E-14  0.5496E-16  0.2198E-14
      1.932  0.5398E-02  0.4912E-02  0.1082E-06  0.1265E-06  0.1450E-03  0.1329E-03  0.1082E-06  0.1265E-06  0.4744E-08  0.3977E-08  0.4774E-15  0.4545E-14  0.4033E-05  0.2484E-05  0.4774E-15  0.4545E-14  0.4744E-08  0.3977E-08
      2.058  0.1876E-01  0.1940E-01  0.5022E-03  0.5234E-03  0.1795E-07  0.1247E-07  0.5022E-03  0.5234E-03  0.2201E-04  0.1646E-04  0.1904E-12  0.3354E-15  0.1591E-04  0.1259E-04  0.1904E-12  0.3354E-15  0.2201E-04  0.1646E-04
      2.184  0.2478E-01  0.2415E-01  0.6636E-03  0.6515E-03  0.2460E-07  0.2049E-07  0.6636E-03  0.6515E-03  0.2908E-04  0.2049E-04  0.2021E-08  0.1219E-08  0.2102E-04  0.1567E-04  0.2021E-08  0.1219E-08  0.2908E-04  0.2049E-04
      2.310  0.2076E-01  0.1966E-01  0.5616E-03  0.5363E-03  0.5716E-03  0.5455E-03  0.5616E-03  0.5363E-03  0.2677E-04  0.1792E-04  0.4697E-04  0.3244E-04  0.1536E-06  0.1287E-06  0.4697E-04  0.3244E-04  0.2677E-04  0.1792E-04
      2.436  0.6370E-01  0.6484E-01  0.1723E-02  0.1769E-02  0.1755E-02  0.1800E-02  0.1723E-02  0.1769E-02  0.8213E-04  0.5912E-04  0.1442E-03  0.1071E-03  0.4324E-06  0.3962E-06  0.1442E-03  0.1071E-03  0.8213E-04  0.5912E-04
      2.562  0.2299E-02  0.1681E-02  0.4646E-05  0.5361E-05  0.2329E-03  0.1678E-03  0.4646E-05  0.5361E-05  0.2214E-06  0.1792E-06  0.3889E-06  0.3245E-06  0.3581E-04  0.1662E-04  0.3889E-06  0.3245E-06  0.2214E-06  0.1792E-06
      2.688  0.1149E-01  0.1209E-01  0.1398E-12  0.1871E-12  0.1232E-02  0.1322E-02  0.1398E-12  0.1871E-12  0.7944E-14  0.7371E-14  0.1508E-13  0.1570E-13  0.1934E-03  0.1353E-03  0.1508E-13  0.1570E-13  0.7944E-14  0.7371E-14
      2.814  0.7381E-04  0.1368E-03  0.1688E-17  0.6389E-17  0.7917E-05  0.1495E-04  0.1688E-17  0.6389E-17  0.8433E-17  0.1287E-16  0.2176E-16  0.4988E-16  0.1242E-05  0.1530E-05  0.2176E-16  0.4988E-16  0.8433E-17  0.1287E-16
      2.940  0.2282E-06  0.2104E-07  0.1386E-07  0.1358E-08  0.1020E-07  0.8307E-09  0.1386E-07  0.1358E-08  0.1780E-08  0.1222E-09  0.9526E-09  0.5370E-10  0.2132E-08  0.1335E-09  0.9526E-09  0.5370E-10  0.1780E-08  0.1222E-09
      3.066  0.1638E-01  0.7008E-02  0.8329E-03  0.3742E-03  0.1064E-02  0.4365E-03  0.8329E-03  0.3742E-03  0.9812E-04  0.3070E-04  0.9931E-04  0.2832E-04  0.1536E-03  0.4412E-04  0.9931E-04  0.2832E-04  0.9812E-04  0.3070E-04
      3.192  0.9852E-01  0.1064E+00  0.4498E-02  0.4970E-02  0.7442E-02  0.8084E-02  0.4498E-02  0.4970E-02  0.4967E-03  0.3749E-03  0.6948E-03  0.5245E-03  0.9257E-03  0.6674E-03  0.6948E-03  0.5245E-03  0.4967E-03  0.3749E-03
      3.318  0.2157E-01  0.9589E-02  0.1754E-02  0.6898E-03  0.6574E-03  0.4399E-03  0.1754E-02  0.6898E-03  0.2706E-03  0.6825E-04  0.2263E-03  0.6333E-04  0.1177E-03  0.4097E-04  0.2263E-03  0.6333E-04  0.2706E-03  0.6825E-04
      3.444  0.5362E-01  0.6721E-01  0.4445E-02  0.5677E-02  0.1517E-02  0.1934E-02  0.4445E-02  0.5677E-02  0.6906E-03  0.5959E-03  0.5668E-03  0.4662E-03  0.2851E-03  0.2345E-03  0.5668E-03  0.4662E-03  0.6906E-03  0.5959E-03
      3.570  0.2354E-01  0.8474E-02  0.2520E-02  0.9132E-03  0.3062E-05  0.2769E-04  0.2520E-02  0.9132E-03  0.7972E-03  0.1675E-03  0.1144E-05  0.6675E-05  0.4254E-03  0.9444E-04  0.1144E-05  0.6675E-05  0.7972E-03  0.1675E-03
      3.696  0.1403E-01  0.2876E-01  0.1466E-02  0.3185E-02  0.1085E-03  0.2197E-06  0.1466E-02  0.3185E-02  0.4708E-03  0.6086E-03  0.2336E-04  0.5011E-07  0.2915E-03  0.3488E-03  0.2336E-04  0.5011E-07  0.4708E-03  0.6086E-03
      3.822  0.7303E-01  0.3152E-01  0.6622E-02  0.3052E-02  0.4104E-02  0.1734E-02  0.6622E-02  0.3052E-02  0.2410E-02  0.6417E-03  0.1183E-02  0.3152E-03  0.2393E-02  0.5708E-03  0.1183E-02  0.3152E-03  0.2410E-02  0.6417E-03
      3.948  0.7173E-02  0.5032E-01  0.6647E-03  0.4707E-02  0.4616E-03  0.3088E-02  0.6647E-03  0.4707E-02  0.2193E-03  0.9902E-03  0.1811E-03  0.4883E-03  0.1457E-03  0.1028E-02  0.1811E-03  0.4883E-03  0.2193E-03  0.9902E-03
      4.074  0.6065E-01  0.2741E-01  0.5106E-02  0.2378E-02  0.7110E-02  0.3280E-02  0.5106E-02  0.2378E-02  0.1068E-02  0.3077E-03  0.3095E-02  0.8749E-03  0.8660E-05  0.6544E-05  0.3095E-02  0.8749E-03  0.1068E-02  0.3077E-03
      4.200  0.1875E-01  0.3996E-01  0.7702E-03  0.3464E-02  0.4098E-02  0.4791E-02  0.7702E-03  0.3464E-02  0.1170E-03  0.4478E-03  0.5956E-03  0.1277E-02  0.1918E-02  0.1076E-04  0.5956E-03  0.1277E-02  0.1170E-03  0.4478E-03
      4.326  0.5588E-01  0.4116E-01  0.2328E-02  0.1294E-02  0.1247E-01  0.1053E-01  0.2328E-02  0.1294E-02  0.6526E-03  0.8143E-04  0.2050E-02  0.7931E-03  0.6000E-02  0.2922E-02  0.2050E-02  0.7931E-03  0.6526E-03  0.8143E-04
      4.452  0.5035E-01  0.3090E-01  0.5159E-02  0.1516E-02  0.5833E-02  0.6968E-02  0.5159E-02  0.1516E-02  0.2981E-02  0.2676E-03  0.4613E-02  0.8299E-03  0.9791E-04  0.1709E-02  0.4613E-02  0.8299E-03  0.2981E-02  0.2676E-03
      4.578  0.3986E-03  0.5446E-01  0.4091E-04  0.6025E-02  0.4605E-04  0.6538E-02  0.4091E-04  0.6025E-02  0.2366E-04  0.1742E-02  0.3659E-04  0.2906E-02  0.6454E-06  0.2800E-04  0.3659E-04  0.2906E-02  0.2366E-04  0.1742E-02
      4.704  0.7781E-03  0.5925E-03  0.1504E-03  0.6555E-04  0.2053E-05  0.7112E-04  0.1504E-03  0.6555E-04  0.1056E-03  0.1895E-04  0.8485E-10  0.3162E-04  0.7385E-04  0.3022E-06  0.8485E-10  0.3162E-04  0.1056E-03  0.1895E-04
      4.830  0.5683E-01  0.8154E-04  0.1007E-01  0.1688E-04  0.1413E-02  0.1302E-10  0.1007E-01  0.1688E-04  0.7106E-02  0.6442E-05  0.1584E-03  0.5787E-11  0.9489E-02  0.4170E-05  0.1584E-03  0.5787E-11  0.7106E-02  0.6442E-05
      4.956  0.1116E+00  0.4166E-01  0.1935E-01  0.8623E-02  0.6143E-02  0.2094E-07  0.1935E-01  0.8623E-02  0.1487E-01  0.3292E-02  0.8855E-02  0.2760E-07  0.1091E-01  0.2131E-02  0.8855E-02  0.2760E-07  0.1487E-01  0.3292E-02
      5.082  0.4618E-01  0.4144E-01  0.4833E-02  0.8373E-02  0.1088E-01  0.9701E-03  0.4833E-02  0.8373E-02  0.2667E-02  0.3349E-02  0.6615E-02  0.9609E-03  0.2717E-02  0.1982E-02  0.6615E-02  0.9609E-03  0.2667E-02  0.3349E-02
      5.208  0.1206E+00  0.1432E+00  0.1614E-01  0.2220E-01  0.1533E-01  0.1908E-01  0.1614E-01  0.2220E-01  0.3867E-01  0.8198E-02  0.2916E-01  0.7650E-02  0.2518E-01  0.9357E-02  0.2916E-01  0.7650E-02  0.3867E-01  0.8198E-02
      5.334  0.1279E+00  0.5415E-02  0.1393E-01  0.4031E-03  0.1900E-01  0.1552E-02  0.1393E-01  0.4031E-03  0.3554E-01  0.9036E-04  0.4818E-01  0.3439E-03  0.5693E-01  0.8903E-03  0.4818E-01  0.3439E-03  0.3554E-01  0.9036E-04
      5.460  0.1509E-01  0.1803E-01  0.7157E-03  0.2040E-02  0.9124E-03  0.5249E-02  0.7157E-03  0.2040E-02  0.2051E-01  0.1073E-02  0.2405E-01  0.2791E-02  0.5305E-02  0.3313E-03  0.2405E-01  0.2791E-02  0.2051E-01  0.1073E-02
      5.586  0.6147E-01  0.1015E+00  0.5235E-02  0.1603E-01  0.5025E-02  0.1806E-01  0.5235E-02  0.1603E-01  0.5650E-01  0.1132E-01  0.8295E-01  0.1198E-01  0.7383E-01  0.9362E-02  0.8295E-01  0.1198E-01  0.5650E-01  0.1132E-01
      5.712  0.1046E+00  0.1345E+00  0.1382E-01  0.2124E-01  0.1498E-01  0.2087E-01  0.1382E-01  0.2124E-01  0.9929E-01  0.1869E-01  0.1185E+00  0.1395E-01  0.1025E+00  0.2347E-01  0.1185E+00  0.1395E-01  0.9929E-01  0.1869E-01
      5.838  0.4349E-01  0.2358E-02  0.7486E-02  0.4472E-03  0.6396E-02  0.1133E-03  0.7486E-02  0.4472E-03  0.8996E-01  0.6727E-03  0.4572E-01  0.3420E-03  0.2514E-01  0.2326E-03  0.4572E-01  0.3420E-03  0.8996E-01  0.6727E-03
      5.964  0.6570E-01  0.3114E-01  0.9240E-02  0.4939E-02  0.2517E-01  0.2570E-02  0.9240E-02  0.4939E-02  0.9723E-01  0.1147E-01  0.3966E-01  0.1132E-01  0.7583E-01  0.2412E-02  0.3966E-01  0.1132E-01  0.9723E-01  0.1147E-01
      6.090  0.8643E-01  0.8100E-02  0.2671E-01  0.4828E-03  0.2024E-01  0.1207E-02  0.2671E-01  0.4828E-03  0.2188E+00  0.1121E-02  0.1892E+00  0.1107E-02  0.1548E+00  0.1056E-01  0.1892E+00  0.1107E-02  0.2188E+00  0.1121E-02