    2    2    1    2
  0.1064014E+02  0.2472000E-09  0.2472000E-09  0.4021144E-09  0.5000000E-15
  1.000000000000000E-004
  CAR 
 Co-hcc                                  
     18     40     16
 
  0.0000000E+00  0.0000000E+00  0.0000000E+00  0.2604167E-02
      1          1.512899        1.508480   1.000000   1.000000
      2          5.291194        6.249921   1.000000   1.000000
      3          7.839364        9.498128   1.000000   1.000000
      4          7.898959        9.560863   1.000000   1.000000
      5          7.898959        9.560863   1.000000   1.000000
      6          8.213590        9.929981   1.000000   1.000000
      7          8.213590        9.929982   1.000000   1.000000
      8          8.605538       10.320391   1.000000   1.000000
      9          8.605538       10.380499   1.000000   0.999945
     10          9.713995       10.380499   1.000000   0.999945
     11          9.713995       11.606211   1.000000   0.000000
     12         10.388366       11.606211   0.999866   0.000000
     13         16.960946       18.001121   0.000000   0.000000
     14         32.761830       32.477435   0.000000   0.000000
     15         35.562597       35.755473   0.000000   0.000000
     16         35.562856       35.866215   0.000000   0.000000
 
  0.1250000E+00  0.2775558E-16  0.0000000E+00  0.1562500E-01
      1          2.064378        2.063057   1.000000   1.000000
      2          5.610476        6.616959   1.000000   1.000000
      3          7.512269        9.092485   1.000000   1.000000
      4          8.054347        9.191639   1.000000   1.000000
      5          8.110291        9.728611   1.000000   1.000000
      6          8.157397        9.845466   1.000000   1.000000
      7          8.216470        9.917196   1.000000   1.000000
      8          8.442147       10.181349   1.000000   1.000000
      9          8.452069       10.201637   1.000000   1.000000
     10          8.669476       10.237325   1.000000   1.000000
     11          9.774850       11.678347   1.000000   0.000000
     12         12.300368       13.214527   0.000000   0.000000
     13         17.060455       18.047076   0.000000   0.000000
     14         29.092172       29.330310   0.000000   0.000000
     15         32.140820       32.461861   0.000000   0.000000
     16         32.810596       32.850380   0.000000   0.000000
 
  0.2500000E+00  0.5551115E-16  0.0000000E+00  0.1562500E-01
      1          3.556026        3.598889   1.000000   1.000000
      2          6.100804        7.278831   1.000000   1.000000
      3          6.949390        8.074513   1.000000   1.000000
      4          7.217062        8.604188   1.000000   1.000000
      5          7.879405        9.464493   1.000000   1.000000
      6          8.138127        9.839387   1.000000   1.000000
      7          8.335755        9.907831   1.000000   1.000000
      8          8.809370       10.535249   1.000000   0.305051
      9          8.825075       10.589912   1.000000   0.019890
     10          9.026775       10.827896   1.000000   0.000000
     11          9.867858       11.786582   1.000000   0.000000
     12         14.961392       15.728737   0.000000   0.000000
     13         17.436661       18.249941   0.000000   0.000000
     14         23.393251       23.866525   0.000000   0.000000
     15         28.844078       29.114721   0.000000   0.000000
     16         30.793279       30.922097   0.000000   0.000000
 
  0.3750000E+00  0.0000000E+00  0.0000000E+00  0.1562500E-01
      1          5.166895        5.558658   1.000000   1.000000
      2          5.924499        7.195928   1.000000   1.000000
      3          6.222650        7.412901   1.000000   1.000000
      4          7.515510        8.518192   1.000000   1.000000
      5          7.868228        9.530325   1.000000   1.000000
      6          8.072265        9.586776   1.000000   1.000000
      7          8.122221        9.689621   1.000000   1.000000
      8          9.552285       11.420236   1.000000   0.000000
      9          9.685165       11.563974   1.000000   0.000000
     10          9.920683       11.667347   1.000000   0.000000
     11         10.038590       11.846842   1.000000   0.000000
     12         16.866217       17.531833   0.000000   0.000000
     13         17.977672       18.585696   0.000000   0.000000
     14         20.028078       20.629560   0.000000   0.000000
     15         26.268679       26.606129   0.000000   0.000000
     16         26.533798       26.722712   0.000000   0.000000
 
  0.5000000E+00  0.1110223E-15  0.0000000E+00  0.7812500E-02
      1          5.673797        6.599876   1.000000   1.000000
      2          5.717282        6.889955   1.000000   1.000000
      3          5.981591        7.197573   1.000000   1.000000
      4          7.764665        8.676254   1.000000   1.000000
      5          7.966874        9.412176   1.000000   1.000000
      6          7.993533        9.455586   1.000000   1.000000
      7          8.296005        9.889025   1.000000   1.000000
      8          9.856302       11.768737   1.000000   0.000000
      9          9.935441       11.863429   1.000000   0.000000
     10         10.004954       11.933333   1.000000   0.000000
     11         11.889671       13.144573   0.000000   0.000000
     12         13.958601       14.945948   0.000000   0.000000
     13         20.340174       20.759044   0.000000   0.000000
     14         21.012782       21.408051   0.000000   0.000000
     15         23.415381       23.963072   0.000000   0.000000
     16         24.707423       25.281136   0.000000   0.000000
 
  0.1250000E+00  0.1250000E+00  0.0000000E+00  0.1562500E-01
      1          3.098861        3.115400   1.000000   1.000000
      2          6.086328        7.188304   1.000000   1.000000
      3          7.140895        8.361500   1.000000   1.000000
      4          7.269886        8.625853   1.000000   1.000000
      5          7.944675        9.557640   1.000000   1.000000
      6          8.063185        9.733696   1.000000   1.000000
      7          8.412210       10.140130   1.000000   1.000000
      8          8.554194       10.196582   1.000000   1.000000
      9          8.679613       10.415685   1.000000   0.997960
     10          8.975502       10.745966   1.000000   0.000000
     11          9.813956       11.723471   1.000000   0.000000
     12         14.218975       15.030366   0.000000   0.000000
     13         17.327414       18.201544   0.000000   0.000000
     14         26.133921       26.470416   0.000000   0.000000
     15         26.713578       27.101200   0.000000   0.000000
     16         33.092422       33.024009   0.000000   0.000000
 
  0.2500000E+00  0.1250000E+00  0.0000000E+00  0.3125000E-01
      1          4.781449        4.935394   1.000000   1.000000
      2          6.278264        7.547478   1.000000   1.000000
      3          6.495934        7.669160   1.000000   1.000000
      4          6.982495        8.248453   1.000000   1.000000
      5          7.763587        9.363594   1.000000   1.000000
      6          7.996919        9.555143   1.000000   1.000000
      7          8.277126        9.874134   1.000000   1.000000
      8          8.918810       10.690620   1.000000   0.000000
      9          9.438263       11.265392   1.000000   0.000000
     10          9.840315       11.698985   1.000000   0.000000
     11          9.952566       11.753828   1.000000   0.000000
     12         16.936429       17.622237   0.000000   0.000000
     13         17.918756       18.574116   0.000000   0.000000
     14         21.177842       21.727260   0.000000   0.000000
     15         24.253483       24.620171   0.000000   0.000000
     16         28.698876       28.898120   0.000000   0.000000
 
  0.3750000E+00  0.1250000E+00  0.0000000E+00  0.3125000E-01
      1          5.821191        6.574997   1.000000   1.000000
      2          5.995689        7.227395   1.000000   1.000000
      3          6.090361        7.321114   1.000000   1.000000
      4          7.484169        8.354706   1.000000   1.000000
      5          7.677712        9.263524   1.000000   1.000000
      6          7.974213        9.496220   1.000000   1.000000
      7          8.288833        9.887161   1.000000   1.000000
      8          9.614877       11.466674   1.000000   0.000000
      9          9.851036       11.760553   1.000000   0.000000
     10          9.862576       11.765732   1.000000   0.000000
     11         11.656249       13.029180   0.000000   0.000000
     12         15.520625       16.333252   0.000000   0.000000
     13         19.975347       20.493380   0.000000   0.000000
     14         20.793062       21.262083   0.000000   0.000000
     15         22.844158       23.178145   0.000000   0.000000
     16         24.668880       25.105633   0.000000   0.000000
 
  0.2500000E+00  0.2500000E+00  0.0000000E+00  0.1562500E-01
      1          6.090914        6.616378   1.000000   1.000000
      2          6.219951        7.468564   1.000000   1.000000
      3          6.579768        7.772554   1.000000   1.000000
      4          6.624270        7.811824   1.000000   1.000000
      5          7.542613        9.078695   1.000000   1.000000
      6          8.012390        9.552555   1.000000   1.000000
      7          8.295714        9.888193   1.000000   1.000000
      8          9.149388       10.966580   1.000000   0.000000
      9          9.763241       11.665414   1.000000   0.000000
     10          9.867054       11.760845   1.000000   0.000000
     11         11.651305       13.097364   0.000000   0.000000
     12         18.225086       18.766248   0.000000   0.000000
     13         19.012025       19.600074   0.000000   0.000000
     14         19.721981       20.304643   0.000000   0.000000
     15         21.149136       21.620706   0.000000   0.000000
     16         27.402267       27.618101   0.000000   0.000000
 
  0.3750000E+00  0.2500000E+00  0.0000000E+00  0.1562500E-01
      1          6.136379        7.383731   1.000000   1.000000
      2          6.392462        7.428807   1.000000   1.000000
      3          6.403318        7.592699   1.000000   1.000000
      4          7.023537        7.957304   1.000000   1.000000
      5          7.582819        9.108684   1.000000   1.000000
      6          7.757809        9.242225   1.000000   1.000000
      7          8.491557       10.120528   1.000000   1.000000
      8          9.526288       11.381368   1.000000   0.000000
      9          9.729751       11.627043   1.000000   0.000000
     10          9.740561       11.627634   1.000000   0.000000
     11         14.041400       14.961213   0.000000   0.000000
     12         15.176052       16.084388   0.000000   0.000000
     13         18.316834       18.869409   0.000000   0.000000
     14         22.395841       22.847181   0.000000   0.000000
     15         22.497669       22.882415   0.000000   0.000000
     16         24.178918       24.650215   0.000000   0.000000
 
  0.0000000E+00  0.0000000E+00  0.1666667E+00  0.5208333E-02
      1          1.793730        1.790593   1.000000   1.000000
      2          5.227924        6.031391   1.000000   1.000000
      3          7.768787        9.405893   1.000000   1.000000
      4          7.838168        9.495684   1.000000   1.000000
      5          7.838168        9.495685   1.000000   1.000000
      6          8.141299        9.699350   1.000000   1.000000
      7          8.141299        9.846501   1.000000   1.000000
      8          8.765020        9.846501   1.000000   1.000000
      9          8.765020       10.557147   1.000000   0.129389
     10          9.406931       10.557147   1.000000   0.129387
     11          9.695614       11.589525   1.000000   0.000000
     12          9.695614       11.589525   1.000000   0.000000
     13         18.502736       19.337488   0.000000   0.000000
     14         32.583269       32.264033   0.000000   0.000000
     15         34.046376       34.128399   0.000000   0.000000
     16         35.356075       35.156163   0.000000   0.000000
 
  0.1250000E+00  0.2775558E-16  0.1666667E+00  0.3125000E-01
      1          2.334546        2.336051   1.000000   1.000000
      2          5.580472        6.429597   1.000000   1.000000
      3          7.533011        8.846545   1.000000   1.000000
      4          7.744412        9.116614   1.000000   1.000000
      5          7.899924        9.555272   1.000000   1.000000
      6          8.051795        9.732805   1.000000   1.000000
      7          8.337982        9.845583   1.000000   1.000000
      8          8.354047       10.076160   1.000000   1.000000
      9          8.680695       10.457069   1.000000   0.955560
     10          8.777250       10.502439   1.000000   0.662061
     11          9.741118       11.643187   1.000000   0.000000
     12         11.335957       12.627572   0.000000   0.000000
     13         18.762912       19.539076   0.000000   0.000000
     14         29.293276       29.510678   0.000000   0.000000
     15         32.436259       32.581027   0.000000   0.000000
     16         32.584805       32.755191   0.000000   0.000000
 
  0.2500000E+00  0.5551115E-16  0.1666667E+00  0.3125000E-01
      1          3.770076        3.831572   1.000000   1.000000
      2          6.148696        7.186726   1.000000   1.000000
      3          6.802873        7.943932   1.000000   1.000000
      4          7.272652        8.666851   1.000000   1.000000
      5          7.729164        9.321615   1.000000   1.000000
      6          8.175527        9.842069   1.000000   1.000000
      7          8.329100        9.876710   1.000000   1.000000
      8          8.871044       10.634723   1.000000   0.000444
      9          8.941526       10.705642   1.000000   0.000000
     10          8.983909       10.787879   1.000000   0.000000
     11          9.810019       11.722400   1.000000   0.000000
     12         13.281162       14.330319   0.000000   0.000000
     13         19.637118       20.259690   0.000000   0.000000
     14         23.646827       24.112786   0.000000   0.000000
     15         29.011728       29.269182   0.000000   0.000000
     16         29.209049       29.488869   0.000000   0.000000
 
  0.3750000E+00  0.0000000E+00  0.1666667E+00  0.3125000E-01
      1          5.156045        5.649772   1.000000   1.000000
      2          5.936010        7.112442   1.000000   1.000000
      3          6.405132        7.550338   1.000000   1.000000
      4          7.127771        8.401767   1.000000   1.000000
      5          7.974600        9.595428   1.000000   1.000000
      6          8.106407        9.646514   1.000000   1.000000
      7          8.680976        9.938643   1.000000   1.000000
      8          9.552428       11.414881   1.000000   0.000000
      9          9.577637       11.445580   1.000000   0.000000
     10          9.880397       11.577847   1.000000   0.000000
     11          9.909060       11.799440   1.000000   0.000000
     12         14.996450       15.720773   0.000000   0.000000
     13         18.763136       19.509111   0.000000   0.000000
     14         21.417831       21.845779   0.000000   0.000000
     15         24.807682       25.288894   0.000000   0.000000
     16         26.950595       27.159962   0.000000   0.000000
 
  0.5000000E+00  0.1110223E-15  0.1666667E+00  0.1562500E-01
      1          5.426949        6.411115   1.000000   1.000000
      2          5.725977        6.907320   1.000000   1.000000
      3          6.443034        7.606845   1.000000   1.000000
      4          7.067421        8.172472   1.000000   1.000000
      5          7.885011        9.544060   1.000000   1.000000
      6          8.314369        9.848724   1.000000   1.000000
      7          9.080259       10.235237   1.000000   1.000000
      8          9.723410       11.618052   1.000000   0.000000
      9          9.902025       11.818050   1.000000   0.000000
     10          9.997215       11.924661   1.000000   0.000000
     11         11.686705       12.824411   0.000000   0.000000
     12         13.780234       14.704902   0.000000   0.000000
     13         19.462221       20.044454   0.000000   0.000000
     14         19.738927       20.355360   0.000000   0.000000
     15         25.213779       25.577168   0.000000   0.000000
     16         26.112363       26.279384   0.000000   0.000000
 
  0.1250000E+00  0.1250000E+00  0.1666667E+00  0.3125000E-01
      1          3.338686        3.365071   1.000000   1.000000
      2          6.125735        7.071534   1.000000   1.000000
      3          7.039010        8.155199   1.000000   1.000000
      4          7.187057        8.680727   1.000000   1.000000
      5          7.870866        9.497018   1.000000   1.000000
      6          8.008985        9.613949   1.000000   1.000000
      7          8.342110       10.007952   1.000000   1.000000
      8          8.576979       10.304367   1.000000   1.000000
      9          8.902211       10.644594   1.000000   0.000157
     10          8.957574       10.745393   1.000000   0.000000
     11          9.778425       11.679383   1.000000   0.000000
     12         12.773537       13.892463   0.000000   0.000000
     13         19.359793       20.030625   0.000000   0.000000
     14         26.364262       26.692907   0.000000   0.000000
     15         26.990635       27.378044   0.000000   0.000000
     16         31.605393       31.675926   0.000000   0.000000
 
  0.2500000E+00  0.1250000E+00  0.1666667E+00  0.6250000E-01
      1          4.901866        5.109389   1.000000   1.000000
      2          6.361919        7.450936   1.000000   1.000000
      3          6.419353        7.691985   1.000000   1.000000
      4          7.046045        8.336975   1.000000   1.000000
      5          7.714566        9.253198   1.000000   1.000000
      6          8.116324        9.659164   1.000000   1.000000
      7          8.203992        9.797018   1.000000   1.000000
      8          8.954159       10.730809   1.000000   0.000000
      9          9.532964       11.367065   1.000000   0.000000
     10          9.575406       11.413187   1.000000   0.000000
     11         10.079425       11.886461   1.000000   0.000000
     12         14.673646       15.539125   0.000000   0.000000
     13         20.402400       20.962192   0.000000   0.000000
     14         21.607753       22.119329   0.000000   0.000000
     15         24.536229       24.915347   0.000000   0.000000
     16         27.101005       27.432169   0.000000   0.000000
 
  0.3750000E+00  0.1250000E+00  0.1666667E+00  0.6250000E-01
      1          5.618602        6.511557   1.000000   1.000000
      2          6.020543        7.201881   1.000000   1.000000
      3          6.490376        7.599277   1.000000   1.000000
      4          7.021454        8.193057   1.000000   1.000000
      5          7.703703        9.281383   1.000000   1.000000
      6          8.345403        9.712563   1.000000   1.000000
      7          8.462096        9.968378   1.000000   1.000000
      8          9.562167       11.414531   1.000000   0.000000
      9          9.683094       11.560067   1.000000   0.000000
     10          9.918816       11.825297   1.000000   0.000000
     11         11.683198       13.005489   0.000000   0.000000
     12         15.153046       15.887915   0.000000   0.000000
     13         18.675850       19.402290   0.000000   0.000000
     14         21.430735       21.885735   0.000000   0.000000
     15         23.144042       23.512034   0.000000   0.000000
     16         24.792406       25.219468   0.000000   0.000000
 
  0.2500000E+00  0.2500000E+00  0.1666667E+00  0.3125000E-01
      1          6.089991        6.685756   1.000000   1.000000
      2          6.170076        7.390016   1.000000   1.000000
      3          6.628730        7.839345   1.000000   1.000000
      4          6.764285        8.000659   1.000000   1.000000
      5          7.701239        9.133769   1.000000   1.000000
      6          7.859005        9.372301   1.000000   1.000000
      7          8.295465        9.892819   1.000000   1.000000
      8          9.193426       11.009205   1.000000   0.000000
      9          9.553320       11.421351   1.000000   0.000000
     10          9.934186       11.841799   1.000000   0.000000
     11         11.779904       13.202084   0.000000   0.000000
     12         16.647362       17.270243   0.000000   0.000000
     13         19.295912       19.887964   0.000000   0.000000
     14         20.024106       20.627394   0.000000   0.000000
     15         22.723084       23.121830   0.000000   0.000000
     16         25.727286       26.168717   0.000000   0.000000
 
  0.3750000E+00  0.2500000E+00  0.1666667E+00  0.3125000E-01
      1          6.083710        7.248393   1.000000   1.000000
      2          6.488188        7.676353   1.000000   1.000000
      3          6.592928        7.743346   1.000000   1.000000
      4          6.864303        7.899955   1.000000   1.000000
      5          7.554175        9.040550   1.000000   1.000000
      6          7.817185        9.206030   1.000000   1.000000
      7          8.507945       10.135944   1.000000   1.000000
      8          9.495977       11.355063   1.000000   0.000000
      9          9.555752       11.415728   1.000000   0.000000
     10          9.789543       11.683672   1.000000   0.000000
     11         14.280941       15.175017   0.000000   0.000000
     12         15.220824       16.093400   0.000000   0.000000
     13         18.429727       18.995062   0.000000   0.000000
     14         20.921695       21.455034   0.000000   0.000000
     15         21.355686       21.894316   0.000000   0.000000
     16         24.635933       25.075381   0.000000   0.000000
 
  0.0000000E+00  0.0000000E+00  0.3333333E+00  0.5208333E-02
      1          2.597952        2.605809   1.000000   1.000000
      2          4.812697        5.173369   1.000000   1.000000
      3          7.607788        9.000355   1.000000   1.000000
      4          7.785913        9.173893   1.000000   1.000000
      5          7.785913        9.439886   1.000000   1.000000
      6          7.981021        9.439886   1.000000   1.000000
      7          7.981021        9.662761   1.000000   1.000000
      8          8.034826        9.662761   1.000000   1.000000
      9          9.085275       10.915363   1.000000   0.000000
     10          9.085275       10.915364   1.000000   0.000000
     11          9.603748       11.493156   1.000000   0.000000
     12          9.603748       11.493156   1.000000   0.000000
     13         21.751736       22.349670   0.000000   0.000000
     14         29.706337       29.889581   0.000000   0.000000
     15         33.092838       32.903975   0.000000   0.000000
     16         34.333615       34.085051   0.000000   0.000000
 
  0.1250000E+00  0.2775558E-16  0.3333333E+00  0.3125000E-01
      1          3.106865        3.124251   1.000000   1.000000
      2          5.231022        5.610021   1.000000   1.000000
      3          7.298611        8.557466   1.000000   1.000000
      4          7.559454        9.141016   1.000000   1.000000
      5          7.624266        9.214203   1.000000   1.000000
      6          7.986744        9.660568   1.000000   1.000000
      7          8.121409        9.673341   1.000000   1.000000
      8          8.193557        9.892700   1.000000   1.000000
      9          9.034864       10.854971   1.000000   0.000000
     10          9.137576       10.937110   1.000000   0.000000
     11          9.614788       11.505611   1.000000   0.000000
     12         10.226743       11.919670   1.000000   0.000000
     13         22.107344       22.669752   0.000000   0.000000
     14         29.858975       29.945224   0.000000   0.000000
     15         30.103810       30.410412   0.000000   0.000000
     16         32.086153       32.147101   0.000000   0.000000
 
  0.2500000E+00  0.5551115E-16  0.3333333E+00  0.3125000E-01
      1          4.364546        4.494936   1.000000   1.000000
      2          5.938325        6.517248   1.000000   1.000000
      3          6.705363        8.056069   1.000000   1.000000
      4          7.301008        8.746821   1.000000   1.000000
      5          7.605229        9.102336   1.000000   1.000000
      6          8.161838        9.625389   1.000000   1.000000
      7          8.295368       10.001764   1.000000   1.000000
      8          8.725739       10.473219   1.000000   0.893352
      9          9.140794       10.966296   1.000000   0.000000
     10          9.350065       11.120514   1.000000   0.000000
     11          9.644001       11.536508   1.000000   0.000000
     12         11.381732       12.789381   0.000000   0.000000
     13         23.042008       23.525893   0.000000   0.000000
     14         24.423704       24.860099   0.000000   0.000000
     15         27.172053       27.507212   0.000000   0.000000
     16         30.266784       30.568364   0.000000   0.000000
 
  0.3750000E+00  0.0000000E+00  0.3333333E+00  0.3125000E-01
      1          5.236892        5.915656   1.000000   1.000000
      2          5.824778        6.788594   1.000000   1.000000
      3          6.561550        7.850664   1.000000   1.000000
      4          6.981951        8.374793   1.000000   1.000000
      5          8.275526        9.635836   1.000000   1.000000
      6          8.309612        9.976798   1.000000   1.000000
      7          9.188483       10.312816   1.000000   1.000000
      8          9.459309       10.996310   1.000000   0.000000
      9          9.635186       11.515129   1.000000   0.000000
     10          9.724169       11.536256   1.000000   0.000000
     11          9.805074       11.711547   1.000000   0.000000
     12         12.785484       13.715984   0.000000   0.000000
     13         19.502814       20.239627   0.000000   0.000000
     14         21.781350       22.310209   0.000000   0.000000
     15         25.789864       26.154930   0.000000   0.000000
     16         28.135481       28.390857   0.000000   0.000000
 
  0.5000000E+00  0.1110223E-15  0.3333333E+00  0.1562500E-01
      1          5.308639        6.322901   1.000000   1.000000
      2          5.716423        6.774867   1.000000   1.000000
      3          6.592673        7.915812   1.000000   1.000000
      4          6.798256        8.108881   1.000000   1.000000
      5          8.227116        9.921047   1.000000   1.000000
      6          8.641545        9.993446   1.000000   1.000000
      7          9.282576       11.107891   1.000000   0.000000
      8          9.917888       11.424354   1.000000   0.000000
      9          9.944734       11.835488   1.000000   0.000000
     10          9.975868       11.900702   1.000000   0.000000
     11         11.394636       11.978568   0.000000   0.000000
     12         13.177782       13.952630   0.000000   0.000000
     13         18.373583       19.179274   0.000000   0.000000
     14         18.434396       19.275352   0.000000   0.000000
     15         27.347136       27.572470   0.000000   0.000000
     16         28.101505       28.290166   0.000000   0.000000
 
  0.1250000E+00  0.1250000E+00  0.3333333E+00  0.3125000E-01
      1          4.016386        4.082217   1.000000   1.000000
      2          5.884607        6.326496   1.000000   1.000000
      3          6.802635        8.163484   1.000000   1.000000
      4          7.307581        8.813202   1.000000   1.000000
      5          7.547614        9.109621   1.000000   1.000000
      6          7.934705        9.500451   1.000000   1.000000
      7          8.264015        9.960603   1.000000   1.000000
      8          8.581369       10.283534   1.000000   1.000000
      9          9.166291       10.955622   1.000000   0.000000
     10          9.233335       11.044708   1.000000   0.000000
     11          9.664078       11.531736   1.000000   0.000000
     12         11.071149       12.564258   0.000000   0.000000
     13         22.820722       23.323391   0.000000   0.000000
     14         27.024524       27.329733   0.000000   0.000000
     15         27.761445       28.139396   0.000000   0.000000
     16         29.870635       30.040413   0.000000   0.000000
 
  0.2500000E+00  0.1250000E+00  0.3333333E+00  0.6250000E-01
      1          5.224815        5.592121   1.000000   1.000000
      2          6.094946        6.954100   1.000000   1.000000
      3          6.652671        7.986582   1.000000   1.000000
      4          7.197331        8.502963   1.000000   1.000000
      5          7.618530        9.081305   1.000000   1.000000
      6          8.044759        9.472962   1.000000   1.000000
      7          8.324049        9.980326   1.000000   1.000000
      8          8.990472       10.732045   1.000000   0.000000
      9          9.444802       11.280130   1.000000   0.000000
     10          9.725694       11.579234   1.000000   0.000000
     11         10.177786       11.900837   1.000000   0.000000
     12         12.460132       13.576624   0.000000   0.000000
     13         21.922670       22.481104   0.000000   0.000000
     14         23.785815       24.198334   0.000000   0.000000
     15         25.030910       25.465333   0.000000   0.000000
     16         26.102924       26.460048   0.000000   0.000000
 
  0.3750000E+00  0.1250000E+00  0.3333333E+00  0.6250000E-01
      1          5.545667        6.523246   1.000000   1.000000
      2          5.998703        7.030772   1.000000   1.000000
      3          6.606287        7.910321   1.000000   1.000000
      4          7.031767        8.348612   1.000000   1.000000
      5          7.741949        9.208650   1.000000   1.000000
      6          8.595468        9.938230   1.000000   1.000000