    2    2    1    2
  0.2137190E+02  0.2470000E-09  0.2470000E-09  0.8090000E-09  0.5000000E-15
  1.000000000000000E-004
  CAR 
 Co-hcc                                  
     18     40     16
 
  0.0000000E+00  0.0000000E+00  0.0000000E+00  0.2604167E-02
      1         -3.114160       -2.777979   1.000000   1.000000
      2         -2.657183       -2.135473   1.000000   1.000000
      3         -0.106114        1.559774   1.000000   1.000000
      4          0.635270        2.215518   1.000000   1.000000
      5          0.635271        2.547472   1.000000   1.000000
      6          0.636154        2.547473   1.000000   1.000000
      7          0.636155        2.548710   1.000000   1.000000
      8          0.911846        2.548711   1.000000   1.000000
      9          1.598905        2.762370   1.000000   1.000000
     10          1.598905        3.905537   1.000000   0.000000
     11          1.601773        3.905538   1.000000   0.000000
     12          1.601774        3.909421   1.000000   0.000000
     13          2.190590        3.909422   1.000000   0.000000
     14          6.431352        6.705166   0.000000   0.000000
     15         10.887107       11.260507   0.000000   0.000000
     16         18.796428       18.818938   0.000000   0.000000
 
  0.1250000E+00 -0.1387779E-16  0.0000000E+00  0.1562500E-01
      1         -2.552530       -2.208549   1.000000   1.000000
      2         -2.118286       -1.563893   1.000000   1.000000
      3          0.065856        1.776266   1.000000   1.000000
      4          0.479335        2.103993   1.000000   1.000000
      5          0.481393        2.345407   1.000000   1.000000
      6          0.874955        2.350810   1.000000   1.000000
      7          0.875933        2.812411   1.000000   1.000000
      8          0.903579        2.813815   1.000000   1.000000
      9          1.042938        2.884864   1.000000   1.000000
     10          1.193578        3.297821   1.000000   0.000215
     11          1.550580        3.848371   1.000000   0.000000
     12          1.555542        3.855281   1.000000   0.000000
     13          3.268359        4.365591   0.003594   0.000000
     14          7.294317        7.757125   0.000000   0.000000
     15         11.230719       11.559356   0.000000   0.000000
     16         19.449095       19.498824   0.000000   0.000000
 
  0.2500000E+00 -0.2775558E-16  0.0000000E+00  0.1562500E-01
      1         -1.269390       -0.705265   1.000000   1.000000
      2         -1.044659       -0.160791   1.000000   1.000000
      3          0.238671        1.838377   1.000000   1.000000
      4          0.475920        1.949195   1.000000   1.000000
      5          0.483651        2.148001   1.000000   1.000000
      6          0.485320        2.437755   1.000000   1.000000
      7          0.520297        2.442911   1.000000   1.000000
      8          1.435798        3.202317   1.000000   0.206104
      9          1.444351        3.496541   1.000000   0.000000
     10          1.488661        3.497727   1.000000   0.000000
     11          1.489422        3.713050   1.000000   0.000000
     12          1.547073        3.725131   1.000000   0.000000
     13          5.143749        5.761818   0.000000   0.000000
     14          9.372077        9.943983   0.000000   0.000000
     15         12.275840       12.490460   0.000000   0.000000
     16         17.756929       18.241948   0.000000   0.000000
 
  0.3750000E+00 -0.2775558E-16  0.0000000E+00  0.1562500E-01
      1         -1.037749        0.312318   1.000000   1.000000
      2         -1.007239        0.424250   1.000000   1.000000
      3         -0.177007        1.599789   1.000000   1.000000
      4         -0.046771        1.854547   1.000000   1.000000
      5          0.945280        2.864211   1.000000   1.000000
      6          1.082830        3.165814   1.000000   0.584121
      7          1.322797        3.298804   1.000000   0.000193
      8          1.334319        3.580216   1.000000   0.000000
      9          2.162453        3.596597   1.000000   0.000000
     10          2.162910        4.041052   1.000000   0.000000
     11          2.604024        4.259463   1.000000   0.000000
     12          3.473539        4.260189   0.000000   0.000000
     13          7.732341        8.087521   0.000000   0.000000
     14         12.019089       12.550509   0.000000   0.000000
     15         12.167293       12.732693   0.000000   0.000000
     16         12.961389       13.500976   0.000000   0.000000
 
  0.5000000E+00 -0.5551115E-16  0.0000000E+00  0.7812500E-02
      1         -1.143921        0.333918   1.000000   1.000000
      2         -1.139305        0.349132   1.000000   1.000000
      3         -0.311389        1.523786   1.000000   1.000000
      4         -0.243247        1.636894   1.000000   1.000000
      5          1.144608        3.262359   1.000000   0.005897
      6          1.238384        3.406044   1.000000   0.000000
      7          1.276493        3.525888   1.000000   0.000000
      8          1.289338        3.544160   1.000000   0.000000
      9          2.463308        4.605141   1.000000   0.000000
     10          2.463512        4.605404   1.000000   0.000000
     11          5.093389        5.262291   0.000000   0.000000
     12          5.432230        5.633863   0.000000   0.000000
     13          9.221303       10.101746   0.000000   0.000000
     14         10.018135       10.758213   0.000000   0.000000
     15         10.531256       10.958021   0.000000   0.000000
     16         11.654082       11.891918   0.000000   0.000000
 
  0.1250000E+00  0.1250000E+00  0.0000000E+00  0.1562500E-01
      1         -1.536162       -1.138635   1.000000   1.000000
      2         -1.193111       -0.517578   1.000000   1.000000
      3          0.207348        1.932838   1.000000   1.000000
      4          0.209917        2.004079   1.000000   1.000000
      5          0.377412        2.008035   1.000000   1.000000
      6          0.417017        2.153945   1.000000   1.000000
      7          0.695471        2.680023   1.000000   1.000000
      8          1.164816        3.096762   1.000000   0.984827
      9          1.408045        3.367030   1.000000   0.000000
     10          1.436534        3.387900   1.000000   0.000000
     11          1.441720        3.711330   1.000000   0.000000
     12          1.580117        3.718823   1.000000   0.000000
     13          4.584032        5.317009   0.000000   0.000000
     14          8.742668        9.307642   0.000000   0.000000
     15         11.941031       12.189874   0.000000   0.000000
     16         20.704905       20.795246   0.000000   0.000000
 
  0.2500000E+00  0.1250000E+00  0.0000000E+00  0.3125000E-01
      1         -0.618359        0.442480   1.000000   1.000000
      2         -0.559910        0.753816   1.000000   1.000000
      3          0.012103        1.745994   1.000000   1.000000
      4          0.188684        1.887790   1.000000   1.000000
      5          0.473677        2.035994   1.000000   1.000000
      6          0.489022        2.117590   1.000000   1.000000
      7          0.922162        2.744766   1.000000   1.000000
      8          1.245453        3.395853   1.000000   0.000000
      9          1.255103        3.478945   1.000000   0.000000
     10          1.463381        3.492439   1.000000   0.000000
     11          2.611574        4.360758   1.000000   0.000000
     12          3.156630        4.583510   0.681619   0.000000
     13          6.763757        7.216930   0.000000   0.000000
     14         11.137050       11.725719   0.000000   0.000000
     15         13.272871       13.443796   0.000000   0.000000
     16         15.314790       15.826237   0.000000   0.000000
 
  0.3750000E+00  0.1250000E+00  0.0000000E+00  0.3125000E-01
      1         -0.813487        0.672318   1.000000   1.000000
      2         -0.805560        0.703143   1.000000   1.000000
      3         -0.184666        1.659859   1.000000   1.000000
      4         -0.102558        1.806517   1.000000   1.000000
      5          1.091706        3.147194   1.000000   0.770077
      6          1.103940        3.180975   1.000000   0.414353
      7          1.116372        3.260043   1.000000   0.007088
      8          1.164405        3.304922   1.000000   0.000099
      9          1.668084        3.321342   1.000000   0.000014
     10          1.766868        3.584428   1.000000   0.000000
     11          5.072006        5.974893   0.000000   0.000000
     12          5.782054        6.552256   0.000000   0.000000
     13          9.706234        9.993442   0.000000   0.000000
     14         10.424824       11.151326   0.000000   0.000000
     15         11.377600       12.152539   0.000000   0.000000
     16         13.082770       13.427175   0.000000   0.000000
 
  0.2500000E+00  0.2500000E+00  0.0000000E+00  0.1562500E-01
      1         -0.119289        1.500331   1.000000   1.000000
      2         -0.110280        1.515393   1.000000   1.000000
      3         -0.012192        1.834563   1.000000   1.000000
      4          0.092935        1.843583   1.000000   1.000000
      5          0.485089        1.996151   1.000000   1.000000
      6          0.491309        2.040790   1.000000   1.000000
      7          0.877984        3.021121   1.000000   0.999992
      8          0.897419        3.052340   1.000000   0.999689
      9          1.178912        3.180878   1.000000   0.415423
     10          1.406453        3.495796   1.000000   0.000000
     11          5.096697        6.204722   0.000000   0.000000
     12          5.923660        6.931247   0.000000   0.000000
     13          9.315606        9.644665   0.000000   0.000000
     14         13.410580       13.924360   0.000000   0.000000
     15         13.670831       14.229264   0.000000   0.000000
     16         13.689553       14.293399   0.000000   0.000000
 
  0.3750000E+00  0.2500000E+00  0.0000000E+00  0.1562500E-01
      1         -0.135137        1.420080   1.000000   1.000000
      2         -0.125475        1.428380   1.000000   1.000000
      3          0.081675        2.017510   1.000000   1.000000
      4          0.131539        2.100189   1.000000   1.000000
      5          0.642448        2.387012   1.000000   1.000000
      6          0.664714        2.435384   1.000000   1.000000
      7          0.833167        2.725854   1.000000   1.000000
      8          0.855817        2.759277   1.000000   1.000000
      9          1.177798        3.368512   1.000000   0.000000
     10          1.221314        3.434221   1.000000   0.000000
     11          8.105865        8.781169   0.000000   0.000000
     12          8.449647        9.153211   0.000000   0.000000
     13         10.093560       10.858164   0.000000   0.000000
     14         10.727661       11.531936   0.000000   0.000000
     15         12.300654       12.591948   0.000000   0.000000
     16         13.128210       13.387805   0.000000   0.000000
 
  0.0000000E+00  0.0000000E+00  0.1666667E+00  0.5208333E-02
      1         -3.085309       -2.741447   1.000000   1.000000
      2         -2.689340       -2.186846   1.000000   1.000000
      3         -0.077916        1.572235   1.000000   1.000000
      4          0.635316        2.034616   1.000000   1.000000
      5          0.635318        2.547540   1.000000   1.000000
      6          0.636104        2.547541   1.000000   1.000000
      7          0.636105        2.548640   1.000000   1.000000
      8          0.721004        2.548641   1.000000   1.000000
      9          1.599124        3.106463   1.000000   0.970698
     10          1.599124        3.905828   1.000000   0.000000
     11          1.601566        3.905829   1.000000   0.000000
     12          1.601566        3.909146   1.000000   0.000000
     13          2.528626        3.909147   1.000000   0.000000
     14          6.023514        6.330011   0.000000   0.000000
     15         11.414774       11.760289   0.000000   0.000000
     16         17.722276       17.845664   0.000000   0.000000
 
  0.1250000E+00 -0.1387779E-16  0.1666667E+00  0.3125000E-01
      1         -2.524622       -2.172015   1.000000   1.000000
      2         -2.148167       -1.615665   1.000000   1.000000
      3          0.090639        1.784308   1.000000   1.000000
      4          0.479437        2.043188   1.000000   1.000000
      5          0.481264        2.346612   1.000000   1.000000
      6          0.742567        2.350667   1.000000   1.000000
      7          0.875058        2.812553   1.000000   1.000000
      8          0.875868        2.813723   1.000000   1.000000
      9          1.113957        2.973177   1.000000   1.000000
     10          1.192834        3.291257   1.000000   0.000426
     11          1.550903        3.848825   1.000000   0.000000
     12          1.555213        3.854831   1.000000   0.000000
     13          3.505154        4.503160   0.000000   0.000000
     14          6.850370        7.337520   0.000000   0.000000
     15         11.800817       12.116376   0.000000   0.000000
     16         18.277800       18.429360   0.000000   0.000000
 
  0.2500000E+00 -0.2775558E-16  0.1666667E+00  0.3125000E-01
      1         -1.253397       -0.673500   1.000000   1.000000
      2         -1.058591       -0.203114   1.000000   1.000000
      3          0.243918        1.849176   1.000000   1.000000
      4          0.403845        1.944523   1.000000   1.000000
      5          0.477383        2.154668   1.000000   1.000000
      6          0.488330        2.347367   1.000000   1.000000
      7          0.629238        2.550261   1.000000   1.000000
      8          1.436376        3.137115   1.000000   0.847128
      9          1.443790        3.496623   1.000000   0.000000
     10          1.457004        3.497641   1.000000   0.000000
     11          1.488731        3.713884   1.000000   0.000000
     12          1.489383        3.724354   1.000000   0.000000
     13          5.362312        5.971283   0.000000   0.000000
     14          8.817070        9.357094   0.000000   0.000000
     15         12.955634       13.206939   0.000000   0.000000
     16         17.766155       18.258030   0.000000   0.000000
 
  0.3750000E+00 -0.2775558E-16  0.1666667E+00  0.3125000E-01
      1         -1.035788        0.319583   1.000000   1.000000
      2         -1.009345        0.416508   1.000000   1.000000
      3         -0.169975        1.612427   1.000000   1.000000
      4         -0.057751        1.829604   1.000000   1.000000
      5          0.958957        2.921780   1.000000   1.000000
      6          1.077317        3.169974   1.000000   0.537758
      7          1.323628        3.301083   1.000000   0.000151
      8          1.333564        3.581387   1.000000   0.000000
      9          2.162492        3.595522   1.000000   0.000000
     10          2.162883        3.947827   1.000000   0.000000
     11          2.645095        4.259525   1.000000   0.000000
     12          3.389932        4.260145   0.000000   0.000000
     13          7.934297        8.293439   0.000000   0.000000
     14         11.280280       11.715745   0.000000   0.000000
     15         12.397448       13.029107   0.000000   0.000000
     16         13.053325       13.663271   0.000000   0.000000
 
  0.5000000E+00 -0.5551115E-16  0.1666667E+00  0.1562500E-01
      1         -1.143710        0.334753   1.000000   1.000000
      2         -1.139750        0.347885   1.000000   1.000000
      3         -0.307632        1.529995   1.000000   1.000000
      4         -0.248515        1.627909   1.000000   1.000000
      5          1.152408        3.276559   1.000000   0.001751
      6          1.233758        3.402524   1.000000   0.000000
      7          1.277260        3.526991   1.000000   0.000000
      8          1.288329        3.542754   1.000000   0.000000
      9          2.463288        4.605117   1.000000   0.000000
     10          2.463445        4.605321   1.000000   0.000000
     11          5.111624        5.276337   0.000000   0.000000
     12          5.404938        5.599111   0.000000   0.000000
     13          9.222090       10.096328   0.000000   0.000000
     14          9.788530       10.507646   0.000000   0.000000
     15         10.864076       11.311939   0.000000   0.000000
     16         11.749262       11.988173   0.000000   0.000000
 
  0.1250000E+00  0.1250000E+00  0.1666667E+00  0.3125000E-01
      1         -1.512844       -1.103449   1.000000   1.000000
      2         -1.215276       -0.567615   1.000000   1.000000
      3          0.207445        1.949299   1.000000   1.000000
      4          0.209709        2.004252   1.000000   1.000000
      5          0.380170        2.007836   1.000000   1.000000
      6          0.414491        2.138827   1.000000   1.000000
      7          0.716760        2.701482   1.000000   1.000000
      8          1.128703        3.054159   1.000000   0.999625
      9          1.409980        3.367085   1.000000   0.000000
     10          1.436873        3.381937   1.000000   0.000000
     11          1.441350        3.711827   1.000000   0.000000
     12          1.538382        3.718258   1.000000   0.000000
     13          4.805895        5.516941   0.000000   0.000000
     14          8.223007        8.774568   0.000000   0.000000
     15         12.589439       12.857728   0.000000   0.000000
     16         19.269555       19.489254   0.000000   0.000000
 
  0.2500000E+00  0.1250000E+00  0.1666667E+00  0.6250000E-01
      1         -0.614388        0.462120   1.000000   1.000000
      2         -0.563819        0.731445   1.000000   1.000000
      3          0.020271        1.756878   1.000000   1.000000
      4          0.170240        1.879976   1.000000   1.000000
      5          0.475329        2.038549   1.000000   1.000000
      6          0.488586        2.106637   1.000000   1.000000
      7          0.965187        2.785039   1.000000   1.000000
      8          1.246240        3.345178   1.000000   0.000001
      9          1.254263        3.480052   1.000000   0.000000
     10          1.433679        3.492414   1.000000   0.000000
     11          2.629847        4.365826   1.000000   0.000000
     12          3.088945        4.545766   0.991498   0.000000
     13          6.977567        7.434235   0.000000   0.000000
     14         10.489364       10.994476   0.000000   0.000000
     15         13.983786       14.260168   0.000000   0.000000
     16         15.365986       15.877369   0.000000   0.000000
 
  0.3750000E+00  0.1250000E+00  0.1666667E+00  0.6250000E-01
      1         -0.813068        0.674177   1.000000   1.000000
      2         -0.806177        0.700895   1.000000   1.000000
      3         -0.179844        1.668087   1.000000   1.000000
      4         -0.108897        1.794489   1.000000   1.000000
      5          1.093581        3.154104   1.000000   0.706662
      6          1.109631        3.201580   1.000000   0.212099
      7          1.114987        3.258616   1.000000   0.007925
      8          1.162628        3.309109   1.000000   0.000061
      9          1.673947        3.320214   1.000000   0.000016
     10          1.759834        3.561745   1.000000   0.000000
     11          5.106062        5.998250   0.000000   0.000000
     12          5.714049        6.489372   0.000000   0.000000
     13          9.856110       10.161155   0.000000   0.000000
     14         10.465720       11.175989   0.000000   0.000000
     15         11.307619       12.061678   0.000000   0.000000
     16         12.879580       13.245455   0.000000   0.000000
 
  0.2500000E+00  0.2500000E+00  0.1666667E+00  0.3125000E-01
      1         -0.118719        1.501329   1.000000   1.000000
      2         -0.110984        1.514378   1.000000   1.000000
      3         -0.006406        1.834969   1.000000   1.000000
      4          0.084058        1.842800   1.000000   1.000000
      5          0.486125        1.998768   1.000000   1.000000
      6          0.491272        2.037242   1.000000   1.000000
      7          0.879292        3.022863   1.000000   0.999990
      8          0.896000        3.049400   1.000000   0.999772
      9          1.195931        3.203734   1.000000   0.194871
     10          1.392808        3.476145   1.000000   0.000000
     11          5.133912        6.232505   0.000000   0.000000
     12          5.837265        6.843127   0.000000   0.000000
     13          9.526805        9.868626   0.000000   0.000000
     14         12.884955       13.341477   0.000000   0.000000
     15         13.587122       14.116450   0.000000   0.000000
     16         13.708373       14.268350   0.000000   0.000000
 
  0.3750000E+00  0.2500000E+00  0.1666667E+00  0.3125000E-01
      1         -0.134592        1.420570   1.000000   1.000000
      2         -0.126304        1.427706   1.000000   1.000000
      3          0.084887        2.022368   1.000000   1.000000
      4          0.127941        2.093496   1.000000   1.000000
      5          0.643051        2.391267   1.000000   1.000000
      6          0.662446        2.432685   1.000000   1.000000
      7          0.835716        2.727465   1.000000   1.000000
      8          0.855445        2.756413   1.000000   1.000000
      9          1.180763        3.374029   1.000000   0.000000
     10          1.218593        3.430982   1.000000   0.000000
     11          8.132097        8.807032   0.000000   0.000000
     12          8.433540        9.132308   0.000000   0.000000
     13         10.074732       10.829805   0.000000   0.000000
     14         10.587154       11.345270   0.000000   0.000000
     15         12.543878       12.888766   0.000000   0.000000
     16         13.166600       13.547321   0.000000   0.000000
 
  0.0000000E+00  0.0000000E+00  0.3333333E+00  0.5208333E-02
      1         -3.005107       -2.637776   1.000000   1.000000
      2         -2.776283       -2.319666   1.000000   1.000000
      3          0.010819        1.612708   1.000000   1.000000
      4          0.414721        1.826215   1.000000   1.000000
      5          0.635396        2.547660   1.000000   1.000000
      6          0.635397        2.547661   1.000000   1.000000
      7          0.635958        2.548439   1.000000   1.000000
      8          0.635959        2.548439   1.000000   1.000000
      9          1.599601        3.777685   1.000000   0.000000
     10          1.599601        3.906486   1.000000   0.000000
     11          1.600899        3.906487   1.000000   0.000000
     12          1.600900        3.908261   1.000000   0.000000
     13          3.261863        3.908262   0.006136   0.000000
     14          5.141707        5.510667   0.000000   0.000000
     15         12.656187       12.953813   0.000000   0.000000
     16         15.967165       16.166808   0.000000   0.000000
 
  0.1250000E+00 -0.1387779E-16  0.3333333E+00  0.3125000E-01
      1         -2.447344       -2.068302   1.000000   1.000000
      2         -2.229552       -1.749275   1.000000   1.000000
      3          0.168001        1.810256   1.000000   1.000000
      4          0.478948        1.939724   1.000000   1.000000
      5          0.480941        2.347994   1.000000   1.000000
      6          0.506159        2.350144   1.000000   1.000000
      7          0.875221        2.812787   1.000000   1.000000
      8          0.875741        2.813534   1.000000   1.000000
      9          1.162041        3.119510   1.000000   0.936013
     10          1.189729        3.268186   1.000000   0.003647
     11          1.551785        3.850063   1.000000   0.000000
     12          1.554290        3.853549   1.000000   0.000000
     13          4.121822        4.931478   0.000000   0.000000
     14          5.936395        6.487884   0.000000   0.000000
     15         13.095515       13.383364   0.000000   0.000000
     16         16.471669       16.686727   0.000000   0.000000
 
  0.2500000E+00 -0.2775558E-16  0.3333333E+00  0.3125000E-01
      1         -1.210258       -0.583843   1.000000   1.000000
      2         -1.097553       -0.313555   1.000000   1.000000
      3          0.260481        1.875777   1.000000   1.000000
      4          0.336973        1.930067   1.000000   1.000000
      5          0.479740        2.175820   1.000000   1.000000
      6          0.486138        2.271508   1.000000   1.000000
      7          0.796689        2.678658   1.000000   1.000000
      8          1.245470        2.989466   1.000000   1.000000
      9          1.437836        3.496814   1.000000   0.000000
     10          1.442150        3.497421   1.000000   0.000000
     11          1.488884        3.716007   1.000000   0.000000
     12          1.489272        3.722094   1.000000   0.000000
     13          5.953058        6.537367   0.000000   0.000000
     14          7.801514        8.335704   0.000000   0.000000
     15         14.344886       14.617701   0.000000   0.000000
     16         17.434619       17.833277   0.000000   0.000000
 
  0.3750000E+00 -0.2775558E-16  0.3333333E+00  0.3125000E-01
      1         -1.030405        0.339550   1.000000   1.000000
      2         -1.015081        0.395532   1.000000   1.000000
      3         -0.149816        1.648880   1.000000   1.000000
      4         -0.085743        1.770613   1.000000   1.000000
      5          0.992347        3.056263   1.000000   0.999535
      6          1.059834        3.175104   1.000000   0.479945
      7          1.325640        3.331169   1.000000   0.000004
      8          1.331525        3.584258   1.000000   0.000000
      9          2.162595        3.592598   1.000000   0.000000
     10          2.162768        3.723190   1.000000   0.000000
     11          2.766693        4.259680   1.000000   0.000000
     12          3.188083        4.259974   0.338191   0.000000
     13          8.488953        8.856219   0.000000   0.000000
     14         10.264260       10.657596   0.000000   0.000000
     15         12.560473       13.203612   0.000000   0.000000
     16         12.967531       13.616667   0.000000   0.000000
 
  0.5000000E+00 -0.5551115E-16  0.3333333E+00  0.1562500E-01
      1         -1.143008        0.337229   1.000000   1.000000
      2         -1.140693        0.344848   1.000000   1.000000
      3         -0.296256        1.548472   1.000000   1.000000
      4         -0.262184        1.604746   1.000000   1.000000
      5          1.172695        3.312910   1.000000   0.000039
      6          1.219921        3.387534   1.000000   0.000000
      7          1.279592        3.530300   1.000000   0.000000
      8          1.286076        3.539512   1.000000   0.000000
      9          2.463315        4.605149   1.000000   0.000000
     10          2.463434        4.605308   1.000000   0.000000
     11          5.164666        5.323429   0.000000   0.000000
     12          5.333869        5.510954   0.000000   0.000000
     13          9.246679       10.101963   0.000000   0.000000
     14          9.515111       10.285546   0.000000   0.000000
     15         11.403977       11.793250   0.000000   0.000000
     16         11.919254       12.171600   0.000000   0.000000
 
  0.1250000E+00  0.1250000E+00  0.3333333E+00  0.3125000E-01
      1         -1.449106       -1.003598   1.000000   1.000000
      2         -1.276699       -0.696444   1.000000   1.000000
      3          0.207943        1.991521   1.000000   1.000000
      4          0.209237        2.005031   1.000000   1.000000
      5          0.387756        2.007706   1.000000   1.000000
      6          0.407698        2.099261   1.000000   1.000000
      7          0.781991        2.761138   1.000000   1.000000
      8          1.023324        2.955919   1.000000   1.000000
      9          1.417187        3.367709   1.000000   0.000000
     10          1.437814        3.373775   1.000000   0.000000
     11          1.440485        3.713203   1.000000   0.000000
     12          1.472474        3.716903   1.000000   0.000000
     13          5.400709        6.060812   0.000000   0.000000
     14          7.236666        7.801415   0.000000   0.000000
     15         13.965095       14.238428   0.000000   0.000000
     16         17.412723       17.658051   0.000000   0.000000
 
  0.2500000E+00  0.1250000E+00  0.3333333E+00  0.6250000E-01
      1         -0.603593        0.516545   1.000000   1.000000
      2         -0.574454        0.671702   1.000000   1.000000
      3          0.044242        1.785605   1.000000   1.000000
      4          0.127785        1.857006   1.000000   1.000000
      5          0.479049        2.046626   1.000000   1.000000
      6          0.486744        2.083205   1.000000   1.000000
      7          1.076155        2.894655   1.000000   1.000000
      8          1.248569        3.214099   1.000000   0.124404
      9          1.251422        3.482936   1.000000   0.000000
     10          1.348034        3.490325   1.000000   0.000000
     11          2.687858        4.382786   1.000000   0.000000
     12          2.939238        4.474026   1.000000   0.000000
     13          7.560074        8.020454   0.000000   0.000000
     14          9.418976        9.887499   0.000000   0.000000
     15         15.057373       15.492815   0.000000   0.000000
     16         15.508085       16.022347   0.000000   0.000000
 
  0.3750000E+00  0.1250000E+00  0.3333333E+00  0.6250000E-01
      1         -0.811726        0.679542   1.000000   1.000000
      2         -0.807735        0.694980   1.000000   1.000000
      3         -0.166324        1.691383   1.000000   1.000000
      4         -0.125485        1.763733   1.000000   1.000000
      5          1.098170        3.172168   1.000000   0.513059
      6          1.110051        3.215640   1.000000   0.115687