Automatically generated mesh
      40
Reciprocal lattice
    0.00000000000000    0.00000000000000    0.00000000000000             1
    0.12500000000000    0.00000000000000    0.00000000000000             6
    0.25000000000000    0.00000000000000    0.00000000000000             6
    0.37500000000000    0.00000000000000    0.00000000000000             6
    0.50000000000000    0.00000000000000    0.00000000000000             3
    0.12500000000000    0.12500000000000    0.00000000000000             6
    0.25000000000000    0.12500000000000    0.00000000000000            12
    0.37500000000000    0.12500000000000    0.00000000000000            12
    0.25000000000000    0.25000000000000    0.00000000000000             6
    0.37500000000000    0.25000000000000    0.00000000000000             6
    0.00000000000000    0.00000000000000    0.16666666666666             2
    0.12500000000000    0.00000000000000    0.16666666666666            12
    0.25000000000000    0.00000000000000    0.16666666666666            12
    0.37500000000000    0.00000000000000    0.16666666666666            12
    0.50000000000000    0.00000000000000    0.16666666666666             6
    0.12500000000000    0.12500000000000    0.16666666666666            12
    0.25000000000000    0.12500000000000    0.16666666666666            24
    0.37500000000000    0.12500000000000    0.16666666666666            24
    0.25000000000000    0.25000000000000    0.16666666666666            12
    0.37500000000000    0.25000000000000    0.16666666666666            12
    0.00000000000000    0.00000000000000    0.33333333333334             2
    0.12500000000000    0.00000000000000    0.33333333333334            12
    0.25000000000000    0.00000000000000    0.33333333333334            12
    0.37500000000000    0.00000000000000    0.33333333333334            12
    0.50000000000000    0.00000000000000    0.33333333333334             6
    0.12500000000000    0.12500000000000    0.33333333333334            12
    0.25000000000000    0.12500000000000    0.33333333333334            24
    0.37500000000000    0.12500000000000    0.33333333333334            24
    0.25000000000000    0.25000000000000    0.33333333333334            12
    0.37500000000000    0.25000000000000    0.33333333333334            12
    0.00000000000000    0.00000000000000    0.50000000000000             1
    0.12500000000000    0.00000000000000    0.50000000000000             6
    0.25000000000000    0.00000000000000    0.50000000000000             6
    0.37500000000000    0.00000000000000    0.50000000000000             6
    0.50000000000000    0.00000000000000    0.50000000000000             3
    0.12500000000000    0.12500000000000    0.50000000000000             6
    0.25000000000000    0.12500000000000    0.50000000000000            12
    0.37500000000000    0.12500000000000    0.50000000000000            12
    0.25000000000000    0.25000000000000    0.50000000000000             6
    0.37500000000000    0.25000000000000    0.50000000000000             6
