PROCAR lm decomposed
# of k-points:   40         # of bands:   16         # of ions:    2

 k-point     1 :    0.00000000 0.00000000 0.00000000     weight = 0.00260417

band     1 # energy    1.51289931 # occ.  1.00000000
 
ion      s     py     pz     px    dxy    dyz    dz2    dxz  x2-y2    tot
    1  0.371  0.000  0.000  0.000  0.000  0.000  0.000  0.000  0.000  0.371
    2  0.371  0.000  0.000  0.000  0.000  0.000  0.000  0.000  0.000  0.371
tot    0.741  0.000  0.000  0.000  0.000  0.000  0.000  0.000  0.000  0.741
 
band     2 # energy    5.29119430 # occ.  1.00000000
 
ion      s     py     pz     px    dxy    dyz    dz2    dxz  x2-y2    tot
    1  0.083  0.000  0.000  0.000  0.000  0.000  0.367  0.000  0.000  0.451
    2  0.083  0.000  0.000  0.000  0.000  0.000  0.367  0.000  0.000  0.451
tot    0.167  0.000  0.000  0.000  0.000  0.000  0.734  0.000  0.000  0.901
 
band     3 # energy    7.83936441 # occ.  1.00000000
 
ion      s     py     pz     px    dxy    dyz    dz2    dxz  x2-y2    tot
    1  0.000  0.000  0.000  0.000  0.000  0.000  0.487  0.000  0.000  0.487
    2  0.000  0.000  0.000  0.000  0.000  0.000  0.487  0.000  0.000  0.487
tot    0.000  0.000  0.000  0.000  0.000  0.000  0.973  0.000  0.000  0.973
 
band     4 # energy    7.89895934 # occ.  1.00000000
 
ion      s     py     pz     px    dxy    dyz    dz2    dxz  x2-y2    tot
    1  0.000  0.000  0.000  0.001  0.483  0.000  0.000  0.000  0.000  0.484
    2  0.000  0.000  0.000  0.001  0.483  0.000  0.000  0.000  0.000  0.484
tot    0.000  0.000  0.000  0.001  0.966  0.000  0.000  0.000  0.000  0.968
 
band     5 # energy    7.89895945 # occ.  1.00000000
 
ion      s     py     pz     px    dxy    dyz    dz2    dxz  x2-y2    tot
    1  0.000  0.001  0.000  0.000  0.000  0.000  0.000  0.000  0.483  0.484
    2  0.000  0.001  0.000  0.000  0.000  0.000  0.000  0.000  0.483  0.484
tot    0.000  0.001  0.000  0.000  0.000  0.000  0.000  0.000  0.966  0.968
 
band     6 # energy    8.21358983 # occ.  1.00000000
 
ion      s     py     pz     px    dxy    dyz    dz2    dxz  x2-y2    tot
    1  0.000  0.000  0.000  0.001  0.487  0.000  0.000  0.000  0.000  0.488
    2  0.000  0.000  0.000  0.001  0.487  0.000  0.000  0.000  0.000  0.488
tot    0.000  0.000  0.000  0.001  0.975  0.000  0.000  0.000  0.000  0.976
 
band     7 # energy    8.21358989 # occ.  1.00000000
 
ion      s     py     pz     px    dxy    dyz    dz2    dxz  x2-y2    tot
    1  0.000  0.001  0.000  0.000  0.000  0.000  0.000  0.000  0.487  0.488
    2  0.000  0.001  0.000  0.000  0.000  0.000  0.000  0.000  0.487  0.488
tot    0.000  0.001  0.000  0.000  0.000  0.000  0.000  0.000  0.975  0.976
 
band     8 # energy    8.60553775 # occ.  1.00000000
 
ion      s     py     pz     px    dxy    dyz    dz2    dxz  x2-y2    tot
    1  0.000  0.000  0.000  0.000  0.000  0.490  0.000  0.000  0.000  0.490
    2  0.000  0.000  0.000  0.000  0.000  0.490  0.000  0.000  0.000  0.490
tot    0.000  0.000  0.000  0.000  0.000  0.980  0.000  0.000  0.000  0.980
 
band     9 # energy    8.60553775 # occ.  1.00000000
 
ion      s     py     pz     px    dxy    dyz    dz2    dxz  x2-y2    tot
    1  0.000  0.000  0.000  0.000  0.000  0.000  0.000  0.490  0.000  0.490
    2  0.000  0.000  0.000  0.000  0.000  0.000  0.000  0.490  0.000  0.490
tot    0.000  0.000  0.000  0.000  0.000  0.000  0.000  0.980  0.000  0.980
 
band    10 # energy    9.71399502 # occ.  1.00000000
 
ion      s     py     pz     px    dxy    dyz    dz2    dxz  x2-y2    tot
    1  0.000  0.000  0.000  0.000  0.000  0.000  0.000  0.493  0.000  0.493
    2  0.000  0.000  0.000  0.000  0.000  0.000  0.000  0.493  0.000  0.493
tot    0.000  0.000  0.000  0.000  0.000  0.000  0.000  0.985  0.000  0.985
 
band    11 # energy    9.71399506 # occ.  1.00000000
 
ion      s     py     pz     px    dxy    dyz    dz2    dxz  x2-y2    tot
    1  0.000  0.000  0.000  0.000  0.000  0.493  0.000  0.000  0.000  0.493
    2  0.000  0.000  0.000  0.000  0.000  0.493  0.000  0.000  0.000  0.493
tot    0.000  0.000  0.000  0.000  0.000  0.985  0.000  0.000  0.000  0.985
 
band    12 # energy   10.38836555 # occ.  0.99986608
 
ion      s     py     pz     px    dxy    dyz    dz2    dxz  x2-y2    tot
    1  0.000  0.000  0.352  0.000  0.000  0.000  0.000  0.000  0.000  0.352
    2  0.000  0.000  0.352  0.000  0.000  0.000  0.000  0.000  0.000  0.352
tot    0.000  0.000  0.704  0.000  0.000  0.000  0.000  0.000  0.000  0.704
 
band    13 # energy   16.96094632 # occ.  0.00000000
 
ion      s     py     pz     px    dxy    dyz    dz2    dxz  x2-y2    tot
    1  0.227  0.000  0.000  0.000  0.000  0.000  0.232  0.000  0.000  0.459
    2  0.227  0.000  0.000  0.000  0.000  0.000  0.232  0.000  0.000  0.459
tot    0.455  0.000  0.000  0.000  0.000  0.000  0.464  0.000  0.000  0.918
 
band    14 # energy   32.76183019 # occ.  0.00000000
 
ion      s     py     pz     px    dxy    dyz    dz2    dxz  x2-y2    tot
    1  0.007  0.000  0.000  0.000  0.000  0.000  0.032  0.000  0.000  0.038
    2  0.007  0.000  0.000  0.000  0.000  0.000  0.032  0.000  0.000  0.038
tot    0.013  0.000  0.000  0.000  0.000  0.000  0.064  0.000  0.000  0.077
 
band    15 # energy   35.56259714 # occ.  0.00000000
 
ion      s     py     pz     px    dxy    dyz    dz2    dxz  x2-y2    tot
    1  0.000  0.195  0.000  0.072  0.034  0.000  0.000  0.000  0.091  0.392
    2  0.000  0.195  0.000  0.072  0.034  0.000  0.000  0.000  0.091  0.392
tot    0.000  0.391  0.000  0.144  0.067  0.000  0.000  0.000  0.182  0.784
 
band    16 # energy   35.56285594 # occ.  0.00000000
 
ion      s     py     pz     px    dxy    dyz    dz2    dxz  x2-y2    tot
    1  0.000  0.072  0.000  0.195  0.091  0.000  0.000  0.000  0.034  0.392
    2  0.000  0.072  0.000  0.195  0.091  0.000  0.000  0.000  0.034  0.392
tot    0.000  0.144  0.000  0.391  0.182  0.000  0.000  0.000  0.067  0.784
 

 k-point     2 :    0.12500000 0.00000000 0.00000000     weight = 0.01562500

band     1 # energy    2.06437806 # occ.  1.00000000
 
ion      s     py     pz     px    dxy    dyz    dz2    dxz  x2-y2    tot
    1  0.351  0.005  0.000  0.014  0.001  0.000  0.000  0.000  0.000  0.371
    2  0.351  0.005  0.000  0.014  0.001  0.000  0.000  0.000  0.000  0.371
tot    0.702  0.009  0.000  0.028  0.001  0.000  0.001  0.000  0.000  0.742
 
band     2 # energy    5.61047608 # occ.  1.00000000
 
ion      s     py     pz     px    dxy    dyz    dz2    dxz  x2-y2    tot
    1  0.066  0.003  0.000  0.008  0.007  0.000  0.367  0.000  0.002  0.453
    2  0.066  0.003  0.000  0.008  0.007  0.000  0.367  0.000  0.002  0.453
tot    0.133  0.005  0.000  0.016  0.013  0.000  0.733  0.000  0.004  0.906
 
band     3 # energy    7.51226929 # occ.  1.00000000
 
ion      s     py     pz     px    dxy    dyz    dz2    dxz  x2-y2    tot
    1  0.000  0.001  0.000  0.002  0.249  0.000  0.144  0.000  0.083  0.479
    2  0.000  0.001  0.000  0.002  0.249  0.000  0.144  0.000  0.083  0.479
tot    0.000  0.001  0.000  0.004  0.499  0.000  0.288  0.000  0.166  0.958
 
band     4 # energy    8.05434685 # occ.  1.00000000
 
ion      s     py     pz     px    dxy    dyz    dz2    dxz  x2-y2    tot
    1  0.002  0.000  0.000  0.001  0.297  0.000  0.086  0.000  0.099  0.485
    2  0.002  0.000  0.000  0.001  0.297  0.000  0.086  0.000  0.099  0.485
tot    0.004  0.001  0.000  0.002  0.594  0.000  0.172  0.000  0.198  0.971
 
band     5 # energy    8.11029100 # occ.  1.00000000
 
ion      s     py     pz     px    dxy    dyz    dz2    dxz  x2-y2    tot
    1  0.000  0.000  0.056  0.000  0.000  0.101  0.000  0.303  0.000  0.459
    2  0.000  0.000  0.056  0.000  0.000  0.101  0.000  0.303  0.000  0.459
tot    0.000  0.000  0.111  0.000  0.000  0.202  0.000  0.605  0.000  0.918
 
band     6 # energy    8.15739654 # occ.  1.00000000
 
ion      s     py     pz     px    dxy    dyz    dz2    dxz  x2-y2    tot
    1  0.000  0.001  0.000  0.000  0.121  0.000  0.000  0.000  0.362  0.484
    2  0.000  0.001  0.000  0.000  0.121  0.000  0.000  0.000  0.362  0.484
tot    0.000  0.002  0.000  0.001  0.241  0.000  0.000  0.000  0.724  0.968
 
band     7 # energy    8.21646992 # occ.  1.00000000
 
ion      s     py     pz     px    dxy    dyz    dz2    dxz  x2-y2    tot
    1  0.001  0.000  0.000  0.001  0.167  0.000  0.263  0.000  0.056  0.487
    2  0.001  0.000  0.000  0.001  0.167  0.000  0.263  0.000  0.056  0.487
tot    0.002  0.000  0.000  0.001  0.333  0.000  0.525  0.000  0.111  0.973
 
band     8 # energy    8.44214652 # occ.  1.00000000
 
ion      s     py     pz     px    dxy    dyz    dz2    dxz  x2-y2    tot
    1  0.000  0.001  0.000  0.000  0.122  0.000  0.000  0.000  0.365  0.488
    2  0.000  0.001  0.000  0.000  0.122  0.000  0.000  0.000  0.365  0.488
tot    0.000  0.002  0.000  0.001  0.243  0.000  0.000  0.000  0.730  0.977
 
band     9 # energy    8.45206924 # occ.  1.00000000
 
ion      s     py     pz     px    dxy    dyz    dz2    dxz  x2-y2    tot
    1  0.000  0.000  0.000  0.000  0.000  0.366  0.000  0.122  0.000  0.488
    2  0.000  0.000  0.000  0.000  0.000  0.366  0.000  0.122  0.000  0.488
tot    0.000  0.000  0.000  0.000  0.000  0.732  0.000  0.244  0.000  0.976
 
band    10 # energy    8.66947610 # occ.  1.00000000
 
ion      s     py     pz     px    dxy    dyz    dz2    dxz  x2-y2    tot
    1  0.000  0.000  0.052  0.000  0.000  0.104  0.000  0.312  0.000  0.468
    2  0.000  0.000  0.052  0.000  0.000  0.104  0.000  0.312  0.000  0.468
tot    0.000  0.000  0.103  0.000  0.000  0.208  0.000  0.625  0.000  0.936
 
band    11 # energy    9.77484977 # occ.  1.00000000
 
ion      s     py     pz     px    dxy    dyz    dz2    dxz  x2-y2    tot
    1  0.000  0.000  0.000  0.000  0.000  0.370  0.000  0.123  0.000  0.494
    2  0.000  0.000  0.000  0.000  0.000  0.370  0.000  0.123  0.000  0.494
tot    0.000  0.000  0.000  0.000  0.000  0.741  0.000  0.247  0.000  0.988
 
band    12 # energy   12.30036782 # occ.  0.00000000
 
ion      s     py     pz     px    dxy    dyz    dz2    dxz  x2-y2    tot
    1  0.000  0.000  0.237  0.000  0.000  0.043  0.000  0.128  0.000  0.408
    2  0.000  0.000  0.237  0.000  0.000  0.043  0.000  0.128  0.000  0.408
tot    0.000  0.000  0.474  0.000  0.000  0.085  0.000  0.256  0.000  0.816
 
band    13 # energy   17.06045486 # occ.  0.00000000
 
ion      s     py     pz     px    dxy    dyz    dz2    dxz  x2-y2    tot
    1  0.218  0.004  0.000  0.013  0.000  0.000  0.218  0.000  0.000  0.454
    2  0.218  0.004  0.000  0.013  0.000  0.000  0.218  0.000  0.000  0.454
tot    0.436  0.009  0.000  0.026  0.001  0.000  0.436  0.000  0.000  0.907
 
band    14 # energy   29.09217222 # occ.  0.00000000
 
ion      s     py     pz     px    dxy    dyz    dz2    dxz  x2-y2    tot
    1  0.026  0.033  0.000  0.098  0.125  0.000  0.024  0.000  0.042  0.346
    2  0.026  0.033  0.000  0.098  0.125  0.000  0.024  0.000  0.042  0.346
tot    0.052  0.065  0.000  0.195  0.250  0.000  0.047  0.000  0.083  0.693
 
band    15 # energy   32.14081985 # occ.  0.00000000
 
ion      s     py     pz     px    dxy    dyz    dz2    dxz  x2-y2    tot
    1  0.000  0.181  0.000  0.060  0.039  0.000  0.000  0.000  0.117  0.397
    2  0.000  0.181  0.000  0.060  0.039  0.000  0.000  0.000  0.117  0.397
tot    0.000  0.362  0.000  0.121  0.078  0.000  0.000  0.000  0.233  0.794
 
band    16 # energy   32.81059649 # occ.  0.00000000
 
ion      s     py     pz     px    dxy    dyz    dz2    dxz  x2-y2    tot
    1  0.024  0.011  0.000  0.032  0.101  0.000  0.046  0.000  0.034  0.247
    2  0.024  0.011  0.000  0.032  0.101  0.000  0.046  0.000  0.034  0.247
tot    0.048  0.022  0.000  0.065  0.201  0.000  0.092  0.000  0.067  0.494
 

 k-point     3 :    0.25000000 0.00000000 0.00000000     weight = 0.01562500

band     1 # energy    3.55602557 # occ.  1.00000000
 
ion      s     py     pz     px    dxy    dyz    dz2    dxz  x2-y2    tot
    1  0.290  0.016  0.000  0.047  0.015  0.000  0.005  0.000  0.005  0.377
    2  0.290  0.016  0.000  0.047  0.015  0.000  0.005  0.000  0.005  0.377
tot    0.579  0.031  0.000  0.093  0.030  0.000  0.011  0.000  0.010  0.753
 
band     2 # energy    6.10080382 # occ.  1.00000000
 
ion      s     py     pz     px    dxy    dyz    dz2    dxz  x2-y2    tot
    1  0.027  0.004  0.000  0.012  0.107  0.000  0.276  0.000  0.036  0.461
    2  0.027  0.004  0.000  0.012  0.107  0.000  0.276  0.000  0.036  0.461
tot    0.053  0.008  0.000  0.024  0.213  0.000  0.553  0.000  0.071  0.923
 
band     3 # energy    6.94938992 # occ.  1.00000000
 
ion      s     py     pz     px    dxy    dyz    dz2    dxz  x2-y2    tot
    1  0.000  0.000  0.054  0.000  0.000  0.098  0.000  0.295  0.000  0.447
    2  0.000  0.000  0.054  0.000  0.000  0.098  0.000  0.295  0.000  0.447
tot    0.000  0.000  0.108  0.000  0.000  0.196  0.000  0.589  0.000  0.894
 
band     4 # energy    7.21706236 # occ.  1.00000000
 
ion      s     py     pz     px    dxy    dyz    dz2    dxz  x2-y2    tot
    1  0.001  0.007  0.000  0.021  0.228  0.000  0.132  0.000  0.076  0.465
    2  0.001  0.007  0.000  0.021  0.228  0.000  0.132  0.000  0.076  0.465
tot    0.002  0.014  0.000  0.042  0.456  0.000  0.263  0.000  0.152  0.930
 
band     5 # energy    7.87940516 # occ.  1.00000000
 
ion      s     py     pz     px    dxy    dyz    dz2    dxz  x2-y2    tot
    1  0.010  0.001  0.000  0.004  0.249  0.000  0.133  0.000  0.083  0.480
    2  0.010  0.001  0.000  0.004  0.249  0.000  0.133  0.000  0.083  0.480
tot    0.021  0.003  0.000  0.008  0.497  0.000  0.265  0.000  0.166  0.960
 
band     6 # energy    8.13812700 # occ.  1.00000000
 
ion      s     py     pz     px    dxy    dyz    dz2    dxz  x2-y2    tot
    1  0.000  0.000  0.000  0.000  0.000  0.364  0.000  0.121  0.000  0.485
    2  0.000  0.000  0.000  0.000  0.000  0.364  0.000  0.121  0.000  0.485
tot    0.000  0.000  0.000  0.000  0.000  0.728  0.000  0.243  0.000  0.971
 
band     7 # energy    8.33575484 # occ.  1.00000000
 
ion      s     py     pz     px    dxy    dyz    dz2    dxz  x2-y2    tot
    1  0.000  0.000  0.028  0.000  0.000  0.112  0.000  0.337  0.000  0.477
    2  0.000  0.000  0.028  0.000  0.000  0.112  0.000  0.337  0.000  0.477
tot    0.000  0.000  0.055  0.000  0.000  0.225  0.000  0.674  0.000  0.953
 
band     8 # energy    8.80936967 # occ.  1.00000000
 
ion      s     py     pz     px    dxy    dyz    dz2    dxz  x2-y2    tot
    1  0.006  0.002  0.000  0.006  0.104  0.000  0.334  0.000  0.035  0.486
    2  0.006  0.002  0.000  0.006  0.104  0.000  0.334  0.000  0.035  0.486
tot    0.012  0.004  0.000  0.011  0.208  0.000  0.667  0.000  0.069  0.972
 
band     9 # energy    8.82507468 # occ.  1.00000000
 
ion      s     py     pz     px    dxy    dyz    dz2    dxz  x2-y2    tot
    1  0.000  0.002  0.000  0.001  0.121  0.000  0.000  0.000  0.363  0.486
    2  0.000  0.002  0.000  0.001  0.121  0.000  0.000  0.000  0.363  0.486
tot    0.000  0.004  0.000  0.001  0.242  0.000  0.000  0.000  0.726  0.973
 
band    10 # energy    9.02677457 # occ.  1.00000000
 
ion      s     py     pz     px    dxy    dyz    dz2    dxz  x2-y2    tot
    1  0.000  0.002  0.000  0.001  0.122  0.000  0.000  0.000  0.365  0.490
    2  0.000  0.002  0.000  0.001  0.122  0.000  0.000  0.000  0.365  0.490
tot    0.000  0.004  0.000  0.001  0.244  0.000  0.000  0.000  0.731  0.980
 
band    11 # energy    9.86785816 # occ.  1.00000000
 
ion      s     py     pz     px    dxy    dyz    dz2    dxz  x2-y2    tot
    1  0.000  0.000  0.000  0.000  0.000  0.372  0.000  0.124  0.000  0.496
    2  0.000  0.000  0.000  0.000  0.000  0.372  0.000  0.124  0.000  0.496
tot    0.000  0.000  0.000  0.000  0.000  0.743  0.000  0.248  0.000  0.991
 
band    12 # energy   14.96139164 # occ.  0.00000000
 
ion      s     py     pz     px    dxy    dyz    dz2    dxz  x2-y2    tot
    1  0.000  0.000  0.243  0.000  0.000  0.043  0.000  0.128  0.000  0.413
    2  0.000  0.000  0.243  0.000  0.000  0.043  0.000  0.128  0.000  0.413
tot    0.000  0.000  0.485  0.000  0.000  0.085  0.000  0.255  0.000  0.825
 
band    13 # energy   17.43666097 # occ.  0.00000000
 
ion      s     py     pz     px    dxy    dyz    dz2    dxz  x2-y2    tot
    1  0.170  0.022  0.000  0.066  0.000  0.000  0.179  0.000  0.000  0.438
    2  0.170  0.022  0.000  0.066  0.000  0.000  0.179  0.000  0.000  0.438
tot    0.341  0.044  0.000  0.132  0.001  0.000  0.357  0.000  0.000  0.875
 
band    14 # energy   23.39325146 # occ.  0.00000000
 
ion      s     py     pz     px    dxy    dyz    dz2    dxz  x2-y2    tot
    1  0.095  0.034  0.000  0.103  0.111  0.000  0.019  0.000  0.037  0.399
    2  0.095  0.034  0.000  0.103  0.111  0.000  0.019  0.000  0.037  0.399
tot    0.189  0.069  0.000  0.207  0.221  0.000  0.037  0.000  0.074  0.797
 
band    15 # energy   28.84407752 # occ.  0.00000000
 
ion      s     py     pz     px    dxy    dyz    dz2    dxz  x2-y2    tot
    1  0.000  0.209  0.000  0.070  0.022  0.000  0.000  0.000  0.066  0.366
    2  0.000  0.209  0.000  0.070  0.022  0.000  0.000  0.000  0.066  0.366
tot    0.000  0.417  0.000  0.139  0.044  0.000  0.000  0.000  0.131  0.732
 
band    16 # energy   30.79327880 # occ.  0.00000000
 
ion      s     py     pz     px    dxy    dyz    dz2    dxz  x2-y2    tot
    1  0.000  0.000  0.072  0.000  0.000  0.060  0.000  0.181  0.000  0.314
    2  0.000  0.000  0.072  0.000  0.000  0.060  0.000  0.181  0.000  0.314
tot    0.000  0.000  0.144  0.000  0.000  0.121  0.000  0.362  0.000  0.627
 

 k-point     4 :    0.37500000 0.00000000 0.00000000     weight = 0.01562500

band     1 # energy    5.16689463 # occ.  1.00000000
 
ion      s     py     pz     px    dxy    dyz    dz2    dxz  x2-y2    tot
    1  0.159  0.015  0.000  0.045  0.126  0.000  0.025  0.000  0.042  0.412
    2  0.159  0.015  0.000  0.045  0.126  0.000  0.025  0.000  0.042  0.412
tot    0.318  0.030  0.000  0.090  0.251  0.000  0.050  0.000  0.084  0.824
 
band     2 # energy    5.92449918 # occ.  1.00000000
 
ion      s     py     pz     px    dxy    dyz    dz2    dxz  x2-y2    tot
    1  0.017  0.000  0.000  0.001  0.238  0.000  0.128  0.000  0.079  0.464
    2  0.017  0.000  0.000  0.001  0.238  0.000  0.128  0.000  0.079  0.464
tot    0.034  0.001  0.000  0.003  0.475  0.000  0.256  0.000  0.158  0.927
 
band     3 # energy    6.22265003 # occ.  1.00000000
 
ion      s     py     pz     px    dxy    dyz    dz2    dxz  x2-y2    tot
    1  0.000  0.000  0.028  0.000  0.000  0.105  0.000  0.316  0.000  0.449
    2  0.000  0.000  0.028  0.000  0.000  0.105  0.000  0.316  0.000  0.449
tot    0.000  0.000  0.055  0.000  0.000  0.211  0.000  0.632  0.000  0.898
 
band     4 # energy    7.51551035 # occ.  1.00000000
 
ion      s     py     pz     px    dxy    dyz    dz2    dxz  x2-y2    tot
    1  0.021  0.024  0.000  0.073  0.126  0.000  0.148  0.000  0.042  0.435
    2  0.021  0.024  0.000  0.073  0.126  0.000  0.148  0.000  0.042  0.435
tot    0.042  0.049  0.000  0.147  0.252  0.000  0.296  0.000  0.084  0.870
 
band     5 # energy    7.86822751 # occ.  1.00000000
 
ion      s     py     pz     px    dxy    dyz    dz2    dxz  x2-y2    tot
    1  0.000  0.000  0.000  0.000  0.000  0.363  0.000  0.121  0.000  0.484
    2  0.000  0.000  0.000  0.000  0.000  0.363  0.000  0.121  0.000  0.484
tot    0.000  0.000  0.000  0.000  0.000  0.726  0.000  0.242  0.000  0.967
 
band     6 # energy    8.07226495 # occ.  1.00000000
 
ion      s     py     pz     px    dxy    dyz    dz2    dxz  x2-y2    tot
    1  0.000  0.000  0.029  0.000  0.000  0.111  0.000  0.334  0.000  0.475
    2  0.000  0.000  0.029  0.000  0.000  0.111  0.000  0.334  0.000  0.475
tot    0.000  0.000  0.058  0.000  0.000  0.223  0.000  0.669  0.000  0.950
 
band     7 # energy    8.12222133 # occ.  1.00000000
 
ion      s     py     pz     px    dxy    dyz    dz2    dxz  x2-y2    tot
    1  0.005  0.005  0.000  0.014  0.087  0.000  0.341  0.000  0.029  0.480
    2  0.005  0.005  0.000  0.014  0.087  0.000  0.341  0.000  0.029  0.480
tot    0.010  0.009  0.000  0.028  0.173  0.000  0.682  0.000  0.058  0.961
 
band     8 # energy    9.55228463 # occ.  1.00000000
 
ion      s     py     pz     px    dxy    dyz    dz2    dxz  x2-y2    tot
    1  0.000  0.000  0.000  0.000  0.123  0.000  0.000  0.000  0.369  0.492
    2  0.000  0.000  0.000  0.000  0.123  0.000  0.000  0.000  0.369  0.492
tot    0.000  0.001  0.000  0.000  0.246  0.000  0.000  0.000  0.737  0.984
 
band     9 # energy    9.68516468 # occ.  1.00000000
 
ion      s     py     pz     px    dxy    dyz    dz2    dxz  x2-y2    tot
    1  0.000  0.002  0.000  0.001  0.123  0.000  0.000  0.000  0.369  0.494
    2  0.000  0.002  0.000  0.001  0.123  0.000  0.000  0.000  0.369  0.494
tot    0.000  0.004  0.000  0.001  0.246  0.000  0.000  0.000  0.737  0.988
 
band    10 # energy    9.92068316 # occ.  1.00000000
 
ion      s     py     pz     px    dxy    dyz    dz2    dxz  x2-y2    tot
    1  0.000  0.000  0.000  0.000  0.000  0.372  0.000  0.124  0.000  0.496
    2  0.000  0.000  0.000  0.000  0.000  0.372  0.000  0.124  0.000  0.496
tot    0.000  0.000  0.000  0.000  0.000  0.744  0.000  0.248  0.000  0.992
 
band    11 # energy   10.03859028 # occ.  1.00000000
 
ion      s     py     pz     px    dxy    dyz    dz2    dxz  x2-y2    tot
    1  0.029  0.011  0.000  0.033  0.102  0.000  0.263  0.000  0.034  0.473
    2  0.029  0.011  0.000  0.033  0.102  0.000  0.263  0.000  0.034  0.473
tot    0.059  0.022  0.000  0.066  0.204  0.000  0.527  0.000  0.068  0.947
 
band    12 # energy   16.86621711 # occ.  0.00000000
 
ion      s     py     pz     px    dxy    dyz    dz2    dxz  x2-y2    tot
    1  0.016  0.062  0.000  0.186  0.031  0.000  0.118  0.000  0.010  0.423
    2  0.016  0.062  0.000  0.186  0.031  0.000  0.118  0.000  0.010  0.423
tot    0.032  0.124  0.000  0.373  0.061  0.000  0.235  0.000  0.020  0.846
 
band    13 # energy   17.97767205 # occ.  0.00000000
 
ion      s     py     pz     px    dxy    dyz    dz2    dxz  x2-y2    tot
    1  0.000  0.000  0.248  0.000  0.000  0.041  0.000  0.123  0.000  0.412
    2  0.000  0.000  0.248  0.000  0.000  0.041  0.000  0.123  0.000  0.412
tot    0.000  0.000  0.497  0.000  0.000  0.082  0.000  0.246  0.000  0.824
 
band    14 # energy   20.02807795 # occ.  0.00000000
 
ion      s     py     pz     px    dxy    dyz    dz2    dxz  x2-y2    tot
    1  0.247  0.009  0.000  0.028  0.078  0.000  0.018  0.000  0.026  0.407
    2  0.247  0.009  0.000  0.028  0.078  0.000  0.018  0.000  0.026  0.407
tot    0.494  0.019  0.000  0.057  0.157  0.000  0.036  0.000  0.052  0.815
 
band    15 # energy   26.26867877 # occ.  0.00000000
 
ion      s     py     pz     px    dxy    dyz    dz2    dxz  x2-y2    tot
    1  0.000  0.000  0.109  0.000  0.000  0.065  0.000  0.195  0.000  0.369
    2  0.000  0.000  0.109  0.000  0.000  0.065  0.000  0.195  0.000  0.369
tot    0.000  0.000  0.218  0.000  0.000  0.130  0.000  0.390  0.000  0.737
 
band    16 # energy   26.53379845 # occ.  0.00000000
 
ion      s     py     pz     px    dxy    dyz    dz2    dxz  x2-y2    tot
    1  0.000  0.232  0.000  0.078  0.007  0.000  0.000  0.000  0.020  0.336
    2  0.000  0.232  0.000  0.078  0.007  0.000  0.000  0.000  0.020  0.336
tot    0.000  0.465  0.000  0.155  0.013  0.000  0.000  0.000  0.040  0.673
 

 k-point     5 :    0.50000000 0.00000000 0.00000000     weight = 0.00781250

band     1 # energy    5.67379709 # occ.  1.00000000
 
ion      s     py     pz     px    dxy    dyz    dz2    dxz  x2-y2    tot
    1  0.010  0.000  0.000  0.001  0.264  0.000  0.095  0.000  0.088  0.458
    2  0.010  0.000  0.000  0.001  0.264  0.000  0.095  0.000  0.088  0.458
tot    0.019  0.001  0.000  0.002  0.528  0.000  0.189  0.000  0.176  0.915
 
band     2 # energy    5.71728170 # occ.  1.00000000
 
ion      s     py     pz     px    dxy    dyz    dz2    dxz  x2-y2    tot
    1  0.086  0.006  0.000  0.018  0.228  0.000  0.033  0.000  0.076  0.448
    2  0.086  0.006  0.000  0.018  0.228  0.000  0.033  0.000  0.076  0.448
tot    0.173  0.012  0.000  0.036  0.456  0.000  0.067  0.000  0.152  0.895
 
band     3 # energy    5.98159064 # occ.  1.00000000
 
ion      s     py     pz     px    dxy    dyz    dz2    dxz  x2-y2    tot
    1  0.000  0.000  0.017  0.000  0.000  0.108  0.000  0.325  0.000  0.450
    2  0.000  0.000  0.017  0.000  0.000  0.108  0.000  0.325  0.000  0.450
tot    0.000  0.000  0.033  0.000  0.000  0.217  0.000  0.650  0.000  0.900
 
band     4 # energy    7.76466471 # occ.  1.00000000
 
ion      s     py     pz     px    dxy    dyz    dz2    dxz  x2-y2    tot
    1  0.000  0.000  0.000  0.000  0.000  0.362  0.000  0.121  0.000  0.483
    2  0.000  0.000  0.000  0.000  0.000  0.362  0.000  0.121  0.000  0.483
tot    0.000  0.000  0.000  0.000  0.000  0.725  0.000  0.242  0.000  0.966
 
band     5 # energy    7.96687395 # occ.  1.00000000
 
ion      s     py     pz     px    dxy    dyz    dz2    dxz  x2-y2    tot
    1  0.000  0.000  0.030  0.000  0.000  0.111  0.000  0.333  0.000  0.474
    2  0.000  0.000  0.030  0.000  0.000  0.111  0.000  0.333  0.000  0.474
tot    0.000  0.000  0.061  0.000  0.000  0.222  0.000  0.666  0.000  0.948
 
band     6 # energy    7.99353251 # occ.  1.00000000
 
ion      s     py     pz     px    dxy    dyz    dz2    dxz  x2-y2    tot
    1  0.023  0.034  0.000  0.103  0.021  0.000  0.234  0.000  0.007  0.422
    2  0.023  0.034  0.000  0.103  0.021  0.000  0.234  0.000  0.007  0.422
tot    0.045  0.069  0.000  0.207  0.042  0.000  0.467  0.000  0.014  0.845
 
band     7 # energy    8.29600493 # occ.  1.00000000
 
ion      s     py     pz     px    dxy    dyz    dz2    dxz  x2-y2    tot
    1  0.003  0.005  0.000  0.015  0.062  0.000  0.376  0.000  0.021  0.482
    2  0.003  0.005  0.000  0.015  0.062  0.000  0.376  0.000  0.021  0.482
tot    0.006  0.010  0.000  0.030  0.125  0.000  0.751  0.000  0.042  0.964
 
band     8 # energy    9.85630174 # occ.  1.00000000
 
ion      s     py     pz     px    dxy    dyz    dz2    dxz  x2-y2    tot
    1  0.000  0.000  0.000  0.000  0.124  0.000  0.000  0.000  0.372  0.496
    2  0.000  0.000  0.000  0.000  0.124  0.000  0.000  0.000  0.372  0.496
tot    0.000  0.000  0.000  0.000  0.248  0.000  0.000  0.000  0.744  0.991
 
band     9 # energy    9.93544131 # occ.  1.00000000
 
ion      s     py     pz     px    dxy    dyz    dz2    dxz  x2-y2    tot
    1  0.000  0.000  0.000  0.000  0.000  0.372  0.000  0.124  0.000  0.496
    2  0.000  0.000  0.000  0.000  0.000  0.372  0.000  0.124  0.000  0.496
tot    0.000  0.000  0.000  0.000  0.000  0.745  0.000  0.248  0.000  0.993
 
band    10 # energy   10.00495425 # occ.  1.00000000
 
ion      s     py     pz     px    dxy    dyz    dz2    dxz  x2-y2    tot
    1  0.000  0.000  0.000  0.000  0.124  0.000  0.000  0.000  0.372  0.497
    2  0.000  0.000  0.000  0.000  0.124  0.000  0.000  0.000  0.372  0.497
tot    0.000  0.000  0.000  0.000  0.248  0.000  0.000  0.000  0.745  0.993
 
band    11 # energy   11.88967143 # occ.  0.00000000
 
ion      s     py     pz     px    dxy    dyz    dz2    dxz  x2-y2    tot
    1  0.024  0.038  0.000  0.115  0.070  0.000  0.165  0.000  0.023  0.435
    2  0.024  0.038  0.000  0.115  0.070  0.000  0.165  0.000  0.023  0.435
tot    0.048  0.076  0.000  0.229  0.140  0.000  0.331  0.000  0.047  0.871
 
band    12 # energy   13.95860072 # occ.  0.00000000
 
ion      s     py     pz     px    dxy    dyz    dz2    dxz  x2-y2    tot
    1  0.102  0.034  0.000  0.101  0.080  0.000  0.101  0.000  0.027  0.445
    2  0.102  0.034  0.000  0.101  0.080  0.000  0.101  0.000  0.027  0.445
tot    0.205  0.067  0.000  0.201  0.160  0.000  0.203  0.000  0.053  0.890
 
band    13 # energy   20.34017371 # occ.  0.00000000
 
ion      s     py     pz     px    dxy    dyz    dz2    dxz  x2-y2    tot
    1  0.000  0.000  0.284  0.000  0.000  0.031  0.000  0.093  0.000  0.408
    2  0.000  0.000  0.284  0.000  0.000  0.031  0.000  0.093  0.000  0.408
tot    0.000  0.000  0.568  0.000  0.000  0.062  0.000  0.185  0.000  0.815
 
band    14 # energy   21.01278186 # occ.  0.00000000
 
ion      s     py     pz     px    dxy    dyz    dz2    dxz  x2-y2    tot
    1  0.134  0.045  0.000  0.135  0.054  0.000  0.002  0.000  0.018  0.388
    2  0.134  0.045  0.000  0.135  0.054  0.000  0.002  0.000  0.018  0.388
tot    0.268  0.090  0.000  0.270  0.108  0.000  0.003  0.000  0.036  0.776
 
band    15 # energy   23.41538131 # occ.  0.00000000
 
ion      s     py     pz     px    dxy    dyz    dz2    dxz  x2-y2    tot
    1  0.000  0.000  0.089  0.000  0.000  0.076  0.000  0.227  0.000  0.391
    2  0.000  0.000  0.089  0.000  0.000  0.076  0.000  0.227  0.000  0.391
tot    0.000  0.000  0.178  0.000  0.000  0.151  0.000  0.454  0.000  0.783
 
band    16 # energy   24.70742338 # occ.  0.00000000
 
ion      s     py     pz     px    dxy    dyz    dz2    dxz  x2-y2    tot
    1  0.186  0.013  0.000  0.038  0.111  0.000  0.044  0.000  0.037  0.429
    2  0.186  0.013  0.000  0.038  0.111  0.000  0.044  0.000  0.037  0.429
tot    0.372  0.025  0.000  0.076  0.222  0.000  0.087  0.000  0.074  0.857
 

 k-point     6 :    0.12500000 0.12500000 0.00000000     weight = 0.01562500

band     1 # energy    3.09886133 # occ.  1.00000000
 
ion      s     py     pz     px    dxy    dyz    dz2    dxz  x2-y2    tot
    1  0.312  0.000  0.000  0.051  0.000  0.000  0.003  0.000  0.007  0.374
    2  0.312  0.000  0.000  0.051  0.000  0.000  0.003  0.000  0.007  0.374
tot    0.624  0.000  0.000  0.103  0.000  0.000  0.006  0.000  0.014  0.747
 
band     2 # energy    6.08632759 # occ.  1.00000000
 
ion      s     py     pz     px    dxy    dyz    dz2    dxz  x2-y2    tot
    1  0.037  0.000  0.000  0.025  0.030  0.000  0.348  0.000  0.016  0.457
    2  0.037  0.000  0.000  0.025  0.030  0.000  0.348  0.000  0.016  0.457
tot    0.075  0.001  0.000  0.049  0.061  0.000  0.696  0.000  0.033  0.915