<?xml version="1.0" encoding="ISO-8859-1"?>
<modeling>
 <generator>
  <i name="program" type="string">vasp </i>
  <i name="version" type="string">6.3.2  </i>
  <i name="subversion" type="string">27Jun22 (build Aug 12 2022 00:53:59) complex                          parallel </i>
  <i name="platform" type="string">tv2STD </i>
  <i name="date" type="string">2024 11 30 </i>
  <i name="time" type="string">15:35:42 </i>
 </generator>
 <incar>
  <i type="string" name="SYSTEM">Co-hcc</i>
  <i type="int" name="ISTART">     0</i>
  <i type="string" name="PREC">Accurate      normal | accurate</i>
  <i type="string" name="ALGO">Normal     Normal, Fast, Very_Fast</i>
  <i type="logical" name="ADDGRID"> F  </i>
  <i type="int" name="ISPIN">     2</i>
  <i type="int" name="ICHARG">     2</i>
  <i type="int" name="INIWAV">     1</i>
  <i type="int" name="NELM">   100</i>
  <i type="int" name="IBRION">    -1</i>
  <i name="EDIFF">      0.00000100</i>
  <i name="EDIFFG">     -0.02000000</i>
  <i type="int" name="NSW">     0</i>
  <i type="int" name="ISIF">     2</i>
  <i type="int" name="ISYM">     1</i>
  <i name="ENCUT">    400.00000000</i>
  <v name="MAGMOM">      3.00000000      3.00000000</v>
  <i type="logical" name="LREAL"> F  </i>
  <i type="int" name="ISMEAR">     0</i>
  <i name="SIGMA">      0.05000000</i>
  <i type="int" name="NWRITE">     2</i>
  <i type="logical" name="LWAVE"> F  </i>
  <i type="logical" name="LCHARG"> F  </i>
 </incar>
 <primitive_cell>
  <structure name="primitive_cell" >
   <crystal>
    <varray name="basis" >
     <v>       2.47000000       0.00000000       0.00000000 </v>
     <v>      -1.23500000       2.13908275       0.00000000 </v>
     <v>       0.00000000       0.00000000       8.09000000 </v>
    </varray>
    <i name="volume">     42.74379318 </i>
    <varray name="rec_basis" >
     <v>       0.40485830       0.23374505       0.00000000 </v>
     <v>       0.00000000       0.46749010       0.00000000 </v>
     <v>       0.00000000       0.00000000       0.12360939 </v>
    </varray>
   </crystal>
   <varray name="positions" >
    <v>       0.00000000       0.00000000       0.00000000 </v>
    <v>       0.33333333       0.66666667       0.50000000 </v>
   </varray>
  </structure>
  <varray name="primitive_index" >
   <v type="int" >        1 </v>
   <v type="int" >        2 </v>
  </varray>
 </primitive_cell>
 <kpoints>
  <generation param="Gamma">
   <v type="int" name="divisions">       8        8        6 </v>
   <v name="usershift">      0.00000000       0.00000000       0.00000000 </v>
   <v name="genvec1">      0.12500000       0.00000000       0.00000000 </v>
   <v name="genvec2">      0.00000000       0.12500000       0.00000000 </v>
   <v name="genvec3">      0.00000000       0.00000000       0.16666667 </v>
   <v name="shift">      0.00000000       0.00000000       0.00000000 </v>
  </generation>
  <varray name="kpointlist" >
   <v>       0.00000000       0.00000000       0.00000000 </v>
   <v>       0.12500000      -0.00000000       0.00000000 </v>
   <v>       0.25000000      -0.00000000       0.00000000 </v>
   <v>       0.37500000      -0.00000000       0.00000000 </v>
   <v>       0.50000000      -0.00000000       0.00000000 </v>
   <v>       0.12500000       0.12500000       0.00000000 </v>
   <v>       0.25000000       0.12500000       0.00000000 </v>
   <v>       0.37500000       0.12500000       0.00000000 </v>
   <v>       0.25000000       0.25000000       0.00000000 </v>
   <v>       0.37500000       0.25000000       0.00000000 </v>
   <v>       0.00000000       0.00000000       0.16666667 </v>
   <v>       0.12500000      -0.00000000       0.16666667 </v>
   <v>       0.25000000      -0.00000000       0.16666667 </v>
   <v>       0.37500000      -0.00000000       0.16666667 </v>
   <v>       0.50000000      -0.00000000       0.16666667 </v>
   <v>       0.12500000       0.12500000       0.16666667 </v>
   <v>       0.25000000       0.12500000       0.16666667 </v>
   <v>       0.37500000       0.12500000       0.16666667 </v>
   <v>       0.25000000       0.25000000       0.16666667 </v>
   <v>       0.37500000       0.25000000       0.16666667 </v>
   <v>       0.00000000       0.00000000       0.33333333 </v>
   <v>       0.12500000      -0.00000000       0.33333333 </v>
   <v>       0.25000000      -0.00000000       0.33333333 </v>
   <v>       0.37500000      -0.00000000       0.33333333 </v>
   <v>       0.50000000      -0.00000000       0.33333333 </v>
   <v>       0.12500000       0.12500000       0.33333333 </v>
   <v>       0.25000000       0.12500000       0.33333333 </v>
   <v>       0.37500000       0.12500000       0.33333333 </v>
   <v>       0.25000000       0.25000000       0.33333333 </v>
   <v>       0.37500000       0.25000000       0.33333333 </v>
   <v>       0.00000000       0.00000000       0.50000000 </v>
   <v>       0.12500000      -0.00000000       0.50000000 </v>
   <v>       0.25000000      -0.00000000       0.50000000 </v>
   <v>       0.37500000      -0.00000000       0.50000000 </v>
   <v>       0.50000000      -0.00000000       0.50000000 </v>
   <v>       0.12500000       0.12500000       0.50000000 </v>
   <v>       0.25000000       0.12500000       0.50000000 </v>
   <v>       0.37500000       0.12500000       0.50000000 </v>
   <v>       0.25000000       0.25000000       0.50000000 </v>
   <v>       0.37500000       0.25000000       0.50000000 </v>
  </varray>
  <varray name="weights" >
   <v>       0.00260417 </v>
   <v>       0.01562500 </v>
   <v>       0.01562500 </v>
   <v>       0.01562500 </v>
   <v>       0.00781250 </v>
   <v>       0.01562500 </v>
   <v>       0.03125000 </v>
   <v>       0.03125000 </v>
   <v>       0.01562500 </v>
   <v>       0.01562500 </v>
   <v>       0.00520833 </v>
   <v>       0.03125000 </v>
   <v>       0.03125000 </v>
   <v>       0.03125000 </v>
   <v>       0.01562500 </v>
   <v>       0.03125000 </v>
   <v>       0.06250000 </v>
   <v>       0.06250000 </v>
   <v>       0.03125000 </v>
   <v>       0.03125000 </v>
   <v>       0.00520833 </v>
   <v>       0.03125000 </v>
   <v>       0.03125000 </v>
   <v>       0.03125000 </v>
   <v>       0.01562500 </v>
   <v>       0.03125000 </v>
   <v>       0.06250000 </v>
   <v>       0.06250000 </v>
   <v>       0.03125000 </v>
   <v>       0.03125000 </v>
   <v>       0.00260417 </v>
   <v>       0.01562500 </v>
   <v>       0.01562500 </v>
   <v>       0.01562500 </v>
   <v>       0.00781250 </v>
   <v>       0.01562500 </v>
   <v>       0.03125000 </v>
   <v>       0.03125000 </v>
   <v>       0.01562500 </v>
   <v>       0.01562500 </v>
  </varray>
 </kpoints>
 <parameters>
  <separator name="general" >
   <i type="string" name="SYSTEM">Co-hcc</i>
   <i type="logical" name="LCOMPAT"> F  </i>
  </separator>
  <separator name="electronic" >
   <i type="string" name="PREC">accura</i>
   <i name="ENMAX">    400.00000000</i>
   <i name="ENAUG">    477.81800000</i>
   <i name="EDIFF">      0.00000100</i>
   <i type="int" name="IALGO">    38</i>
   <i type="int" name="IWAVPR">    10</i>
   <i type="int" name="NBANDS">    16</i>
   <i type="int" name="NBANDSLOW">    -1</i>
   <i type="int" name="NBANDSHIGH">    -1</i>
   <i name="NELECT">     18.00000000</i>
   <i type="int" name="TURBO">     0</i>
   <i type="int" name="IRESTART">     0</i>
   <i type="int" name="NREBOOT">     0</i>
   <i type="int" name="NMIN">     0</i>
   <i name="EREF">      0.00000000</i>
   <separator name="electronic smearing" >
    <i type="int" name="ISMEAR">     0</i>
    <i name="SIGMA">      0.05000000</i>
    <i name="KSPACING">      0.50000000</i>
    <i type="logical" name="KGAMMA"> T  </i>
    <i type="logical" name="KBLOWUP"> T  </i>
   </separator>
   <separator name="electronic projectors" >
    <i type="logical" name="LREAL"> F  </i>
    <v name="ROPT">      0.00000000</v>
    <i type="int" name="LMAXPAW">  -100</i>
    <i type="int" name="LMAXMIX">     2</i>
    <i type="logical" name="NLSPLINE"> F  </i>
   </separator>
   <separator name="electronic startup" >
    <i type="int" name="ISTART">     0</i>
    <i type="int" name="ICHARG">     2</i>
    <i type="int" name="INIWAV">     1</i>
   </separator>
   <separator name="electronic spin" >
    <i type="int" name="ISPIN">     2</i>
    <i type="logical" name="LNONCOLLINEAR"> F  </i>
    <v name="MAGMOM">      3.00000000      3.00000000</v>
    <i name="NUPDOWN">     -1.00000000</i>
    <i type="logical" name="LSORBIT"> F  </i>
    <v name="SAXIS">      0.00000000      0.00000000      1.00000000</v>
    <i type="logical" name="LSPIRAL"> F  </i>
    <v name="QSPIRAL">      0.00000000      0.00000000      0.00000000</v>
    <i type="logical" name="LZEROZ"> F  </i>
   </separator>
   <separator name="electronic exchange-correlation" >
    <i type="logical" name="LASPH"> F  </i>
    <i type="logical" name="LMETAGGA"> F  </i>
   </separator>
   <separator name="electronic convergence" >
    <i type="int" name="NELM">   100</i>
    <i type="int" name="NELMDL">    -5</i>
    <i type="int" name="NELMIN">     2</i>
    <i name="ENINI">    400.00000000</i>
    <separator name="electronic convergence detail" >
     <i type="logical" name="LDIAG"> T  </i>
     <i type="logical" name="LSUBROT"> F  </i>
     <i name="WEIMIN">      0.00000000</i>
     <i name="EBREAK">      0.00000002</i>
     <i name="DEPER">      0.30000000</i>
     <i type="int" name="NRMM">     4</i>
     <i name="TIME">      0.40000000</i>
    </separator>
   </separator>
   <separator name="electronic mixer" >
    <i name="AMIX">      0.40000000</i>
    <i name="BMIX">      1.00000000</i>
    <i name="AMIN">      0.10000000</i>
    <i name="AMIX_MAG">      1.60000000</i>
    <i name="BMIX_MAG">      1.00000000</i>
    <separator name="electronic mixer details" >
     <i type="int" name="IMIX">     4</i>
     <i type="logical" name="MIXFIRST"> F  </i>
     <i type="int" name="MAXMIX">   -45</i>
     <i name="WC">    100.00000000</i>
     <i type="int" name="INIMIX">     1</i>
     <i type="int" name="MIXPRE">     1</i>
     <i type="int" name="MREMOVE">     5</i>
    </separator>
   </separator>
   <separator name="electronic dipolcorrection" >
    <i type="logical" name="LDIPOL"> F  </i>
    <i type="logical" name="LMONO"> F  </i>
    <i type="int" name="IDIPOL">     0</i>
    <i name="EPSILON">      1.00000000</i>
    <v name="DIPOL">   -100.00000000   -100.00000000   -100.00000000</v>
    <i name="EFIELD">      0.00000000</i>
   </separator>
  </separator>
  <separator name="grids" >
   <i type="int" name="NGX">    16</i>
   <i type="int" name="NGY">    16</i>
   <i type="int" name="NGZ">    54</i>
   <i type="int" name="NGXF">    32</i>
   <i type="int" name="NGYF">    32</i>
   <i type="int" name="NGZF">   108</i>
   <i type="logical" name="ADDGRID"> F  </i>
  </separator>
  <separator name="ionic" >
   <i type="int" name="NSW">     0</i>
   <i type="int" name="IBRION">    -1</i>
   <i type="int" name="MDALGO">     0</i>
   <i type="int" name="ISIF">     2</i>
   <i name="PSTRESS">      0.00000000</i>
   <i name="EDIFFG">     -0.02000000</i>
   <i type="int" name="NFREE">     0</i>
   <i name="POTIM">      0.50000000</i>
   <i name="SMASS">     -3.00000000</i>
   <i name="SCALEE">      1.00000000</i>
  </separator>
  <separator name="ionic md" >
   <i name="TEBEG">      0.00010000</i>
   <i name="TEEND">      0.00010000</i>
   <i type="int" name="NBLOCK">     1</i>
   <i type="int" name="KBLOCK">     1</i>
   <i type="int" name="NPACO">   256</i>
   <i name="APACO">     10.00000000</i>
  </separator>
  <separator name="symmetry" >
   <i type="int" name="ISYM">     1</i>
   <i name="SYMPREC">      0.00001000</i>
  </separator>
  <separator name="dos" >
   <i type="int" name="LORBIT">     0</i>
   <v name="RWIGS">     -1.00000000</v>
   <i type="int" name="NEDOS">   301</i>
   <i name="EMIN">     10.00000000</i>
   <i name="EMAX">    -10.00000000</i>
   <i name="EFERMI">      0.00000000</i>
  </separator>
  <separator name="writing" >
   <i type="int" name="NWRITE">     2</i>
   <i type="logical" name="LWAVE"> F  </i>
   <i type="logical" name="LDOWNSAMPLE"> F  </i>
   <i type="logical" name="LCHARG"> F  </i>
   <i type="logical" name="LPARD"> F  </i>
   <i type="logical" name="LVTOT"> F  </i>
   <i type="logical" name="LVHAR"> F  </i>
   <i type="logical" name="LELF"> F  </i>
   <i type="logical" name="LOPTICS"> F  </i>
   <v name="STM">      0.00000000      0.00000000      0.00000000      0.00000000      0.00000000      0.00000000      0.00000000</v>
  </separator>
  <separator name="performance" >
   <i type="int" name="NPAR">     4</i>
   <i type="int" name="NSIM">     4</i>
   <i type="int" name="NBLK">    -1</i>
   <i type="logical" name="LPLANE"> T  </i>
   <i type="logical" name="LSCALAPACK"> T  </i>
   <i type="logical" name="LSCAAWARE"> F  </i>
   <i type="logical" name="LSCALU"> F  </i>
   <i type="logical" name="LASYNC"> F  </i>
   <i type="logical" name="LORBITALREAL"> F  </i>
  </separator>
  <separator name="miscellaneous" >
   <i type="int" name="IDIOT">     3</i>
   <i type="int" name="PHON_NSTRUCT">    -1</i>
   <i type="logical" name="LMUSIC"> F  </i>
   <v name="POMASS">     58.93300000</v>
   <v name="DARWINR">      0.00000000</v>
   <v name="DARWINV">      1.00000000</v>
   <i type="logical" name="LCORR"> T  </i>
  </separator>
  <i type="logical" name="GGA_COMPAT"> T  </i>
  <i type="logical" name="LBERRY"> F  </i>
  <i type="int" name="ICORELEVEL">     0</i>
  <i type="logical" name="LDAU"> F  </i>
  <i type="int" name="I_CONSTRAINED_M">     0</i>
  <separator name="electronic exchange-correlation" >
   <i type="string" name="GGA">--</i>
   <i type="int" name="VOSKOWN">     0</i>
   <i type="logical" name="LHFCALC"> F  </i>
   <i type="string" name="PRECFOCK"></i>
   <i type="logical" name="LSYMGRAD"> F  </i>
   <i type="logical" name="LHFONE"> F  </i>
   <i type="logical" name="LRHFCALC"> F  </i>
   <i type="logical" name="LTHOMAS"> F  </i>
   <i type="logical" name="LMODELHF"> F  </i>
   <i type="logical" name="LFOCKACE"> F  </i>
   <i name="ENCUT4O">     -1.00000000</i>
   <i type="int" name="EXXOEP">     0</i>
   <i type="int" name="FOURORBIT">     0</i>
   <i name="AEXX">      0.00000000</i>
   <i name="HFALPHA">      0.00000000</i>
   <i name="MCALPHA">      0.00000000</i>
   <i name="ALDAX">      1.00000000</i>
   <i name="AGGAX">      1.00000000</i>
   <i name="ALDAC">      1.00000000</i>
   <i name="AGGAC">      1.00000000</i>
   <i type="int" name="NKREDX">     1</i>
   <i type="int" name="NKREDY">     1</i>
   <i type="int" name="NKREDZ">     1</i>
   <i type="logical" name="SHIFTRED"> F  </i>
   <i type="logical" name="ODDONLY"> F  </i>
   <i type="logical" name="EVENONLY"> F  </i>
   <i type="int" name="LMAXFOCK">     0</i>
   <i type="int" name="NMAXFOCKAE">     0</i>
   <i type="logical" name="LFOCKAEDFT"> F  </i>
   <i name="HFSCREEN">      0.00000000</i>
   <i name="HFSCREENC">      0.00000000</i>
   <i type="int" name="NBANDSGWLOW">     0</i>
  </separator>
  <separator name="vdW DFT" >
   <i type="logical" name="LUSE_VDW"> F  </i>
   <i name="Zab_VDW">     -0.84910000</i>
   <i name="PARAM1">      0.12340000</i>
   <i name="PARAM2">      1.00000000</i>
   <i name="PARAM3">      0.00000000</i>
  </separator>
  <separator name="model GW" >
   <i type="int" name="MODEL_GW">     0</i>
   <i name="MODEL_EPS0">     12.82313795</i>
   <i name="MODEL_ALPHA">      1.00000000</i>
  </separator>
  <separator name="linear response parameters" >
   <i type="logical" name="LEPSILON"> F  </i>
   <i type="logical" name="LRPA"> F  </i>
   <i type="logical" name="LNABLA"> F  </i>
   <i type="logical" name="LVEL"> F  </i>
   <i name="CSHIFT">      0.10000000</i>
   <i name="OMEGAMAX">     -1.00000000</i>
   <i name="DEG_THRESHOLD">      0.00200000</i>
   <i name="RTIME">     -0.10000000</i>
   <i name="WPLASMAI">      0.00000000</i>
   <v name="DFIELD">      0.00000000      0.00000000      0.00000000</v>
   <v name="WPLASMA">      0.00000000      0.00000000      0.00000000      0.00000000      0.00000000      0.00000000      0.00000000      0.00000000      0.00000000</v>
  </separator>
  <separator name="orbital magnetization" >
   <i type="logical" name="NUCIND"> F  </i>
   <v name="MAGPOS">      0.00000000      0.00000000      0.00000000</v>
   <i type="logical" name="LNICSALL"> T  </i>
   <i type="logical" name="ORBITALMAG"> F  </i>
   <i type="logical" name="LMAGBLOCH"> F  </i>
   <i type="logical" name="LCHIMAG"> F  </i>
   <i type="logical" name="LGAUGE"> T  </i>
   <i type="int" name="MAGATOM">     0</i>
   <v name="MAGDIPOL">      0.00000000      0.00000000      0.00000000</v>
   <v name="AVECCONST">      0.00000000      0.00000000      0.00000000</v>
  </separator>
  <separator name="response functions" >
   <i type="logical" name="LFINITE_TEMPERATURE"> F  </i>
   <i type="logical" name="LADDER"> F  </i>
   <i type="logical" name="LRPAFORCE"> F  </i>
   <i type="logical" name="LFXC"> F  </i>
   <i type="logical" name="LHARTREE"> T  </i>
   <i type="int" name="IBSE">     0</i>
   <v type="int" name="KPOINT">    -1     0     0     0</v>
   <i type="logical" name="LTCTC"> F  </i>
   <i type="logical" name="LTCTE"> F  </i>
   <i type="logical" name="LTETE"> F  </i>
   <i type="logical" name="LTRIPLET"> F  </i>
   <i type="logical" name="LFXCEPS"> F  </i>
   <i type="logical" name="LFXHEG"> F  </i>
   <i type="int" name="NATURALO">     2</i>
   <i type="logical" name="LHOLEGF"> F  </i>
   <i type="logical" name="L2ORDER"> F  </i>
   <i type="logical" name="LDMP1"> F  </i>
   <i type="logical" name="LMP2LT"> F  </i>
   <i type="logical" name="LSMP2LT"> F  </i>
   <i type="logical" name="LGWLF"> F  </i>
   <i name="ENCUTGW">     -2.00000000</i>
   <i name="ENCUTGWSOFT">     -2.00000000</i>
   <i name="ENCUTLF">     -1.00000000</i>
   <i type="logical" name="LESF_SPLINES"> F  </i>
   <i type="int" name="LMAXMP2">    -1</i>
   <i name="SCISSOR">      0.00000000</i>
   <i type="int" name="NOMEGA">     0</i>
   <i type="int" name="NOMEGAR">     0</i>
   <i type="int" name="NBANDSGW">    -1</i>
   <i type="int" name="NBANDSO">    -1</i>
   <i type="int" name="NBANDSV">    -1</i>
   <i type="int" name="NELMGW">     1</i>
   <i type="int" name="NELMHF">     1</i>
   <i type="int" name="DIM">     3</i>
   <i type="int" name="IESPILON">     4</i>
   <i type="int" name="ANTIRES">     0</i>
   <i name="OMEGAMAX">    -30.00000000</i>
   <i name="OMEGAMIN">    -30.00000000</i>
   <i name="OMEGATL">   -200.00000000</i>
   <i type="int" name="OMEGAGRID">     0</i>
   <i name="CSHIFT">     -0.10000000</i>
   <i type="logical" name="LSELFENERGY"> F  </i>
   <i type="logical" name="LSPECTRAL"> F  </i>
   <i type="logical" name="LSPECTRALGW"> F  </i>
   <i type="logical" name="LSINGLES"> F  </i>
   <i type="logical" name="LFERMIGW"> F  </i>
   <i type="logical" name="ODDONLYGW"> F  </i>
   <i type="logical" name="EVENONLYGW"> F  </i>
   <i type="int" name="NKREDLFX">     1</i>
   <i type="int" name="NKREDLFY">     1</i>
   <i type="int" name="NKREDLFZ">     1</i>
   <i type="int" name="MAXMEM">  2800</i>
   <i type="int" name="TELESCOPE">     0</i>
   <i type="int" name="NTAUPAR">    -1</i>
   <i type="int" name="NOMEGAPAR">    -1</i>
   <i name="DAMP_NEWTON">      0.80000001</i>
   <i name="LAMBDA">      1.00000000</i>
  </separator>
  <separator name="External order field" >
   <i name="OFIELD_KAPPA">      0.00000000</i>
   <v name="OFIELD_K">      0.00000000      0.00000000      0.00000000</v>
   <i name="OFIELD_Q6_NEAR">      0.00000000</i>
   <i name="OFIELD_Q6_FAR">      0.00000000</i>
   <i name="OFIELD_A">      0.00000000</i>
  </separator>
  <separator name="optional k-points parameters" >
   <i type="int" name="KPOINTS_OPT_MODE">     1</i>
   <i type="logical" name="LKPOINTS_OPT"> F  </i>
  </separator>
 </parameters>
 <atominfo>
  <atoms>       2 </atoms>
  <types>       1 </types>
  <array name="atoms" >
   <dimension dim="1">ion</dimension>
   <field type="string">element</field>
   <field type="int">atomtype</field>
   <set>
    <rc><c>Co</c><c>   1</c></rc>
    <rc><c>Co</c><c>   1</c></rc>
   </set>
  </array>
  <array name="atomtypes" >
   <dimension dim="1">type</dimension>
   <field type="int">atomspertype</field>
   <field type="string">element</field>
   <field>mass</field>
   <field>valence</field>
   <field type="string">pseudopotential</field>
   <set>
    <rc><c>   2</c><c>Co</c><c>     58.93300000</c><c>      9.00000000</c><c>  PAW_PBE Co 02Aug2007                  </c></rc>
   </set>
  </array>
 </atominfo>
 <structure name="initialpos" >
  <crystal>
   <varray name="basis" >
    <v>       2.47000000       0.00000000       0.00000000 </v>
    <v>      -1.23500000       2.13908275       0.00000000 </v>
    <v>       0.00000000       0.00000000       8.09000000 </v>
   </varray>
   <i name="volume">     42.74379318 </i>
   <varray name="rec_basis" >
    <v>       0.40485830       0.23374505       0.00000000 </v>
    <v>       0.00000000       0.46749010       0.00000000 </v>
    <v>       0.00000000       0.00000000       0.12360939 </v>
   </varray>
  </crystal>
  <varray name="positions" >
   <v>       0.00000000       0.00000000       0.00000000 </v>
   <v>       0.33333333       0.66666667       0.50000000 </v>
  </varray>
 </structure>
 <calculation>
  <scstep>
   <time name="dav">    0.27    0.27</time>
   <time name="total">    0.28    0.28</time>
   <energy>
    <i name="alphaZ">     39.63868225 </i>
    <i name="ewald">  -1054.56880693 </i>
    <i name="hartreedc">   -595.60964206 </i>
    <i name="XCdc">     33.36921587 </i>
    <i name="pawpsdc">   1439.98163886 </i>
    <i name="pawaedc">  -1545.88690193 </i>
    <i name="eentropy">     -0.00425507 </i>
    <i name="bandstr">    131.97229732 </i>
    <i name="atom">   1626.71546820 </i>
    <i name="e_fr_energy">     75.60769652 </i>
    <i name="e_wo_entrp">     75.61195159 </i>
    <i name="e_0_energy">     75.60982405 </i>
   </energy>
  </scstep>
  <scstep>
   <time name="dav">    0.26    0.26</time>
   <time name="total">    0.26    0.26</time>
   <energy>
    <i name="e_fr_energy">    -10.66012398 </i>
    <i name="e_wo_entrp">    -10.65633761 </i>
    <i name="e_0_energy">    -10.65823080 </i>
   </energy>
  </scstep>
  <scstep>
   <time name="dav">    0.30    0.30</time>
   <time name="total">    0.30    0.30</time>
   <energy>
    <i name="e_fr_energy">    -12.70298572 </i>
    <i name="e_wo_entrp">    -12.69928369 </i>
    <i name="e_0_energy">    -12.70113470 </i>
   </energy>
  </scstep>
  <scstep>
   <time name="dav">    0.33    0.33</time>
   <time name="total">    0.33    0.33</time>
   <energy>
    <i name="e_fr_energy">    -12.73580743 </i>
    <i name="e_wo_entrp">    -12.73210294 </i>
    <i name="e_0_energy">    -12.73395518 </i>
   </energy>
  </scstep>
  <scstep>
   <time name="dav">    0.31    0.31</time>
   <time name="total">    0.34    0.34</time>
   <energy>
    <i name="e_fr_energy">    -12.73607875 </i>
    <i name="e_wo_entrp">    -12.73237339 </i>
    <i name="e_0_energy">    -12.73422607 </i>
   </energy>
  </scstep>
  <scstep>
   <time name="dav">    0.28    0.28</time>
   <time name="total">    0.32    0.32</time>
   <energy>
    <i name="e_fr_energy">    -12.51134298 </i>
    <i name="e_wo_entrp">    -12.50399668 </i>
    <i name="e_0_energy">    -12.50766983 </i>
   </energy>
  </scstep>
  <scstep>
   <time name="dav">    0.29    0.29</time>
   <time name="total">    0.33    0.33</time>
   <energy>
    <i name="e_fr_energy">    -11.03024929 </i>
    <i name="e_wo_entrp">    -11.01969341 </i>
    <i name="e_0_energy">    -11.02497135 </i>
   </energy>
  </scstep>
  <scstep>
   <time name="dav">    0.31    0.31</time>
   <time name="total">    0.35    0.35</time>
   <energy>
    <i name="e_fr_energy">    -11.14556453 </i>
    <i name="e_wo_entrp">    -11.13752154 </i>
    <i name="e_0_energy">    -11.14154304 </i>
   </energy>
  </scstep>
  <scstep>
   <time name="dav">    0.29    0.29</time>
   <time name="total">    0.33    0.33</time>
   <energy>
    <i name="e_fr_energy">    -11.16718796 </i>
    <i name="e_wo_entrp">    -11.15962022 </i>
    <i name="e_0_energy">    -11.16340409 </i>
   </energy>
  </scstep>
  <scstep>
   <time name="dav">    0.29    0.29</time>
   <time name="total">    0.33    0.34</time>
   <energy>
    <i name="e_fr_energy">    -11.16503068 </i>
    <i name="e_wo_entrp">    -11.15708180 </i>
    <i name="e_0_energy">    -11.16105624 </i>
   </energy>
  </scstep>
  <scstep>
   <time name="dav">    0.30    0.30</time>
   <time name="total">    0.34    0.34</time>
   <energy>
    <i name="e_fr_energy">    -11.16524538 </i>
    <i name="e_wo_entrp">    -11.15690668 </i>
    <i name="e_0_energy">    -11.16107603 </i>
   </energy>
  </scstep>
  <scstep>
   <time name="dav">    0.30    0.30</time>
   <time name="total">    0.34    0.34</time>
   <energy>
    <i name="e_fr_energy">    -11.16499356 </i>
    <i name="e_wo_entrp">    -11.15655671 </i>
    <i name="e_0_energy">    -11.16077513 </i>
   </energy>
  </scstep>
  <scstep>
   <time name="dav">    0.29    0.29</time>
   <time name="total">    0.33    0.33</time>
   <energy>
    <i name="e_fr_energy">    -11.16495664 </i>
    <i name="e_wo_entrp">    -11.15653167 </i>
    <i name="e_0_energy">    -11.16074415 </i>
   </energy>
  </scstep>
  <scstep>
   <time name="dav">    0.30    0.30</time>
   <time name="total">    0.34    0.34</time>
   <energy>
    <i name="e_fr_energy">    -11.16498956 </i>
    <i name="e_wo_entrp">    -11.15656273 </i>
    <i name="e_0_energy">    -11.16077614 </i>
   </energy>
  </scstep>
  <scstep>
   <time name="dav">    0.29    0.29</time>
   <time name="total">    0.33    0.33</time>
   <energy>
    <i name="e_fr_energy">    -11.16499216 </i>
    <i name="e_wo_entrp">    -11.15657048 </i>
    <i name="e_0_energy">    -11.16078132 </i>
   </energy>
  </scstep>
  <scstep>
   <time name="dav">    0.24    0.24</time>
   <time name="total">    0.28    0.28</time>
   <energy>
    <i name="e_fr_energy">    -11.16499429 </i>
    <i name="e_wo_entrp">    -11.15657563 </i>
    <i name="e_0_energy">    -11.16078496 </i>
   </energy>
  </scstep>
  <scstep>
   <time name="dav">    0.23    0.23</time>
   <time name="total">    0.24    0.25</time>
   <energy>
    <i name="alphaZ">     39.63868225 </i>
    <i name="ewald">  -1054.56880693 </i>
    <i name="hartreedc">   -567.22492522 </i>
    <i name="XCdc">     31.43194529 </i>
    <i name="pawpsdc">   1616.94021763 </i>
    <i name="pawaedc">  -1722.80604280 </i>
    <i name="eentropy">     -0.00841584 </i>
    <i name="bandstr">     18.71688297 </i>
    <i name="atom">   1626.71546820 </i>
    <i name="e_fr_energy">    -11.16499445 </i>
    <i name="e_wo_entrp">    -11.15657861 </i>
    <i name="e_0_energy">    -11.16078653 </i>
   </energy>
  </scstep>
  <structure>
   <crystal>
    <varray name="basis" >
     <v>       2.47000000       0.00000000       0.00000000 </v>
     <v>      -1.23500000       2.13908275       0.00000000 </v>
     <v>       0.00000000       0.00000000       8.09000000 </v>
    </varray>
    <i name="volume">     42.74379318 </i>
    <varray name="rec_basis" >
     <v>       0.40485830       0.23374505       0.00000000 </v>
     <v>       0.00000000       0.46749010       0.00000000 </v>
     <v>       0.00000000       0.00000000       0.12360939 </v>
    </varray>
   </crystal>
   <varray name="positions" >
    <v>       0.00000000       0.00000000       0.00000000 </v>
    <v>       0.33333333       0.66666667       0.50000000 </v>
   </varray>
  </structure>
  <varray name="forces" >
   <v>      -0.00000000      -0.00000000       0.00000000 </v>
   <v>       0.00000000       0.00000000       0.00000000 </v>
  </varray>
  <varray name="stress" >
   <v>    -110.38117010       0.00000000       0.00000000 </v>
   <v>      -0.00000000    -110.38117010      -0.00000000 </v>
   <v>       0.00000000       0.00000000     -51.92962704 </v>
  </varray>
  <energy>
   <i name="e_fr_energy">    -11.16499445 </i>
   <i name="e_wo_entrp">    -11.15657861 </i>
   <i name="e_0_energy">    -11.16078653 </i>
  </energy>
  <time name="totalsc">    5.48    5.53</time>
  <eigenvalues>
   <array>
    <dimension dim="1">band</dimension>
    <dimension dim="2">kpoint</dimension>
    <dimension dim="3">spin</dimension>
    <field>eigene</field>
    <field>occ</field>
    <set>
     <set comment="spin 1">
      <set comment="kpoint 1">
       <r>   -3.1142    1.0000 </r>
       <r>   -2.6572    1.0000 </r>
       <r>   -0.1061    1.0000 </r>
       <r>    0.6353    1.0000 </r>
       <r>    0.6353    1.0000 </r>
       <r>    0.6362    1.0000 </r>
       <r>    0.6362    1.0000 </r>
       <r>    0.9118    1.0000 </r>
       <r>    1.5989    1.0000 </r>
       <r>    1.5989    1.0000 </r>
       <r>    1.6018    1.0000 </r>
       <r>    1.6018    1.0000 </r>
       <r>    2.1906    1.0000 </r>
       <r>    6.4314    0.0000 </r>
       <r>   10.8871    0.0000 </r>
       <r>   18.7964    0.0000 </r>
      </set>
      <set comment="kpoint 2">
       <r>   -2.5525    1.0000 </r>
       <r>   -2.1183    1.0000 </r>
       <r>    0.0659    1.0000 </r>
       <r>    0.4793    1.0000 </r>
       <r>    0.4814    1.0000 </r>
       <r>    0.8750    1.0000 </r>
       <r>    0.8759    1.0000 </r>
       <r>    0.9036    1.0000 </r>
       <r>    1.0429    1.0000 </r>
       <r>    1.1936    1.0000 </r>
       <r>    1.5506    1.0000 </r>
       <r>    1.5555    1.0000 </r>
       <r>    3.2684    0.0036 </r>
       <r>    7.2943    0.0000 </r>
       <r>   11.2307    0.0000 </r>
       <r>   19.4491    0.0000 </r>
      </set>
      <set comment="kpoint 3">
       <r>   -1.2694    1.0000 </r>
       <r>   -1.0447    1.0000 </r>
       <r>    0.2387    1.0000 </r>
       <r>    0.4759    1.0000 </r>
       <r>    0.4837    1.0000 </r>
       <r>    0.4853    1.0000 </r>
       <r>    0.5203    1.0000 </r>
       <r>    1.4358    1.0000 </r>
       <r>    1.4444    1.0000 </r>
       <r>    1.4887    1.0000 </r>
       <r>    1.4894    1.0000 </r>
       <r>    1.5471    1.0000 </r>
       <r>    5.1437    0.0000 </r>
       <r>    9.3721    0.0000 </r>
       <r>   12.2758    0.0000 </r>
       <r>   17.7569    0.0000 </r>
      </set>
      <set comment="kpoint 4">
       <r>   -1.0377    1.0000 </r>
       <r>   -1.0072    1.0000 </r>
       <r>   -0.1770    1.0000 </r>
       <r>   -0.0468    1.0000 </r>
       <r>    0.9453    1.0000 </r>
       <r>    1.0828    1.0000 </r>
       <r>    1.3228    1.0000 </r>
       <r>    1.3343    1.0000 </r>
       <r>    2.1625    1.0000 </r>
       <r>    2.1629    1.0000 </r>
       <r>    2.6040    1.0000 </r>
       <r>    3.4735    0.0000 </r>
       <r>    7.7323    0.0000 </r>
       <r>   12.0191    0.0000 </r>
       <r>   12.1673    0.0000 </r>
       <r>   12.9614    0.0000 </r>
      </set>
      <set comment="kpoint 5">
       <r>   -1.1439    1.0000 </r>
       <r>   -1.1393    1.0000 </r>
       <r>   -0.3114    1.0000 </r>
       <r>   -0.2432    1.0000 </r>
       <r>    1.1446    1.0000 </r>
       <r>    1.2384    1.0000 </r>
       <r>    1.2765    1.0000 </r>
       <r>    1.2893    1.0000 </r>
       <r>    2.4633    1.0000 </r>
       <r>    2.4635    1.0000 </r>
       <r>    5.0934    0.0000 </r>
       <r>    5.4322    0.0000 </r>
       <r>    9.2213    0.0000 </r>
       <r>   10.0181    0.0000 </r>
       <r>   10.5313    0.0000 </r>
       <r>   11.6541    0.0000 </r>
      </set>
      <set comment="kpoint 6">
       <r>   -1.5362    1.0000 </r>
       <r>   -1.1931    1.0000 </r>
       <r>    0.2073    1.0000 </r>
       <r>    0.2099    1.0000 </r>
       <r>    0.3774    1.0000 </r>
       <r>    0.4170    1.0000 </r>
       <r>    0.6955    1.0000 </r>
       <r>    1.1648    1.0000 </r>
       <r>    1.4080    1.0000 </r>
       <r>    1.4365    1.0000 </r>
       <r>    1.4417    1.0000 </r>
       <r>    1.5801    1.0000 </r>
       <r>    4.5840    0.0000 </r>
       <r>    8.7427    0.0000 </r>
       <r>   11.9410    0.0000 </r>
       <r>   20.7049    0.0000 </r>
      </set>
      <set comment="kpoint 7">
       <r>   -0.6184    1.0000 </r>
       <r>   -0.5599    1.0000 </r>
       <r>    0.0121    1.0000 </r>
       <r>    0.1887    1.0000 </r>
       <r>    0.4737    1.0000 </r>
       <r>    0.4890    1.0000 </r>
       <r>    0.9222    1.0000 </r>
       <r>    1.2455    1.0000 </r>
       <r>    1.2551    1.0000 </r>
       <r>    1.4634    1.0000 </r>
       <r>    2.6116    1.0000 </r>
       <r>    3.1566    0.6816 </r>
       <r>    6.7638    0.0000 </r>
       <r>   11.1371    0.0000 </r>
       <r>   13.2729    0.0000 </r>
       <r>   15.3148    0.0000 </r>
      </set>
      <set comment="kpoint 8">
       <r>   -0.8135    1.0000 </r>
       <r>   -0.8056    1.0000 </r>
       <r>   -0.1847    1.0000 </r>
       <r>   -0.1026    1.0000 </r>
       <r>    1.0917    1.0000 </r>
       <r>    1.1039    1.0000 </r>
       <r>    1.1164    1.0000 </r>
       <r>    1.1644    1.0000 </r>
       <r>    1.6681    1.0000 </r>
       <r>    1.7669    1.0000 </r>
       <r>    5.0720    0.0000 </r>
       <r>    5.7821    0.0000 </r>
       <r>    9.7062    0.0000 </r>
       <r>   10.4248    0.0000 </r>
       <r>   11.3776    0.0000 </r>
       <r>   13.0828    0.0000 </r>
      </set>
      <set comment="kpoint 9">
       <r>   -0.1193    1.0000 </r>
       <r>   -0.1103    1.0000 </r>
       <r>   -0.0122    1.0000 </r>
       <r>    0.0929    1.0000 </r>
       <r>    0.4851    1.0000 </r>
       <r>    0.4913    1.0000 </r>
       <r>    0.8780    1.0000 </r>
       <r>    0.8974    1.0000 </r>
       <r>    1.1789    1.0000 </r>
       <r>    1.4065    1.0000 </r>
       <r>    5.0967    0.0000 </r>
       <r>    5.9237    0.0000 </r>
       <r>    9.3156    0.0000 </r>
       <r>   13.4106    0.0000 </r>
       <r>   13.6708    0.0000 </r>
       <r>   13.6896    0.0000 </r>
      </set>
      <set comment="kpoint 10">
       <r>   -0.1351    1.0000 </r>
       <r>   -0.1255    1.0000 </r>
       <r>    0.0817    1.0000 </r>
       <r>    0.1315    1.0000 </r>
       <r>    0.6424    1.0000 </r>
       <r>    0.6647    1.0000 </r>
       <r>    0.8332    1.0000 </r>
       <r>    0.8558    1.0000 </r>
       <r>    1.1778    1.0000 </r>
       <r>    1.2213    1.0000 </r>
       <r>    8.1059    0.0000 </r>
       <r>    8.4496    0.0000 </r>
       <r>   10.0936    0.0000 </r>
       <r>   10.7277    0.0000 </r>
       <r>   12.3007    0.0000 </r>
       <r>   13.1282    0.0000 </r>
      </set>
      <set comment="kpoint 11">
       <r>   -3.0853    1.0000 </r>
       <r>   -2.6893    1.0000 </r>
       <r>   -0.0779    1.0000 </r>
       <r>    0.6353    1.0000 </r>
       <r>    0.6353    1.0000 </r>
       <r>    0.6361    1.0000 </r>
       <r>    0.6361    1.0000 </r>
       <r>    0.7210    1.0000 </r>
       <r>    1.5991    1.0000 </r>
       <r>    1.5991    1.0000 </r>
       <r>    1.6016    1.0000 </r>
       <r>    1.6016    1.0000 </r>
       <r>    2.5286    1.0000 </r>
       <r>    6.0235    0.0000 </r>
       <r>   11.4148    0.0000 </r>
       <r>   17.7223    0.0000 </r>
      </set>
      <set comment="kpoint 12">
       <r>   -2.5246    1.0000 </r>
       <r>   -2.1482    1.0000 </r>
       <r>    0.0906    1.0000 </r>
       <r>    0.4794    1.0000 </r>
       <r>    0.4813    1.0000 </r>
       <r>    0.7426    1.0000 </r>
       <r>    0.8751    1.0000 </r>
       <r>    0.8759    1.0000 </r>
       <r>    1.1140    1.0000 </r>
       <r>    1.1928    1.0000 </r>
       <r>    1.5509    1.0000 </r>
       <r>    1.5552    1.0000 </r>
       <r>    3.5052    0.0000 </r>
       <r>    6.8504    0.0000 </r>
       <r>   11.8008    0.0000 </r>
       <r>   18.2778    0.0000 </r>
      </set>
      <set comment="kpoint 13">
       <r>   -1.2534    1.0000 </r>
       <r>   -1.0586    1.0000 </r>
       <r>    0.2439    1.0000 </r>
       <r>    0.4038    1.0000 </r>
       <r>    0.4774    1.0000 </r>
       <r>    0.4883    1.0000 </r>
       <r>    0.6292    1.0000 </r>
       <r>    1.4364    1.0000 </r>
       <r>    1.4438    1.0000 </r>
       <r>    1.4570    1.0000 </r>
       <r>    1.4887    1.0000 </r>
       <r>    1.4894    1.0000 </r>
       <r>    5.3623    0.0000 </r>
       <r>    8.8171    0.0000 </r>
       <r>   12.9556    0.0000 </r>
       <r>   17.7662    0.0000 </r>
      </set>
      <set comment="kpoint 14">
       <r>   -1.0358    1.0000 </r>
       <r>   -1.0093    1.0000 </r>
       <r>   -0.1700    1.0000 </r>
       <r>   -0.0578    1.0000 </r>
       <r>    0.9590    1.0000 </r>
       <r>    1.0773    1.0000 </r>
       <r>    1.3236    1.0000 </r>
       <r>    1.3336    1.0000 </r>
       <r>    2.1625    1.0000 </r>
       <r>    2.1629    1.0000 </r>
       <r>    2.6451    1.0000 </r>
       <r>    3.3899    0.0000 </r>
       <r>    7.9343    0.0000 </r>
       <r>   11.2803    0.0000 </r>
       <r>   12.3974    0.0000 </r>
       <r>   13.0533    0.0000 </r>
      </set>
      <set comment="kpoint 15">
       <r>   -1.1437    1.0000 </r>
       <r>   -1.1398    1.0000 </r>
       <r>   -0.3076    1.0000 </r>
       <r>   -0.2485    1.0000 </r>
       <r>    1.1524    1.0000 </r>
       <r>    1.2338    1.0000 </r>
       <r>    1.2773    1.0000 </r>
       <r>    1.2883    1.0000 </r>
       <r>    2.4633    1.0000 </r>
       <r>    2.4634    1.0000 </r>
       <r>    5.1116    0.0000 </r>
       <r>    5.4049    0.0000 </r>
       <r>    9.2221    0.0000 </r>
       <r>    9.7885    0.0000 </r>
       <r>   10.8641    0.0000 </r>
       <r>   11.7493    0.0000 </r>
      </set>
      <set comment="kpoint 16">
       <r>   -1.5128    1.0000 </r>
       <r>   -1.2153    1.0000 </r>
       <r>    0.2074    1.0000 </r>
       <r>    0.2097    1.0000 </r>
       <r>    0.3802    1.0000 </r>
       <r>    0.4145    1.0000 </r>
       <r>    0.7168    1.0000 </r>
       <r>    1.1287    1.0000 </r>
       <r>    1.4100    1.0000 </r>
       <r>    1.4369    1.0000 </r>
       <r>    1.4414    1.0000 </r>
       <r>    1.5384    1.0000 </r>
       <r>    4.8059    0.0000 </r>
       <r>    8.2230    0.0000 </r>
       <r>   12.5894    0.0000 </r>
       <r>   19.2696    0.0000 </r>
      </set>
      <set comment="kpoint 17">
       <r>   -0.6144    1.0000 </r>
       <r>   -0.5638    1.0000 </r>
       <r>    0.0203    1.0000 </r>
       <r>    0.1702    1.0000 </r>
       <r>    0.4753    1.0000 </r>
       <r>    0.4886    1.0000 </r>
       <r>    0.9652    1.0000 </r>
       <r>    1.2462    1.0000 </r>
       <r>    1.2543    1.0000 </r>
       <r>    1.4337    1.0000 </r>
       <r>    2.6298    1.0000 </r>
       <r>    3.0889    0.9915 </r>
       <r>    6.9776    0.0000 </r>
       <r>   10.4894    0.0000 </r>
       <r>   13.9838    0.0000 </r>
       <r>   15.3660    0.0000 </r>
      </set>
      <set comment="kpoint 18">
       <r>   -0.8131    1.0000 </r>
       <r>   -0.8062    1.0000 </r>
       <r>   -0.1798    1.0000 </r>
       <r>   -0.1089    1.0000 </r>
       <r>    1.0936    1.0000 </r>
       <r>    1.1096    1.0000 </r>
       <r>    1.1150    1.0000 </r>
       <r>    1.1626    1.0000 </r>
       <r>    1.6739    1.0000 </r>
       <r>    1.7598    1.0000 </r>
       <r>    5.1061    0.0000 </r>
       <r>    5.7140    0.0000 </r>
       <r>    9.8561    0.0000 </r>
       <r>   10.4657    0.0000 </r>
       <r>   11.3076    0.0000 </r>
       <r>   12.8796    0.0000 </r>
      </set>
      <set comment="kpoint 19">
       <r>   -0.1187    1.0000 </r>
       <r>   -0.1110    1.0000 </r>
       <r>   -0.0064    1.0000 </r>
       <r>    0.0841    1.0000 </r>
       <r>    0.4861    1.0000 </r>
       <r>    0.4913    1.0000 </r>
       <r>    0.8793    1.0000 </r>
       <r>    0.8960    1.0000 </r>
       <r>    1.1959    1.0000 </r>
       <r>    1.3928    1.0000 </r>
       <r>    5.1339    0.0000 </r>
       <r>    5.8373    0.0000 </r>
       <r>    9.5268    0.0000 </r>
       <r>   12.8850    0.0000 </r>
       <r>   13.5871    0.0000 </r>
       <r>   13.7084    0.0000 </r>
      </set>
      <set comment="kpoint 20">
       <r>   -0.1346    1.0000 </r>
       <r>   -0.1263    1.0000 </r>
       <r>    0.0849    1.0000 </r>
       <r>    0.1279    1.0000 </r>
       <r>    0.6431    1.0000 </r>
       <r>    0.6624    1.0000 </r>
       <r>    0.8357    1.0000 </r>
       <r>    0.8554    1.0000 </r>
       <r>    1.1808    1.0000 </r>
       <r>    1.2186    1.0000 </r>
       <r>    8.1321    0.0000 </r>
       <r>    8.4335    0.0000 </r>
       <r>   10.0747    0.0000 </r>
       <r>   10.5872    0.0000 </r>
       <r>   12.5439    0.0000 </r>
       <r>   13.1666    0.0000 </r>
      </set>
      <set comment="kpoint 21">
       <r>   -3.0051    1.0000 </r>
       <r>   -2.7763    1.0000 </r>
       <r>    0.0108    1.0000 </r>
       <r>    0.4147    1.0000 </r>
       <r>    0.6354    1.0000 </r>
       <r>    0.6354    1.0000 </r>
       <r>    0.6360    1.0000 </r>
       <r>    0.6360    1.0000 </r>
       <r>    1.5996    1.0000 </r>
       <r>    1.5996    1.0000 </r>
       <r>    1.6009    1.0000 </r>
       <r>    1.6009    1.0000 </r>
       <r>    3.2619    0.0061 </r>
       <r>    5.1417    0.0000 </r>
       <r>   12.6562    0.0000 </r>
       <r>   15.9672    0.0000 </r>
      </set>
      <set comment="kpoint 22">
       <r>   -2.4473    1.0000 </r>
       <r>   -2.2296    1.0000 </r>
       <r>    0.1680    1.0000 </r>
       <r>    0.4789    1.0000 </r>
       <r>    0.4809    1.0000 </r>
       <r>    0.5062    1.0000 </r>
       <r>    0.8752    1.0000 </r>
       <r>    0.8757    1.0000 </r>
       <r>    1.1620    1.0000 </r>
       <r>    1.1897    1.0000 </r>
       <r>    1.5518    1.0000 </r>
       <r>    1.5543    1.0000 </r>
       <r>    4.1218    0.0000 </r>
       <r>    5.9364    0.0000 </r>
       <r>   13.0955    0.0000 </r>
       <r>   16.4717    0.0000 </r>
      </set>
      <set comment="kpoint 23">
       <r>   -1.2103    1.0000 </r>
       <r>   -1.0976    1.0000 </r>
       <r>    0.2605    1.0000 </r>
       <r>    0.3370    1.0000 </r>
       <r>    0.4797    1.0000 </r>
       <r>    0.4861    1.0000 </r>
       <r>    0.7967    1.0000 </r>
       <r>    1.2455    1.0000 </r>
       <r>    1.4378    1.0000 </r>
       <r>    1.4421    1.0000 </r>
       <r>    1.4889    1.0000 </r>
       <r>    1.4893    1.0000 </r>
       <r>    5.9531    0.0000 </r>
       <r>    7.8015    0.0000 </r>
       <r>   14.3449    0.0000 </r>
       <r>   17.4346    0.0000 </r>
      </set>
      <set comment="kpoint 24">
       <r>   -1.0304    1.0000 </r>
       <r>   -1.0151    1.0000 </r>
       <r>   -0.1498    1.0000 </r>
       <r>   -0.0857    1.0000 </r>
       <r>    0.9923    1.0000 </r>
       <r>    1.0598    1.0000 </r>
       <r>    1.3256    1.0000 </r>
       <r>    1.3315    1.0000 </r>
       <r>    2.1626    1.0000 </r>
       <r>    2.1628    1.0000 </r>
       <r>    2.7667    1.0000 </r>
       <r>    3.1881    0.3382 </r>
       <r>    8.4890    0.0000 </r>
       <r>   10.2643    0.0000 </r>
       <r>   12.5605    0.0000 </r>
       <r>   12.9675    0.0000 </r>
      </set>
      <set comment="kpoint 25">
       <r>   -1.1430    1.0000 </r>
       <r>   -1.1407    1.0000 </r>
       <r>   -0.2963    1.0000 </r>
       <r>   -0.2622    1.0000 </r>
       <r>    1.1727    1.0000 </r>
       <r>    1.2199    1.0000 </r>
       <r>    1.2796    1.0000 </r>
       <r>    1.2861    1.0000 </r>
       <r>    2.4633    1.0000 </r>
       <r>    2.4634    1.0000 </r>
       <r>    5.1647    0.0000 </r>
       <r>    5.3339    0.0000 </r>
       <r>    9.2467    0.0000 </r>
       <r>    9.5151    0.0000 </r>
       <r>   11.4040    0.0000 </r>
       <r>   11.9193    0.0000 </r>
      </set>
      <set comment="kpoint 26">
       <r>   -1.4491    1.0000 </r>
       <r>   -1.2767    1.0000 </r>
       <r>    0.2079    1.0000 </r>
       <r>    0.2092    1.0000 </r>
       <r>    0.3878    1.0000 </r>
       <r>    0.4077    1.0000 </r>
       <r>    0.7820    1.0000 </r>
       <r>    1.0233    1.0000 </r>
       <r>    1.4172    1.0000 </r>
       <r>    1.4378    1.0000 </r>
       <r>    1.4405    1.0000 </r>
       <r>    1.4725    1.0000 </r>
       <r>    5.4007    0.0000 </r>
       <r>    7.2367    0.0000 </r>
       <r>   13.9651    0.0000 </r>
       <r>   17.4127    0.0000 </r>
      </set>
      <set comment="kpoint 27">
       <r>   -0.6036    1.0000 </r>
       <r>   -0.5745    1.0000 </r>
       <r>    0.0442    1.0000 </r>
       <r>    0.1278    1.0000 </r>
       <r>    0.4790    1.0000 </r>
       <r>    0.4867    1.0000 </r>
       <r>    1.0762    1.0000 </r>
       <r>    1.2486    1.0000 </r>
       <r>    1.2514    1.0000 </r>
       <r>    1.3480    1.0000 </r>
       <r>    2.6879    1.0000 </r>
       <r>    2.9392    1.0000 </r>
       <r>    7.5601    0.0000 </r>
       <r>    9.4190    0.0000 </r>
       <r>   15.0574    0.0000 </r>
       <r>   15.5081    0.0000 </r>
      </set>
      <set comment="kpoint 28">
       <r>   -0.8117    1.0000 </r>
       <r>   -0.8077    1.0000 </r>
       <r>   -0.1663    1.0000 </r>
       <r>   -0.1255    1.0000 </r>
       <r>    1.0982    1.0000 </r>
       <r>    1.1101    1.0000 </r>
       <r>    1.1253    1.0000 </r>
       <r>    1.1557    1.0000 </r>
       <r>    1.6908    1.0000 </r>
       <r>    1.7407    1.0000 </r>
       <r>    5.2061    0.0000 </r>
       <r>    5.5497    0.0000 </r>
       <r>   10.2031    0.0000 </r>
       <r>   10.5558    0.0000 </r>
       <r>   11.2416    0.0000 </r>
       <r>   12.2687    0.0000 </r>
      </set>
      <set comment="kpoint 29">
       <r>   -0.1171    1.0000 </r>
       <r>   -0.1128    1.0000 </r>
       <r>    0.0101    1.0000 </r>
       <r>    0.0616    1.0000 </r>
       <r>    0.4883    1.0000 </r>
       <r>    0.4910    1.0000 </r>
       <r>    0.8826    1.0000 </r>
       <r>    0.8923    1.0000 </r>
       <r>    1.2410    1.0000 </r>
       <r>    1.3545    1.0000 </r>
       <r>    5.2441    0.0000 </r>
       <r>    5.6371    0.0000 </r>
       <r>   10.0966    0.0000 </r>
       <r>   11.8805    0.0000 </r>
       <r>   13.6934    0.0000 </r>
       <r>   13.7983    0.0000 </r>
      </set>
      <set comment="kpoint 30">
       <r>   -0.1331    1.0000 </r>
       <r>   -0.1284    1.0000 </r>
       <r>    0.0937    1.0000 </r>
       <r>    0.1184    1.0000 </r>
       <r>    0.6455    1.0000 </r>
       <r>    0.6568    1.0000 </r>
       <r>    0.8421    1.0000 </r>
       <r>    0.8536    1.0000 </r>
       <r>    1.1890    1.0000 </r>
       <r>    1.2109    1.0000 </r>
       <r>    8.2034    0.0000 </r>
       <r>    8.3818    0.0000 </r>
       <r>   10.0666    0.0000 </r>
       <r>   10.3363    0.0000 </r>
       <r>   13.0543    0.0000 </r>
       <r>   13.3345    0.0000 </r>
      </set>
      <set comment="kpoint 31">
       <r>   -2.8924    1.0000 </r>
       <r>   -2.8924    1.0000 </r>
       <r>    0.1713    1.0000 </r>
       <r>    0.1713    1.0000 </r>
       <r>    0.6356    1.0000 </r>
       <r>    0.6356    1.0000 </r>
       <r>    0.6356    1.0000 </r>
       <r>    0.6356    1.0000 </r>
       <r>    1.6002    1.0000 </r>
       <r>    1.6002    1.0000 </r>
       <r>    1.6002    1.0000 </r>
       <r>    1.6002    1.0000 </r>
       <r>    4.1674    0.0000 </r>
       <r>    4.1674    0.0000 </r>
       <r>   14.2294    0.0000 </r>
       <r>   14.2294    0.0000 </r>
      </set>
      <set comment="kpoint 32">
       <r>   -2.3395    1.0000 </r>
       <r>   -2.3395    1.0000 </r>
       <r>    0.3053    1.0000 </r>
       <r>    0.3053    1.0000 </r>
       <r>    0.4805    1.0000 </r>
       <r>    0.4805    1.0000 </r>
       <r>    0.8754    1.0000 </r>
       <r>    0.8754    1.0000 </r>
       <r>    1.1818    1.0000 </r>
       <r>    1.1818    1.0000 </r>
       <r>    1.5531    1.0000 </r>
       <r>    1.5531    1.0000 </r>
       <r>    4.9712    0.0000 </r>
       <r>    4.9712    0.0000 </r>
       <r>   14.7036    0.0000 </r>
       <r>   14.7036    0.0000 </r>
      </set>
      <set comment="kpoint 33">
       <r>   -1.1528    1.0000 </r>
       <r>   -1.1528    1.0000 </r>
       <r>    0.2905    1.0000 </r>
       <r>    0.2905    1.0000 </r>
       <r>    0.4831    1.0000 </r>
       <r>    0.4831    1.0000 </r>
       <r>    1.0075    1.0000 </r>
       <r>    1.0075    1.0000 </r>
       <r>    1.4401    1.0000 </r>
       <r>    1.4401    1.0000 </r>
       <r>    1.4891    1.0000 </r>
       <r>    1.4891    1.0000 </r>
       <r>    6.7997    0.0000 </r>
       <r>    6.7997    0.0000 </r>
       <r>   15.9559    0.0000 </r>
       <r>   15.9559    0.0000 </r>
      </set>
      <set comment="kpoint 34">
       <r>   -1.0229    1.0000 </r>
       <r>   -1.0229    1.0000 </r>
       <r>   -0.1197    1.0000 </r>
       <r>   -0.1197    1.0000 </r>
       <r>    1.0301    1.0000 </r>
       <r>    1.0301    1.0000 </r>
       <r>    1.3286    1.0000 </r>
       <r>    1.3286    1.0000 </r>
       <r>    2.1626    1.0000 </r>
       <r>    2.1626    1.0000 </r>
       <r>    2.9584    1.0000 </r>
       <r>    2.9584    1.0000 </r>
       <r>    9.2966    0.0000 </r>
       <r>    9.2966    0.0000 </r>
       <r>   12.7604    0.0000 </r>
       <r>   12.7604    0.0000 </r>
      </set>
      <set comment="kpoint 35">
       <r>   -1.1419    1.0000 </r>
       <r>   -1.1419    1.0000 </r>
       <r>   -0.2798    1.0000 </r>
       <r>   -0.2798    1.0000 </r>
       <r>    1.1979    1.0000 </r>
       <r>    1.1979    1.0000 </r>
       <r>    1.2828    1.0000 </r>
       <r>    1.2828    1.0000 </r>
       <r>    2.4634    1.0000 </r>
       <r>    2.4634    1.0000 </r>
       <r>    5.2448    0.0000 </r>
       <r>    5.2448    0.0000 </r>
       <r>    9.3353    0.0000 </r>
       <r>    9.3353    0.0000 </r>
       <r>   11.8428    0.0000 </r>
       <r>   11.8428    0.0000 </r>
      </set>
      <set comment="kpoint 36">
       <r>   -1.3624    1.0000 </r>
       <r>   -1.3624    1.0000 </r>
       <r>    0.2086    1.0000 </r>
       <r>    0.2086    1.0000 </r>
       <r>    0.3979    1.0000 </r>
       <r>    0.3979    1.0000 </r>
       <r>    0.8905    1.0000 </r>
       <r>    0.8905    1.0000 </r>
       <r>    1.4340    1.0000 </r>
       <r>    1.4340    1.0000 </r>
       <r>    1.4395    1.0000 </r>
       <r>    1.4395    1.0000 </r>
       <r>    6.2459    0.0000 </r>
       <r>    6.2459    0.0000 </r>
       <r>   15.6161    0.0000 </r>
       <r>   15.6161    0.0000 </r>
      </set>
      <set comment="kpoint 37">
       <r>   -0.5890    1.0000 </r>
       <r>   -0.5890    1.0000 </r>
       <r>    0.0818    1.0000 </r>
       <r>    0.0818    1.0000 </r>
       <r>    0.4832    1.0000 </r>
       <r>    0.4833    1.0000 </r>
       <r>    1.2130    1.0000 </r>
       <r>    1.2130    1.0000 </r>
       <r>    1.2549    1.0000 </r>
       <r>    1.2549    1.0000 </r>
       <r>    2.7922    1.0000 </r>
       <r>    2.7922    1.0000 </r>
       <r>    8.4041    0.0000 </r>
       <r>    8.4041    0.0000 </r>
       <r>   15.5056    0.0000 </r>
       <r>   15.5056    0.0000 </r>
      </set>
      <set comment="kpoint 38">
       <r>   -0.8098    1.0000 </r>
       <r>   -0.8098    1.0000 </r>
       <r>   -0.1467    1.0000 </r>
       <r>   -0.1467    1.0000 </r>
       <r>    1.1040    1.0000 </r>
       <r>    1.1040    1.0000 </r>
       <r>    1.1426    1.0000 </r>
       <r>    1.1426    1.0000 </r>
       <r>    1.7152    1.0000 </r>
       <r>    1.7152    1.0000 </r>
       <r>    5.3626    0.0000 </r>
       <r>    5.3626    0.0000 </r>
       <r>   10.4906    0.0000 </r>
       <r>   10.4906    0.0000 </r>
       <r>   11.5800    0.0000 </r>
       <r>   11.5800    0.0000 </r>
      </set>
      <set comment="kpoint 39">
       <r>   -0.1151    1.0000 </r>
       <r>   -0.1151    1.0000 </r>
       <r>    0.0343    1.0000 </r>
       <r>    0.0343    1.0000 </r>
       <r>    0.4900    1.0000 </r>
       <r>    0.4900    1.0000 </r>
       <r>    0.8872    1.0000 </r>
       <r>    0.8872    1.0000 </r>
       <r>    1.2993    1.0000 </r>
       <r>    1.2993    1.0000 </r>
       <r>    5.4199    0.0000 </r>
       <r>    5.4199    0.0000 </r>
       <r>   10.9123    0.0000 </r>
       <r>   10.9123    0.0000 </r>
       <r>   13.8196    0.0000 </r>
       <r>   13.8196    0.0000 </r>
      </set>
      <set comment="kpoint 40">
       <r>   -0.1308    1.0000 </r>
       <r>   -0.1308    1.0000 </r>
       <r>    0.1059    1.0000 </r>
       <r>    0.1059    1.0000 </r>
       <r>    0.6504    1.0000 </r>
       <r>    0.6504    1.0000 </r>
       <r>    0.8490    1.0000 </r>
       <r>    0.8490    1.0000 </r>
       <r>    1.2002    1.0000 </r>
       <r>    1.2002    1.0000 </r>
       <r>    8.2972    0.0000 </r>
       <r>    8.2972    0.0000 </r>
       <r>   10.1459    0.0000 </r>
       <r>   10.1459    0.0000 </r>
       <r>   13.4473    0.0000 </r>
       <r>   13.4473    0.0000 </r>
      </set>
     </set>
     <set comment="spin 2">
      <set comment="kpoint 1">
       <r>   -2.7780    1.0000 </r>
       <r>   -2.1355    1.0000 </r>
       <r>    1.5598    1.0000 </r>
       <r>    2.2155    1.0000 </r>
       <r>    2.5475    1.0000 </r>
       <r>    2.5475    1.0000 </r>
       <r>    2.5487    1.0000 </r>
       <r>    2.5487    1.0000 </r>
       <r>    2.7624    1.0000 </r>
       <r>    3.9055    0.0000 </r>
       <r>    3.9055    0.0000 </r>
       <r>    3.9094    0.0000 </r>
       <r>    3.9094    0.0000 </r>
       <r>    6.7052    0.0000 </r>
       <r>   11.2605    0.0000 </r>
       <r>   18.8189    0.0000 </r>
      </set>
      <set comment="kpoint 2">
       <r>   -2.2085    1.0000 </r>
       <r>   -1.5639    1.0000 </r>
       <r>    1.7763    1.0000 </r>
       <r>    2.1040    1.0000 </r>
       <r>    2.3454    1.0000 </r>
       <r>    2.3508    1.0000 </r>
       <r>    2.8124    1.0000 </r>
       <r>    2.8138    1.0000 </r>
       <r>    2.8849    1.0000 </r>
       <r>    3.2978    0.0002 </r>
       <r>    3.8484    0.0000 </r>
       <r>    3.8553    0.0000 </r>
       <r>    4.3656    0.0000 </r>
       <r>    7.7571    0.0000 </r>
       <r>   11.5594    0.0000 </r>
       <r>   19.4988    0.0000 </r>
      </set>
      <set comment="kpoint 3">
       <r>   -0.7053    1.0000 </r>
       <r>   -0.1608    1.0000 </r>
       <r>    1.8384    1.0000 </r>
       <r>    1.9492    1.0000 </r>
       <r>    2.1480    1.0000 </r>
       <r>    2.4378    1.0000 </r>
       <r>    2.4429    1.0000 </r>
       <r>    3.2023    0.2061 </r>
       <r>    3.4965    0.0000 </r>
       <r>    3.4977    0.0000 </r>
       <r>    3.7130    0.0000 </r>
       <r>    3.7251    0.0000 </r>
       <r>    5.7618    0.0000 </r>
       <r>    9.9440    0.0000 </r>
       <r>   12.4905    0.0000 </r>
       <r>   18.2419    0.0000 </r>
      </set>
      <set comment="kpoint 4">
       <r>    0.3123    1.0000 </r>
       <r>    0.4243    1.0000 </r>
       <r>    1.5998    1.0000 </r>
       <r>    1.8545    1.0000 </r>
       <r>    2.8642    1.0000 </r>
       <r>    3.1658    0.5841 </r>
       <r>    3.2988    0.0002 </r>
       <r>    3.5802    0.0000 </r>
       <r>    3.5966    0.0000 </r>
       <r>    4.0411    0.0000 </r>
       <r>    4.2595    0.0000 </r>
       <r>    4.2602    0.0000 </r>
       <r>    8.0875    0.0000 </r>
       <r>   12.5505    0.0000 </r>
       <r>   12.7327    0.0000 </r>
       <r>   13.5010    0.0000 </r>
      </set>
      <set comment="kpoint 5">
       <r>    0.3339    1.0000 </r>
       <r>    0.3491    1.0000 </r>
       <r>    1.5238    1.0000 </r>
       <r>    1.6369    1.0000 </r>
       <r>    3.2624    0.0059 </r>
       <r>    3.4060    0.0000 </r>
       <r>    3.5259    0.0000 </r>
       <r>    3.5442    0.0000 </r>
       <r>    4.6051    0.0000 </r>
       <r>    4.6054    0.0000 </r>
       <r>    5.2623    0.0000 </r>
       <r>    5.6339    0.0000 </r>
       <r>   10.1017    0.0000 </r>
       <r>   10.7582    0.0000 </r>
       <r>   10.9580    0.0000 </r>
       <r>   11.8919    0.0000 </r>
      </set>
      <set comment="kpoint 6">
       <r>   -1.1386    1.0000 </r>
       <r>   -0.5176    1.0000 </r>
       <r>    1.9328    1.0000 </r>
       <r>    2.0041    1.0000 </r>
       <r>    2.0080    1.0000 </r>
       <r>    2.1539    1.0000 </r>
       <r>    2.6800    1.0000 </r>
       <r>    3.0968    0.9848 </r>
       <r>    3.3670    0.0000 </r>
       <r>    3.3879    0.0000 </r>
       <r>    3.7113    0.0000 </r>
       <r>    3.7188    0.0000 </r>
       <r>    5.3170    0.0000 </r>
       <r>    9.3076    0.0000 </r>
       <r>   12.1899    0.0000 </r>
       <r>   20.7952    0.0000 </r>
      </set>
      <set comment="kpoint 7">
       <r>    0.4425    1.0000 </r>
       <r>    0.7538    1.0000 </r>
       <r>    1.7460    1.0000 </r>
       <r>    1.8878    1.0000 </r>
       <r>    2.0360    1.0000 </r>
       <r>    2.1176    1.0000 </r>
       <r>    2.7448    1.0000 </r>
       <r>    3.3959    0.0000 </r>
       <r>    3.4789    0.0000 </r>
       <r>    3.4924    0.0000 </r>
       <r>    4.3608    0.0000 </r>
       <r>    4.5835    0.0000 </r>
       <r>    7.2169    0.0000 </r>
       <r>   11.7257    0.0000 </r>
       <r>   13.4438    0.0000 </r>
       <r>   15.8262    0.0000 </r>
      </set>
      <set comment="kpoint 8">
       <r>    0.6723    1.0000 </r>
       <r>    0.7031    1.0000 </r>
       <r>    1.6599    1.0000 </r>
       <r>    1.8065    1.0000 </r>
       <r>    3.1472    0.7701 </r>
       <r>    3.1810    0.4144 </r>
       <r>    3.2600    0.0071 </r>
       <r>    3.3049    0.0001 </r>
       <r>    3.3213    0.0000 </r>
       <r>    3.5844    0.0000 </r>
       <r>    5.9749    0.0000 </r>
       <r>    6.5523    0.0000 </r>
       <r>    9.9934    0.0000 </r>
       <r>   11.1513    0.0000 </r>
       <r>   12.1525    0.0000 </r>
       <r>   13.4272    0.0000 </r>
      </set>
      <set comment="kpoint 9">
       <r>    1.5003    1.0000 </r>
       <r>    1.5154    1.0000 </r>
       <r>    1.8346    1.0000 </r>
       <r>    1.8436    1.0000 </r>
       <r>    1.9962    1.0000 </r>
       <r>    2.0408    1.0000 </r>
       <r>    3.0211    1.0000 </r>
       <r>    3.0523    0.9997 </r>
       <r>    3.1809    0.4154 </r>
       <r>    3.4958    0.0000 </r>
       <r>    6.2047    0.0000 </r>
       <r>    6.9312    0.0000 </r>
       <r>    9.6447    0.0000 </r>
       <r>   13.9244    0.0000 </r>
       <r>   14.2293    0.0000 </r>
       <r>   14.2934    0.0000 </r>
      </set>
      <set comment="kpoint 10">
       <r>    1.4201    1.0000 </r>
       <r>    1.4284    1.0000 </r>
       <r>    2.0175    1.0000 </r>
       <r>    2.1002    1.0000 </r>
       <r>    2.3870    1.0000 </r>
       <r>    2.4354    1.0000 </r>
       <r>    2.7259    1.0000 </r>
       <r>    2.7593    1.0000 </r>
       <r>    3.3685    0.0000 </r>
       <r>    3.4342    0.0000 </r>
       <r>    8.7812    0.0000 </r>
       <r>    9.1532    0.0000 </r>
       <r>   10.8582    0.0000 </r>
       <r>   11.5319    0.0000 </r>
       <r>   12.5919    0.0000 </r>
       <r>   13.3878    0.0000 </r>
      </set>
      <set comment="kpoint 11">
       <r>   -2.7414    1.0000 </r>
       <r>   -2.1868    1.0000 </r>
       <r>    1.5722    1.0000 </r>
       <r>    2.0346    1.0000 </r>
       <r>    2.5475    1.0000 </r>
       <r>    2.5475    1.0000 </r>
       <r>    2.5486    1.0000 </r>
       <r>    2.5486    1.0000 </r>
       <r>    3.1065    0.9707 </r>
       <r>    3.9058    0.0000 </r>
       <r>    3.9058    0.0000 </r>
       <r>    3.9091    0.0000 </r>
       <r>    3.9091    0.0000 </r>
       <r>    6.3300    0.0000 </r>
       <r>   11.7603    0.0000 </r>
       <r>   17.8457    0.0000 </r>
      </set>
      <set comment="kpoint 12">
       <r>   -2.1720    1.0000 </r>
       <r>   -1.6157    1.0000 </r>
       <r>    1.7843    1.0000 </r>
       <r>    2.0432    1.0000 </r>
       <r>    2.3466    1.0000 </r>
       <r>    2.3507    1.0000 </r>
       <r>    2.8126    1.0000 </r>
       <r>    2.8137    1.0000 </r>
       <r>    2.9732    1.0000 </r>
       <r>    3.2913    0.0004 </r>
       <r>    3.8488    0.0000 </r>
       <r>    3.8548    0.0000 </r>
       <r>    4.5032    0.0000 </r>
       <r>    7.3375    0.0000 </r>
       <r>   12.1164    0.0000 </r>
       <r>   18.4294    0.0000 </r>
      </set>
      <set comment="kpoint 13">
       <r>   -0.6735    1.0000 </r>
       <r>   -0.2031    1.0000 </r>
       <r>    1.8492    1.0000 </r>
       <r>    1.9445    1.0000 </r>
       <r>    2.1547    1.0000 </r>
       <r>    2.3474    1.0000 </r>
       <r>    2.5503    1.0000 </r>
       <r>    3.1371    0.8471 </r>
       <r>    3.4966    0.0000 </r>
       <r>    3.4976    0.0000 </r>
       <r>    3.7139    0.0000 </r>
       <r>    3.7244    0.0000 </r>
       <r>    5.9713    0.0000 </r>
       <r>    9.3571    0.0000 </r>
       <r>   13.2069    0.0000 </r>
       <r>   18.2580    0.0000 </r>
      </set>
      <set comment="kpoint 14">
       <r>    0.3196    1.0000 </r>
       <r>    0.4165    1.0000 </r>
       <r>    1.6124    1.0000 </r>
       <r>    1.8296    1.0000 </r>
       <r>    2.9218    1.0000 </r>
       <r>    3.1700    0.5378 </r>
       <r>    3.3011    0.0002 </r>
       <r>    3.5814    0.0000 </r>
       <r>    3.5955    0.0000 </r>
       <r>    3.9478    0.0000 </r>
       <r>    4.2595    0.0000 </r>
       <r>    4.2601    0.0000 </r>
       <r>    8.2934    0.0000 </r>
       <r>   11.7157    0.0000 </r>
       <r>   13.0291    0.0000 </r>
       <r>   13.6633    0.0000 </r>
      </set>
      <set comment="kpoint 15">
       <r>    0.3348    1.0000 </r>
       <r>    0.3479    1.0000 </r>
       <r>    1.5300    1.0000 </r>
       <r>    1.6279    1.0000 </r>
       <r>    3.2766    0.0018 </r>
       <r>    3.4025    0.0000 </r>
       <r>    3.5270    0.0000 </r>
       <r>    3.5428    0.0000 </r>
       <r>    4.6051    0.0000 </r>
       <r>    4.6053    0.0000 </r>
       <r>    5.2763    0.0000 </r>
       <r>    5.5991    0.0000 </r>
       <r>   10.0963    0.0000 </r>
       <r>   10.5076    0.0000 </r>
       <r>   11.3119    0.0000 </r>
       <r>   11.9882    0.0000 </r>
      </set>
      <set comment="kpoint 16">
       <r>   -1.1034    1.0000 </r>
       <r>   -0.5676    1.0000 </r>
       <r>    1.9493    1.0000 </r>
       <r>    2.0043    1.0000 </r>
       <r>    2.0078    1.0000 </r>
       <r>    2.1388    1.0000 </r>
       <r>    2.7015    1.0000 </r>
       <r>    3.0542    0.9996 </r>
       <r>    3.3671    0.0000 </r>
       <r>    3.3819    0.0000 </r>
       <r>    3.7118    0.0000 </r>
       <r>    3.7183    0.0000 </r>
       <r>    5.5169    0.0000 </r>
       <r>    8.7746    0.0000 </r>
       <r>   12.8577    0.0000 </r>
       <r>   19.4893    0.0000 </r>
      </set>
      <set comment="kpoint 17">
       <r>    0.4621    1.0000 </r>
       <r>    0.7314    1.0000 </r>
       <r>    1.7569    1.0000 </r>
       <r>    1.8800    1.0000 </r>
       <r>    2.0385    1.0000 </r>
       <r>    2.1066    1.0000 </r>
       <r>    2.7850    1.0000 </r>
       <r>    3.3452    0.0000 </r>
       <r>    3.4801    0.0000 </r>
       <r>    3.4924    0.0000 </r>
       <r>    4.3658    0.0000 </r>
       <r>    4.5458    0.0000 </r>
       <r>    7.4342    0.0000 </r>
       <r>   10.9945    0.0000 </r>
       <r>   14.2602    0.0000 </r>
       <r>   15.8774    0.0000 </r>
      </set>
      <set comment="kpoint 18">
       <r>    0.6742    1.0000 </r>
       <r>    0.7009    1.0000 </r>
       <r>    1.6681    1.0000 </r>
       <r>    1.7945    1.0000 </r>
       <r>    3.1541    0.7067 </r>
       <r>    3.2016    0.2121 </r>
       <r>    3.2586    0.0079 </r>
       <r>    3.3091    0.0001 </r>
       <r>    3.3202    0.0000 </r>
       <r>    3.5617    0.0000 </r>
       <r>    5.9983    0.0000 </r>
       <r>    6.4894    0.0000 </r>
       <r>   10.1612    0.0000 </r>
       <r>   11.1760    0.0000 </r>
       <r>   12.0617    0.0000 </r>
       <r>   13.2455    0.0000 </r>
      </set>
      <set comment="kpoint 19">
       <r>    1.5013    1.0000 </r>
       <r>    1.5144    1.0000 </r>
       <r>    1.8350    1.0000 </r>
       <r>    1.8428    1.0000 </r>
       <r>    1.9988    1.0000 </r>
       <r>    2.0372    1.0000 </r>
       <r>    3.0229    1.0000 </r>
       <r>    3.0494    0.9998 </r>
       <r>    3.2037    0.1949 </r>
       <r>    3.4761    0.0000 </r>
       <r>    6.2325    0.0000 </r>
       <r>    6.8431    0.0000 </r>
       <r>    9.8686    0.0000 </r>
       <r>   13.3415    0.0000 </r>
       <r>   14.1164    0.0000 </r>
       <r>   14.2684    0.0000 </r>
      </set>
      <set comment="kpoint 20">
       <r>    1.4206    1.0000 </r>
       <r>    1.4277    1.0000 </r>
       <r>    2.0224    1.0000 </r>
       <r>    2.0935    1.0000 </r>
       <r>    2.3913    1.0000 </r>
       <r>    2.4327    1.0000 </r>
       <r>    2.7275    1.0000 </r>
       <r>    2.7564    1.0000 </r>
       <r>    3.3740    0.0000 </r>
       <r>    3.4310    0.0000 </r>
       <r>    8.8070    0.0000 </r>
       <r>    9.1323    0.0000 </r>
       <r>   10.8298    0.0000 </r>
       <r>   11.3453    0.0000 </r>
       <r>   12.8888    0.0000 </r>
       <r>   13.5473    0.0000 </r>
      </set>
      <set comment="kpoint 21">
       <r>   -2.6378    1.0000 </r>
       <r>   -2.3197    1.0000 </r>
       <r>    1.6127    1.0000 </r>
       <r>    1.8262    1.0000 </r>
       <r>    2.5477    1.0000 </r>
       <r>    2.5477    1.0000 </r>
       <r>    2.5484    1.0000 </r>
       <r>    2.5484    1.0000 </r>
       <r>    3.7777    0.0000 </r>
       <r>    3.9065    0.0000 </r>
       <r>    3.9065    0.0000 </r>
       <r>    3.9083    0.0000 </r>
       <r>    3.9083    0.0000 </r>
       <r>    5.5107    0.0000 </r>
       <r>   12.9538    0.0000 </r>
       <r>   16.1668    0.0000 </r>
      </set>
      <set comment="kpoint 22">
       <r>   -2.0683    1.0000 </r>
       <r>   -1.7493    1.0000 </r>
       <r>    1.8103    1.0000 </r>
       <r>    1.9397    1.0000 </r>
       <r>    2.3480    1.0000 </r>
       <r>    2.3501    1.0000 </r>
       <r>    2.8128    1.0000 </r>
       <r>    2.8135    1.0000 </r>
       <r>    3.1195    0.9360 </r>
       <r>    3.2682    0.0036 </r>
       <r>    3.8501    0.0000 </r>
       <r>    3.8535    0.0000 </r>
       <r>    4.9315    0.0000 </r>
       <r>    6.4879    0.0000 </r>
       <r>   13.3834    0.0000 </r>
       <r>   16.6867    0.0000 </r>
      </set>
      <set comment="kpoint 23">
       <r>   -0.5838    1.0000 </r>
       <r>   -0.3136    1.0000 </r>
       <r>    1.8758    1.0000 </r>
       <r>    1.9301    1.0000 </r>
       <r>    2.1758    1.0000 </r>
       <r>    2.2715    1.0000 </r>
       <r>    2.6787    1.0000 </r>
       <r>    2.9895    1.0000 </r>
       <r>    3.4968    0.0000 </r>
       <r>    3.4974    0.0000 </r>
       <r>    3.7160    0.0000 </r>
       <r>    3.7221    0.0000 </r>
       <r>    6.5374    0.0000 </r>
       <r>    8.3357    0.0000 </r>
       <r>   14.6177    0.0000 </r>
       <r>   17.8333    0.0000 </r>
      </set>
      <set comment="kpoint 24">
       <r>    0.3395    1.0000 </r>
       <r>    0.3955    1.0000 </r>
       <r>    1.6489    1.0000 </r>
       <r>    1.7706    1.0000 </r>
       <r>    3.0563    0.9995 </r>
       <r>    3.1751    0.4799 </r>
       <r>    3.3312    0.0000 </r>
       <r>    3.5843    0.0000 </r>
       <r>    3.5926    0.0000 </r>
       <r>    3.7232    0.0000 </r>
       <r>    4.2597    0.0000 </r>
       <r>    4.2600    0.0000 </r>
       <r>    8.8562    0.0000 </r>
       <r>   10.6576    0.0000 </r>
       <r>   13.2036    0.0000 </r>
       <r>   13.6167    0.0000 </r>
      </set>
      <set comment="kpoint 25">
       <r>    0.3372    1.0000 </r>
       <r>    0.3448    1.0000 </r>
       <r>    1.5485    1.0000 </r>
       <r>    1.6047    1.0000 </r>
       <r>    3.3129    0.0000 </r>
       <r>    3.3875    0.0000 </r>
       <r>    3.5303    0.0000 </r>
       <r>    3.5395    0.0000 </r>
       <r>    4.6051    0.0000 </r>
       <r>    4.6053    0.0000 </r>
       <r>    5.3234    0.0000 </r>
       <r>    5.5110    0.0000 </r>
       <r>   10.1020    0.0000 </r>
       <r>   10.2855    0.0000 </r>
       <r>   11.7932    0.0000 </r>
       <r>   12.1716    0.0000 </r>
      </set>
      <set comment="kpoint 26">
       <r>   -1.0036    1.0000 </r>
       <r>   -0.6964    1.0000 </r>
       <r>    1.9915    1.0000 </r>
       <r>    2.0050    1.0000 </r>
       <r>    2.0077    1.0000 </r>
       <r>    2.0993    1.0000 </r>
       <r>    2.7611    1.0000 </r>
       <r>    2.9559    1.0000 </r>
       <r>    3.3677    0.0000 </r>
       <r>    3.3738    0.0000 </r>
       <r>    3.7132    0.0000 </r>
       <r>    3.7169    0.0000 </r>
       <r>    6.0608    0.0000 </r>
       <r>    7.8014    0.0000 </r>
       <r>   14.2384    0.0000 </r>
       <r>   17.6581    0.0000 </r>
      </set>
      <set comment="kpoint 27">
       <r>    0.5165    1.0000 </r>
       <r>    0.6717    1.0000 </r>
       <r>    1.7856    1.0000 </r>
       <r>    1.8570    1.0000 </r>
       <r>    2.0466    1.0000 </r>
       <r>    2.0832    1.0000 </r>
       <r>    2.8947    1.0000 </r>
       <r>    3.2141    0.1244 </r>
       <r>    3.4829    0.0000 </r>
       <r>    3.4903    0.0000 </r>
       <r>    4.3828    0.0000 </r>
       <r>    4.4740    0.0000 </r>
       <r>    8.0205    0.0000 </r>
       <r>    9.8875    0.0000 </r>
       <r>   15.4928    0.0000 </r>
       <r>   16.0223    0.0000 </r>
      </set>
      <set comment="kpoint 28">
       <r>    0.6795    1.0000 </r>
       <r>    0.6950    1.0000 </r>
       <r>    1.6914    1.0000 </r>
       <r>    1.7637    1.0000 </r>
       <r>    3.1722    0.5131 </r>
       <r>    3.2156    0.1157 </r>
       <r>    3.2841    0.0009 </r>
       <r>    3.3159    0.0000 </r>
       <r>    3.3320    0.0000 </r>
       <r>    3.4981    0.0000 </r>
       <r>    6.0697    0.0000 </r>
       <r>    6.3439    0.0000 </r>
       <r>   10.5842    0.0000 </r>
       <r>   11.2041    0.0000 </r>
       <r>   11.9306    0.0000 </r>
       <r>   12.6758    0.0000 </r>
      </set>
      <set comment="kpoint 29">
       <r>    1.5042    1.0000 </r>
       <r>    1.5116    1.0000 </r>
       <r>    1.8362    1.0000 </r>
       <r>    1.8409    1.0000 </r>
       <r>    2.0062    1.0000 </r>
       <r>    2.0281    1.0000 </r>
       <r>    3.0275    1.0000 </r>
       <r>    3.0426    0.9999 </r>
       <r>    3.2644    0.0050 </r>
       <r>    3.4214    0.0000 </r>
       <r>    6.3174    0.0000 </r>
       <r>    6.6518    0.0000 </r>
       <r>   10.4606    0.0000 </r>
       <r>   12.2876    0.0000 </r>
       <r>   14.2302    0.0000 </r>
       <r>   14.3613    0.0000 </r>
      </set>
      <set comment="kpoint 30">
       <r>    1.4219    1.0000 </r>
       <r>    1.4260    1.0000 </r>
       <r>    2.0360    1.0000 </r>
       <r>    2.0764    1.0000 </r>
       <r>    2.4020    1.0000 </r>
       <r>    2.4253    1.0000 </r>
       <r>    2.7324    1.0000 </r>
       <r>    2.7490    1.0000 </r>
       <r>    3.3884    0.0000 </r>
       <r>    3.4213    0.0000 </r>
       <r>    8.8785    0.0000 </r>
       <r>    9.0699    0.0000 </r>
       <r>   10.8045    0.0000 </r>
       <r>   11.0627    0.0000 </r>
       <r>   13.4628    0.0000 </r>
       <r>   13.8742    0.0000 </r>
      </set>
      <set comment="kpoint 31">
       <r>   -2.4859    1.0000 </r>
       <r>   -2.4859    1.0000 </r>
       <r>    1.6913    1.0000 </r>
       <r>    1.6913    1.0000 </r>
       <r>    2.5479    1.0000 </r>
       <r>    2.5479    1.0000 </r>
       <r>    2.5479    1.0000 </r>
       <r>    2.5479    1.0000 </r>
       <r>    3.9073    0.0000 </r>
       <r>    3.9073    0.0000 </r>
       <r>    3.9073    0.0000 </r>
       <r>    3.9073    0.0000 </r>
       <r>    4.6068    0.0000 </r>
       <r>    4.6068    0.0000 </r>
       <r>   14.4802    0.0000 </r>
       <r>   14.4802    0.0000 </r>
      </set>
      <set comment="kpoint 32">
       <r>   -1.9161    1.0000 </r>
       <r>   -1.9161    1.0000 </r>
       <r>    1.8598    1.0000 </r>
       <r>    1.8598    1.0000 </r>
       <r>    2.3492    1.0000 </r>
       <r>    2.3492    1.0000 </r>
       <r>    2.8131    1.0000 </r>
       <r>    2.8131    1.0000 </r>
       <r>    3.2176    0.1052 </r>
       <r>    3.2176    0.1052 </r>
       <r>    3.8518    0.0000 </r>
       <r>    3.8518    0.0000 </r>
       <r>    5.6263    0.0000 </r>
       <r>    5.6263    0.0000 </r>
       <r>   14.9586    0.0000 </r>
       <r>   14.9586    0.0000 </r>
      </set>
      <set comment="kpoint 33">
       <r>   -0.4538    1.0000 </r>
       <r>   -0.4538    1.0000 </r>
       <r>    1.9060    1.0000 </r>
       <r>    1.9060    1.0000 </r>
       <r>    2.2143    1.0000 </r>
       <r>    2.2143    1.0000 </r>
       <r>    2.8270    1.0000 </r>
       <r>    2.8270    1.0000 </r>
       <r>    3.4971    0.0000 </r>
       <r>    3.4972    0.0000 </r>
       <r>    3.7192    0.0000 </r>
       <r>    3.7192    0.0000 </r>
       <r>    7.3545    0.0000 </r>
       <r>    7.3545    0.0000 </r>
       <r>   16.2434    0.0000 </r>
       <r>   16.2434    0.0000 </r>
      </set>
      <set comment="kpoint 34">
       <r>    0.3672    1.0000 </r>
       <r>    0.3672    1.0000 </r>
       <r>    1.7046    1.0000 </r>
       <r>    1.7046    1.0000 </r>
       <r>    3.1532    0.7156 </r>
       <r>    3.1532    0.7156 </r>
       <r>    3.4768    0.0000 </r>
       <r>    3.4768    0.0000 </r>
       <r>    3.5884    0.0000 </r>
       <r>    3.5884    0.0000 </r>
       <r>    4.2598    0.0000 </r>
       <r>    4.2598    0.0000 </r>
       <r>    9.6735    0.0000 </r>
       <r>    9.6735    0.0000 </r>
       <r>   13.4086    0.0000 </r>
       <r>   13.4086    0.0000 </r>
      </set>
      <set comment="kpoint 35">
       <r>    0.3409    1.0000 </r>
       <r>    0.3409    1.0000 </r>
       <r>    1.5754    1.0000 </r>
       <r>    1.5754    1.0000 </r>
       <r>    3.3555    0.0000 </r>
       <r>    3.3555    0.0000 </r>
       <r>    3.5349    0.0000 </r>
       <r>    3.5349    0.0000 </r>
       <r>    4.6052    0.0000 </r>
       <r>    4.6052    0.0000 </r>
       <r>    5.4070    0.0000 </r>
       <r>    5.4070    0.0000 </r>
       <r>   10.1560    0.0000 </r>
       <r>   10.1560    0.0000 </r>
       <r>   12.1530    0.0000 </r>
       <r>   12.1530    0.0000 </r>
      </set>
      <set comment="kpoint 36">
       <r>   -0.8571    1.0000 </r>
       <r>   -0.8571    1.0000 </r>
       <r>    2.0059    1.0000 </r>
       <r>    2.0059    1.0000 </r>
       <r>    2.0466    1.0000 </r>
       <r>    2.0466    1.0000 </r>
       <r>    2.8498    1.0000 </r>
       <r>    2.8498    1.0000 </r>
       <r>    3.3695    0.0000 </r>
       <r>    3.3695    0.0000 </r>
       <r>    3.7150    0.0000 </r>
       <r>    3.7150    0.0000 </r>
       <r>    6.8515    0.0000 </r>
       <r>    6.8515    0.0000 </r>
       <r>   15.8786    0.0000 </r>
       <r>   15.8786    0.0000 </r>
      </set>
      <set comment="kpoint 37">
       <r>    0.5928    1.0000 </r>
       <r>    0.5928    1.0000 </r>
       <r>    1.8227    1.0000 </r>
       <r>    1.8227    1.0000 </r>
       <r>    2.0614    1.0000 </r>
       <r>    2.0614    1.0000 </r>
       <r>    3.0486    0.9998 </r>
       <r>    3.0486    0.9998 </r>
       <r>    3.4867    0.0000 </r>
       <r>    3.4867    0.0000 </r>
       <r>    4.4168    0.0000 </r>
       <r>    4.4168    0.0000 </r>
       <r>    8.8656    0.0000 </r>
       <r>    8.8656    0.0000 </r>
       <r>   16.0566    0.0000 </r>
       <r>   16.0566    0.0000 </r>
      </set>
      <set comment="kpoint 38">
       <r>    0.6871    1.0000 </r>
       <r>    0.6871    1.0000 </r>
       <r>    1.7257    1.0000 </r>
       <r>    1.7257    1.0000 </r>
       <r>    3.1958    0.2621 </r>
       <r>    3.1958    0.2620 </r>
       <r>    3.3068    0.0001 </r>
       <r>    3.3068    0.0001 </r>
       <r>    3.4092    0.0000 </r>
       <r>    3.4092    0.0000 </r>
       <r>    6.1894    0.0000 </r>
       <r>    6.1894    0.0000 </r>
       <r>   11.0286    0.0000 </r>
       <r>   11.0286    0.0000 </r>
       <r>   12.1018    0.0000 </r>
       <r>   12.1018    0.0000 </r>
      </set>
      <set comment="kpoint 39">
       <r>    1.5078    1.0000 </r>
       <r>    1.5078    1.0000 </r>
       <r>    1.8383    1.0000 </r>
       <r>    1.8383    1.0000 </r>
       <r>    2.0166    1.0000 </r>
       <r>    2.0166    1.0000 </r>
       <r>    3.0344    1.0000 </r>
       <r>    3.0344    1.0000 </r>
       <r>    3.3442    0.0000 </r>
       <r>    3.3442    0.0000 </r>
       <r>    6.4607    0.0000 </r>
       <r>    6.4607    0.0000 </r>
       <r>   11.2958    0.0000 </r>
       <r>   11.2958    0.0000 </r>
       <r>   14.3739    0.0000 </r>
       <r>   14.3739    0.0000 </r>
      </set>
      <set comment="kpoint 40">
       <r>    1.4239    1.0000 </r>
       <r>    1.4239    1.0000 </r>
       <r>    2.0554    1.0000 </r>
       <r>    2.0554    1.0000 </r>
       <r>    2.4144    1.0000 </r>
       <r>    2.4144    1.0000 </r>
       <r>    2.7402    1.0000 </r>
       <r>    2.7402    1.0000 </r>
       <r>    3.4060    0.0000 </r>
       <r>    3.4060    0.0000 </r>
       <r>    8.9762    0.0000 </r>
       <r>    8.9762    0.0000 </r>
       <r>   10.8714    0.0000 </r>
       <r>   10.8714    0.0000 </r>
       <r>   13.9789    0.0000 </r>
       <r>   13.9789    0.0000 </r>
      </set>
     </set>
    </set>
   </array>
  </eigenvalues>
  <separator name="orbital magnetization" >
   <v name="MAGDIPOLOUT">      0.00000000      0.00000000      0.00000000</v>
  </separator>
  <dos>
   <i name="efermi">      3.17332546 </i>
   <total>
    <array>
     <dimension dim="1">gridpoints</dimension>
     <dimension dim="2">spin</dimension>
     <field>energy</field>
     <field>total</field>
     <field>integrated</field>
     <set>
      <set comment="spin 1">
       <r>    -4.3096     0.0000     0.0000 </r>
       <r>    -4.2220     0.0000     0.0000 </r>
       <r>    -4.1343     0.0000     0.0000 </r>
       <r>    -4.0466     0.0000     0.0000 </r>
       <r>    -3.9590     0.0000     0.0000 </r>
       <r>    -3.8713     0.0000     0.0000 </r>
       <r>    -3.7836     0.0000     0.0000 </r>
       <r>    -3.6960     0.0000     0.0000 </r>
       <r>    -3.6083     0.0000     0.0000 </r>
       <r>    -3.5206     0.0000     0.0000 </r>
       <r>    -3.4330     0.0000     0.0000 </r>
       <r>    -3.3453     0.0000     0.0000 </r>
       <r>    -3.2576     0.0000     0.0000 </r>
       <r>    -3.1699     0.0022     0.0002 </r>
       <r>    -3.0823     0.0546     0.0050 </r>
       <r>    -2.9946     0.0687     0.0110 </r>
       <r>    -2.9069     0.0431     0.0148 </r>
       <r>    -2.8193     0.0448     0.0187 </r>
       <r>    -2.7316     0.0552     0.0235 </r>
       <r>    -2.6439     0.0724     0.0299 </r>
       <r>    -2.5563     0.1634     0.0442 </r>
       <r>    -2.4686     0.4626     0.0848 </r>
       <r>    -2.3809     0.3128     0.1122 </r>
       <r>    -2.2933     0.3029     0.1388 </r>
       <r>    -2.2056     0.3087     0.1658 </r>
       <r>    -2.1179     0.4451     0.2048 </r>
       <r>    -2.0303     0.1574     0.2186 </r>
[...]
       <r>    14.2759     0.0557    15.3467 </r>
       <r>    14.3636     0.2466    15.3683 </r>
       <r>    14.4513     0.1058    15.3776 </r>
       <r>    14.5390     0.0005    15.3776 </r>
       <r>    14.6266     0.0052    15.3781 </r>
       <r>    14.7143     0.2152    15.3969 </r>
       <r>    14.8020     0.1351    15.4088 </r>
       <r>    14.8896     0.0010    15.4089 </r>
       <r>    14.9773     0.0084    15.4096 </r>
       <r>    15.0650     0.4086    15.4454 </r>
       <r>    15.1526     0.2934    15.4711 </r>
       <r>    15.2403     0.0089    15.4719 </r>
       <r>    15.3280     0.3242    15.5003 </r>
       <r>    15.4156     0.6880    15.5606 </r>
       <r>    15.5033     0.7069    15.6226 </r>
       <r>    15.5910     0.8424    15.6965 </r>
       <r>    15.6786     0.2701    15.7202 </r>
       <r>    15.7663     0.0137    15.7214 </r>
       <r>    15.8540     0.0007    15.7214 </r>
       <r>    15.9416     0.1355    15.7333 </r>
       <r>    16.0293     0.2706    15.7570 </r>
       <r>    16.1170     0.0091    15.7578 </r>
       <r>    16.2046     0.0000    15.7578 </r>
       <r>    16.2923     0.0000    15.7578 </r>
       <r>    16.3800     0.0017    15.7580 </r>
       <r>    16.4676     0.1604    15.7720 </r>
       <r>    16.5553     0.1912    15.7888 </r>
       <r>    16.6430     0.0032    15.7891 </r>
       <r>    16.7306     0.0000    15.7891 </r>
       <r>    16.8183     0.0000    15.7891 </r>
       <r>    16.9060     0.0000    15.7891 </r>
       <r>    16.9937     0.0000    15.7891 </r>
       <r>    17.0813     0.0000    15.7891 </r>
       <r>    17.1690     0.0000    15.7891 </r>
       <r>    17.2567     0.0000    15.7891 </r>
       <r>    17.3443     0.0113    15.7901 </r>
       <r>    17.4320     0.4084    15.8259 </r>
       <r>    17.5197     0.2899    15.8513 </r>
       <r>    17.6073     0.0034    15.8516 </r>
       <r>    17.6950     0.0280    15.8540 </r>
       <r>    17.7827     0.4077    15.8898 </r>
       <r>    17.8703     0.1577    15.9036 </r>
       <r>    17.9580     0.0007    15.9036 </r>
       <r>    18.0457     0.0000    15.9036 </r>
       <r>    18.1333     0.0000    15.9036 </r>
       <r>    18.2210     0.0193    15.9053 </r>
       <r>    18.3087     0.2690    15.9289 </r>
       <r>    18.3963     0.0681    15.9349 </r>
       <r>    18.4840     0.0001    15.9349 </r>
       <r>    18.5717     0.0000    15.9349 </r>
       <r>    18.6593     0.0000    15.9349 </r>
       <r>    18.7470     0.0024    15.9351 </r>
       <r>    18.8347     0.0231    15.9371 </r>
       <r>    18.9223     0.0041    15.9375 </r>
       <r>    19.0100     0.0000    15.9375 </r>
       <r>    19.0977     0.0000    15.9375 </r>
       <r>    19.1853     0.0031    15.9378 </r>
       <r>    19.2730     0.1890    15.9543 </r>
       <r>    19.3607     0.1637    15.9687 </r>
       <r>    19.4483     0.0883    15.9764 </r>
       <r>    19.5360     0.0894    15.9843 </r>
       <r>    19.6237     0.0012    15.9844 </r>
       <r>    19.7114     0.0000    15.9844 </r>
       <r>    19.7990     0.0000    15.9844 </r>
       <r>    19.8867     0.0000    15.9844 </r>
       <r>    19.9744     0.0000    15.9844 </r>
       <r>    20.0620     0.0000    15.9844 </r>
       <r>    20.1497     0.0000    15.9844 </r>
       <r>    20.2374     0.0000    15.9844 </r>
       <r>    20.3250     0.0000    15.9844 </r>
       <r>    20.4127     0.0000    15.9844 </r>
       <r>    20.5004     0.0000    15.9844 </r>
       <r>    20.5880     0.0001    15.9844 </r>
       <r>    20.6757     0.0363    15.9876 </r>
       <r>    20.7634     0.1330    15.9992 </r>
       <r>    20.8510     0.0087    16.0000 </r>
       <r>    20.9387     0.0000    16.0000 </r>
       <r>    21.0264     0.0000    16.0000 </r>
       <r>    21.1140     0.0000    16.0000 </r>
       <r>    21.2017     0.0000    16.0000 </r>
       <r>    21.2894     0.0000    16.0000 </r>
       <r>    21.3770     0.0000    16.0000 </r>
       <r>    21.4647     0.0000    16.0000 </r>
       <r>    21.5524     0.0000    16.0000 </r>
       <r>    21.6400     0.0000    16.0000 </r>
       <r>    21.7277     0.0000    16.0000 </r>
       <r>    21.8154     0.0000    16.0000 </r>
       <r>    21.9030     0.0000    16.0000 </r>
       <r>    21.9907     0.0000    16.0000 </r>
      </set>
      <set comment="spin 2">
       <r>    -4.3096     0.0000     0.0000 </r>
       <r>    -4.2220     0.0000     0.0000 </r>
       <r>    -4.1343     0.0000     0.0000 </r>
       <r>    -4.0466     0.0000     0.0000 </r>
       <r>    -3.9590     0.0000     0.0000 </r>
       <r>    -3.8713     0.0000     0.0000 </r>
       <r>    -3.7836     0.0000     0.0000 </r>
       <r>    -3.6960     0.0000     0.0000 </r>
       <r>    -3.6083     0.0000     0.0000 </r>
       <r>    -3.5206     0.0000     0.0000 </r>
       <r>    -3.4330     0.0000     0.0000 </r>
       <r>    -3.3453     0.0000     0.0000 </r>
       <r>    -3.2576     0.0000     0.0000 </r>
       <r>    -3.1699     0.0000     0.0000 </r>
       <r>    -3.0823     0.0000     0.0000 </r>
       <r>    -2.9946     0.0000     0.0000 </r>
       <r>    -2.9069     0.0000     0.0000 </r>
       <r>    -2.8193     0.0044     0.0004 </r>
       <r>    -2.7316     0.0589     0.0056 </r>
       <r>    -2.6439     0.0512     0.0100 </r>
       <r>    -2.5563     0.0347     0.0131 </r>
       <r>    -2.4686     0.0401     0.0166 </r>
       <r>    -2.3809     0.0209     0.0184 </r>
       <r>    -2.2933     0.0452     0.0224 </r>
       <r>    -2.2056     0.1862     0.0387 </r>
       <r>    -2.1179     0.4439     0.0776 </r>
       <r>    -2.0303     0.3119     0.1050 </r>
       <r>    -1.9426     0.1310     0.1165 </r>
       <r>    -1.8549     0.2612     0.1394 </r>
       <r>    -1.7673     0.1233     0.1502 </r>
       <r>    -1.6796     0.2516     0.1722 </r>
       <r>    -1.5919     0.3011     0.1986 </r>
       <r>    -1.5043     0.2211     0.2180 </r>
       <r>    -1.4166     0.0085     0.2187 </r>
       <r>    -1.3289     0.0000     0.2188 </r>
       <r>    -1.2413     0.0003     0.2188 </r>
       <r>    -1.1536     0.0874     0.2264 </r>
       <r>    -1.0659     0.4059     0.2620 </r>
       <r>    -0.9783     0.3132     0.2895 </r>
       <r>    -0.8906     0.1454     0.3022 </r>
       <r>    -0.8029     0.2741     0.3263 </r>
       <r>    -0.7152     0.2390     0.3472 </r>
       <r>    -0.6276     0.6819     0.4070 </r>
       <r>    -0.5399     0.6387     0.4630 </r>
       <r>    -0.4522     0.4225     0.5000 </r>
       <r>    -0.3646     0.2024     0.5178 </r>
       <r>    -0.2769     0.2852     0.5428 </r>
       <r>    -0.1892     0.3169     0.5706 </r>
       <r>    -0.1016     0.2555     0.5930 </r>
       <r>    -0.0139     0.0091     0.5937 </r>
       <r>     0.0738     0.0000     0.5937 </r>
       <r>     0.1614     0.0000     0.5938 </r>
       <r>     0.2491     0.0222     0.5957 </r>
       <r>     0.3368     1.0989     0.6920 </r>
       <r>     0.4244     1.9589     0.8638 </r>
       <r>     0.5121     1.4589     0.9917 </r>
       <r>     0.5998     0.9095     1.0714 </r>
       <r>     0.6874     2.9589     1.3308 </r>
       <r>     0.7751     3.1421     1.6063 </r>
       <r>     0.8628     0.2134     1.6250 </r>
       <r>     0.9504     0.0004     1.6250 </r>
       <r>     1.0381     0.0000     1.6250 </r>
       <r>     1.1258     0.0000     1.6250 </r>
       <r>     1.2134     0.0000     1.6250 </r>
       <r>     1.3011     0.0006     1.6250 </r>
       <r>     1.3888     0.3425     1.6551 </r>
       <r>     1.4764     2.0767     1.8371 </r>
       <r>     1.5641     2.2867     2.0376 </r>
       <r>     1.6518     1.8684     2.2014 </r>
       <r>     1.7394     3.1522     2.4778 </r>
       <r>     1.8271     5.7277     2.9799 </r>
       <r>     1.9148     5.4218     3.4552 </r>
       <r>     2.0025     4.3560     3.8371 </r>
       <r>     2.0901     7.5339     4.4976 </r>
       <r>     2.1778     3.3611     4.7922 </r>
       <r>     2.2655     0.9123     4.8722 </r>
       <r>     2.3531     1.7219     5.0232 </r>
       <r>     2.4408     2.7802     5.2669 </r>
       <r>     2.5285     0.9956     5.3542 </r>
       <r>     2.6161     0.7654     5.4213 </r>
       <r>     2.7038     1.0098     5.5098 </r>
       <r>     2.7915     3.5309     5.8194 </r>
       <r>     2.8791     3.1153     6.0925 </r>
       <r>     2.9668     1.6063     6.2333 </r>
       <r>     3.0545     2.8456     6.4828 </r>
       <r>     3.1421     3.0447     6.7497 </r>
       <r>     3.2298     5.8340     7.2611 </r>
       <r>     3.3175     6.8191     7.8590 </r>
       <r>     3.4051     7.4745     8.5142 </r>
       <r>     3.4928     6.8182     9.1120 </r>
       <r>     3.5805     6.0811     9.6451 </r>
       <r>     3.6681     2.1716     9.8355 </r>
       <r>     3.7558     3.6513    10.1556 </r>
       <r>     3.8435     1.5843    10.2945 </r>
       <r>     3.9311     1.8661    10.4581 </r>
       <r>     4.0188     0.4874    10.5008 </r>
       <r>     4.1065     0.1339    10.5125 </r>
       <r>     4.1941     0.0733    10.5190 </r>
       <r>     4.2818     1.5142    10.6517 </r>
       <r>     4.3695     1.5680    10.7892 </r>
       <r>     4.4572     1.8182    10.9486 </r>
       <r>     4.5448     1.3016    11.0627 </r>
       <r>     4.6325     1.5259    11.1964 </r>
       <r>     4.7202     0.2835    11.2213 </r>
       <r>     4.8078     0.0008    11.2214 </r>
       <r>     4.8955     0.0549    11.2262 </r>
       <r>     4.9832     0.2758    11.2504 </r>
       <r>     5.0708     0.0256    11.2526 </r>
       <r>     5.1585     0.0002    11.2526 </r>
       <r>     5.2462     0.0703    11.2588 </r>
       <r>     5.3338     0.4205    11.2957 </r>
       <r>     5.4215     0.2521    11.3178 </r>
       <r>     5.5092     0.3212    11.3459 </r>
       <r>     5.5968     0.4956    11.3894 </r>
       <r>     5.6845     0.4367    11.4276 </r>
       <r>     5.7722     0.1330    11.4393 </r>
       <r>     5.8598     0.0686    11.4453 </r>
       <r>     5.9475     0.2218    11.4648 </r>
       <r>     6.0352     1.2705    11.5761 </r>
       <r>     6.1228     0.9646    11.6607 </r>
       <r>     6.2105     0.7513    11.7266 </r>
       <r>     6.2982     0.7071    11.7886 </r>
       <r>     6.3858     0.8674    11.8646 </r>
       <r>     6.4735     0.6896    11.9251 </r>
       <r>     6.5612     1.2851    12.0377 </r>
       <r>     6.6488     0.4194    12.0745 </r>
       <r>     6.7365     0.2116    12.0931 </r>
       <r>     6.8242     0.1921    12.1099 </r>
       <r>     6.9119     0.5558    12.1586 </r>
       <r>     6.9995     0.1463    12.1715 </r>
       <r>     7.0872     0.0048    12.1719 </r>
       <r>     7.1749     0.0417    12.1755 </r>
       <r>     7.2625     0.2873    12.2007 </r>
       <r>     7.3502     0.4225    12.2378 </r>
       <r>     7.4379     0.6993    12.2991 </r>
       <r>     7.5255     0.3280    12.3278 </r>
       <r>     7.6132     0.0035    12.3281 </r>
       <r>     7.7009     0.0107    12.3291 </r>
       <r>     7.7885     0.2617    12.3520 </r>
       <r>     7.8762     0.2561    12.3745 </r>
       <r>     7.9639     0.0452    12.3784 </r>
       <r>     8.0515     0.5661    12.4281 </r>
       <r>     8.1392     0.2729    12.4520 </r>
       <r>     8.2269     0.0241    12.4541 </r>
       <r>     8.3145     0.3452    12.4844 </r>
       <r>     8.4022     0.3456    12.5147 </r>
       <r>     8.4899     0.0111    12.5156 </r>
       <r>     8.5775     0.0000    12.5156 </r>
       <r>     8.6652     0.0005    12.5157 </r>
       <r>     8.7529     0.1570    12.5294 </r>
       <r>     8.8405     0.9917    12.6164 </r>
       <r>     8.9282     1.1358    12.7159 </r>
       <r>     9.0159     0.3646    12.7479 </r>
       <r>     9.1035     0.4079    12.7837 </r>
       <r>     9.1912     0.4649    12.8244 </r>
       <r>     9.2789     0.0841    12.8318 </r>
       <r>     9.3666     0.3437    12.8619 </r>
       <r>     9.4542     0.1481    12.8749 </r>
       <r>     9.5419     0.0014    12.8750 </r>
       <r>     9.6296     0.0975    12.8836 </r>
       <r>     9.7172     0.3948    12.9182 </r>
       <r>     9.8049     0.0617    12.9236 </r>
       <r>     9.8926     0.6588    12.9813 </r>
       <r>     9.9802     0.6651    13.0397 </r>
       <r>    10.0679     0.3409    13.0695 </r>
       <r>    10.1556     0.7396    13.1344 </r>
       <r>    10.2432     0.5291    13.1808 </r>
       <r>    10.3309     0.1483    13.1938 </r>
       <r>    10.4186     0.0605    13.1991 </r>
       <r>    10.5062     0.3746    13.2319 </r>
       <r>    10.5939     0.5621    13.2812 </r>
       <r>    10.6816     0.5352    13.3281 </r>
       <r>    10.7692     0.2185    13.3473 </r>
       <r>    10.8569     0.7771    13.4154 </r>
       <r>    10.9446     0.5161    13.4606 </r>
       <r>    11.0322     1.0684    13.5543 </r>
       <r>    11.1199     0.8079    13.6251 </r>
       <r>    11.2076     1.2153    13.7317 </r>
       <r>    11.2952     0.7580    13.7981 </r>
       <r>    11.3829     0.5816    13.8491 </r>
       <r>    11.4706     0.0660    13.8549 </r>
       <r>    11.5582     0.2160    13.8738 </r>
       <r>    11.6459     0.1436    13.8864 </r>
       <r>    11.7336     0.4666    13.9273 </r>
       <r>    11.8212     0.4327    13.9653 </r>
       <r>    11.9089     0.2950    13.9911 </r>
       <r>    11.9966     0.6548    14.0485 </r>
       <r>    12.0843     0.8969    14.1272 </r>
       <r>    12.1719     1.4394    14.2534 </r>
       <r>    12.2596     0.4773    14.2952 </r>
       <r>    12.3473     0.2700    14.3189 </r>
       <r>    12.4349     0.0268    14.3212 </r>
       <r>    12.5226     0.1781    14.3368 </r>
       <r>    12.6103     0.3068    14.3637 </r>
       <r>    12.6979     0.5914    14.4156 </r>
       <r>    12.7856     0.3344    14.4449 </r>
       <r>    12.8733     0.3619    14.4766 </r>
       <r>    12.9609     0.3917    14.5110 </r>
       <r>    13.0486     0.2760    14.5352 </r>
       <r>    13.1363     0.1224    14.5459 </r>
       <r>    13.2239     0.6748    14.6051 </r>
       <r>    13.3116     0.7923    14.6745 </r>
       <r>    13.3993     0.8984    14.7533 </r>
       <r>    13.4869     1.2864    14.8660 </r>
       <r>    13.5746     0.5689    14.9159 </r>
       <r>    13.6623     0.5336    14.9627 </r>
       <r>    13.7499     0.2151    14.9816 </r>
       <r>    13.8376     0.0573    14.9866 </r>
       <r>    13.9253     0.3891    15.0207 </r>
       <r>    14.0129     0.3869    15.0546 </r>
       <r>    14.1006     0.1769    15.0701 </r>
       <r>    14.1883     0.3436    15.1002 </r>
       <r>    14.2759     1.4316    15.2257 </r>
       <r>    14.3636     0.9217    15.3065 </r>
       <r>    14.4513     0.3999    15.3416 </r>
       <r>    14.5390     0.0559    15.3465 </r>
       <r>    14.6266     0.2120    15.3651 </r>
       <r>    14.7143     0.1416    15.3775 </r>
       <r>    14.8020     0.0011    15.3776 </r>
       <r>    14.8896     0.0091    15.3784 </r>
       <r>    14.9773     0.2411    15.3995 </r>
       <r>    15.0650     0.1058    15.4088 </r>
       <r>    15.1526     0.0005    15.4089 </r>
       <r>    15.2403     0.0000    15.4089 </r>
       <r>    15.3280     0.0000    15.4089 </r>
       <r>    15.4156     0.0103    15.4098 </r>
       <r>    15.5033     0.4292    15.4474 </r>
       <r>    15.5910     0.2714    15.4712 </r>
       <r>    15.6786     0.0020    15.4714 </r>
       <r>    15.7663     0.0169    15.4728 </r>
       <r>    15.8540     0.5301    15.5193 </r>
       <r>    15.9416     0.8491    15.5937 </r>
       <r>    16.0293     0.5989    15.6463 </r>
       <r>    16.1170     0.8276    15.7188 </r>
       <r>    16.2046     0.1287    15.7301 </r>
       <r>    16.2923     0.2866    15.7552 </r>
       <r>    16.3800     0.0296    15.7578 </r>
       <r>    16.4676     0.0000    15.7578 </r>
       <r>    16.5553     0.0000    15.7578 </r>
       <r>    16.6430     0.0385    15.7612 </r>
       <r>    16.7306     0.2798    15.7857 </r>
       <r>    16.8183     0.0381    15.7891 </r>
       <r>    16.9060     0.0000    15.7891 </r>
       <r>    16.9937     0.0000    15.7891 </r>
       <r>    17.0813     0.0000    15.7891 </r>
       <r>    17.1690     0.0000    15.7891 </r>
       <r>    17.2567     0.0000    15.7891 </r>
       <r>    17.3443     0.0000    15.7891 </r>
       <r>    17.4320     0.0000    15.7891 </r>
       <r>    17.5197     0.0000    15.7891 </r>
       <r>    17.6073     0.0270    15.7914 </r>
       <r>    17.6950     0.2767    15.8157 </r>
       <r>    17.7827     0.0820    15.8229 </r>
       <r>    17.8703     0.3197    15.8509 </r>
       <r>    17.9580     0.0668    15.8568 </r>
       <r>    18.0457     0.0001    15.8568 </r>
       <r>    18.1333     0.0003    15.8568 </r>
       <r>    18.2210     0.1016    15.8657 </r>
       <r>    18.3087     0.4005    15.9008 </r>
       <r>    18.3963     0.0947    15.9091 </r>
       <r>    18.4840     0.2723    15.9330 </r>
       <r>    18.5717     0.0218    15.9349 </r>
       <r>    18.6593     0.0000    15.9349 </r>
       <r>    18.7470     0.0006    15.9350 </r>
       <r>    18.8347     0.0193    15.9366 </r>
       <r>    18.9223     0.0097    15.9375 </r>
       <r>    19.0100     0.0001    15.9375 </r>
       <r>    19.0977     0.0000    15.9375 </r>
       <r>    19.1853     0.0000    15.9375 </r>
       <r>    19.2730     0.0000    15.9375 </r>
       <r>    19.3607     0.0001    15.9375 </r>
       <r>    19.4483     0.0577    15.9426 </r>
       <r>    19.5360     0.4177    15.9792 </r>
       <r>    19.6237     0.0592    15.9844 </r>
       <r>    19.7114     0.0001    15.9844 </r>
       <r>    19.7990     0.0000    15.9844 </r>
       <r>    19.8867     0.0000    15.9844 </r>
       <r>    19.9744     0.0000    15.9844 </r>
       <r>    20.0620     0.0000    15.9844 </r>
       <r>    20.1497     0.0000    15.9844 </r>
       <r>    20.2374     0.0000    15.9844 </r>
       <r>    20.3250     0.0000    15.9844 </r>
       <r>    20.4127     0.0000    15.9844 </r>
       <r>    20.5004     0.0000    15.9844 </r>
       <r>    20.5880     0.0000    15.9844 </r>
       <r>    20.6757     0.0001    15.9844 </r>
       <r>    20.7634     0.0327    15.9872 </r>
       <r>    20.8510     0.1353    15.9991 </r>
       <r>    20.9387     0.0102    16.0000 </r>
       <r>    21.0264     0.0000    16.0000 </r>
       <r>    21.1140     0.0000    16.0000 </r>
       <r>    21.2017     0.0000    16.0000 </r>
       <r>    21.2894     0.0000    16.0000 </r>
       <r>    21.3770     0.0000    16.0000 </r>
       <r>    21.4647     0.0000    16.0000 </r>
       <r>    21.5524     0.0000    16.0000 </r>
       <r>    21.6400     0.0000    16.0000 </r>
       <r>    21.7277     0.0000    16.0000 </r>
       <r>    21.8154     0.0000    16.0000 </r>
       <r>    21.9030     0.0000    16.0000 </r>
       <r>    21.9907     0.0000    16.0000 </r>
      </set>
     </set>
    </array>
   </total>
  </dos>
 </calculation>
 <structure name="finalpos" >
  <crystal>
   <varray name="basis" >
    <v>       2.47000000       0.00000000       0.00000000 </v>
    <v>      -1.23500000       2.13908275       0.00000000 </v>
    <v>       0.00000000       0.00000000       8.09000000 </v>
   </varray>
   <i name="volume">     42.74379318 </i>
   <varray name="rec_basis" >
    <v>       0.40485830       0.23374505       0.00000000 </v>
    <v>       0.00000000       0.46749010       0.00000000 </v>
    <v>       0.00000000       0.00000000       0.12360939 </v>
   </varray>
  </crystal>
  <varray name="positions" >
   <v>       0.00000000       0.00000000       0.00000000 </v>
   <v>       0.33333333       0.66666667       0.50000000 </v>
  </varray>
 </structure>
</modeling>
