<?xml version="1.0" encoding="ISO-8859-1"?>
<modeling>
 <generator>
  <i name="program" type="string">vasp </i>
  <i name="version" type="string">6.3.2  </i>
  <i name="subversion" type="string">27Jun22 (build Aug 12 2022 00:53:59) complex                          parallel </i>
  <i name="platform" type="string">tv2STD </i>
  <i name="date" type="string">2024 12 02 </i>
  <i name="time" type="string">16:51:46 </i>
 </generator>
 <incar>
  <i type="string" name="SYSTEM">Co-hcc</i>
  <i type="int" name="ISTART">     0</i>
  <i type="string" name="PREC">Accurate      normal | accurate</i>
  <i type="string" name="ALGO">Normal     Normal, Fast, Very_Fast</i>
  <i type="logical" name="ADDGRID"> F  </i>
  <i type="int" name="ISPIN">     2</i>
  <i type="int" name="ICHARG">     2</i>
  <i type="int" name="INIWAV">     1</i>
  <i type="int" name="NELM">   100</i>
  <i type="int" name="IBRION">    -1</i>
  <i name="EDIFF">      0.00000100</i>
  <i name="EDIFFG">     -0.02000000</i>
  <i type="int" name="NSW">     0</i>
  <i type="int" name="ISIF">     2</i>
  <i type="int" name="ISYM">     1</i>
  <i name="ENCUT">    425.00000000</i>
  <v name="MAGMOM">      3.00000000      3.00000000</v>
  <i type="logical" name="LREAL"> F  </i>
  <i type="int" name="ISMEAR">     0</i>
  <i name="SIGMA">      0.05000000</i>
  <i type="int" name="NWRITE">     2</i>
  <i type="logical" name="LWAVE"> F  </i>
  <i type="logical" name="LCHARG"> F  </i>
  <i type="int" name="LORBIT">    11</i>
 </incar>
 <primitive_cell>
  <structure name="primitive_cell" >
   <crystal>
    <varray name="basis" >
     <v>       1.23599995      -2.14081471       0.00000000 </v>
     <v>       1.23599995       2.14081471       0.00000000 </v>
     <v>       0.00000000       0.00000000       4.02114408 </v>
    </varray>
    <i name="volume">     21.28027152 </i>
    <varray name="rec_basis" >
     <v>       0.40453076      -0.23355594       0.00000000 </v>
     <v>       0.40453076       0.23355594       0.00000000 </v>
     <v>       0.00000000       0.00000000       0.24868544 </v>
    </varray>
   </crystal>
   <varray name="positions" >
    <v>       0.33333333       0.66666667       0.25000000 </v>
    <v>       0.66666667       0.33333333       0.75000000 </v>
   </varray>
  </structure>
  <varray name="primitive_index" >
   <v type="int" >        1 </v>
   <v type="int" >        2 </v>
  </varray>
 </primitive_cell>
 <kpoints>
  <generation param="Gamma">
   <v type="int" name="divisions">       8        8        6 </v>
   <v name="usershift">      0.00000000       0.00000000       0.00000000 </v>
   <v name="genvec1">      0.12500000      -0.00000000       0.00000000 </v>
   <v name="genvec2">     -0.00000000       0.12500000       0.00000000 </v>
   <v name="genvec3">      0.00000000       0.00000000       0.16666667 </v>
   <v name="shift">      0.00000000       0.00000000       0.00000000 </v>
  </generation>
  <varray name="kpointlist" >
   <v>       0.00000000       0.00000000       0.00000000 </v>
   <v>       0.12500000       0.00000000       0.00000000 </v>
   <v>       0.25000000       0.00000000       0.00000000 </v>
   <v>       0.37500000       0.00000000       0.00000000 </v>
   <v>       0.50000000       0.00000000       0.00000000 </v>
   <v>       0.12500000       0.12500000       0.00000000 </v>
   <v>       0.25000000       0.12500000       0.00000000 </v>
   <v>       0.37500000       0.12500000       0.00000000 </v>
   <v>       0.25000000       0.25000000       0.00000000 </v>
   <v>       0.37500000       0.25000000       0.00000000 </v>
   <v>       0.00000000       0.00000000       0.16666667 </v>
   <v>       0.12500000       0.00000000       0.16666667 </v>
   <v>       0.25000000       0.00000000       0.16666667 </v>
   <v>       0.37500000       0.00000000       0.16666667 </v>
   <v>       0.50000000       0.00000000       0.16666667 </v>
   <v>       0.12500000       0.12500000       0.16666667 </v>
   <v>       0.25000000       0.12500000       0.16666667 </v>
   <v>       0.37500000       0.12500000       0.16666667 </v>
   <v>       0.25000000       0.25000000       0.16666667 </v>
   <v>       0.37500000       0.25000000       0.16666667 </v>
   <v>       0.00000000       0.00000000       0.33333333 </v>
   <v>       0.12500000       0.00000000       0.33333333 </v>
   <v>       0.25000000       0.00000000       0.33333333 </v>
   <v>       0.37500000       0.00000000       0.33333333 </v>
   <v>       0.50000000       0.00000000       0.33333333 </v>
   <v>       0.12500000       0.12500000       0.33333333 </v>
   <v>       0.25000000       0.12500000       0.33333333 </v>
   <v>       0.37500000       0.12500000       0.33333333 </v>
   <v>       0.25000000       0.25000000       0.33333333 </v>
   <v>       0.37500000       0.25000000       0.33333333 </v>
   <v>       0.00000000       0.00000000       0.50000000 </v>
   <v>       0.12500000       0.00000000       0.50000000 </v>
   <v>       0.25000000       0.00000000       0.50000000 </v>
   <v>       0.37500000       0.00000000       0.50000000 </v>
   <v>       0.50000000       0.00000000       0.50000000 </v>
   <v>       0.12500000       0.12500000       0.50000000 </v>
   <v>       0.25000000       0.12500000       0.50000000 </v>
   <v>       0.37500000       0.12500000       0.50000000 </v>
   <v>       0.25000000       0.25000000       0.50000000 </v>
   <v>       0.37500000       0.25000000       0.50000000 </v>
  </varray>
  <varray name="weights" >
   <v>       0.00260417 </v>
   <v>       0.01562500 </v>
   <v>       0.01562500 </v>
   <v>       0.01562500 </v>
   <v>       0.00781250 </v>
   <v>       0.01562500 </v>
   <v>       0.03125000 </v>
   <v>       0.03125000 </v>
   <v>       0.01562500 </v>
   <v>       0.01562500 </v>
   <v>       0.00520833 </v>
   <v>       0.03125000 </v>
   <v>       0.03125000 </v>
   <v>       0.03125000 </v>
   <v>       0.01562500 </v>
   <v>       0.03125000 </v>
   <v>       0.06250000 </v>
   <v>       0.06250000 </v>
   <v>       0.03125000 </v>
   <v>       0.03125000 </v>
   <v>       0.00520833 </v>
   <v>       0.03125000 </v>
   <v>       0.03125000 </v>
   <v>       0.03125000 </v>
   <v>       0.01562500 </v>
   <v>       0.03125000 </v>
   <v>       0.06250000 </v>
   <v>       0.06250000 </v>
   <v>       0.03125000 </v>
   <v>       0.03125000 </v>
   <v>       0.00260417 </v>
   <v>       0.01562500 </v>
   <v>       0.01562500 </v>
   <v>       0.01562500 </v>
   <v>       0.00781250 </v>
   <v>       0.01562500 </v>
   <v>       0.03125000 </v>
   <v>       0.03125000 </v>
   <v>       0.01562500 </v>
   <v>       0.01562500 </v>
  </varray>
 </kpoints>
 <parameters>
  <separator name="general" >
   <i type="string" name="SYSTEM">Co-hcc</i>
   <i type="logical" name="LCOMPAT"> F  </i>
  </separator>
  <separator name="electronic" >
   <i type="string" name="PREC">accura</i>
   <i name="ENMAX">    425.00000000</i>
   <i name="ENAUG">    477.81800000</i>
   <i name="EDIFF">      0.00000100</i>
   <i type="int" name="IALGO">    38</i>
   <i type="int" name="IWAVPR">    10</i>
   <i type="int" name="NBANDS">    16</i>
   <i type="int" name="NBANDSLOW">    -1</i>
   <i type="int" name="NBANDSHIGH">    -1</i>
   <i name="NELECT">     18.00000000</i>
   <i type="int" name="TURBO">     0</i>
   <i type="int" name="IRESTART">     0</i>
   <i type="int" name="NREBOOT">     0</i>
   <i type="int" name="NMIN">     0</i>
   <i name="EREF">      0.00000000</i>
   <separator name="electronic smearing" >
    <i type="int" name="ISMEAR">     0</i>
    <i name="SIGMA">      0.05000000</i>
    <i name="KSPACING">      0.50000000</i>
    <i type="logical" name="KGAMMA"> T  </i>
    <i type="logical" name="KBLOWUP"> T  </i>
   </separator>
   <separator name="electronic projectors" >
    <i type="logical" name="LREAL"> F  </i>
    <v name="ROPT">      0.00000000</v>
    <i type="int" name="LMAXPAW">  -100</i>
    <i type="int" name="LMAXMIX">     2</i>
    <i type="logical" name="NLSPLINE"> F  </i>
   </separator>
   <separator name="electronic startup" >
    <i type="int" name="ISTART">     0</i>
    <i type="int" name="ICHARG">     2</i>
    <i type="int" name="INIWAV">     1</i>
   </separator>
   <separator name="electronic spin" >
    <i type="int" name="ISPIN">     2</i>
    <i type="logical" name="LNONCOLLINEAR"> F  </i>
    <v name="MAGMOM">      3.00000000      3.00000000</v>
    <i name="NUPDOWN">     -1.00000000</i>
    <i type="logical" name="LSORBIT"> F  </i>
    <v name="SAXIS">      0.00000000      0.00000000      1.00000000</v>
    <i type="logical" name="LSPIRAL"> F  </i>
    <v name="QSPIRAL">      0.00000000      0.00000000      0.00000000</v>
    <i type="logical" name="LZEROZ"> F  </i>
   </separator>
   <separator name="electronic exchange-correlation" >
    <i type="logical" name="LASPH"> F  </i>
    <i type="logical" name="LMETAGGA"> F  </i>
   </separator>
   <separator name="electronic convergence" >
    <i type="int" name="NELM">   100</i>
    <i type="int" name="NELMDL">    -5</i>
    <i type="int" name="NELMIN">     2</i>
    <i name="ENINI">    425.00000000</i>
    <separator name="electronic convergence detail" >
     <i type="logical" name="LDIAG"> T  </i>
     <i type="logical" name="LSUBROT"> F  </i>
     <i name="WEIMIN">      0.00000000</i>
     <i name="EBREAK">      0.00000002</i>
     <i name="DEPER">      0.30000000</i>
     <i type="int" name="NRMM">     4</i>
     <i name="TIME">      0.40000000</i>
    </separator>
   </separator>
   <separator name="electronic mixer" >
    <i name="AMIX">      0.40000000</i>
    <i name="BMIX">      1.00000000</i>
    <i name="AMIN">      0.10000000</i>
    <i name="AMIX_MAG">      1.60000000</i>
    <i name="BMIX_MAG">      1.00000000</i>
    <separator name="electronic mixer details" >
     <i type="int" name="IMIX">     4</i>
     <i type="logical" name="MIXFIRST"> F  </i>
     <i type="int" name="MAXMIX">   -45</i>
     <i name="WC">    100.00000000</i>
     <i type="int" name="INIMIX">     1</i>
     <i type="int" name="MIXPRE">     1</i>
     <i type="int" name="MREMOVE">     5</i>
    </separator>
   </separator>
   <separator name="electronic dipolcorrection" >
    <i type="logical" name="LDIPOL"> F  </i>
    <i type="logical" name="LMONO"> F  </i>
    <i type="int" name="IDIPOL">     0</i>
    <i name="EPSILON">      1.00000000</i>
    <v name="DIPOL">   -100.00000000   -100.00000000   -100.00000000</v>
    <i name="EFIELD">      0.00000000</i>
   </separator>
  </separator>
  <separator name="grids" >
   <i type="int" name="NGX">    18</i>
   <i type="int" name="NGY">    18</i>
   <i type="int" name="NGZ">    28</i>
   <i type="int" name="NGXF">    36</i>
   <i type="int" name="NGYF">    36</i>
   <i type="int" name="NGZF">    56</i>
   <i type="logical" name="ADDGRID"> F  </i>
  </separator>
  <separator name="ionic" >
   <i type="int" name="NSW">     0</i>
   <i type="int" name="IBRION">    -1</i>
   <i type="int" name="MDALGO">     0</i>
   <i type="int" name="ISIF">     2</i>
   <i name="PSTRESS">      0.00000000</i>
   <i name="EDIFFG">     -0.02000000</i>
   <i type="int" name="NFREE">     0</i>
   <i name="POTIM">      0.50000000</i>
   <i name="SMASS">     -3.00000000</i>
   <i name="SCALEE">      1.00000000</i>
  </separator>
  <separator name="ionic md" >
   <i name="TEBEG">      0.00010000</i>
   <i name="TEEND">      0.00010000</i>
   <i type="int" name="NBLOCK">     1</i>
   <i type="int" name="KBLOCK">     1</i>
   <i type="int" name="NPACO">   256</i>
   <i name="APACO">     10.00000000</i>
  </separator>
  <separator name="symmetry" >
   <i type="int" name="ISYM">     1</i>
   <i name="SYMPREC">      0.00001000</i>
  </separator>
  <separator name="dos" >
   <i type="int" name="LORBIT">    11</i>
   <v name="RWIGS">     -1.00000000</v>
   <i type="int" name="NEDOS">   301</i>
   <i name="EMIN">     10.00000000</i>
   <i name="EMAX">    -10.00000000</i>
   <i name="EFERMI">      0.00000000</i>
  </separator>
  <separator name="writing" >
   <i type="int" name="NWRITE">     2</i>
   <i type="logical" name="LWAVE"> F  </i>
   <i type="logical" name="LDOWNSAMPLE"> F  </i>
   <i type="logical" name="LCHARG"> F  </i>
   <i type="logical" name="LPARD"> F  </i>
   <i type="logical" name="LVTOT"> F  </i>
   <i type="logical" name="LVHAR"> F  </i>
   <i type="logical" name="LELF"> F  </i>
   <i type="logical" name="LOPTICS"> F  </i>
   <v name="STM">      0.00000000      0.00000000      0.00000000      0.00000000      0.00000000      0.00000000      0.00000000</v>
  </separator>
  <separator name="performance" >
   <i type="int" name="NPAR">     4</i>
   <i type="int" name="NSIM">     4</i>
   <i type="int" name="NBLK">    -1</i>
   <i type="logical" name="LPLANE"> T  </i>
   <i type="logical" name="LSCALAPACK"> T  </i>
   <i type="logical" name="LSCAAWARE"> F  </i>
   <i type="logical" name="LSCALU"> F  </i>
   <i type="logical" name="LASYNC"> F  </i>
   <i type="logical" name="LORBITALREAL"> F  </i>
  </separator>
  <separator name="miscellaneous" >
   <i type="int" name="IDIOT">     3</i>
   <i type="int" name="PHON_NSTRUCT">    -1</i>
   <i type="logical" name="LMUSIC"> F  </i>
   <v name="POMASS">     58.93300000</v>
   <v name="DARWINR">      0.00000000</v>
   <v name="DARWINV">      1.00000000</v>
   <i type="logical" name="LCORR"> T  </i>
  </separator>
  <i type="logical" name="GGA_COMPAT"> T  </i>
  <i type="logical" name="LBERRY"> F  </i>
  <i type="int" name="ICORELEVEL">     0</i>
  <i type="logical" name="LDAU"> F  </i>
  <i type="int" name="I_CONSTRAINED_M">     0</i>
  <separator name="electronic exchange-correlation" >
   <i type="string" name="GGA">--</i>
   <i type="int" name="VOSKOWN">     0</i>
   <i type="logical" name="LHFCALC"> F  </i>
   <i type="string" name="PRECFOCK"></i>
   <i type="logical" name="LSYMGRAD"> F  </i>
   <i type="logical" name="LHFONE"> F  </i>
   <i type="logical" name="LRHFCALC"> F  </i>
   <i type="logical" name="LTHOMAS"> F  </i>
   <i type="logical" name="LMODELHF"> F  </i>
   <i type="logical" name="LFOCKACE"> F  </i>
   <i name="ENCUT4O">     -1.00000000</i>
   <i type="int" name="EXXOEP">     0</i>
   <i type="int" name="FOURORBIT">     0</i>
   <i name="AEXX">      0.00000000</i>
   <i name="HFALPHA">      0.00000000</i>
   <i name="MCALPHA">      0.00000000</i>
   <i name="ALDAX">      1.00000000</i>
   <i name="AGGAX">      1.00000000</i>
   <i name="ALDAC">      1.00000000</i>
   <i name="AGGAC">      1.00000000</i>
   <i type="int" name="NKREDX">     1</i>
   <i type="int" name="NKREDY">     1</i>
   <i type="int" name="NKREDZ">     1</i>
   <i type="logical" name="SHIFTRED"> F  </i>
   <i type="logical" name="ODDONLY"> F  </i>
   <i type="logical" name="EVENONLY"> F  </i>
   <i type="int" name="LMAXFOCK">     0</i>
   <i type="int" name="NMAXFOCKAE">     0</i>
   <i type="logical" name="LFOCKAEDFT"> F  </i>
   <i name="HFSCREEN">      0.00000000</i>
   <i name="HFSCREENC">      0.00000000</i>
   <i type="int" name="NBANDSGWLOW">     0</i>
  </separator>
  <separator name="vdW DFT" >
   <i type="logical" name="LUSE_VDW"> F  </i>
   <i name="Zab_VDW">     -0.84910000</i>
   <i name="PARAM1">      0.12340000</i>
   <i name="PARAM2">      1.00000000</i>
   <i name="PARAM3">      0.00000000</i>
  </separator>
  <separator name="model GW" >
   <i type="int" name="MODEL_GW">     0</i>
   <i name="MODEL_EPS0">      6.38408146</i>
   <i name="MODEL_ALPHA">      1.00000000</i>
  </separator>
  <separator name="linear response parameters" >
   <i type="logical" name="LEPSILON"> F  </i>
   <i type="logical" name="LRPA"> F  </i>
   <i type="logical" name="LNABLA"> F  </i>
   <i type="logical" name="LVEL"> F  </i>
   <i name="CSHIFT">      0.10000000</i>
   <i name="OMEGAMAX">     -1.00000000</i>
   <i name="DEG_THRESHOLD">      0.00200000</i>
   <i name="RTIME">     -0.10000000</i>
   <i name="WPLASMAI">      0.00000000</i>
   <v name="DFIELD">      0.00000000      0.00000000      0.00000000</v>
   <v name="WPLASMA">      0.00000000      0.00000000      0.00000000      0.00000000      0.00000000      0.00000000      0.00000000      0.00000000      0.00000000</v>
  </separator>
  <separator name="orbital magnetization" >
   <i type="logical" name="NUCIND"> F  </i>
   <v name="MAGPOS">      0.00000000      0.00000000      0.00000000</v>
   <i type="logical" name="LNICSALL"> T  </i>
   <i type="logical" name="ORBITALMAG"> F  </i>
   <i type="logical" name="LMAGBLOCH"> F  </i>
   <i type="logical" name="LCHIMAG"> F  </i>
   <i type="logical" name="LGAUGE"> T  </i>
   <i type="int" name="MAGATOM">     0</i>
   <v name="MAGDIPOL">      0.00000000      0.00000000      0.00000000</v>
   <v name="AVECCONST">      0.00000000      0.00000000      0.00000000</v>
  </separator>
  <separator name="response functions" >
   <i type="logical" name="LFINITE_TEMPERATURE"> F  </i>
   <i type="logical" name="LADDER"> F  </i>
   <i type="logical" name="LRPAFORCE"> F  </i>
   <i type="logical" name="LFXC"> F  </i>
   <i type="logical" name="LHARTREE"> T  </i>
   <i type="int" name="IBSE">     0</i>
   <v type="int" name="KPOINT">    -1     0     0     0</v>
   <i type="logical" name="LTCTC"> F  </i>
   <i type="logical" name="LTCTE"> F  </i>
   <i type="logical" name="LTETE"> F  </i>
   <i type="logical" name="LTRIPLET"> F  </i>
   <i type="logical" name="LFXCEPS"> F  </i>
   <i type="logical" name="LFXHEG"> F  </i>
   <i type="int" name="NATURALO">     2</i>
   <i type="logical" name="LHOLEGF"> F  </i>
   <i type="logical" name="L2ORDER"> F  </i>
   <i type="logical" name="LDMP1"> F  </i>
   <i type="logical" name="LMP2LT"> F  </i>
   <i type="logical" name="LSMP2LT"> F  </i>
   <i type="logical" name="LGWLF"> F  </i>
   <i name="ENCUTGW">     -2.00000000</i>
   <i name="ENCUTGWSOFT">     -2.00000000</i>
   <i name="ENCUTLF">     -1.00000000</i>
   <i type="logical" name="LESF_SPLINES"> F  </i>
   <i type="int" name="LMAXMP2">    -1</i>
   <i name="SCISSOR">      0.00000000</i>
   <i type="int" name="NOMEGA">     0</i>
   <i type="int" name="NOMEGAR">     0</i>
   <i type="int" name="NBANDSGW">    -1</i>
   <i type="int" name="NBANDSO">    -1</i>
   <i type="int" name="NBANDSV">    -1</i>
   <i type="int" name="NELMGW">     1</i>
   <i type="int" name="NELMHF">     1</i>
   <i type="int" name="DIM">     3</i>
   <i type="int" name="IESPILON">     4</i>
   <i type="int" name="ANTIRES">     0</i>
   <i name="OMEGAMAX">    -30.00000000</i>
   <i name="OMEGAMIN">    -30.00000000</i>
   <i name="OMEGATL">   -200.00000000</i>
   <i type="int" name="OMEGAGRID">     0</i>
   <i name="CSHIFT">     -0.10000000</i>
   <i type="logical" name="LSELFENERGY"> F  </i>
   <i type="logical" name="LSPECTRAL"> F  </i>
   <i type="logical" name="LSPECTRALGW"> F  </i>
   <i type="logical" name="LSINGLES"> F  </i>
   <i type="logical" name="LFERMIGW"> F  </i>
   <i type="logical" name="ODDONLYGW"> F  </i>
   <i type="logical" name="EVENONLYGW"> F  </i>
   <i type="int" name="NKREDLFX">     1</i>
   <i type="int" name="NKREDLFY">     1</i>
   <i type="int" name="NKREDLFZ">     1</i>
   <i type="int" name="MAXMEM">  2800</i>
   <i type="int" name="TELESCOPE">     0</i>
   <i type="int" name="NTAUPAR">    -1</i>
   <i type="int" name="NOMEGAPAR">    -1</i>
   <i name="DAMP_NEWTON">      0.80000001</i>
   <i name="LAMBDA">      1.00000000</i>
  </separator>
  <separator name="External order field" >
   <i name="OFIELD_KAPPA">      0.00000000</i>
   <v name="OFIELD_K">      0.00000000      0.00000000      0.00000000</v>
   <i name="OFIELD_Q6_NEAR">      0.00000000</i>
   <i name="OFIELD_Q6_FAR">      0.00000000</i>
   <i name="OFIELD_A">      0.00000000</i>
  </separator>
  <separator name="optional k-points parameters" >
   <i type="int" name="KPOINTS_OPT_MODE">     1</i>
   <i type="logical" name="LKPOINTS_OPT"> F  </i>
  </separator>
 </parameters>
 <atominfo>
  <atoms>       2 </atoms>
  <types>       1 </types>
  <array name="atoms" >
   <dimension dim="1">ion</dimension>
   <field type="string">element</field>
   <field type="int">atomtype</field>
   <set>
    <rc><c>Co</c><c>   1</c></rc>
    <rc><c>Co</c><c>   1</c></rc>
   </set>
  </array>
  <array name="atomtypes" >
   <dimension dim="1">type</dimension>
   <field type="int">atomspertype</field>
   <field type="string">element</field>
   <field>mass</field>
   <field>valence</field>
   <field type="string">pseudopotential</field>
   <set>
    <rc><c>   2</c><c>Co</c><c>     58.93300000</c><c>      9.00000000</c><c>  PAW_PBE Co 02Aug2007                  </c></rc>
   </set>
  </array>
 </atominfo>
 <structure name="initialpos" >
  <crystal>
   <varray name="basis" >
    <v>       1.23599995      -2.14081471       0.00000000 </v>
    <v>       1.23599995       2.14081471       0.00000000 </v>
    <v>       0.00000000       0.00000000       4.02114408 </v>
   </varray>
   <i name="volume">     21.28027152 </i>
   <varray name="rec_basis" >
    <v>       0.40453076      -0.23355594       0.00000000 </v>
    <v>       0.40453076       0.23355594       0.00000000 </v>
    <v>       0.00000000       0.00000000       0.24868544 </v>
   </varray>
  </crystal>
  <varray name="positions" >
   <v>       0.33333333       0.66666667       0.25000000 </v>
   <v>       0.66666667       0.33333333       0.75000000 </v>
  </varray>
 </structure>
 <calculation>
  <scstep>
   <time name="dav">    0.25    0.25</time>
   <time name="total">    0.26    0.26</time>
   <energy>
    <i name="alphaZ">     79.61870385 </i>
    <i name="ewald">  -1531.60263765 </i>
    <i name="hartreedc">   -295.86427829 </i>
    <i name="XCdc">     35.75670864 </i>
    <i name="pawpsdc">   1439.98163886 </i>
    <i name="pawaedc">  -1545.88690193 </i>
    <i name="eentropy">     -0.00390022 </i>
    <i name="bandstr">    261.66065393 </i>
    <i name="atom">   1626.72322989 </i>
    <i name="e_fr_energy">     70.38321708 </i>
    <i name="e_wo_entrp">     70.38711729 </i>
    <i name="e_0_energy">     70.38516719 </i>
   </energy>
  </scstep>
  <scstep>
   <time name="dav">    0.23    0.23</time>
   <time name="total">    0.23    0.24</time>
   <energy>
    <i name="e_fr_energy">    -13.69358237 </i>
    <i name="e_wo_entrp">    -13.69192001 </i>
    <i name="e_0_energy">    -13.69275119 </i>
   </energy>
  </scstep>
  <scstep>
   <time name="dav">    0.27    0.28</time>
   <time name="total">    0.28    0.28</time>
   <energy>
    <i name="e_fr_energy">    -15.58182886 </i>
    <i name="e_wo_entrp">    -15.57983246 </i>
    <i name="e_0_energy">    -15.58083066 </i>
   </energy>
  </scstep>
  <scstep>
   <time name="dav">    0.31    0.31</time>
   <time name="total">    0.31    0.31</time>
   <energy>
    <i name="e_fr_energy">    -15.61265245 </i>
    <i name="e_wo_entrp">    -15.61066964 </i>
    <i name="e_0_energy">    -15.61166105 </i>
   </energy>
  </scstep>
  <scstep>
   <time name="dav">    0.27    0.28</time>
   <time name="total">    0.29    0.30</time>
   <energy>
    <i name="e_fr_energy">    -15.61283124 </i>
    <i name="e_wo_entrp">    -15.61084848 </i>
    <i name="e_0_energy">    -15.61183986 </i>
   </energy>
  </scstep>
  <scstep>
   <time name="dav">    0.25    0.25</time>
   <time name="total">    0.28    0.28</time>
   <energy>
    <i name="e_fr_energy">    -14.43602134 </i>
    <i name="e_wo_entrp">    -14.43466916 </i>
    <i name="e_0_energy">    -14.43534525 </i>
   </energy>
  </scstep>
  <scstep>
   <time name="dav">    0.25    0.26</time>
   <time name="total">    0.28    0.28</time>
   <energy>
    <i name="e_fr_energy">    -14.12315945 </i>
    <i name="e_wo_entrp">    -14.12184217 </i>
    <i name="e_0_energy">    -14.12250081 </i>
   </energy>
  </scstep>
  <scstep>
   <time name="dav">    0.30    0.31</time>
   <time name="total">    0.33    0.33</time>
   <energy>
    <i name="e_fr_energy">    -14.10083389 </i>
    <i name="e_wo_entrp">    -14.09951609 </i>
    <i name="e_0_energy">    -14.10017499 </i>
   </energy>
  </scstep>
  <scstep>
   <time name="dav">    0.32    0.32</time>
   <time name="total">    0.35    0.35</time>
   <energy>
    <i name="e_fr_energy">    -14.08616450 </i>
    <i name="e_wo_entrp">    -14.08485588 </i>
    <i name="e_0_energy">    -14.08551019 </i>
   </energy>
  </scstep>
  <scstep>
   <time name="dav">    0.30    0.30</time>
   <time name="total">    0.33    0.33</time>
   <energy>
    <i name="e_fr_energy">    -14.08553867 </i>
    <i name="e_wo_entrp">    -14.08423391 </i>
    <i name="e_0_energy">    -14.08488629 </i>
   </energy>
  </scstep>
  <scstep>
   <time name="dav">    0.32    0.32</time>
   <time name="total">    0.34    0.35</time>
   <energy>
    <i name="e_fr_energy">    -14.08551199 </i>
    <i name="e_wo_entrp">    -14.08420900 </i>
    <i name="e_0_energy">    -14.08486050 </i>
   </energy>
  </scstep>
  <scstep>
   <time name="dav">    0.25    0.25</time>
   <time name="total">    0.27    0.28</time>
   <energy>
    <i name="e_fr_energy">    -14.08551001 </i>
    <i name="e_wo_entrp">    -14.08420670 </i>
    <i name="e_0_energy">    -14.08485835 </i>
   </energy>
  </scstep>
  <scstep>
   <time name="dav">    0.21    0.21</time>
   <time name="total">    0.22    0.22</time>
   <energy>
    <i name="alphaZ">     79.61870385 </i>
    <i name="ewald">  -1531.60263765 </i>
    <i name="hartreedc">   -260.56086806 </i>
    <i name="XCdc">     32.97738503 </i>
    <i name="pawpsdc">   1828.65865717 </i>
    <i name="pawaedc">  -1934.84294152 </i>
    <i name="eentropy">     -0.00130274 </i>
    <i name="bandstr">    144.94426467 </i>
    <i name="atom">   1626.72322989 </i>
    <i name="e_fr_energy">    -14.08550936 </i>
    <i name="e_wo_entrp">    -14.08420662 </i>
    <i name="e_0_energy">    -14.08485799 </i>
   </energy>
  </scstep>
  <structure>
   <crystal>
    <varray name="basis" >
     <v>       1.23599995      -2.14081471       0.00000000 </v>
     <v>       1.23599995       2.14081471       0.00000000 </v>
     <v>       0.00000000       0.00000000       4.02114408 </v>
    </varray>
    <i name="volume">     21.28027152 </i>
    <varray name="rec_basis" >
     <v>       0.40453076      -0.23355594       0.00000000 </v>
     <v>       0.40453076       0.23355594       0.00000000 </v>
     <v>       0.00000000       0.00000000       0.24868544 </v>
    </varray>
   </crystal>
   <varray name="positions" >
    <v>       0.33333333       0.66666667       0.25000000 </v>
    <v>       0.66666667       0.33333333       0.75000000 </v>
   </varray>
  </structure>
  <varray name="forces" >
   <v>       0.00000000      -0.00000000      -0.00000000 </v>
   <v>      -0.00000000       0.00000000       0.00000000 </v>
  </varray>
  <varray name="stress" >
   <v>      50.22526004       0.00000000       0.00000000 </v>
   <v>       0.00000000      50.22526004       0.00000000 </v>
   <v>       0.00000000      -0.00000000      15.21976750 </v>
  </varray>
  <energy>
   <i name="e_fr_energy">    -14.08550936 </i>
   <i name="e_wo_entrp">    -14.08420662 </i>
   <i name="e_0_energy">    -14.08485799 </i>
  </energy>
  <time name="totalsc">    3.86    3.89</time>
  <eigenvalues>
   <array>
    <dimension dim="1">band</dimension>
    <dimension dim="2">kpoint</dimension>
    <dimension dim="3">spin</dimension>
    <field>eigene</field>
    <field>occ</field>
    <set>
     <set comment="spin 1">
      <set comment="kpoint 1">
       <r>    1.5129    1.0000 </r>
       <r>    5.2912    1.0000 </r>
       <r>    7.8394    1.0000 </r>
       <r>    7.8990    1.0000 </r>
       <r>    7.8990    1.0000 </r>
       <r>    8.2136    1.0000 </r>
       <r>    8.2136    1.0000 </r>
       <r>    8.6055    1.0000 </r>
       <r>    8.6055    1.0000 </r>
       <r>    9.7140    1.0000 </r>
       <r>    9.7140    1.0000 </r>
       <r>   10.3884    0.9999 </r>
       <r>   16.9609    0.0000 </r>
       <r>   32.7618    0.0000 </r>
       <r>   35.5626    0.0000 </r>
       <r>   35.5629    0.0000 </r>
      </set>
      <set comment="kpoint 2">
       <r>    2.0644    1.0000 </r>
       <r>    5.6105    1.0000 </r>
       <r>    7.5123    1.0000 </r>
       <r>    8.0543    1.0000 </r>
       <r>    8.1103    1.0000 </r>
       <r>    8.1574    1.0000 </r>
       <r>    8.2165    1.0000 </r>
       <r>    8.4421    1.0000 </r>
       <r>    8.4521    1.0000 </r>
       <r>    8.6695    1.0000 </r>
       <r>    9.7748    1.0000 </r>
       <r>   12.3004    0.0000 </r>
       <r>   17.0605    0.0000 </r>
       <r>   29.0922    0.0000 </r>
       <r>   32.1408    0.0000 </r>
       <r>   32.8106    0.0000 </r>
      </set>
      <set comment="kpoint 3">
       <r>    3.5560    1.0000 </r>
       <r>    6.1008    1.0000 </r>
       <r>    6.9494    1.0000 </r>
       <r>    7.2171    1.0000 </r>
       <r>    7.8794    1.0000 </r>
       <r>    8.1381    1.0000 </r>
       <r>    8.3358    1.0000 </r>
       <r>    8.8094    1.0000 </r>
       <r>    8.8251    1.0000 </r>
       <r>    9.0268    1.0000 </r>
       <r>    9.8679    1.0000 </r>
       <r>   14.9614    0.0000 </r>
       <r>   17.4367    0.0000 </r>
       <r>   23.3933    0.0000 </r>
       <r>   28.8441    0.0000 </r>
       <r>   30.7933    0.0000 </r>
      </set>
      <set comment="kpoint 4">
       <r>    5.1669    1.0000 </r>
       <r>    5.9245    1.0000 </r>
       <r>    6.2227    1.0000 </r>
       <r>    7.5155    1.0000 </r>
       <r>    7.8682    1.0000 </r>
       <r>    8.0723    1.0000 </r>
       <r>    8.1222    1.0000 </r>
       <r>    9.5523    1.0000 </r>
       <r>    9.6852    1.0000 </r>
       <r>    9.9207    1.0000 </r>
       <r>   10.0386    1.0000 </r>
       <r>   16.8662    0.0000 </r>
       <r>   17.9777    0.0000 </r>
       <r>   20.0281    0.0000 </r>
       <r>   26.2687    0.0000 </r>
       <r>   26.5338    0.0000 </r>
      </set>
      <set comment="kpoint 5">
       <r>    5.6738    1.0000 </r>
       <r>    5.7173    1.0000 </r>
       <r>    5.9816    1.0000 </r>
       <r>    7.7647    1.0000 </r>
       <r>    7.9669    1.0000 </r>
       <r>    7.9935    1.0000 </r>
       <r>    8.2960    1.0000 </r>
       <r>    9.8563    1.0000 </r>
       <r>    9.9354    1.0000 </r>
       <r>   10.0050    1.0000 </r>
       <r>   11.8897    0.0000 </r>
       <r>   13.9586    0.0000 </r>
       <r>   20.3402    0.0000 </r>
       <r>   21.0128    0.0000 </r>
       <r>   23.4154    0.0000 </r>
       <r>   24.7074    0.0000 </r>
      </set>
      <set comment="kpoint 6">
       <r>    3.0989    1.0000 </r>
       <r>    6.0863    1.0000 </r>
       <r>    7.1409    1.0000 </r>
       <r>    7.2699    1.0000 </r>
       <r>    7.9447    1.0000 </r>
       <r>    8.0632    1.0000 </r>
       <r>    8.4122    1.0000 </r>
       <r>    8.5542    1.0000 </r>
       <r>    8.6796    1.0000 </r>
       <r>    8.9755    1.0000 </r>
       <r>    9.8140    1.0000 </r>
       <r>   14.2190    0.0000 </r>
       <r>   17.3274    0.0000 </r>
       <r>   26.1339    0.0000 </r>
       <r>   26.7136    0.0000 </r>
       <r>   33.0924    0.0000 </r>
      </set>
      <set comment="kpoint 7">
       <r>    4.7814    1.0000 </r>
       <r>    6.2783    1.0000 </r>
       <r>    6.4959    1.0000 </r>
       <r>    6.9825    1.0000 </r>
       <r>    7.7636    1.0000 </r>
       <r>    7.9969    1.0000 </r>
       <r>    8.2771    1.0000 </r>
       <r>    8.9188    1.0000 </r>
       <r>    9.4383    1.0000 </r>
       <r>    9.8403    1.0000 </r>
       <r>    9.9526    1.0000 </r>
       <r>   16.9364    0.0000 </r>
       <r>   17.9188    0.0000 </r>
       <r>   21.1778    0.0000 </r>
       <r>   24.2535    0.0000 </r>
       <r>   28.6989    0.0000 </r>
      </set>
      <set comment="kpoint 8">
       <r>    5.8212    1.0000 </r>
       <r>    5.9957    1.0000 </r>
       <r>    6.0904    1.0000 </r>
       <r>    7.4842    1.0000 </r>
       <r>    7.6777    1.0000 </r>
       <r>    7.9742    1.0000 </r>
       <r>    8.2888    1.0000 </r>
       <r>    9.6149    1.0000 </r>
       <r>    9.8510    1.0000 </r>
       <r>    9.8626    1.0000 </r>
       <r>   11.6562    0.0000 </r>
       <r>   15.5206    0.0000 </r>
       <r>   19.9753    0.0000 </r>
       <r>   20.7931    0.0000 </r>
       <r>   22.8442    0.0000 </r>
       <r>   24.6689    0.0000 </r>
      </set>
      <set comment="kpoint 9">
       <r>    6.0909    1.0000 </r>
       <r>    6.2200    1.0000 </r>
       <r>    6.5798    1.0000 </r>
       <r>    6.6243    1.0000 </r>
       <r>    7.5426    1.0000 </r>
       <r>    8.0124    1.0000 </r>
       <r>    8.2957    1.0000 </r>
       <r>    9.1494    1.0000 </r>
       <r>    9.7632    1.0000 </r>
       <r>    9.8671    1.0000 </r>
       <r>   11.6513    0.0000 </r>
       <r>   18.2251    0.0000 </r>
       <r>   19.0120    0.0000 </r>
       <r>   19.7220    0.0000 </r>
       <r>   21.1491    0.0000 </r>
       <r>   27.4023    0.0000 </r>
      </set>
      <set comment="kpoint 10">
       <r>    6.1364    1.0000 </r>
       <r>    6.3925    1.0000 </r>
       <r>    6.4033    1.0000 </r>
       <r>    7.0235    1.0000 </r>
       <r>    7.5828    1.0000 </r>
       <r>    7.7578    1.0000 </r>
       <r>    8.4916    1.0000 </r>
       <r>    9.5263    1.0000 </r>
       <r>    9.7298    1.0000 </r>
       <r>    9.7406    1.0000 </r>
       <r>   14.0414    0.0000 </r>
       <r>   15.1761    0.0000 </r>
       <r>   18.3168    0.0000 </r>
       <r>   22.3958    0.0000 </r>
       <r>   22.4977    0.0000 </r>
       <r>   24.1789    0.0000 </r>
      </set>
      <set comment="kpoint 11">
       <r>    1.7937    1.0000 </r>
       <r>    5.2279    1.0000 </r>
       <r>    7.7688    1.0000 </r>
       <r>    7.8382    1.0000 </r>
       <r>    7.8382    1.0000 </r>
       <r>    8.1413    1.0000 </r>
       <r>    8.1413    1.0000 </r>
       <r>    8.7650    1.0000 </r>
       <r>    8.7650    1.0000 </r>
       <r>    9.4069    1.0000 </r>
       <r>    9.6956    1.0000 </r>
       <r>    9.6956    1.0000 </r>
       <r>   18.5027    0.0000 </r>
       <r>   32.5833    0.0000 </r>
       <r>   34.0464    0.0000 </r>
       <r>   35.3561    0.0000 </r>
      </set>
      <set comment="kpoint 12">
       <r>    2.3345    1.0000 </r>
       <r>    5.5805    1.0000 </r>
       <r>    7.5330    1.0000 </r>
       <r>    7.7444    1.0000 </r>
       <r>    7.8999    1.0000 </r>
       <r>    8.0518    1.0000 </r>
       <r>    8.3380    1.0000 </r>
       <r>    8.3540    1.0000 </r>
       <r>    8.6807    1.0000 </r>
       <r>    8.7773    1.0000 </r>
       <r>    9.7411    1.0000 </r>
       <r>   11.3360    0.0000 </r>
       <r>   18.7629    0.0000 </r>
       <r>   29.2933    0.0000 </r>
       <r>   32.4363    0.0000 </r>
       <r>   32.5848    0.0000 </r>
      </set>
      <set comment="kpoint 13">
       <r>    3.7701    1.0000 </r>
       <r>    6.1487    1.0000 </r>
       <r>    6.8029    1.0000 </r>
       <r>    7.2727    1.0000 </r>
       <r>    7.7292    1.0000 </r>
       <r>    8.1755    1.0000 </r>
       <r>    8.3291    1.0000 </r>
       <r>    8.8710    1.0000 </r>
       <r>    8.9415    1.0000 </r>
       <r>    8.9839    1.0000 </r>
       <r>    9.8100    1.0000 </r>
       <r>   13.2812    0.0000 </r>
       <r>   19.6371    0.0000 </r>
       <r>   23.6468    0.0000 </r>
       <r>   29.0117    0.0000 </r>
       <r>   29.2090    0.0000 </r>
      </set>
      <set comment="kpoint 14">
       <r>    5.1560    1.0000 </r>
       <r>    5.9360    1.0000 </r>
       <r>    6.4051    1.0000 </r>
       <r>    7.1278    1.0000 </r>
       <r>    7.9746    1.0000 </r>
       <r>    8.1064    1.0000 </r>
       <r>    8.6810    1.0000 </r>
       <r>    9.5524    1.0000 </r>
       <r>    9.5776    1.0000 </r>
       <r>    9.8804    1.0000 </r>
       <r>    9.9091    1.0000 </r>
       <r>   14.9964    0.0000 </r>
       <r>   18.7631    0.0000 </r>
       <r>   21.4178    0.0000 </r>
       <r>   24.8077    0.0000 </r>
       <r>   26.9506    0.0000 </r>
      </set>
      <set comment="kpoint 15">
       <r>    5.4269    1.0000 </r>
       <r>    5.7260    1.0000 </r>
       <r>    6.4430    1.0000 </r>
       <r>    7.0674    1.0000 </r>
       <r>    7.8850    1.0000 </r>
       <r>    8.3144    1.0000 </r>
       <r>    9.0803    1.0000 </r>
       <r>    9.7234    1.0000 </r>
       <r>    9.9020    1.0000 </r>
       <r>    9.9972    1.0000 </r>
       <r>   11.6867    0.0000 </r>
       <r>   13.7802    0.0000 </r>
       <r>   19.4622    0.0000 </r>
       <r>   19.7389    0.0000 </r>
       <r>   25.2138    0.0000 </r>
       <r>   26.1124    0.0000 </r>
      </set>
      <set comment="kpoint 16">
       <r>    3.3387    1.0000 </r>
       <r>    6.1257    1.0000 </r>
       <r>    7.0390    1.0000 </r>
       <r>    7.1871    1.0000 </r>
       <r>    7.8709    1.0000 </r>
       <r>    8.0090    1.0000 </r>
       <r>    8.3421    1.0000 </r>
       <r>    8.5770    1.0000 </r>
       <r>    8.9022    1.0000 </r>
       <r>    8.9576    1.0000 </r>
       <r>    9.7784    1.0000 </r>
       <r>   12.7735    0.0000 </r>
       <r>   19.3598    0.0000 </r>
       <r>   26.3643    0.0000 </r>
       <r>   26.9906    0.0000 </r>
       <r>   31.6054    0.0000 </r>
      </set>
      <set comment="kpoint 17">
       <r>    4.9019    1.0000 </r>
       <r>    6.3619    1.0000 </r>
       <r>    6.4194    1.0000 </r>
       <r>    7.0460    1.0000 </r>
       <r>    7.7146    1.0000 </r>
       <r>    8.1163    1.0000 </r>
       <r>    8.2040    1.0000 </r>
       <r>    8.9542    1.0000 </r>
       <r>    9.5330    1.0000 </r>
       <r>    9.5754    1.0000 </r>
       <r>   10.0794    1.0000 </r>
       <r>   14.6736    0.0000 </r>
       <r>   20.4024    0.0000 </r>
       <r>   21.6078    0.0000 </r>
       <r>   24.5362    0.0000 </r>
       <r>   27.1010    0.0000 </r>
      </set>
      <set comment="kpoint 18">
       <r>    5.6186    1.0000 </r>
       <r>    6.0205    1.0000 </r>
       <r>    6.4904    1.0000 </r>
       <r>    7.0215    1.0000 </r>
       <r>    7.7037    1.0000 </r>
       <r>    8.3454    1.0000 </r>
       <r>    8.4621    1.0000 </r>
       <r>    9.5622    1.0000 </r>
       <r>    9.6831    1.0000 </r>
       <r>    9.9188    1.0000 </r>
       <r>   11.6832    0.0000 </r>
       <r>   15.1530    0.0000 </r>
       <r>   18.6758    0.0000 </r>
       <r>   21.4307    0.0000 </r>
       <r>   23.1440    0.0000 </r>
       <r>   24.7924    0.0000 </r>
      </set>
      <set comment="kpoint 19">
       <r>    6.0900    1.0000 </r>
       <r>    6.1701    1.0000 </r>
       <r>    6.6287    1.0000 </r>
       <r>    6.7643    1.0000 </r>
       <r>    7.7012    1.0000 </r>
       <r>    7.8590    1.0000 </r>
       <r>    8.2955    1.0000 </r>
       <r>    9.1934    1.0000 </r>
       <r>    9.5533    1.0000 </r>
       <r>    9.9342    1.0000 </r>
       <r>   11.7799    0.0000 </r>
       <r>   16.6474    0.0000 </r>
       <r>   19.2959    0.0000 </r>
       <r>   20.0241    0.0000 </r>
       <r>   22.7231    0.0000 </r>
       <r>   25.7273    0.0000 </r>
      </set>
      <set comment="kpoint 20">
       <r>    6.0837    1.0000 </r>
       <r>    6.4882    1.0000 </r>
       <r>    6.5929    1.0000 </r>
       <r>    6.8643    1.0000 </r>
       <r>    7.5542    1.0000 </r>
       <r>    7.8172    1.0000 </r>
       <r>    8.5079    1.0000 </r>
       <r>    9.4960    1.0000 </r>
       <r>    9.5558    1.0000 </r>
       <r>    9.7895    1.0000 </r>
       <r>   14.2809    0.0000 </r>
       <r>   15.2208    0.0000 </r>
       <r>   18.4297    0.0000 </r>
       <r>   20.9217    0.0000 </r>
       <r>   21.3557    0.0000 </r>
       <r>   24.6359    0.0000 </r>
      </set>
      <set comment="kpoint 21">
       <r>    2.5980    1.0000 </r>
       <r>    4.8127    1.0000 </r>
       <r>    7.6078    1.0000 </r>
       <r>    7.7859    1.0000 </r>
       <r>    7.7859    1.0000 </r>
       <r>    7.9810    1.0000 </r>
       <r>    7.9810    1.0000 </r>
       <r>    8.0348    1.0000 </r>
       <r>    9.0853    1.0000 </r>
       <r>    9.0853    1.0000 </r>
       <r>    9.6037    1.0000 </r>
       <r>    9.6037    1.0000 </r>
       <r>   21.7517    0.0000 </r>
       <r>   29.7063    0.0000 </r>
       <r>   33.0928    0.0000 </r>
       <r>   34.3336    0.0000 </r>
      </set>
      <set comment="kpoint 22">
       <r>    3.1069    1.0000 </r>
       <r>    5.2310    1.0000 </r>
       <r>    7.2986    1.0000 </r>
       <r>    7.5595    1.0000 </r>
       <r>    7.6243    1.0000 </r>
       <r>    7.9867    1.0000 </r>
       <r>    8.1214    1.0000 </r>
       <r>    8.1936    1.0000 </r>
       <r>    9.0349    1.0000 </r>
       <r>    9.1376    1.0000 </r>
       <r>    9.6148    1.0000 </r>
       <r>   10.2267    1.0000 </r>
       <r>   22.1073    0.0000 </r>
       <r>   29.8590    0.0000 </r>
       <r>   30.1038    0.0000 </r>
       <r>   32.0862    0.0000 </r>
      </set>
      <set comment="kpoint 23">
       <r>    4.3645    1.0000 </r>
       <r>    5.9383    1.0000 </r>
       <r>    6.7054    1.0000 </r>
       <r>    7.3010    1.0000 </r>
       <r>    7.6052    1.0000 </r>
       <r>    8.1618    1.0000 </r>
       <r>    8.2954    1.0000 </r>
       <r>    8.7257    1.0000 </r>
       <r>    9.1408    1.0000 </r>
       <r>    9.3501    1.0000 </r>
       <r>    9.6440    1.0000 </r>
       <r>   11.3817    0.0000 </r>
       <r>   23.0420    0.0000 </r>
       <r>   24.4237    0.0000 </r>
       <r>   27.1721    0.0000 </r>
       <r>   30.2668    0.0000 </r>
      </set>
      <set comment="kpoint 24">
       <r>    5.2369    1.0000 </r>
       <r>    5.8248    1.0000 </r>
       <r>    6.5615    1.0000 </r>
       <r>    6.9820    1.0000 </r>
       <r>    8.2755    1.0000 </r>
       <r>    8.3096    1.0000 </r>
       <r>    9.1885    1.0000 </r>
       <r>    9.4593    1.0000 </r>
       <r>    9.6352    1.0000 </r>
       <r>    9.7242    1.0000 </r>
       <r>    9.8051    1.0000 </r>
       <r>   12.7855    0.0000 </r>
       <r>   19.5028    0.0000 </r>
       <r>   21.7813    0.0000 </r>
       <r>   25.7899    0.0000 </r>
       <r>   28.1355    0.0000 </r>
      </set>
      <set comment="kpoint 25">
       <r>    5.3086    1.0000 </r>
       <r>    5.7164    1.0000 </r>
       <r>    6.5927    1.0000 </r>
       <r>    6.7983    1.0000 </r>
       <r>    8.2271    1.0000 </r>
       <r>    8.6415    1.0000 </r>
       <r>    9.2826    1.0000 </r>
       <r>    9.9179    1.0000 </r>
       <r>    9.9447    1.0000 </r>
       <r>    9.9759    1.0000 </r>
       <r>   11.3946    0.0000 </r>
       <r>   13.1778    0.0000 </r>
       <r>   18.3736    0.0000 </r>
       <r>   18.4344    0.0000 </r>
       <r>   27.3471    0.0000 </r>
       <r>   28.1015    0.0000 </r>
      </set>
      <set comment="kpoint 26">
       <r>    4.0164    1.0000 </r>
       <r>    5.8846    1.0000 </r>
       <r>    6.8026    1.0000 </r>
       <r>    7.3076    1.0000 </r>
       <r>    7.5476    1.0000 </r>
       <r>    7.9347    1.0000 </r>
       <r>    8.2640    1.0000 </r>
       <r>    8.5814    1.0000 </r>
       <r>    9.1663    1.0000 </r>
       <r>    9.2333    1.0000 </r>
       <r>    9.6641    1.0000 </r>
       <r>   11.0711    0.0000 </r>
       <r>   22.8207    0.0000 </r>
       <r>   27.0245    0.0000 </r>
       <r>   27.7614    0.0000 </r>
       <r>   29.8706    0.0000 </r>
      </set>
      <set comment="kpoint 27">
       <r>    5.2248    1.0000 </r>
       <r>    6.0949    1.0000 </r>
       <r>    6.6527    1.0000 </r>
       <r>    7.1973    1.0000 </r>
       <r>    7.6185    1.0000 </r>
       <r>    8.0448    1.0000 </r>
       <r>    8.3240    1.0000 </r>
       <r>    8.9905    1.0000 </r>
       <r>    9.4448    1.0000 </r>
       <r>    9.7257    1.0000 </r>
       <r>   10.1778    1.0000 </r>
       <r>   12.4601    0.0000 </r>
       <r>   21.9227    0.0000 </r>
       <r>   23.7858    0.0000 </r>
       <r>   25.0309    0.0000 </r>
       <r>   26.1029    0.0000 </r>
      </set>
      <set comment="kpoint 28">
       <r>    5.5457    1.0000 </r>
       <r>    5.9987    1.0000 </r>
       <r>    6.6063    1.0000 </r>
       <r>    7.0318    1.0000 </r>
       <r>    7.7419    1.0000 </r>
       <r>    8.5955    1.0000 </r>
       <r>    8.8341    1.0000 </r>
       <r>    9.1903    1.0000 </r>
       <r>    9.6522    1.0000 </r>
       <r>    9.9971    1.0000 </r>
       <r>   11.9112    0.0000 </r>
       <r>   13.9882    0.0000 </r>
       <r>   18.3108    0.0000 </r>
       <r>   20.1256    0.0000 </r>
       <r>   24.2370    0.0000 </r>
       <r>   27.1329    0.0000 </r>
      </set>
      <set comment="kpoint 29">
       <r>    6.0718    1.0000 </r>
       <r>    6.1164    1.0000 </r>
       <r>    6.7955    1.0000 </r>
       <r>    7.1561    1.0000 </r>
       <r>    7.5215    1.0000 </r>
       <r>    7.8129    1.0000 </r>
       <r>    8.3381    1.0000 </r>
       <r>    8.9926    1.0000 </r>
       <r>    9.5471    1.0000 </r>
       <r>   10.0140    1.0000 </r>
       <r>   12.1700    0.0000 </r>
       <r>   14.5925    0.0000 </r>
       <r>   20.0813    0.0000 </r>
       <r>   20.7388    0.0000 </r>
       <r>   22.8484    0.0000 </r>
       <r>   23.7591    0.0000 </r>
      </set>
      <set comment="kpoint 30">
       <r>    6.1097    1.0000 </r>
       <r>    6.5519    1.0000 </r>
       <r>    6.7192    1.0000 </r>
       <r>    6.9589    1.0000 </r>
       <r>    7.4503    1.0000 </r>
       <r>    7.8329    1.0000 </r>
       <r>    8.5723    1.0000 </r>
       <r>    9.0221    1.0000 </r>
       <r>    9.6535    1.0000 </r>
       <r>    9.8437    1.0000 </r>
       <r>   14.8293    0.0000 </r>
       <r>   15.3266    0.0000 </r>
       <r>   18.4057    0.0000 </r>
       <r>   19.2166    0.0000 </r>
       <r>   20.6790    0.0000 </r>
       <r>   22.9259    0.0000 </r>
      </set>
      <set comment="kpoint 31">
       <r>    3.7630    1.0000 </r>
       <r>    3.7630    1.0000 </r>
       <r>    7.5420    1.0000 </r>
       <r>    7.5420    1.0000 </r>
       <r>    7.8378    1.0000 </r>
       <r>    7.8378    1.0000 </r>
       <r>    7.8378    1.0000 </r>
       <r>    7.8378    1.0000 </r>
       <r>    9.3940    1.0000 </r>
       <r>    9.3940    1.0000 </r>
       <r>    9.3940    1.0000 </r>
       <r>    9.3940    1.0000 </r>
       <r>   25.6246    0.0000 </r>
       <r>   25.6246    0.0000 </r>
       <r>   33.4954    0.0000 </r>
       <r>   33.4954    0.0000 </r>
      </set>
      <set comment="kpoint 32">
       <r>    4.2246    1.0000 </r>
       <r>    4.2246    1.0000 </r>
       <r>    7.2723    1.0000 </r>
       <r>    7.2723    1.0000 </r>
       <r>    7.8249    1.0000 </r>
       <r>    7.8249    1.0000 </r>
       <r>    8.0450    1.0000 </r>
       <r>    8.0450    1.0000 </r>
       <r>    9.3706    1.0000 </r>
       <r>    9.3706    1.0000 </r>
       <r>    9.6000    1.0000 </r>
       <r>    9.6000    1.0000 </r>
       <r>   26.0075    0.0000 </r>
       <r>   26.0075    0.0000 </r>
       <r>   30.8479    0.0000 </r>
       <r>   30.8479    0.0000 </r>
      </set>
      <set comment="kpoint 33">
       <r>    5.1834    1.0000 </r>
       <r>    5.1834    1.0000 </r>
       <r>    7.0024    1.0000 </r>
       <r>    7.0024    1.0000 </r>
       <r>    7.8586    1.0000 </r>
       <r>    7.8586    1.0000 </r>
       <r>    8.4936    1.0000 </r>
       <r>    8.4936    1.0000 </r>
       <r>    9.4008    1.0000 </r>
       <r>    9.4008    1.0000 </r>
       <r>   10.1012    1.0000 </r>
       <r>   10.1012    1.0000 </r>
       <r>   25.2804    0.0000 </r>
       <r>   25.2804    0.0000 </r>
       <r>   27.4297    0.0000 </r>
       <r>   27.4297    0.0000 </r>
      </set>
      <set comment="kpoint 34">
       <r>    5.4904    1.0000 </r>
       <r>    5.4904    1.0000 </r>
       <r>    6.7992    1.0000 </r>
       <r>    6.7992    1.0000 </r>
       <r>    8.7140    1.0000 </r>
       <r>    8.7140    1.0000 </r>
       <r>    8.9052    1.0000 </r>
       <r>    8.9052    1.0000 </r>
       <r>    9.7184    1.0000 </r>
       <r>    9.7184    1.0000 </r>
       <r>   10.9955    0.0000 </r>
       <r>   10.9955    0.0000 </r>
       <r>   20.5385    0.0000 </r>
       <r>   20.5385    0.0000 </r>
       <r>   29.0485    0.0000 </r>
       <r>   29.0485    0.0000 </r>
      </set>
      <set comment="kpoint 35">
       <r>    5.4569    1.0000 </r>
       <r>    5.4569    1.0000 </r>
       <r>    6.6923    1.0000 </r>
       <r>    6.6923    1.0000 </r>
       <r>    8.7296    1.0000 </r>
       <r>    8.7296    1.0000 </r>
       <r>    9.4636    1.0000 </r>
       <r>    9.4636    1.0000 </r>
       <r>    9.9467    1.0000 </r>
       <r>    9.9467    1.0000 </r>
       <r>   12.1720    0.0000 </r>
       <r>   12.1720    0.0000 </r>
       <r>   17.9784    0.0000 </r>
       <r>   17.9784    0.0000 </r>
       <r>   29.2004    0.0000 </r>
       <r>   29.2004    0.0000 </r>
      </set>
      <set comment="kpoint 36">
       <r>    4.9812    1.0000 </r>
       <r>    4.9812    1.0000 </r>
       <r>    7.0691    1.0000 </r>
       <r>    7.0691    1.0000 </r>
       <r>    7.6498    1.0000 </r>
       <r>    7.6498    1.0000 </r>
       <r>    8.4055    1.0000 </r>
       <r>    8.4055    1.0000 </r>
       <r>    9.4164    1.0000 </r>
       <r>    9.4164    1.0000 </r>
       <r>    9.9580    1.0000 </r>
       <r>    9.9580    1.0000 </r>
       <r>   26.6546    0.0000 </r>
       <r>   26.6546    0.0000 </r>
       <r>   28.0048    0.0000 </r>
       <r>   28.0048    0.0000 </r>
      </set>
      <set comment="kpoint 37">
       <r>    5.6594    1.0000 </r>
       <r>    5.6594    1.0000 </r>
       <r>    7.0094    1.0000 </r>
       <r>    7.0094    1.0000 </r>
       <r>    7.7979    1.0000 </r>
       <r>    7.7979    1.0000 </r>
       <r>    8.6113    1.0000 </r>
       <r>    8.6113    1.0000 </r>
       <r>    9.7723    1.0000 </r>
       <r>    9.7723    1.0000 </r>
       <r>   10.8428    0.0000 </r>
       <r>   10.8428    0.0000 </r>
       <r>   23.0996    0.0000 </r>
       <r>   23.0996    0.0000 </r>
       <r>   26.6527    0.0000 </r>
       <r>   26.6527    0.0000 </r>
      </set>
      <set comment="kpoint 38">
       <r>    5.7095    1.0000 </r>
       <r>    5.7095    1.0000 </r>
       <r>    6.8527    1.0000 </r>
       <r>    6.8527    1.0000 </r>
       <r>    8.2710    1.0000 </r>
       <r>    8.2710    1.0000 </r>
       <r>    8.9906    1.0000 </r>
       <r>    8.9906    1.0000 </r>
       <r>    9.8626    1.0000 </r>
       <r>    9.8626    1.0000 </r>
       <r>   12.6991    0.0000 </r>
       <r>   12.6991    0.0000 </r>
       <r>   18.9313    0.0000 </r>
       <r>   18.9313    0.0000 </r>
       <r>   25.6603    0.0000 </r>
       <r>   25.6603    0.0000 </r>
      </set>
      <set comment="kpoint 39">
       <r>    6.0795    1.0000 </r>
       <r>    6.0795    1.0000 </r>
       <r>    7.1223    1.0000 </r>
       <r>    7.1223    1.0000 </r>
       <r>    7.5915    1.0000 </r>
       <r>    7.5915    1.0000 </r>
       <r>    8.5557    1.0000 </r>
       <r>    8.5557    1.0000 </r>
       <r>    9.9007    1.0000 </r>
       <r>    9.9007    1.0000 </r>
       <r>   13.0413    0.0000 </r>
       <r>   13.0413    0.0000 </r>
       <r>   21.1146    0.0000 </r>
       <r>   21.1146    0.0000 </r>
       <r>   22.3004    0.0000 </r>
       <r>   22.3004    0.0000 </r>
      </set>
      <set comment="kpoint 40">
       <r>    6.2751    1.0000 </r>
       <r>    6.2751    1.0000 </r>
       <r>    6.9933    1.0000 </r>
       <r>    6.9933    1.0000 </r>
       <r>    7.6017    1.0000 </r>
       <r>    7.6017    1.0000 </r>
       <r>    8.6979    1.0000 </r>
       <r>    8.6979    1.0000 </r>
       <r>    9.7874    1.0000 </r>
       <r>    9.7874    1.0000 </r>
       <r>   15.2866    0.0000 </r>
       <r>   15.2866    0.0000 </r>
       <r>   18.3225    0.0000 </r>
       <r>   18.3225    0.0000 </r>
       <r>   21.4463    0.0000 </r>
       <r>   21.4463    0.0000 </r>
      </set>
     </set>
     <set comment="spin 2">
      <set comment="kpoint 1">
       <r>    1.5085    1.0000 </r>
       <r>    6.2499    1.0000 </r>
       <r>    9.4981    1.0000 </r>
       <r>    9.5609    1.0000 </r>
       <r>    9.5609    1.0000 </r>
       <r>    9.9300    1.0000 </r>
       <r>    9.9300    1.0000 </r>
       <r>   10.3204    1.0000 </r>
       <r>   10.3805    0.9999 </r>
       <r>   10.3805    0.9999 </r>
       <r>   11.6062    0.0000 </r>
       <r>   11.6062    0.0000 </r>
       <r>   18.0011    0.0000 </r>
       <r>   32.4774    0.0000 </r>
       <r>   35.7555    0.0000 </r>
       <r>   35.8662    0.0000 </r>
      </set>
      <set comment="kpoint 2">
       <r>    2.0631    1.0000 </r>
       <r>    6.6170    1.0000 </r>
       <r>    9.0925    1.0000 </r>
       <r>    9.1916    1.0000 </r>
       <r>    9.7286    1.0000 </r>
       <r>    9.8455    1.0000 </r>
       <r>    9.9172    1.0000 </r>
       <r>   10.1813    1.0000 </r>
       <r>   10.2016    1.0000 </r>
       <r>   10.2373    1.0000 </r>
       <r>   11.6783    0.0000 </r>
       <r>   13.2145    0.0000 </r>
       <r>   18.0471    0.0000 </r>
       <r>   29.3303    0.0000 </r>
       <r>   32.4619    0.0000 </r>
       <r>   32.8504    0.0000 </r>
      </set>
      <set comment="kpoint 3">
       <r>    3.5989    1.0000 </r>
       <r>    7.2788    1.0000 </r>
       <r>    8.0745    1.0000 </r>
       <r>    8.6042    1.0000 </r>
       <r>    9.4645    1.0000 </r>
       <r>    9.8394    1.0000 </r>
       <r>    9.9078    1.0000 </r>
       <r>   10.5352    0.3051 </r>
       <r>   10.5899    0.0199 </r>
       <r>   10.8279    0.0000 </r>
       <r>   11.7866    0.0000 </r>
       <r>   15.7287    0.0000 </r>
       <r>   18.2499    0.0000 </r>
       <r>   23.8665    0.0000 </r>
       <r>   29.1147    0.0000 </r>
       <r>   30.9221    0.0000 </r>
      </set>
      <set comment="kpoint 4">
       <r>    5.5587    1.0000 </r>
       <r>    7.1959    1.0000 </r>
       <r>    7.4129    1.0000 </r>
       <r>    8.5182    1.0000 </r>
       <r>    9.5303    1.0000 </r>
       <r>    9.5868    1.0000 </r>
       <r>    9.6896    1.0000 </r>
       <r>   11.4202    0.0000 </r>
       <r>   11.5640    0.0000 </r>
       <r>   11.6673    0.0000 </r>
       <r>   11.8468    0.0000 </r>
       <r>   17.5318    0.0000 </r>
       <r>   18.5857    0.0000 </r>
       <r>   20.6296    0.0000 </r>
       <r>   26.6061    0.0000 </r>
       <r>   26.7227    0.0000 </r>
      </set>
      <set comment="kpoint 5">
       <r>    6.5999    1.0000 </r>
       <r>    6.8900    1.0000 </r>
       <r>    7.1976    1.0000 </r>
       <r>    8.6763    1.0000 </r>
       <r>    9.4122    1.0000 </r>
       <r>    9.4556    1.0000 </r>
       <r>    9.8890    1.0000 </r>
       <r>   11.7687    0.0000 </r>
       <r>   11.8634    0.0000 </r>
       <r>   11.9333    0.0000 </r>
       <r>   13.1446    0.0000 </r>
       <r>   14.9459    0.0000 </r>
       <r>   20.7590    0.0000 </r>
       <r>   21.4081    0.0000 </r>
       <r>   23.9631    0.0000 </r>
       <r>   25.2811    0.0000 </r>
      </set>
      <set comment="kpoint 6">
       <r>    3.1154    1.0000 </r>
       <r>    7.1883    1.0000 </r>
       <r>    8.3615    1.0000 </r>
       <r>    8.6259    1.0000 </r>
       <r>    9.5576    1.0000 </r>
       <r>    9.7337    1.0000 </r>
       <r>   10.1401    1.0000 </r>
       <r>   10.1966    1.0000 </r>
       <r>   10.4157    0.9980 </r>
       <r>   10.7460    0.0000 </r>
       <r>   11.7235    0.0000 </r>
       <r>   15.0304    0.0000 </r>
       <r>   18.2015    0.0000 </r>
       <r>   26.4704    0.0000 </r>
       <r>   27.1012    0.0000 </r>
       <r>   33.0240    0.0000 </r>
      </set>
      <set comment="kpoint 7">
       <r>    4.9354    1.0000 </r>
       <r>    7.5475    1.0000 </r>
       <r>    7.6692    1.0000 </r>
       <r>    8.2485    1.0000 </r>
       <r>    9.3636    1.0000 </r>
       <r>    9.5551    1.0000 </r>
       <r>    9.8741    1.0000 </r>
       <r>   10.6906    0.0000 </r>
       <r>   11.2654    0.0000 </r>
       <r>   11.6990    0.0000 </r>
       <r>   11.7538    0.0000 </r>
       <r>   17.6222    0.0000 </r>
       <r>   18.5741    0.0000 </r>
       <r>   21.7273    0.0000 </r>
       <r>   24.6202    0.0000 </r>
       <r>   28.8981    0.0000 </r>
      </set>
      <set comment="kpoint 8">
       <r>    6.5750    1.0000 </r>
       <r>    7.2274    1.0000 </r>
       <r>    7.3211    1.0000 </r>
       <r>    8.3547    1.0000 </r>
       <r>    9.2635    1.0000 </r>
       <r>    9.4962    1.0000 </r>
       <r>    9.8872    1.0000 </r>
       <r>   11.4667    0.0000 </r>
       <r>   11.7606    0.0000 </r>
       <r>   11.7657    0.0000 </r>
       <r>   13.0292    0.0000 </r>
       <r>   16.3333    0.0000 </r>
       <r>   20.4934    0.0000 </r>
       <r>   21.2621    0.0000 </r>
       <r>   23.1781    0.0000 </r>
       <r>   25.1056    0.0000 </r>
      </set>
      <set comment="kpoint 9">
       <r>    6.6164    1.0000 </r>
       <r>    7.4686    1.0000 </r>
       <r>    7.7726    1.0000 </r>
       <r>    7.8118    1.0000 </r>
       <r>    9.0787    1.0000 </r>
       <r>    9.5526    1.0000 </r>
       <r>    9.8882    1.0000 </r>
       <r>   10.9666    0.0000 </r>
       <r>   11.6654    0.0000 </r>
       <r>   11.7608    0.0000 </r>
       <r>   13.0974    0.0000 </r>
       <r>   18.7662    0.0000 </r>
       <r>   19.6001    0.0000 </r>
       <r>   20.3046    0.0000 </r>
       <r>   21.6207    0.0000 </r>
       <r>   27.6181    0.0000 </r>
      </set>
      <set comment="kpoint 10">
       <r>    7.3837    1.0000 </r>
       <r>    7.4288    1.0000 </r>
       <r>    7.5927    1.0000 </r>
       <r>    7.9573    1.0000 </r>
       <r>    9.1087    1.0000 </r>
       <r>    9.2422    1.0000 </r>
       <r>   10.1205    1.0000 </r>
       <r>   11.3814    0.0000 </r>
       <r>   11.6270    0.0000 </r>
       <r>   11.6276    0.0000 </r>
       <r>   14.9612    0.0000 </r>
       <r>   16.0844    0.0000 </r>
       <r>   18.8694    0.0000 </r>
       <r>   22.8472    0.0000 </r>
       <r>   22.8824    0.0000 </r>
       <r>   24.6502    0.0000 </r>
      </set>
      <set comment="kpoint 11">
       <r>    1.7906    1.0000 </r>
       <r>    6.0314    1.0000 </r>
       <r>    9.4059    1.0000 </r>
       <r>    9.4957    1.0000 </r>
       <r>    9.4957    1.0000 </r>
       <r>    9.6994    1.0000 </r>
       <r>    9.8465    1.0000 </r>
       <r>    9.8465    1.0000 </r>
       <r>   10.5571    0.1294 </r>
       <r>   10.5571    0.1294 </r>
       <r>   11.5895    0.0000 </r>
       <r>   11.5895    0.0000 </r>
       <r>   19.3375    0.0000 </r>
       <r>   32.2640    0.0000 </r>
       <r>   34.1284    0.0000 </r>
       <r>   35.1562    0.0000 </r>
      </set>
      <set comment="kpoint 12">
       <r>    2.3361    1.0000 </r>
       <r>    6.4296    1.0000 </r>
       <r>    8.8465    1.0000 </r>
       <r>    9.1166    1.0000 </r>
       <r>    9.5553    1.0000 </r>
       <r>    9.7328    1.0000 </r>
       <r>    9.8456    1.0000 </r>
       <r>   10.0762    1.0000 </r>
       <r>   10.4571    0.9556 </r>
       <r>   10.5024    0.6621 </r>
       <r>   11.6432    0.0000 </r>
       <r>   12.6276    0.0000 </r>
       <r>   19.5391    0.0000 </r>
       <r>   29.5107    0.0000 </r>
       <r>   32.5810    0.0000 </r>
       <r>   32.7552    0.0000 </r>
      </set>
      <set comment="kpoint 13">
       <r>    3.8316    1.0000 </r>
       <r>    7.1867    1.0000 </r>
       <r>    7.9439    1.0000 </r>
       <r>    8.6669    1.0000 </r>
       <r>    9.3216    1.0000 </r>
       <r>    9.8421    1.0000 </r>
       <r>    9.8767    1.0000 </r>
       <r>   10.6347    0.0004 </r>
       <r>   10.7056    0.0000 </r>
       <r>   10.7879    0.0000 </r>
       <r>   11.7224    0.0000 </r>
       <r>   14.3303    0.0000 </r>
       <r>   20.2597    0.0000 </r>
       <r>   24.1128    0.0000 </r>
       <r>   29.2692    0.0000 </r>
       <r>   29.4889    0.0000 </r>
      </set>
      <set comment="kpoint 14">
       <r>    5.6498    1.0000 </r>
       <r>    7.1124    1.0000 </r>
       <r>    7.5503    1.0000 </r>
       <r>    8.4018    1.0000 </r>
       <r>    9.5954    1.0000 </r>
       <r>    9.6465    1.0000 </r>
       <r>    9.9386    1.0000 </r>
       <r>   11.4149    0.0000 </r>
       <r>   11.4456    0.0000 </r>
       <r>   11.5778    0.0000 </r>
       <r>   11.7994    0.0000 </r>
       <r>   15.7208    0.0000 </r>
       <r>   19.5091    0.0000 </r>
       <r>   21.8458    0.0000 </r>
       <r>   25.2889    0.0000 </r>
       <r>   27.1600    0.0000 </r>
      </set>
      <set comment="kpoint 15">
       <r>    6.4111    1.0000 </r>
       <r>    6.9073    1.0000 </r>
       <r>    7.6068    1.0000 </r>
       <r>    8.1725    1.0000 </r>
       <r>    9.5441    1.0000 </r>
       <r>    9.8487    1.0000 </r>
       <r>   10.2352    1.0000 </r>
       <r>   11.6181    0.0000 </r>
       <r>   11.8180    0.0000 </r>
       <r>   11.9247    0.0000 </r>
       <r>   12.8244    0.0000 </r>
       <r>   14.7049    0.0000 </r>
       <r>   20.0445    0.0000 </r>
       <r>   20.3554    0.0000 </r>
       <r>   25.5772    0.0000 </r>
       <r>   26.2794    0.0000 </r>
      </set>
      <set comment="kpoint 16">
       <r>    3.3651    1.0000 </r>
       <r>    7.0715    1.0000 </r>
       <r>    8.1552    1.0000 </r>
       <r>    8.6807    1.0000 </r>
       <r>    9.4970    1.0000 </r>
       <r>    9.6139    1.0000 </r>
       <r>   10.0080    1.0000 </r>
       <r>   10.3044    1.0000 </r>
       <r>   10.6446    0.0002 </r>
       <r>   10.7454    0.0000 </r>
       <r>   11.6794    0.0000 </r>
       <r>   13.8925    0.0000 </r>
       <r>   20.0306    0.0000 </r>
       <r>   26.6929    0.0000 </r>
       <r>   27.3780    0.0000 </r>
       <r>   31.6759    0.0000 </r>
      </set>
      <set comment="kpoint 17">
       <r>    5.1094    1.0000 </r>
       <r>    7.4509    1.0000 </r>
       <r>    7.6920    1.0000 </r>
       <r>    8.3370    1.0000 </r>
       <r>    9.2532    1.0000 </r>
       <r>    9.6592    1.0000 </r>
       <r>    9.7970    1.0000 </r>
       <r>   10.7308    0.0000 </r>
       <r>   11.3671    0.0000 </r>
       <r>   11.4132    0.0000 </r>
       <r>   11.8865    0.0000 </r>
       <r>   15.5391    0.0000 </r>
       <r>   20.9622    0.0000 </r>
       <r>   22.1193    0.0000 </r>
       <r>   24.9153    0.0000 </r>
       <r>   27.4322    0.0000 </r>
      </set>
      <set comment="kpoint 18">
       <r>    6.5116    1.0000 </r>
       <r>    7.2019    1.0000 </r>
       <r>    7.5993    1.0000 </r>
       <r>    8.1931    1.0000 </r>
       <r>    9.2814    1.0000 </r>
       <r>    9.7126    1.0000 </r>
       <r>    9.9684    1.0000 </r>
       <r>   11.4145    0.0000 </r>
       <r>   11.5601    0.0000 </r>
       <r>   11.8253    0.0000 </r>
       <r>   13.0055    0.0000 </r>
       <r>   15.8879    0.0000 </r>
       <r>   19.4023    0.0000 </r>
       <r>   21.8857    0.0000 </r>
       <r>   23.5120    0.0000 </r>
       <r>   25.2195    0.0000 </r>
      </set>
      <set comment="kpoint 19">
       <r>    6.6858    1.0000 </r>
       <r>    7.3900    1.0000 </r>
       <r>    7.8393    1.0000 </r>
       <r>    8.0007    1.0000 </r>
       <r>    9.1338    1.0000 </r>
       <r>    9.3723    1.0000 </r>
       <r>    9.8928    1.0000 </r>
       <r>   11.0092    0.0000 </r>
       <r>   11.4214    0.0000 </r>
       <r>   11.8418    0.0000 </r>
       <r>   13.2021    0.0000 </r>
       <r>   17.2702    0.0000 </r>
       <r>   19.8880    0.0000 </r>
       <r>   20.6274    0.0000 </r>
       <r>   23.1218    0.0000 </r>
       <r>   26.1687    0.0000 </r>
      </set>
      <set comment="kpoint 20">
       <r>    7.2484    1.0000 </r>
       <r>    7.6764    1.0000 </r>
       <r>    7.7433    1.0000 </r>
       <r>    7.9000    1.0000 </r>
       <r>    9.0405    1.0000 </r>
       <r>    9.2060    1.0000 </r>
       <r>   10.1359    1.0000 </r>
       <r>   11.3551    0.0000 </r>
       <r>   11.4157    0.0000 </r>
       <r>   11.6837    0.0000 </r>
       <r>   15.1750    0.0000 </r>
       <r>   16.0934    0.0000 </r>
       <r>   18.9951    0.0000 </r>
       <r>   21.4550    0.0000 </r>
       <r>   21.8943    0.0000 </r>
       <r>   25.0754    0.0000 </r>
      </set>
      <set comment="kpoint 21">
       <r>    2.6058    1.0000 </r>
       <r>    5.1734    1.0000 </r>
       <r>    9.0004    1.0000 </r>
       <r>    9.1739    1.0000 </r>
       <r>    9.4399    1.0000 </r>
       <r>    9.4399    1.0000 </r>
       <r>    9.6628    1.0000 </r>
       <r>    9.6628    1.0000 </r>
       <r>   10.9154    0.0000 </r>
       <r>   10.9154    0.0000 </r>
       <r>   11.4932    0.0000 </r>
       <r>   11.4932    0.0000 </r>
       <r>   22.3497    0.0000 </r>
       <r>   29.8896    0.0000 </r>
       <r>   32.9040    0.0000 </r>
       <r>   34.0851    0.0000 </r>
      </set>
      <set comment="kpoint 22">
       <r>    3.1243    1.0000 </r>
       <r>    5.6100    1.0000 </r>
       <r>    8.5575    1.0000 </r>
       <r>    9.1410    1.0000 </r>
       <r>    9.2142    1.0000 </r>
       <r>    9.6606    1.0000 </r>
       <r>    9.6733    1.0000 </r>
       <r>    9.8927    1.0000 </r>
       <r>   10.8550    0.0000 </r>
       <r>   10.9371    0.0000 </r>
       <r>   11.5056    0.0000 </r>
       <r>   11.9197    0.0000 </r>
       <r>   22.6698    0.0000 </r>
       <r>   29.9452    0.0000 </r>
       <r>   30.4104    0.0000 </r>
       <r>   32.1471    0.0000 </r>
      </set>
      <set comment="kpoint 23">
       <r>    4.4949    1.0000 </r>
       <r>    6.5172    1.0000 </r>
       <r>    8.0561    1.0000 </r>
       <r>    8.7468    1.0000 </r>
       <r>    9.1023    1.0000 </r>
       <r>    9.6254    1.0000 </r>
       <r>   10.0018    1.0000 </r>
       <r>   10.4732    0.8934 </r>
       <r>   10.9663    0.0000 </r>
       <r>   11.1205    0.0000 </r>
       <r>   11.5365    0.0000 </r>
       <r>   12.7894    0.0000 </r>
       <r>   23.5259    0.0000 </r>
       <r>   24.8601    0.0000 </r>
       <r>   27.5072    0.0000 </r>
       <r>   30.5684    0.0000 </r>
      </set>
      <set comment="kpoint 24">
       <r>    5.9157    1.0000 </r>
       <r>    6.7886    1.0000 </r>
       <r>    7.8507    1.0000 </r>
       <r>    8.3748    1.0000 </r>
       <r>    9.6358    1.0000 </r>
       <r>    9.9768    1.0000 </r>
       <r>   10.3128    1.0000 </r>
       <r>   10.9963    0.0000 </r>
       <r>   11.5151    0.0000 </r>
       <r>   11.5363    0.0000 </r>
       <r>   11.7115    0.0000 </r>
       <r>   13.7160    0.0000 </r>
       <r>   20.2396    0.0000 </r>
       <r>   22.3102    0.0000 </r>
       <r>   26.1549    0.0000 </r>
       <r>   28.3909    0.0000 </r>
      </set>
      <set comment="kpoint 25">
       <r>    6.3229    1.0000 </r>
       <r>    6.7749    1.0000 </r>
       <r>    7.9158    1.0000 </r>
       <r>    8.1089    1.0000 </r>
       <r>    9.9210    1.0000 </r>
       <r>    9.9934    1.0000 </r>
       <r>   11.1079    0.0000 </r>
       <r>   11.4244    0.0000 </r>
       <r>   11.8355    0.0000 </r>
       <r>   11.9007    0.0000 </r>
       <r>   11.9786    0.0000 </r>
       <r>   13.9526    0.0000 </r>
       <r>   19.1793    0.0000 </r>
       <r>   19.2754    0.0000 </r>
       <r>   27.5725    0.0000 </r>
       <r>   28.2902    0.0000 </r>
      </set>
      <set comment="kpoint 26">
       <r>    4.0822    1.0000 </r>
       <r>    6.3265    1.0000 </r>
       <r>    8.1635    1.0000 </r>
       <r>    8.8132    1.0000 </r>
       <r>    9.1096    1.0000 </r>
       <r>    9.5005    1.0000 </r>
       <r>    9.9606    1.0000 </r>
       <r>   10.2835    1.0000 </r>
       <r>   10.9556    0.0000 </r>
       <r>   11.0447    0.0000 </r>
       <r>   11.5317    0.0000 </r>
       <r>   12.5643    0.0000 </r>
       <r>   23.3234    0.0000 </r>
       <r>   27.3297    0.0000 </r>
       <r>   28.1394    0.0000 </r>
       <r>   30.0404    0.0000 </r>
      </set>
      <set comment="kpoint 27">
       <r>    5.5921    1.0000 </r>
       <r>    6.9541    1.0000 </r>
       <r>    7.9866    1.0000 </r>
       <r>    8.5030    1.0000 </r>
       <r>    9.0813    1.0000 </r>
       <r>    9.4730    1.0000 </r>
       <r>    9.9803    1.0000 </r>
       <r>   10.7320    0.0000 </r>
       <r>   11.2801    0.0000 </r>
       <r>   11.5792    0.0000 </r>
       <r>   11.9008    0.0000 </r>
       <r>   13.5766    0.0000 </r>
       <r>   22.4811    0.0000 </r>
       <r>   24.1983    0.0000 </r>
       <r>   25.4653    0.0000 </r>
       <r>   26.4600    0.0000 </r>
      </set>
      <set comment="kpoint 28">
       <r>    6.5232    1.0000 </r>
       <r>    7.0308    1.0000 </r>
       <r>    7.9103    1.0000 </r>
       <r>    8.3486    1.0000 </r>
       <r>    9.2087    1.0000 </r>
       <r>    9.9382    1.0000 </r>
       <r>   10.2837    1.0000 </r>
       <r>   10.9833    0.0000 </r>
       <r>   11.5197    0.0000 </r>
       <r>   11.9195    0.0000 </r>
       <r>   13.0353    0.0000 </r>
       <r>   14.7060    0.0000 </r>
       <r>   19.1555    0.0000 </r>
       <r>   20.7709    0.0000 </r>
       <r>   24.6090    0.0000 </r>
       <r>   27.5203    0.0000 </r>
      </set>
      <set comment="kpoint 29">
       <r>    6.8619    1.0000 </r>
       <r>    7.2579    1.0000 </r>
       <r>    8.0624    1.0000 </r>
       <r>    8.3712    1.0000 </r>
       <r>    8.9815    1.0000 </r>
       <r>    9.1245    1.0000 </r>
       <r>    9.9739    1.0000 </r>
       <r>   10.7765    0.0000 </r>
       <r>   11.3910    0.0000 </r>
       <r>   11.9394    0.0000 </r>
       <r>   13.4506    0.0000 </r>
       <r>   15.3677    0.0000 </r>
       <r>   20.6699    0.0000 </r>
       <r>   21.3412    0.0000 </r>
       <r>   23.3007    0.0000 </r>
       <r>   24.2661    0.0000 </r>
      </set>
      <set comment="kpoint 30">
       <r>    7.2673    1.0000 </r>
       <r>    7.6377    1.0000 </r>
       <r>    8.0199    1.0000 </r>
       <r>    8.2013    1.0000 </r>
       <r>    8.8259    1.0000 </r>
       <r>    9.0824    1.0000 </r>
       <r>   10.2120    1.0000 </r>
       <r>   10.8165    0.0000 </r>
       <r>   11.5249    0.0000 </r>
       <r>   11.7419    0.0000 </r>
       <r>   15.6193    0.0000 </r>
       <r>   16.0998    0.0000 </r>
       <r>   19.0661    0.0000 </r>
       <r>   19.9110    0.0000 </r>
       <r>   21.2778    0.0000 </r>
       <r>   23.4265    0.0000 </r>
      </set>
      <set comment="kpoint 31">
       <r>    3.8369    1.0000 </r>
       <r>    3.8369    1.0000 </r>
       <r>    8.9429    1.0000 </r>
       <r>    8.9429    1.0000 </r>
       <r>    9.4997    1.0000 </r>
       <r>    9.4997    1.0000 </r>
       <r>    9.4997    1.0000 </r>
       <r>    9.4997    1.0000 </r>
       <r>   11.2612    0.0000 </r>
       <r>   11.2612    0.0000 </r>
       <r>   11.2612    0.0000 </r>
       <r>   11.2612    0.0000 </r>
       <r>   26.0401    0.0000 </r>
       <r>   26.0401    0.0000 </r>
       <r>   33.2370    0.0000 </r>
       <r>   33.2370    0.0000 </r>
      </set>
      <set comment="kpoint 32">
       <r>    4.3139    1.0000 </r>
       <r>    4.3139    1.0000 </r>
       <r>    8.7445    1.0000 </r>
       <r>    8.7445    1.0000 </r>
       <r>    9.4127    1.0000 </r>
       <r>    9.4127    1.0000 </r>
       <r>    9.7253    1.0000 </r>
       <r>    9.7253    1.0000 </r>
       <r>   11.2328    0.0000 </r>
       <r>   11.2328    0.0000 </r>
       <r>   11.4082    0.0000 </r>
       <r>   11.4082    0.0000 </r>
       <r>   26.4081    0.0000 </r>
       <r>   26.4081    0.0000 </r>
       <r>   30.9580    0.0000 </r>
       <r>   30.9580    0.0000 </r>
      </set>
      <set comment="kpoint 33">
       <r>    5.4713    1.0000 </r>
       <r>    5.4713    1.0000 </r>
       <r>    8.4370    1.0000 </r>
       <r>    8.4370    1.0000 </r>
       <r>    9.2989    1.0000 </r>
       <r>    9.2989    1.0000 </r>
       <r>   10.2164    1.0000 </r>
       <r>   10.2164    1.0000 </r>
       <r>   11.2617    0.0000 </r>
       <r>   11.2617    0.0000 </r>
       <r>   11.7725    0.0000 </r>
       <r>   11.7725    0.0000 </r>
       <r>   25.7121    0.0000 </r>
       <r>   25.7121    0.0000 </r>
       <r>   27.7359    0.0000 </r>
       <r>   27.7359    0.0000 </r>
      </set>
      <set comment="kpoint 34">
       <r>    6.3246    1.0000 </r>
       <r>    6.3246    1.0000 </r>
       <r>    8.1942    1.0000 </r>
       <r>    8.1942    1.0000 </r>
       <r>   10.0413    1.0000 </r>
       <r>   10.0413    1.0000 </r>
       <r>   10.4628    0.9381 </r>
       <r>   10.4628    0.9381 </r>
       <r>   11.6112    0.0000 </r>
       <r>   11.6112    0.0000 </r>
       <r>   12.2551    0.0000 </r>
       <r>   12.2551    0.0000 </r>
       <r>   21.1989    0.0000 </r>
       <r>   21.1989    0.0000 </r>
       <r>   29.2495    0.0000 </r>
       <r>   29.2495    0.0000 </r>
      </set>
      <set comment="kpoint 35">
       <r>    6.4779    1.0000 </r>
       <r>    6.4779    1.0000 </r>
       <r>    8.0922    1.0000 </r>
       <r>    8.0922    1.0000 </r>
       <r>   10.4809    0.8476 </r>
       <r>   10.4809    0.8476 </r>
       <r>   10.7979    0.0000 </r>
       <r>   10.7979    0.0000 </r>
       <r>   11.8679    0.0000 </r>
       <r>   11.8679    0.0000 </r>
       <r>   12.7916    0.0000 </r>
       <r>   12.7916    0.0000 </r>
       <r>   18.8967    0.0000 </r>
       <r>   18.8967    0.0000 </r>
       <r>   29.4800    0.0000 </r>
       <r>   29.4800    0.0000 </r>
      </set>
      <set comment="kpoint 36">
       <r>    5.1547    1.0000 </r>
       <r>    5.1547    1.0000 </r>
       <r>    8.5318    1.0000 </r>
       <r>    8.5318    1.0000 </r>
       <r>    9.2005    1.0000 </r>
       <r>    9.2005    1.0000 </r>
       <r>   10.1020    1.0000 </r>
       <r>   10.1020    1.0000 </r>
       <r>   11.2638    0.0000 </r>
       <r>   11.2638    0.0000 </r>
       <r>   11.6717    0.0000 </r>
       <r>   11.6717    0.0000 </r>
       <r>   27.0443    0.0000 </r>
       <r>   27.0443    0.0000 </r>
       <r>   28.2643    0.0000 </r>
       <r>   28.2643    0.0000 </r>
      </set>
      <set comment="kpoint 37">
       <r>    6.2668    1.0000 </r>
       <r>    6.2668    1.0000 </r>
       <r>    8.3669    1.0000 </r>
       <r>    8.3669    1.0000 </r>
       <r>    9.1675    1.0000 </r>
       <r>    9.1675    1.0000 </r>
       <r>   10.3392    1.0000 </r>
       <r>   10.3392    1.0000 </r>
       <r>   11.6642    0.0000 </r>
       <r>   11.6642    0.0000 </r>
       <r>   12.2304    0.0000 </r>
       <r>   12.2304    0.0000 </r>
       <r>   23.6104    0.0000 </r>
       <r>   23.6104    0.0000 </r>
       <r>   27.0384    0.0000 </r>
       <r>   27.0384    0.0000 </r>
      </set>
      <set comment="kpoint 38">
       <r>    6.7195    1.0000 </r>
       <r>    6.7195    1.0000 </r>
       <r>    8.2486    1.0000 </r>
       <r>    8.2486    1.0000 </r>
       <r>    9.6052    1.0000 </r>
       <r>    9.6052    1.0000 </r>
       <r>   10.6143    0.0030 </r>
       <r>   10.6143    0.0030 </r>
       <r>   11.7534    0.0000 </r>
       <r>   11.7534    0.0000 </r>
       <r>   13.5743    0.0000 </r>
       <r>   13.5743    0.0000 </r>
       <r>   19.7159    0.0000 </r>
       <r>   19.7159    0.0000 </r>
       <r>   26.0379    0.0000 </r>
       <r>   26.0379    0.0000 </r>
      </set>
      <set comment="kpoint 39">
       <r>    7.0750    1.0000 </r>
       <r>    7.0750    1.0000 </r>
       <r>    8.4145    1.0000 </r>
       <r>    8.4145    1.0000 </r>
       <r>    8.8932    1.0000 </r>
       <r>    8.8932    1.0000 </r>
       <r>   10.2706    1.0000 </r>
       <r>   10.2706    1.0000 </r>
       <r>   11.7974    0.0000 </r>
       <r>   11.7974    0.0000 </r>
       <r>   14.0484    0.0000 </r>
       <r>   14.0484    0.0000 </r>
       <r>   21.6870    0.0000 </r>
       <r>   21.6870    0.0000 </r>
       <r>   22.8352    0.0000 </r>
       <r>   22.8352    0.0000 </r>
      </set>
      <set comment="kpoint 40">
       <r>    7.4228    1.0000 </r>
       <r>    7.4228    1.0000 </r>
       <r>    8.3551    1.0000 </r>
       <r>    8.3551    1.0000 </r>
       <r>    8.8003    1.0000 </r>
       <r>    8.8003    1.0000 </r>
       <r>   10.4041    0.9993 </r>
       <r>   10.4041    0.9993 </r>
       <r>   11.6739    0.0000 </r>
       <r>   11.6739    0.0000 </r>
       <r>   15.9861    0.0000 </r>
       <r>   15.9861    0.0000 </r>
       <r>   19.1001    0.0000 </r>
       <r>   19.1001    0.0000 </r>
       <r>   22.0084    0.0000 </r>
       <r>   22.0084    0.0000 </r>
      </set>
     </set>
    </set>
   </array>
  </eigenvalues>
  <separator name="orbital magnetization" >
   <v name="MAGDIPOLOUT">      0.00000000      0.00000000      0.00000000</v>
  </separator>
  <dos>
   <i name="efermi">     10.51722052 </i>
   <total>
    <array>
     <dimension dim="1">gridpoints</dimension>
     <dimension dim="2">spin</dimension>
     <field>energy</field>
     <field>total</field>
     <field>integrated</field>
     <set>
      <set comment="spin 1">
       <r>    -0.2094     0.0000     0.0000 </r>
       <r>    -0.0834     0.0000     0.0000 </r>
       <r>     0.0426     0.0000     0.0000 </r>
       <r>     0.1685     0.0000     0.0000 </r>
       <r>     0.2945     0.0000     0.0000 </r>
       <r>     0.4205     0.0000     0.0000 </r>
       <r>     0.5465     0.0000     0.0000 </r>
       <r>     0.6724     0.0000     0.0000 </r>
       <r>     0.7984     0.0000     0.0000 </r>
       <r>     0.9244     0.0000     0.0000 </r>
       <r>     1.0504     0.0000     0.0000 </r>
       <r>     1.1764     0.0000     0.0000 </r>
       <r>     1.3023     0.0000     0.0000 </r>
       <r>     1.4283     0.0002     0.0000 </r>
       <r>     1.5543     0.0180     0.0023 </r>
       <r>     1.6803     0.0025     0.0026 </r>
       <r>     1.8062     0.0264     0.0059 </r>
       <r>     1.9322     0.0150     0.0078 </r>
       <r>     2.0582     0.0534     0.0145 </r>
       <r>     2.1842     0.0706     0.0234 </r>
       <r>     2.3102     0.0609     0.0311 </r>
       <r>     2.4361     0.1867     0.0546 </r>
       <r>     2.5621     0.0069     0.0555 </r>
       <r>     2.6881     0.0347     0.0599 </r>
       <r>     2.8141     0.0002     0.0599 </r>
       <r>     2.9401     0.0000     0.0599 </r>
       <r>     3.0660     0.0527     0.0665 </r>
       <r>     3.1920     0.3169     0.1065 </r>
       <r>     3.3180     0.0717     0.1155 </r>
       <r>     3.4440     0.1786     0.1380 </r>
       <r>     3.5699     0.0813     0.1482 </r>
       <r>     3.6959     0.0487     0.1544 </r>
       <r>     3.8219     0.2641     0.1876 </r>
       <r>     3.9479     0.0262     0.1909 </r>
       <r>     4.0739     0.2286     0.2197 </r>
       <r>     4.1998     0.0729     0.2289 </r>
       <r>     4.3258     0.2214     0.2568 </r>
       <r>     4.4518     0.2130     0.2836 </r>
       <r>     4.5778     0.0017     0.2839 </r>
       <r>     4.7037     0.0035     0.2843 </r>
       <r>     4.8297     0.2618     0.3173 </r>
       <r>     4.9557     0.5470     0.3862 </r>
       <r>     5.0817     0.2267     0.4147 </r>
       <r>     5.2077     0.8019     0.5158 </r>
       <r>     5.3336     0.9578     0.6364 </r>
       <r>     5.4596     0.2526     0.6682 </r>
       <r>     5.5856     0.9728     0.7908 </r>
       <r>     5.7116     1.5653     0.9880 </r>
       <r>     5.8376     0.8193     1.0912 </r>
[...]
       </set>
       <set comment="band 12">
        <r>  0.0016  0.0188  0.0455  0.0564  0.0164  0.0379  0.0531  0.1136  0.0055 </r>
        <r>  0.0049  0.0563  0.0152  0.1688  0.0490  0.0127  0.1589  0.0380  0.0163 </r>
       </set>
       <set comment="band 13">
        <r>  0.2954  0.0039  0.0070  0.0116  0.1391  0.0115  0.0175  0.0346  0.0464 </r>
        <r>  0.0791  0.0010  0.0260  0.0031  0.0373  0.0431  0.0047  0.1293  0.0124 </r>
       </set>
       <set comment="band 14">
        <r>  0.0791  0.0010  0.0260  0.0031  0.0373  0.0431  0.0047  0.1293  0.0124 </r>
        <r>  0.2954  0.0039  0.0070  0.0116  0.1391  0.0115  0.0175  0.0346  0.0464 </r>
       </set>
       <set comment="band 15">
        <r>  0.0000  0.1430  0.0000  0.0477  0.0000  0.0922  0.0000  0.0308  0.0000 </r>
        <r>  0.0000  0.2649  0.0000  0.0883  0.0000  0.0498  0.0000  0.0166  0.0000 </r>
       </set>
       <set comment="band 16">
        <r>  0.0000  0.2649  0.0000  0.0883  0.0000  0.0498  0.0000  0.0166  0.0000 </r>
        <r>  0.0000  0.1430  0.0000  0.0477  0.0000  0.0922  0.0000  0.0308  0.0000 </r>
       </set>
      </set>
      <set comment="kpoint 36">
       <set comment="band 1">
        <r>  0.2493  0.0000  0.0545  0.0465  0.0002  0.0000  0.0085  0.0347  0.0086 </r>
        <r>  0.1906  0.0000  0.0712  0.0356  0.0002  0.0000  0.0065  0.0454  0.0066 </r>
       </set>
       <set comment="band 2">
        <r>  0.1906  0.0000  0.0712  0.0356  0.0002  0.0000  0.0065  0.0454  0.0066 </r>
        <r>  0.2493  0.0000  0.0545  0.0465  0.0002  0.0000  0.0085  0.0347  0.0086 </r>
       </set>
       <set comment="band 3">
        <r>  0.0032  0.0053  0.0001  0.0122  0.2335  0.0000  0.4154  0.0082  0.0093 </r>
        <r>  0.0001  0.0002  0.0017  0.0004  0.0085  0.0003  0.0152  0.2247  0.0003 </r>
       </set>
       <set comment="band 4">
        <r>  0.0001  0.0002  0.0017  0.0004  0.0085  0.0003  0.0152  0.2247  0.0003 </r>
        <r>  0.0032  0.0053  0.0001  0.0122  0.2335  0.0000  0.4154  0.0082  0.0093 </r>
       </set>
       <set comment="band 5">
        <r>  0.0000  0.0002  0.0188  0.0001  0.0158  0.0204  0.0072  0.0043  0.0000 </r>
        <r>  0.0011  0.0077  0.0005  0.0020  0.5982  0.0005  0.2747  0.0001  0.0004 </r>
       </set>
       <set comment="band 6">
        <r>  0.0011  0.0077  0.0005  0.0020  0.5982  0.0005  0.2747  0.0001  0.0004 </r>
        <r>  0.0000  0.0002  0.0188  0.0001  0.0158  0.0204  0.0072  0.0043  0.0000 </r>
       </set>
       <set comment="band 7">
        <r>  0.0003  0.0002  0.0010  0.0056  0.0058  0.1966  0.0001  0.0003  0.2734 </r>
        <r>  0.0003  0.0002  0.0010  0.0056  0.0058  0.1948  0.0001  0.0003  0.2758 </r>
       </set>
       <set comment="band 8">
        <r>  0.0003  0.0002  0.0010  0.0056  0.0058  0.1948  0.0001  0.0003  0.2758 </r>
        <r>  0.0003  0.0002  0.0010  0.0056  0.0058  0.1966  0.0001  0.0003  0.2734 </r>
       </set>
       <set comment="band 9">
        <r>  0.0034  0.0007  0.0002  0.0013  0.0059  0.1782  0.0058  0.0029  0.2690 </r>
        <r>  0.0016  0.0003  0.0004  0.0006  0.0028  0.3728  0.0028  0.0060  0.1286 </r>
       </set>
       <set comment="band 10">
        <r>  0.0016  0.0003  0.0004  0.0006  0.0028  0.3728  0.0028  0.0060  0.1286 </r>
        <r>  0.0034  0.0007  0.0002  0.0013  0.0059  0.1782  0.0058  0.0029  0.2690 </r>
       </set>
       <set comment="band 11">
        <r>  0.0063  0.0001  0.0182  0.0022  0.0131  0.0055  0.0410  0.5090  0.0003 </r>
        <r>  0.0232  0.0002  0.0049  0.0081  0.0483  0.0015  0.1517  0.1376  0.0010 </r>
       </set>
       <set comment="band 12">
        <r>  0.0232  0.0002  0.0049  0.0081  0.0483  0.0015  0.1517  0.1376  0.0010 </r>
        <r>  0.0063  0.0001  0.0182  0.0022  0.0131  0.0055  0.0410  0.5090  0.0003 </r>
       </set>
       <set comment="band 13">
        <r>  0.0086  0.0004  0.1739  0.0276  0.0002  0.0020  0.1012  0.0421  0.0001 </r>
        <r>  0.0231  0.0010  0.0648  0.0740  0.0005  0.0008  0.2717  0.0157  0.0001 </r>
       </set>
       <set comment="band 14">
        <r>  0.0231  0.0010  0.0648  0.0740  0.0005  0.0008  0.2717  0.0157  0.0001 </r>
        <r>  0.0086  0.0004  0.1739  0.0276  0.0002  0.0020  0.1012  0.0421  0.0001 </r>
       </set>
       <set comment="band 15">
        <r>  0.0011  0.1263  0.0081  0.0024  0.2668  0.0082  0.0001  0.0211  0.0002 </r>
        <r>  0.0004  0.0506  0.0202  0.0009  0.1069  0.0205  0.0001  0.0527  0.0001 </r>
       </set>
       <set comment="band 16">
        <r>  0.0004  0.0506  0.0202  0.0009  0.1069  0.0205  0.0001  0.0527  0.0001 </r>
        <r>  0.0011  0.1263  0.0081  0.0024  0.2668  0.0082  0.0001  0.0211  0.0002 </r>
       </set>
      </set>
      <set comment="kpoint 37">
       <set comment="band 1">
        <r>  0.1022  0.0009  0.0475  0.0365  0.0158  0.0083  0.0010  0.1548  0.0212 </r>
        <r>  0.1584  0.0015  0.0307  0.0566  0.0245  0.0054  0.0015  0.0998  0.0329 </r>
       </set>
       <set comment="band 2">
        <r>  0.1584  0.0015  0.0307  0.0566  0.0245  0.0054  0.0015  0.0998  0.0329 </r>
        <r>  0.1022  0.0009  0.0475  0.0365  0.0158  0.0083  0.0010  0.1548  0.0212 </r>
       </set>
       <set comment="band 3">
        <r>  0.0112  0.0144  0.0032  0.0214  0.3527  0.0004  0.1561  0.0303  0.0449 </r>
        <r>  0.0033  0.0042  0.0111  0.0063  0.1034  0.0013  0.0458  0.1034  0.0132 </r>
       </set>
       <set comment="band 4">
        <r>  0.0033  0.0042  0.0111  0.0063  0.1034  0.0013  0.0458  0.1034  0.0132 </r>
        <r>  0.0112  0.0144  0.0032  0.0214  0.3527  0.0004  0.1561  0.0303  0.0449 </r>
       </set>
       <set comment="band 5">
        <r>  0.0125  0.0169  0.0019  0.0434  0.2471  0.0142  0.3384  0.0041  0.0133 </r>
        <r>  0.0021  0.0028  0.0117  0.0072  0.0407  0.0861  0.0557  0.0251  0.0022 </r>
       </set>
       <set comment="band 6">
        <r>  0.0021  0.0028  0.0117  0.0072  0.0407  0.0861  0.0557  0.0251  0.0022 </r>
        <r>  0.0125  0.0169  0.0019  0.0434  0.2471  0.0142  0.3384  0.0041  0.0133 </r>
       </set>
       <set comment="band 7">
        <r>  0.0002  0.0002  0.0012  0.0007  0.0059  0.6022  0.0011  0.0480  0.0160 </r>
        <r>  0.0015  0.0014  0.0001  0.0061  0.0542  0.0654  0.0101  0.0052  0.1476 </r>
       </set>
       <set comment="band 8">
        <r>  0.0015  0.0014  0.0001  0.0061  0.0542  0.0654  0.0101  0.0052  0.1476 </r>
        <r>  0.0002  0.0002  0.0012  0.0007  0.0059  0.6022  0.0011  0.0480  0.0160 </r>
       </set>
       <set comment="band 9">
        <r>  0.0003  0.0000  0.0009  0.0012  0.0073  0.0848  0.0887  0.0593  0.2160 </r>
        <r>  0.0005  0.0000  0.0007  0.0016  0.0098  0.0628  0.1196  0.0440  0.2913 </r>
       </set>
       <set comment="band 10">
        <r>  0.0005  0.0000  0.0007  0.0016  0.0098  0.0628  0.1196  0.0440  0.2913 </r>
        <r>  0.0003  0.0000  0.0009  0.0012  0.0073  0.0848  0.0887  0.0593  0.2160 </r>
       </set>
       <set comment="band 11">
        <r>  0.0417  0.0018  0.0163  0.0418  0.0257  0.0080  0.0780  0.1466  0.1145 </r>
        <r>  0.0256  0.0011  0.0266  0.0257  0.0158  0.0131  0.0479  0.2389  0.0703 </r>
       </set>
       <set comment="band 12">
        <r>  0.0256  0.0011  0.0266  0.0257  0.0158  0.0131  0.0479  0.2389  0.0703 </r>
        <r>  0.0417  0.0018  0.0163  0.0418  0.0257  0.0080  0.0780  0.1466  0.1145 </r>
       </set>
       <set comment="band 13">
        <r>  0.0511  0.0563  0.0282  0.0525  0.0940  0.0295  0.0184  0.0460  0.0070 </r>
        <r>  0.0666  0.0733  0.0217  0.0683  0.1223  0.0227  0.0240  0.0353  0.0091 </r>
       </set>
       <set comment="band 14">
        <r>  0.0666  0.0733  0.0217  0.0683  0.1223  0.0227  0.0240  0.0353  0.0091 </r>
        <r>  0.0511  0.0563  0.0282  0.0525  0.0940  0.0295  0.0184  0.0460  0.0070 </r>
       </set>
       <set comment="band 15">
        <r>  0.0433  0.0867  0.0052  0.1309  0.0961  0.0199  0.0680  0.0309  0.0015 </r>
        <r>  0.0201  0.0403  0.0111  0.0609  0.0447  0.0429  0.0316  0.0664  0.0007 </r>
       </set>
       <set comment="band 16">
        <r>  0.0201  0.0403  0.0111  0.0609  0.0447  0.0429  0.0316  0.0664  0.0007 </r>
        <r>  0.0433  0.0867  0.0052  0.1309  0.0961  0.0199  0.0680  0.0309  0.0015 </r>
       </set>
      </set>
      <set comment="kpoint 38">
       <set comment="band 1">
        <r>  0.0795  0.0048  0.0042  0.0203  0.1245  0.0227  0.0176  0.1106  0.0518 </r>
        <r>  0.0394  0.0024  0.0085  0.0101  0.0617  0.0457  0.0087  0.2232  0.0257 </r>
       </set>
       <set comment="band 2">
        <r>  0.0394  0.0024  0.0085  0.0101  0.0617  0.0457  0.0087  0.2232  0.0257 </r>
        <r>  0.0795  0.0048  0.0042  0.0203  0.1245  0.0227  0.0176  0.1106  0.0518 </r>
       </set>
       <set comment="band 3">
        <r>  0.0000  0.0001  0.0145  0.0001  0.0013  0.0299  0.0008  0.1518  0.0003 </r>
        <r>  0.0027  0.0181  0.0001  0.0223  0.3709  0.0001  0.2246  0.0005  0.0939 </r>
       </set>
       <set comment="band 4">
        <r>  0.0027  0.0181  0.0001  0.0223  0.3709  0.0001  0.2246  0.0005  0.0939 </r>
        <r>  0.0000  0.0001  0.0145  0.0001  0.0013  0.0299  0.0008  0.1518  0.0003 </r>
       </set>
       <set comment="band 5">
        <r>  0.0134  0.0278  0.0082  0.0830  0.0551  0.0775  0.1174  0.0109  0.0508 </r>
        <r>  0.0037  0.0077  0.0296  0.0229  0.0152  0.2803  0.0325  0.0396  0.0140 </r>
       </set>
       <set comment="band 6">
        <r>  0.0037  0.0077  0.0296  0.0229  0.0152  0.2803  0.0325  0.0396  0.0140 </r>
        <r>  0.0134  0.0278  0.0082  0.0830  0.0551  0.0775  0.1174  0.0109  0.0508 </r>
       </set>
       <set comment="band 7">
        <r>  0.0034  0.0135  0.0014  0.0305  0.1247  0.0535  0.0695  0.0105  0.1763 </r>
        <r>  0.0006  0.0022  0.0090  0.0049  0.0201  0.3318  0.0112  0.0649  0.0284 </r>
       </set>
       <set comment="band 8">
        <r>  0.0006  0.0022  0.0090  0.0049  0.0201  0.3318  0.0112  0.0649  0.0284 </r>
        <r>  0.0034  0.0135  0.0014  0.0305  0.1247  0.0535  0.0695  0.0105  0.1763 </r>
       </set>
       <set comment="band 9">
        <r>  0.0001  0.0000  0.0026  0.0006  0.0095  0.0549  0.0959  0.1465  0.0509 </r>
        <r>  0.0004  0.0000  0.0007  0.0021  0.0347  0.0151  0.3482  0.0403  0.1850 </r>
       </set>
       <set comment="band 10">
        <r>  0.0004  0.0000  0.0007  0.0021  0.0347  0.0151  0.3482  0.0403  0.1850 </r>
        <r>  0.0001  0.0000  0.0026  0.0006  0.0095  0.0549  0.0959  0.1465  0.0509 </r>
       </set>
       <set comment="band 11">
        <r>  0.0360  0.0318  0.0093  0.1789  0.0439  0.0021  0.0283  0.0151  0.2719 </r>
        <r>  0.0053  0.0047  0.0635  0.0263  0.0065  0.0140  0.0042  0.1023  0.0400 </r>
       </set>
       <set comment="band 12">
        <r>  0.0053  0.0047  0.0635  0.0263  0.0065  0.0140  0.0042  0.1023  0.0400 </r>
        <r>  0.0360  0.0318  0.0093  0.1789  0.0439  0.0021  0.0283  0.0151  0.2719 </r>
       </set>
       <set comment="band 13">
        <r>  0.1074  0.0274  0.0242  0.0128  0.0724  0.0393  0.0087  0.0820  0.0101 </r>
        <r>  0.1845  0.0471  0.0141  0.0221  0.1244  0.0229  0.0149  0.0477  0.0173 </r>
       </set>
       <set comment="band 14">
        <r>  0.1845  0.0471  0.0141  0.0221  0.1244  0.0229  0.0149  0.0477  0.0173 </r>
        <r>  0.1074  0.0274  0.0242  0.0128  0.0724  0.0393  0.0087  0.0820  0.0101 </r>
       </set>
       <set comment="band 15">
        <r>  0.0246  0.0531  0.0114  0.0273  0.0260  0.0788  0.0109  0.0423  0.0018 </r>
        <r>  0.0788  0.1701  0.0036  0.0873  0.0832  0.0246  0.0349  0.0132  0.0056 </r>
       </set>
       <set comment="band 16">
        <r>  0.0788  0.1701  0.0036  0.0873  0.0832  0.0246  0.0349  0.0132  0.0056 </r>
        <r>  0.0246  0.0531  0.0114  0.0273  0.0260  0.0788  0.0109  0.0423  0.0018 </r>
       </set>
      </set>
      <set comment="kpoint 39">
       <set comment="band 1">
        <r>  0.0198  0.0019  0.0198  0.0115  0.0078  0.0003  0.0091  0.3885  0.0112 </r>
        <r>  0.0945  0.0091  0.0041  0.0549  0.0374  0.0001  0.0435  0.0812  0.0536 </r>
       </set>
       <set comment="band 2">
        <r>  0.0945  0.0091  0.0041  0.0549  0.0374  0.0001  0.0435  0.0812  0.0536 </r>
        <r>  0.0198  0.0019  0.0198  0.0115  0.0078  0.0003  0.0091  0.3885  0.0112 </r>
       </set>
       <set comment="band 3">
        <r>  0.0167  0.0424  0.0104  0.0091  0.4532  0.0227  0.0052  0.0001  0.0263 </r>
        <r>  0.0076  0.0194  0.0227  0.0042  0.2071  0.0498  0.0024  0.0001  0.0120 </r>
       </set>
       <set comment="band 4">
        <r>  0.0076  0.0194  0.0227  0.0042  0.2071  0.0498  0.0024  0.0001  0.0120 </r>
        <r>  0.0167  0.0424  0.0104  0.0091  0.4532  0.0227  0.0052  0.0001  0.0263 </r>
       </set>
       <set comment="band 5">
        <r>  0.0000  0.0000  0.0098  0.0016  0.0000  0.2456  0.0053  0.0264  0.0027 </r>
        <r>  0.0018  0.0000  0.0002  0.1009  0.0023  0.0038  0.3411  0.0004  0.1710 </r>
       </set>
       <set comment="band 6">
        <r>  0.0018  0.0000  0.0002  0.1009  0.0023  0.0038  0.3411  0.0004  0.1710 </r>
        <r>  0.0000  0.0000  0.0098  0.0016  0.0000  0.2456  0.0053  0.0264  0.0027 </r>
       </set>
       <set comment="band 7">
        <r>  0.0076  0.0000  0.0000  0.0012  0.0925  0.1213  0.0296  0.0219  0.1514 </r>
        <r>  0.0024  0.0000  0.0000  0.0004  0.0296  0.3794  0.0095  0.0686  0.0484 </r>
       </set>
       <set comment="band 8">
        <r>  0.0024  0.0000  0.0000  0.0004  0.0296  0.3794  0.0095  0.0686  0.0484 </r>
        <r>  0.0076  0.0000  0.0000  0.0012  0.0925  0.1213  0.0296  0.0219  0.1514 </r>
       </set>
       <set comment="band 9">
        <r>  0.0000  0.0000  0.0020  0.0014  0.0038  0.0527  0.2139  0.1241  0.0666 </r>
        <r>  0.0001  0.0000  0.0015  0.0020  0.0053  0.0381  0.2960  0.0897  0.0922 </r>
       </set>
       <set comment="band 10">
        <r>  0.0001  0.0000  0.0015  0.0020  0.0053  0.0381  0.2960  0.0897  0.0922 </r>
        <r>  0.0000  0.0000  0.0020  0.0014  0.0038  0.0527  0.2139  0.1241  0.0666 </r>
       </set>
       <set comment="band 11">
        <r>  0.0699  0.0029  0.0095  0.1654  0.0163  0.0009  0.0008  0.0180  0.3326 </r>
        <r>  0.0100  0.0004  0.0661  0.0237  0.0023  0.0062  0.0001  0.1253  0.0477 </r>
       </set>
       <set comment="band 12">
        <r>  0.0100  0.0004  0.0661  0.0237  0.0023  0.0062  0.0001  0.1253  0.0477 </r>
        <r>  0.0699  0.0029  0.0095  0.1654  0.0163  0.0009  0.0008  0.0180  0.3326 </r>
       </set>
       <set comment="band 13">
        <r>  0.0000  0.0464  0.0570  0.0012  0.0487  0.0363  0.0003  0.0579  0.0002 </r>
        <r>  0.0003  0.2671  0.0099  0.0067  0.2807  0.0063  0.0019  0.0101  0.0012 </r>
       </set>
       <set comment="band 14">
        <r>  0.0003  0.2671  0.0099  0.0067  0.2807  0.0063  0.0019  0.0101  0.0012 </r>
        <r>  0.0000  0.0464  0.0570  0.0012  0.0487  0.0363  0.0003  0.0579  0.0002 </r>
       </set>
       <set comment="band 15">
        <r>  0.1590  0.0006  0.0025  0.0719  0.0005  0.0717  0.0280  0.0517  0.0001 </r>
        <r>  0.2127  0.0008  0.0019  0.0962  0.0007  0.0536  0.0374  0.0387  0.0001 </r>
       </set>
       <set comment="band 16">
        <r>  0.2127  0.0008  0.0019  0.0962  0.0007  0.0536  0.0374  0.0387  0.0001 </r>
        <r>  0.1590  0.0006  0.0025  0.0719  0.0005  0.0717  0.0280  0.0517  0.0001 </r>
       </set>
      </set>
      <set comment="kpoint 40">
       <set comment="band 1">
        <r>  0.0358  0.0217  0.0006  0.0165  0.0857  0.0463  0.0446  0.1390  0.0367 </r>
        <r>  0.0224  0.0136  0.0010  0.0103  0.0536  0.0741  0.0279  0.2223  0.0230 </r>
       </set>
       <set comment="band 2">
        <r>  0.0224  0.0136  0.0010  0.0103  0.0536  0.0741  0.0279  0.2223  0.0230 </r>
        <r>  0.0358  0.0217  0.0006  0.0165  0.0857  0.0463  0.0446  0.1390  0.0367 </r>
       </set>
       <set comment="band 3">
        <r>  0.0115  0.0289  0.0002  0.0118  0.1640  0.0384  0.1870  0.0170  0.0567 </r>
        <r>  0.0020  0.0050  0.0009  0.0020  0.0281  0.2240  0.0321  0.0989  0.0097 </r>
       </set>
       <set comment="band 4">
        <r>  0.0020  0.0050  0.0009  0.0020  0.0281  0.2240  0.0321  0.0989  0.0097 </r>
        <r>  0.0115  0.0289  0.0002  0.0118  0.1640  0.0384  0.1870  0.0170  0.0567 </r>
       </set>
       <set comment="band 5">
        <r>  0.0086  0.0395  0.0053  0.0934  0.2151  0.0118  0.0009  0.0059  0.2532 </r>
        <r>  0.0011  0.0051  0.0413  0.0121  0.0278  0.0911  0.0001  0.0460  0.0327 </r>
       </set>
       <set comment="band 6">
        <r>  0.0011  0.0051  0.0413  0.0121  0.0278  0.0911  0.0001  0.0460  0.0327 </r>
        <r>  0.0086  0.0395  0.0053  0.0934  0.2151  0.0118  0.0009  0.0059  0.2532 </r>
       </set>
       <set comment="band 7">
        <r>  0.0000  0.0000  0.0020  0.0001  0.0014  0.2638  0.0001  0.1688  0.0025 </r>
        <r>  0.0010  0.0047  0.0000  0.0142  0.1803  0.0021  0.0079  0.0013  0.3133 </r>
       </set>
       <set comment="band 8">
        <r>  0.0010  0.0047  0.0000  0.0142  0.1803  0.0021  0.0079  0.0013  0.3133 </r>
        <r>  0.0000  0.0000  0.0020  0.0001  0.0014  0.2638  0.0001  0.1688  0.0025 </r>
       </set>
       <set comment="band 9">
        <r>  0.0011  0.0004  0.0003  0.0001  0.0128  0.0501  0.4015  0.0629  0.0084 </r>
        <r>  0.0007  0.0003  0.0004  0.0001  0.0083  0.0775  0.2592  0.0974  0.0054 </r>
       </set>
       <set comment="band 10">
        <r>  0.0007  0.0003  0.0004  0.0001  0.0083  0.0775  0.2592  0.0974  0.0054 </r>
        <r>  0.0011  0.0004  0.0003  0.0001  0.0128  0.0501  0.4015  0.0629  0.0084 </r>
       </set>
       <set comment="band 11">
        <r>  0.0018  0.0223  0.0912  0.0587  0.0264  0.0214  0.0006  0.0166  0.0594 </r>
        <r>  0.0056  0.0687  0.0296  0.1812  0.0813  0.0069  0.0019  0.0054  0.1832 </r>
       </set>
       <set comment="band 12">
        <r>  0.0056  0.0687  0.0296  0.1812  0.0813  0.0069  0.0019  0.0054  0.1832 </r>
        <r>  0.0018  0.0223  0.0912  0.0587  0.0264  0.0214  0.0006  0.0166  0.0594 </r>
       </set>
       <set comment="band 13">
        <r>  0.0687  0.0546  0.0178  0.0268  0.0739  0.0291  0.0031  0.0843  0.0285 </r>
        <r>  0.1048  0.0832  0.0117  0.0408  0.1127  0.0191  0.0047  0.0553  0.0434 </r>
       </set>
       <set comment="band 14">
        <r>  0.1048  0.0832  0.0117  0.0408  0.1127  0.0191  0.0047  0.0553  0.0434 </r>
        <r>  0.0687  0.0546  0.0178  0.0268  0.0739  0.0291  0.0031  0.0843  0.0285 </r>
       </set>
       <set comment="band 15">
        <r>  0.1580  0.0542  0.0075  0.0183  0.0185  0.0753  0.0197  0.0391  0.0062 </r>
        <r>  0.1895  0.0650  0.0063  0.0219  0.0222  0.0627  0.0237  0.0326  0.0075 </r>
       </set>
       <set comment="band 16">
        <r>  0.1895  0.0650  0.0063  0.0219  0.0222  0.0627  0.0237  0.0326  0.0075 </r>
        <r>  0.1580  0.0542  0.0075  0.0183  0.0185  0.0753  0.0197  0.0391  0.0062 </r>
       </set>
      </set>
     </set>
    </set>
   </array>
  </projected>
 </calculation>
 <structure name="finalpos" >
  <crystal>
   <varray name="basis" >
    <v>       1.23599995      -2.14081471       0.00000000 </v>
    <v>       1.23599995       2.14081471       0.00000000 </v>
    <v>       0.00000000       0.00000000       4.02114408 </v>
   </varray>
   <i name="volume">     21.28027152 </i>
   <varray name="rec_basis" >
    <v>       0.40453076      -0.23355594       0.00000000 </v>
    <v>       0.40453076       0.23355594       0.00000000 </v>
    <v>       0.00000000       0.00000000       0.24868544 </v>
   </varray>
  </crystal>
  <varray name="positions" >
   <v>       0.33333333       0.66666667       0.25000000 </v>
   <v>       0.66666667       0.33333333       0.75000000 </v>
  </varray>
 </structure>
</modeling>
