Co-hcc                                  
           1
     1.236000   -2.140815    0.000000
     1.236000    2.140815    0.000000
     0.000000    0.000000    4.021144
   Co
     2
Direct configuration=     1
   0.33333333  0.66666667  0.25000000
   0.66666667  0.33333333  0.75000000
