   2   2   0   0
  0.1064014E+02  0.2472000E-09  0.2472000E-09  0.4021144E-09  0.5000000E-15
  1.000000000000000E-004
  CAR 
 Co fcc                                  
     37.88602958     -0.49908048  301     10.49436363      1.00000000
     -0.499  0.0000E+00  0.0000E+00  0.0000E+00  0.0000E+00
     -0.371  0.0000E+00  0.0000E+00  0.0000E+00  0.0000E+00
     -0.243  0.0000E+00  0.0000E+00  0.0000E+00  0.0000E+00
     -0.115 -0.9749E-30 -0.2408E-30 -0.1247E-30 -0.3082E-31
      0.013 -0.1844E-25 -0.5094E-26 -0.2359E-26 -0.6518E-27
      0.141 -0.1527E-21 -0.4718E-22 -0.1953E-22 -0.6037E-23
      0.269 -0.5525E-18 -0.1910E-18 -0.7071E-19 -0.2445E-19
      0.397 -0.8441E-15 -0.3272E-15 -0.1081E-15 -0.4190E-16
      0.525 -0.5746E-12 -0.2493E-12 -0.7362E-13 -0.3194E-13
      0.652 -0.1687E-09 -0.8206E-10 -0.2166E-10 -0.1053E-10
      0.780 -0.2116E-07 -0.1156E-07 -0.2729E-08 -0.1490E-08
      0.908 -0.1115E-05 -0.6860E-06 -0.1454E-06 -0.8927E-07
      1.036 -0.2385E-04 -0.1663E-04 -0.3197E-05 -0.2217E-05
      1.164 -0.1888E-03 -0.1521E-03 -0.2736E-04 -0.2168E-04
      1.292 -0.3398E-03 -0.3670E-03 -0.7084E-04 -0.6864E-04
      1.420  0.1429E-02  0.9933E-03  0.1120E-03  0.5845E-04
      1.548  0.6046E-02  0.5367E-02  0.8856E-03  0.7452E-03
      1.676  0.1100E-01  0.1018E-01  0.2292E-02  0.2047E-02
      1.804  0.2400E-01  0.2075E-01  0.5364E-02  0.4703E-02
      1.932  0.5667E-01  0.5077E-01  0.1261E-01  0.1120E-01
      2.060  0.7672E-01  0.7675E-01  0.2243E-01  0.2102E-01
      2.188  0.4190E-01  0.4987E-01  0.2779E-01  0.2740E-01
      2.316  0.1059E-01  0.1064E-01  0.2915E-01  0.2876E-01
      2.444  0.4940E-01  0.3747E-01  0.3547E-01  0.3356E-01
      2.572  0.9648E-01  0.9050E-01  0.4781E-01  0.4514E-01
      2.700  0.9213E-01  0.9452E-01  0.5960E-01  0.5723E-01
      2.828  0.7290E-01  0.7381E-01  0.6893E-01  0.6667E-01
      2.956  0.8396E-01  0.7263E-01  0.7967E-01  0.7597E-01
      3.084  0.1315E+00  0.1147E+00  0.9650E-01  0.9064E-01
      3.211  0.1378E+00  0.1434E+00  0.1141E+00  0.1090E+00
      3.339  0.8649E-01  0.9959E-01  0.1252E+00  0.1217E+00
      3.467  0.5339E-01  0.6108E-01  0.1320E+00  0.1295E+00
      3.595  0.2585E-01  0.3602E-01  0.1353E+00  0.1341E+00
      3.723  0.7858E-01  0.3006E-01  0.1454E+00  0.1380E+00
      3.851  0.2017E+00  0.1310E+00  0.1712E+00  0.1548E+00
      3.979  0.2268E+00  0.2167E+00  0.2002E+00  0.1825E+00
      4.107  0.1917E+00  0.1937E+00  0.2247E+00  0.2073E+00
      4.235  0.1960E+00  0.1605E+00  0.2498E+00  0.2278E+00
      4.363  0.1690E+00  0.1720E+00  0.2714E+00  0.2498E+00
      4.491  0.1009E+00  0.1573E+00  0.2844E+00  0.2699E+00
      4.619  0.1500E+00  0.8592E-01  0.3036E+00  0.2809E+00
      4.747  0.2361E+00  0.8939E-01  0.3338E+00  0.2924E+00
      4.875  0.2203E+00  0.1885E+00  0.3619E+00  0.3165E+00
      5.003  0.1891E+00  0.2263E+00  0.3861E+00  0.3454E+00
      5.131  0.3372E+00  0.1490E+00  0.4293E+00  0.3645E+00
      5.259  0.6799E+00  0.1421E+00  0.5163E+00  0.3827E+00
      5.387  0.1012E+01  0.2209E+00  0.6458E+00  0.4109E+00
      5.515  0.1041E+01  0.2762E+00  0.7790E+00  0.4463E+00
      5.643  0.8288E+00  0.3470E+00  0.8851E+00  0.4907E+00
      5.770  0.1009E+01  0.3581E+00  0.1014E+01  0.5365E+00
      5.898  0.1724E+01  0.3626E+00  0.1235E+01  0.5829E+00
      6.026  0.1795E+01  0.4567E+00  0.1464E+01  0.6413E+00
      6.154  0.1504E+01  0.2883E+00  0.1657E+01  0.6782E+00
      6.282  0.1728E+01  0.1615E+00  0.1878E+01  0.6989E+00
      6.410  0.1781E+01  0.6035E+00  0.2106E+01  0.7761E+00
      6.538  0.1475E+01  0.1092E+01  0.2294E+01  0.9158E+00
      6.666  0.1543E+01  0.1002E+01  0.2492E+01  0.1044E+01
      6.794  0.1862E+01  0.7647E+00  0.2730E+01  0.1142E+01
      6.922  0.2057E+01  0.8199E+00  0.2993E+01  0.1247E+01
      7.050  0.2112E+01  0.1095E+01  0.3264E+01  0.1387E+01
      7.178  0.1967E+01  0.1123E+01  0.3515E+01  0.1531E+01
      7.306  0.1566E+01  0.9912E+00  0.3716E+01  0.1657E+01
      7.434  0.1269E+01  0.1389E+01  0.3878E+01  0.1835E+01
      7.562  0.1720E+01  0.1630E+01  0.4098E+01  0.2044E+01
      7.690  0.2560E+01  0.1229E+01  0.4426E+01  0.2201E+01
      7.818  0.2799E+01  0.1049E+01  0.4784E+01  0.2335E+01
      7.946  0.2781E+01  0.1314E+01  0.5140E+01  0.2503E+01
      8.074  0.2861E+01  0.1626E+01  0.5506E+01  0.2711E+01
      8.202  0.2929E+01  0.1721E+01  0.5881E+01  0.2931E+01
      8.329  0.3058E+01  0.1902E+01  0.6272E+01  0.3175E+01
      8.457  0.2861E+01  0.2000E+01  0.6638E+01  0.3431E+01
      8.585  0.2369E+01  0.1597E+01  0.6941E+01  0.3635E+01
      8.713  0.1949E+01  0.1016E+01  0.7190E+01  0.3765E+01
      8.841  0.1774E+01  0.7803E+00  0.7417E+01  0.3865E+01
      8.969  0.1573E+01  0.1010E+01  0.7619E+01  0.3994E+01
      9.097  0.1566E+01  0.1512E+01  0.7819E+01  0.4187E+01
      9.225  0.2099E+01  0.2128E+01  0.8088E+01  0.4460E+01
      9.353  0.2149E+01  0.2567E+01  0.8363E+01  0.4788E+01
      9.481  0.1912E+01  0.2509E+01  0.8607E+01  0.5109E+01
      9.609  0.2604E+01  0.2296E+01  0.8940E+01  0.5403E+01
      9.737  0.3926E+01  0.2484E+01  0.9443E+01  0.5721E+01
      9.865  0.4236E+01  0.2738E+01  0.9985E+01  0.6071E+01
      9.993  0.2647E+01  0.2698E+01  0.1032E+02  0.6416E+01
     10.121  0.8967E+00  0.2296E+01  0.1044E+02  0.6710E+01
     10.249  0.5525E+00  0.1830E+01  0.1051E+02  0.6944E+01
     10.377  0.7088E+00  0.1631E+01  0.1060E+02  0.7153E+01
     10.505  0.5114E+00  0.1569E+01  0.1067E+02  0.7354E+01
     10.633  0.2080E+00  0.1335E+01  0.1069E+02  0.7525E+01
     10.761  0.3531E-01  0.1261E+01  0.1070E+02  0.7686E+01
     10.889 -0.2580E-01  0.1301E+01  0.1069E+02  0.7852E+01
     11.016  0.4267E-01  0.1704E+01  0.1070E+02  0.8071E+01
     11.144  0.2843E+00  0.1825E+01  0.1073E+02  0.8304E+01
     11.272  0.4063E+00  0.1476E+01  0.1079E+02  0.8493E+01
     11.400  0.2474E+00  0.1685E+01  0.1082E+02  0.8709E+01
     11.528  0.2244E+00  0.2483E+01  0.1085E+02  0.9026E+01
     11.656  0.4835E+00  0.3555E+01  0.1091E+02  0.9481E+01
     11.784  0.5737E+00  0.3995E+01  0.1098E+02  0.9992E+01
     11.912  0.3930E+00  0.3096E+01  0.1103E+02  0.1039E+02
     12.040  0.1839E+00  0.1672E+01  0.1106E+02  0.1060E+02
     12.168  0.9465E-01  0.6345E+00  0.1107E+02  0.1068E+02
     12.296  0.2507E+00  0.1902E+00  0.1110E+02  0.1071E+02
     12.424  0.3926E+00  0.2201E+00  0.1115E+02  0.1074E+02
     12.552  0.3941E+00  0.3133E+00  0.1120E+02  0.1078E+02
     12.680  0.2135E+00  0.2717E+00  0.1123E+02  0.1081E+02
     12.808  0.7098E-01  0.3299E+00  0.1124E+02  0.1085E+02
     12.936  0.1975E+00  0.4996E+00  0.1126E+02  0.1092E+02
     13.064  0.2266E+00  0.5144E+00  0.1129E+02  0.1098E+02
     13.192  0.7388E-01  0.3629E+00  0.1130E+02  0.1103E+02
     13.320  0.8028E-01  0.3246E+00  0.1131E+02  0.1107E+02
     13.448  0.2040E+00  0.4684E+00  0.1134E+02  0.1113E+02
     13.575  0.1849E+00  0.4440E+00  0.1136E+02  0.1119E+02
     13.703  0.1309E+00  0.2546E+00  0.1138E+02  0.1122E+02
     13.831  0.2703E+00  0.1380E+00  0.1141E+02  0.1124E+02
     13.959  0.4307E+00  0.1718E+00  0.1147E+02  0.1126E+02
     14.087  0.4518E+00  0.2642E+00  0.1153E+02  0.1129E+02
     14.215  0.3337E+00  0.2268E+00  0.1157E+02  0.1132E+02
     14.343  0.2160E+00  0.1570E+00  0.1160E+02  0.1134E+02
     14.471  0.1306E+00  0.1206E+00  0.1161E+02  0.1136E+02
     14.599  0.1255E+00  0.1088E+00  0.1163E+02  0.1137E+02
     14.727  0.2880E+00  0.2535E+00  0.1167E+02  0.1140E+02
     14.855  0.3424E+00  0.4908E+00  0.1171E+02  0.1147E+02
     14.983  0.1974E+00  0.4912E+00  0.1173E+02  0.1153E+02
     15.111  0.6364E-01  0.3822E+00  0.1174E+02  0.1158E+02
     15.239  0.6221E-01  0.2400E+00  0.1175E+02  0.1161E+02
     15.367  0.1978E+00  0.8516E-01  0.1178E+02  0.1162E+02
     15.495  0.2555E+00  0.1063E+00  0.1181E+02  0.1163E+02
     15.623  0.2087E+00  0.2624E+00  0.1184E+02  0.1167E+02
     15.751  0.1715E+00  0.3246E+00  0.1186E+02  0.1171E+02
     15.879  0.6720E-01  0.1914E+00  0.1187E+02  0.1173E+02
     16.007  0.3841E-01  0.1436E+00  0.1187E+02  0.1175E+02
     16.134  0.9837E-01  0.2649E+00  0.1188E+02  0.1179E+02
     16.262  0.7772E-01  0.2323E+00  0.1189E+02  0.1182E+02
     16.390  0.1031E-01  0.1461E+00  0.1189E+02  0.1183E+02
     16.518  0.1384E-01  0.1634E+00  0.1190E+02  0.1186E+02
     16.646  0.1190E+00  0.1020E+00  0.1191E+02  0.1187E+02
     16.774  0.2422E+00  0.7204E-01  0.1194E+02  0.1188E+02
     16.902  0.2311E+00  0.7901E-01  0.1197E+02  0.1189E+02
     17.030  0.1327E+00  0.4362E-01  0.1199E+02  0.1189E+02
     17.158  0.1021E+00  0.2973E-01  0.1200E+02  0.1190E+02
     17.286  0.1437E+00  0.1080E+00  0.1202E+02  0.1191E+02
     17.414  0.1505E+00  0.2066E+00  0.1204E+02  0.1194E+02
     17.542  0.1675E+00  0.2000E+00  0.1206E+02  0.1196E+02
     17.670  0.1919E+00  0.1156E+00  0.1209E+02  0.1198E+02
     17.798  0.9873E-01  0.6126E-01  0.1210E+02  0.1199E+02
     17.926  0.5471E-01  0.7586E-01  0.1211E+02  0.1200E+02
     18.054  0.1605E+00  0.1501E+00  0.1213E+02  0.1201E+02
     18.182  0.3299E+00  0.2167E+00  0.1217E+02  0.1204E+02
     18.310  0.4398E+00  0.2378E+00  0.1222E+02  0.1207E+02
     18.438  0.3957E+00  0.1702E+00  0.1228E+02  0.1209E+02
     18.566  0.3636E+00  0.3734E-01  0.1232E+02  0.1210E+02
     18.693  0.2691E+00  0.1948E-01  0.1236E+02  0.1210E+02
     18.821  0.2156E+00  0.1060E+00  0.1238E+02  0.1212E+02
     18.949  0.3992E+00  0.1895E+00  0.1243E+02  0.1214E+02
     19.077  0.4890E+00  0.3843E+00  0.1250E+02  0.1219E+02
     19.205  0.4283E+00  0.5340E+00  0.1255E+02  0.1226E+02
     19.333  0.4065E+00  0.3969E+00  0.1260E+02  0.1231E+02
     19.461  0.3081E+00  0.3267E+00  0.1264E+02  0.1235E+02
     19.589  0.1920E+00  0.3961E+00  0.1267E+02  0.1240E+02
     19.717  0.1946E+00  0.5077E+00  0.1269E+02  0.1247E+02
     19.845  0.2724E+00  0.5331E+00  0.1273E+02  0.1253E+02
     19.973  0.3617E+00  0.4025E+00  0.1277E+02  0.1259E+02
     20.101  0.3909E+00  0.2838E+00  0.1282E+02  0.1262E+02
     20.229  0.3640E+00  0.2716E+00  0.1287E+02  0.1266E+02
     20.357  0.3375E+00  0.3085E+00  0.1291E+02  0.1270E+02
     20.485  0.1843E+00  0.3632E+00  0.1294E+02  0.1274E+02
     20.613  0.1597E+00  0.3753E+00  0.1296E+02  0.1279E+02
     20.741  0.3989E+00  0.3326E+00  0.1301E+02  0.1283E+02
     20.869  0.5530E+00  0.3055E+00  0.1308E+02  0.1287E+02
     20.997  0.4452E+00  0.3191E+00  0.1314E+02  0.1291E+02
     21.125  0.3079E+00  0.1919E+00  0.1318E+02  0.1294E+02
     21.252  0.4805E+00  0.2430E+00  0.1324E+02  0.1297E+02
     21.380  0.5796E+00  0.5796E+00  0.1331E+02  0.1304E+02
     21.508  0.4973E+00  0.6459E+00  0.1338E+02  0.1312E+02
     21.636  0.4058E+00  0.4349E+00  0.1343E+02  0.1318E+02
     21.764  0.2157E+00  0.4110E+00  0.1345E+02  0.1323E+02
     21.892  0.1233E+00  0.4702E+00  0.1347E+02  0.1329E+02
     22.020  0.1820E+00  0.4359E+00  0.1349E+02  0.1335E+02
     22.148  0.2665E+00  0.4410E+00  0.1353E+02  0.1341E+02
     22.276  0.3329E+00  0.3368E+00  0.1357E+02  0.1345E+02
     22.404  0.4370E+00  0.2124E+00  0.1363E+02  0.1348E+02
     22.532  0.5456E+00  0.2282E+00  0.1370E+02  0.1351E+02
     22.660  0.4100E+00  0.2341E+00  0.1375E+02  0.1354E+02
     22.788  0.1797E+00  0.2950E+00  0.1377E+02  0.1357E+02
     22.916  0.1900E+00  0.4842E+00  0.1380E+02  0.1363E+02
     23.044  0.1816E+00  0.5585E+00  0.1382E+02  0.1371E+02
     23.172  0.1372E+00  0.3395E+00  0.1384E+02  0.1375E+02
     23.300  0.2600E+00  0.1685E+00  0.1387E+02  0.1377E+02
     23.428  0.3210E+00  0.2161E+00  0.1391E+02  0.1380E+02
     23.556  0.3556E+00  0.1907E+00  0.1396E+02  0.1382E+02
     23.684  0.4064E+00  0.1354E+00  0.1401E+02  0.1384E+02
     23.811  0.2367E+00  0.2624E+00  0.1404E+02  0.1387E+02
     23.939  0.1394E+00  0.4099E+00  0.1406E+02  0.1393E+02
     24.067  0.3085E+00  0.4366E+00  0.1410E+02  0.1398E+02
     24.195  0.3532E+00  0.3298E+00  0.1414E+02  0.1402E+02
     24.323  0.2508E+00  0.1444E+00  0.1417E+02  0.1404E+02
     24.451  0.4143E+00  0.1568E+00  0.1423E+02  0.1406E+02
     24.579  0.5560E+00  0.3545E+00  0.1430E+02  0.1411E+02
     24.707  0.4629E+00  0.3911E+00  0.1436E+02  0.1416E+02
     24.835  0.3394E+00  0.3806E+00  0.1440E+02  0.1421E+02
     24.963  0.1957E+00  0.4888E+00  0.1443E+02  0.1427E+02
     25.091  0.1124E+00  0.4873E+00  0.1444E+02  0.1433E+02
     25.219  0.2486E+00  0.3718E+00  0.1447E+02  0.1438E+02
     25.347  0.4172E+00  0.2683E+00  0.1452E+02  0.1441E+02
     25.475  0.3928E+00  0.1394E+00  0.1458E+02  0.1443E+02
     25.603  0.3140E+00  0.1754E+00  0.1462E+02  0.1445E+02
     25.731  0.3757E+00  0.3942E+00  0.1466E+02  0.1450E+02
     25.859  0.3641E+00  0.4347E+00  0.1471E+02  0.1456E+02
     25.987  0.2267E+00  0.3508E+00  0.1474E+02  0.1461E+02
     26.115  0.3060E+00  0.3635E+00  0.1478E+02  0.1465E+02
     26.243  0.5016E+00  0.3688E+00  0.1484E+02  0.1470E+02
     26.370  0.4685E+00  0.3129E+00  0.1490E+02  0.1474E+02
     26.498  0.3271E+00  0.3523E+00  0.1494E+02  0.1478E+02
     26.626  0.3106E+00  0.4958E+00  0.1498E+02  0.1485E+02
     26.754  0.4540E+00  0.4938E+00  0.1504E+02  0.1491E+02
     26.882  0.3898E+00  0.3491E+00  0.1509E+02  0.1496E+02
     27.010  0.1719E+00  0.3092E+00  0.1511E+02  0.1499E+02
     27.138  0.1791E+00  0.4479E+00  0.1514E+02  0.1505E+02
     27.266  0.2450E+00  0.3831E+00  0.1517E+02  0.1510E+02
     27.394  0.1977E+00  0.1855E+00  0.1519E+02  0.1512E+02
     27.522  0.9035E-01  0.1858E+00  0.1520E+02  0.1515E+02
     27.650  0.1117E+00  0.2227E+00  0.1522E+02  0.1518E+02
     27.778  0.3154E+00  0.1583E+00  0.1526E+02  0.1520E+02
     27.906  0.4313E+00  0.8668E-01  0.1531E+02  0.1521E+02
     28.034  0.3071E+00  0.1944E+00  0.1535E+02  0.1523E+02
     28.162  0.1668E+00  0.3989E+00  0.1538E+02  0.1528E+02
     28.290  0.1912E+00  0.4284E+00  0.1540E+02  0.1534E+02
     28.418  0.2157E+00  0.2790E+00  0.1543E+02  0.1537E+02
     28.546  0.2181E+00  0.1805E+00  0.1546E+02  0.1540E+02
     28.674  0.2228E+00  0.1559E+00  0.1548E+02  0.1542E+02
     28.802  0.1931E+00  0.1850E+00  0.1551E+02  0.1544E+02
     28.930  0.1744E+00  0.2637E+00  0.1553E+02  0.1548E+02
     29.057  0.1326E+00  0.2669E+00  0.1555E+02  0.1551E+02
     29.185  0.8126E-01  0.1561E+00  0.1556E+02  0.1553E+02
     29.313  0.1236E+00  0.9675E-01  0.1557E+02  0.1554E+02
     29.441  0.1855E+00  0.1220E+00  0.1560E+02  0.1556E+02
     29.569  0.1705E+00  0.1662E+00  0.1562E+02  0.1558E+02
     29.697  0.1527E+00  0.1718E+00  0.1564E+02  0.1560E+02
     29.825  0.1899E+00  0.1145E+00  0.1566E+02  0.1562E+02
     29.953  0.2177E+00  0.1512E+00  0.1569E+02  0.1563E+02
     30.081  0.1361E+00  0.2490E+00  0.1571E+02  0.1567E+02
     30.209  0.1016E+00  0.2126E+00  0.1572E+02  0.1569E+02
     30.337  0.1318E+00  0.1150E+00  0.1574E+02  0.1571E+02
     30.465  0.8437E-01  0.1199E+00  0.1575E+02  0.1572E+02
     30.593  0.5149E-01  0.1573E+00  0.1576E+02  0.1574E+02
     30.721  0.6930E-01  0.1159E+00  0.1576E+02  0.1576E+02
     30.849  0.9962E-01  0.3918E-01  0.1578E+02  0.1576E+02
     30.977  0.1011E+00  0.3649E-01  0.1579E+02  0.1577E+02
     31.105  0.9249E-01  0.9976E-01  0.1580E+02  0.1578E+02
     31.233  0.1080E+00  0.1359E+00  0.1582E+02  0.1580E+02
     31.361  0.5861E-01  0.1238E+00  0.1582E+02  0.1581E+02
     31.489  0.3549E-02  0.7043E-01  0.1582E+02  0.1582E+02
     31.616  0.8614E-02  0.2134E-01  0.1583E+02  0.1583E+02
     31.744  0.5153E-01  0.3192E-01  0.1583E+02  0.1583E+02
     31.872  0.1122E+00  0.5311E-01  0.1585E+02  0.1584E+02
     32.000  0.1517E+00  0.5884E-01  0.1587E+02  0.1584E+02
     32.128  0.9522E-01  0.1140E+00  0.1588E+02  0.1586E+02
     32.256  0.1114E-01  0.1172E+00  0.1588E+02  0.1587E+02
     32.384  0.5961E-02  0.6110E-01  0.1588E+02  0.1588E+02
     32.512  0.4995E-01  0.6262E-01  0.1589E+02  0.1589E+02
     32.640  0.5410E-01  0.5128E-01  0.1589E+02  0.1590E+02
     32.768  0.2537E-01  0.6416E-02  0.1590E+02  0.1590E+02
     32.896  0.4861E-01  0.9020E-03  0.1590E+02  0.1590E+02
     33.024  0.1480E+00  0.5108E-01  0.1592E+02  0.1590E+02
     33.152  0.2025E+00  0.1333E+00  0.1595E+02  0.1592E+02
     33.280  0.1093E+00  0.1718E+00  0.1596E+02  0.1594E+02
     33.408  0.3584E-01  0.1401E+00  0.1597E+02  0.1596E+02
     33.536  0.5978E-01  0.9687E-01  0.1597E+02  0.1597E+02
     33.664  0.4665E-01  0.4938E-01  0.1598E+02  0.1598E+02
     33.792  0.4980E-02  0.1148E-01  0.1598E+02  0.1598E+02
     33.920 -0.2606E-02  0.6260E-02  0.1598E+02  0.1598E+02
     34.048  0.5974E-02  0.3616E-02  0.1598E+02  0.1598E+02
     34.175  0.9394E-02 -0.9523E-03  0.1598E+02  0.1598E+02
     34.303  0.2257E-02 -0.1957E-02  0.1598E+02  0.1598E+02
     34.431  0.1421E-03  0.8358E-02  0.1598E+02  0.1598E+02
     34.559  0.1685E-01  0.3232E-01  0.1598E+02  0.1599E+02
     34.687  0.3525E-01  0.3602E-01  0.1599E+02  0.1599E+02
     34.815  0.3047E-01  0.1879E-01  0.1599E+02  0.1599E+02
     34.943  0.1485E-01  0.5441E-02  0.1599E+02  0.1600E+02
     35.071  0.2346E-02 -0.5346E-03  0.1600E+02  0.1600E+02
     35.199 -0.1464E-02 -0.6361E-03  0.1599E+02  0.1599E+02
     35.327 -0.1099E-02  0.4592E-02  0.1599E+02  0.1600E+02
     35.455  0.6225E-02  0.9699E-02  0.1600E+02  0.1600E+02
     35.583  0.1891E-01  0.5721E-02  0.1600E+02  0.1600E+02
     35.711  0.1453E-01  0.3795E-02  0.1600E+02  0.1600E+02
     35.839  0.1940E-02  0.7491E-02  0.1600E+02  0.1600E+02
     35.967 -0.9568E-03  0.6648E-02  0.1600E+02  0.1600E+02
     36.095 -0.2471E-03  0.1949E-02  0.1600E+02  0.1600E+02
     36.223 -0.1830E-04 -0.2390E-03  0.1600E+02  0.1600E+02
     36.351 -0.5194E-06 -0.1821E-03  0.1600E+02  0.1600E+02
     36.479 -0.6078E-08 -0.2370E-04  0.1600E+02  0.1600E+02
     36.607 -0.3019E-10 -0.1114E-05  0.1600E+02  0.1600E+02
     36.734 -0.6450E-13 -0.2117E-07  0.1600E+02  0.1600E+02
     36.862 -0.6074E-16 -0.1687E-09  0.1600E+02  0.1600E+02
     36.990  0.0000E+00 -0.5747E-12  0.1600E+02  0.1600E+02
     37.118  0.0000E+00 -0.8438E-15  0.1600E+02  0.1600E+02
     37.246  0.0000E+00  0.0000E+00  0.1600E+02  0.1600E+02
     37.374  0.0000E+00  0.0000E+00  0.1600E+02  0.1600E+02
     37.502  0.0000E+00  0.0000E+00  0.1600E+02  0.1600E+02
     37.630  0.0000E+00  0.0000E+00  0.1600E+02  0.1600E+02
     37.758  0.0000E+00  0.0000E+00  0.1600E+02  0.1600E+02
     37.886  0.0000E+00  0.0000E+00  0.1600E+02  0.1600E+02
