   2   2   0   0
  0.2137190E+02  0.2470000E-09  0.2470000E-09  0.8090000E-09  0.5000000E-15
  1.000000000000000E-004
  CAR 
 Co fcc                                  
     21.97620350     -5.00588091  301      3.02181857      1.00000000
     -5.006  0.0000E+00  0.0000E+00  0.0000E+00  0.0000E+00
     -4.916  0.0000E+00  0.0000E+00  0.0000E+00  0.0000E+00
     -4.826  0.0000E+00  0.0000E+00  0.0000E+00  0.0000E+00
     -4.736  0.0000E+00  0.0000E+00  0.0000E+00  0.0000E+00
     -4.646 -0.1100E-29  0.0000E+00 -0.9896E-31  0.0000E+00
     -4.556 -0.1373E-26  0.0000E+00 -0.1236E-27  0.0000E+00
     -4.466 -0.1130E-23 -0.1865E-31 -0.1018E-24 -0.1677E-32
     -4.376 -0.6196E-21 -0.2883E-28 -0.5582E-22 -0.2594E-29
     -4.286 -0.2260E-18 -0.2960E-25 -0.2038E-19 -0.2665E-26
     -4.196 -0.5485E-16 -0.2022E-22 -0.4953E-17 -0.1822E-23
     -4.106 -0.8563E-14 -0.9188E-20 -0.7752E-15 -0.8282E-21
     -4.017 -0.9145E-12 -0.2775E-17 -0.8302E-13 -0.2504E-18
     -3.927 -0.6476E-10 -0.5398E-15 -0.5908E-11 -0.4880E-16
     -3.837 -0.3038E-08 -0.7165E-13 -0.2792E-09 -0.6493E-14
     -3.747 -0.9418E-07 -0.6297E-11 -0.8750E-08 -0.5729E-12
     -3.657 -0.1920E-05 -0.3664E-09 -0.1814E-06 -0.3353E-10
     -3.567 -0.2552E-04 -0.1409E-07 -0.2477E-05 -0.1300E-08
     -3.477 -0.2174E-03 -0.3567E-06 -0.2203E-04 -0.3338E-07
     -3.387 -0.1145E-02 -0.5919E-05 -0.1250E-03 -0.5657E-06
     -3.297 -0.3370E-02 -0.6368E-04 -0.4282E-03 -0.6294E-05
     -3.207 -0.3280E-02 -0.4348E-03 -0.7232E-03 -0.4540E-04
     -3.117  0.1144E-01 -0.1785E-02  0.3058E-03 -0.2059E-03
     -3.027  0.4801E-01 -0.3659E-02  0.4623E-02 -0.5350E-03
     -2.937  0.8598E-01  0.7129E-03  0.1236E-01 -0.4709E-03
     -2.847  0.9925E-01  0.2344E-01  0.2128E-01  0.1638E-02
     -2.757  0.9547E-01  0.6040E-01  0.2987E-01  0.7070E-02
     -2.667  0.9582E-01  0.8285E-01  0.3849E-01  0.1452E-01
     -2.577  0.9416E-01  0.7865E-01  0.4696E-01  0.2160E-01
     -2.488  0.6779E-01  0.6653E-01  0.5305E-01  0.2758E-01
     -2.398  0.1939E-01  0.5855E-01  0.5480E-01  0.3285E-01
     -2.308 -0.2281E-01  0.6056E-01  0.5275E-01  0.3829E-01
     -2.218 -0.1420E-01  0.7057E-01  0.5147E-01  0.4464E-01
     -2.128  0.1179E+00  0.6012E-01  0.6207E-01  0.5005E-01
     -2.038  0.3758E+00  0.2027E-01  0.9587E-01  0.5187E-01
     -1.948  0.6033E+00  0.1271E-01  0.1501E+00  0.5301E-01
     -1.858  0.6876E+00  0.1298E+00  0.2120E+00  0.6468E-01
     -1.768  0.6971E+00  0.3506E+00  0.2747E+00  0.9622E-01
     -1.678  0.6513E+00  0.4964E+00  0.3333E+00  0.1409E+00
     -1.588  0.4620E+00  0.4792E+00  0.3748E+00  0.1840E+00
     -1.498  0.1851E+00  0.4056E+00  0.3915E+00  0.2204E+00
     -1.408 -0.8508E-02  0.3560E+00  0.3907E+00  0.2525E+00
     -1.318 -0.7659E-01  0.3696E+00  0.3838E+00  0.2857E+00
     -1.228 -0.3210E-01  0.4404E+00  0.3809E+00  0.3253E+00
     -1.138  0.2226E+00  0.4213E+00  0.4009E+00  0.3632E+00
     -1.049  0.7490E+00  0.2505E+00  0.4683E+00  0.3857E+00
     -0.959  0.1348E+01  0.6967E-01  0.5895E+00  0.3920E+00
     -0.869  0.1556E+01 -0.1033E-01  0.7295E+00  0.3911E+00
     -0.779  0.1047E+01 -0.1631E-01  0.8236E+00  0.3896E+00
     -0.689  0.4261E+00 -0.6375E-02  0.8620E+00  0.3890E+00
     -0.599  0.1038E+01 -0.1506E-02  0.9553E+00  0.3889E+00
     -0.509  0.3030E+01 -0.1404E-02  0.1228E+01  0.3888E+00
     -0.419  0.4478E+01 -0.6592E-02  0.1631E+01  0.3882E+00
     -0.329  0.4243E+01 -0.2026E-01  0.2012E+01  0.3864E+00
     -0.239  0.3716E+01 -0.2524E-01  0.2346E+01  0.3841E+00
     -0.149  0.3704E+01  0.4196E-01  0.2679E+01  0.3879E+00
     -0.059  0.3528E+01  0.2288E+00  0.2997E+01  0.4084E+00
      0.031  0.3403E+01  0.4871E+00  0.3303E+01  0.4522E+00
      0.121  0.3625E+01  0.8156E+00  0.3629E+01  0.5256E+00
      0.211  0.3334E+01  0.1334E+01  0.3929E+01  0.6456E+00
      0.301  0.2402E+01  0.1948E+01  0.4145E+01  0.8208E+00
      0.391  0.2072E+01  0.2165E+01  0.4331E+01  0.1015E+01
      0.480  0.2566E+01  0.1619E+01  0.4562E+01  0.1161E+01
      0.570  0.2746E+01  0.6636E+00  0.4809E+01  0.1221E+01
      0.660  0.2944E+01 -0.3455E-01  0.5074E+01  0.1218E+01
      0.750  0.4784E+01 -0.1060E+00  0.5504E+01  0.1208E+01
      0.840  0.7429E+01  0.6901E+00  0.6172E+01  0.1270E+01
      0.930  0.7949E+01  0.2079E+01  0.6887E+01  0.1457E+01
      1.020  0.6398E+01  0.2713E+01  0.7462E+01  0.1701E+01
      1.110  0.5455E+01  0.1813E+01  0.7953E+01  0.1864E+01
      1.200  0.5325E+01  0.4759E+00  0.8432E+01  0.1907E+01
      1.290  0.4821E+01 -0.1531E+00  0.8866E+01  0.1893E+01
      1.380  0.4300E+01 -0.1232E+00  0.9252E+01  0.1882E+01
      1.470  0.3764E+01  0.2238E+00  0.9591E+01  0.1902E+01
      1.560  0.2498E+01  0.9463E+00  0.9816E+01  0.1988E+01
      1.650  0.9796E+00  0.2430E+01  0.9904E+01  0.2206E+01
      1.740  0.2023E+00  0.4619E+01  0.9922E+01  0.2621E+01
      1.830  0.2826E+00  0.6253E+01  0.9947E+01  0.3184E+01
      1.920  0.8261E+00  0.5932E+01  0.1002E+02  0.3717E+01
      2.009  0.1488E+01  0.3905E+01  0.1016E+02  0.4069E+01
      2.099  0.1835E+01  0.1957E+01  0.1032E+02  0.4245E+01
      2.189  0.1621E+01  0.1533E+01  0.1047E+02  0.4383E+01
      2.279  0.1145E+01  0.2147E+01  0.1057E+02  0.4576E+01
      2.369  0.9301E+00  0.2279E+01  0.1065E+02  0.4781E+01
      2.459  0.1197E+01  0.1749E+01  0.1076E+02  0.4938E+01
      2.549  0.1483E+01  0.1787E+01  0.1089E+02  0.5099E+01
      2.639  0.1218E+01  0.2903E+01  0.1100E+02  0.5360E+01
      2.729  0.6154E+00  0.4023E+01  0.1106E+02  0.5722E+01
      2.819  0.1932E+00  0.4101E+01  0.1108E+02  0.6090E+01
      2.909  0.3416E-01  0.3760E+01  0.1108E+02  0.6429E+01
      2.999 -0.8710E-02  0.4222E+01  0.1108E+02  0.6808E+01
      3.089 -0.1392E-01  0.5321E+01  0.1108E+02  0.7287E+01
      3.179 -0.7719E-02  0.5733E+01  0.1108E+02  0.7803E+01
      3.269 -0.3446E-02  0.4976E+01  0.1108E+02  0.8250E+01
      3.359 -0.5062E-02  0.4198E+01  0.1108E+02  0.8628E+01
      3.449 -0.8942E-02  0.4248E+01  0.1108E+02  0.9010E+01
      3.538  0.6012E-02  0.4304E+01  0.1108E+02  0.9397E+01
      3.628  0.6913E-01  0.3477E+01  0.1108E+02  0.9710E+01
      3.718  0.1503E+00  0.2349E+01  0.1110E+02  0.9921E+01
      3.808  0.1561E+00  0.1731E+01  0.1111E+02  0.1008E+02
      3.898  0.7335E-01  0.1690E+01  0.1112E+02  0.1023E+02
      3.988  0.1498E-01  0.2197E+01  0.1112E+02  0.1043E+02
      4.078  0.8648E-01  0.2640E+01  0.1113E+02  0.1066E+02
      4.168  0.2655E+00  0.2056E+01  0.1115E+02  0.1085E+02
      4.258  0.3776E+00  0.8071E+00  0.1118E+02  0.1092E+02
      4.348  0.2873E+00 -0.5421E-02  0.1121E+02  0.1092E+02
      4.438  0.1027E+00 -0.8301E-01  0.1122E+02  0.1091E+02
      4.528 -0.3396E-02  0.3052E+00  0.1122E+02  0.1094E+02
      4.618 -0.1843E-01  0.7721E+00  0.1122E+02  0.1101E+02
      4.708 -0.1106E-01  0.8426E+00  0.1122E+02  0.1109E+02
      4.798 -0.1922E-01  0.4628E+00  0.1121E+02  0.1113E+02
      4.888 -0.4718E-01  0.1140E+00  0.1121E+02  0.1114E+02
      4.977 -0.3432E-01  0.1072E+00  0.1121E+02  0.1115E+02
      5.067  0.1858E+00  0.2757E+00  0.1122E+02  0.1117E+02
      5.157  0.6864E+00  0.3589E+00  0.1128E+02  0.1120E+02
      5.247  0.1187E+01  0.3522E+00  0.1139E+02  0.1124E+02
      5.337  0.1409E+01  0.3568E+00  0.1152E+02  0.1127E+02
      5.427  0.1466E+01  0.3575E+00  0.1165E+02  0.1130E+02
      5.517  0.1371E+01  0.3321E+00  0.1177E+02  0.1133E+02
      5.607  0.9930E+00  0.2881E+00  0.1186E+02  0.1136E+02
      5.697  0.6842E+00  0.1905E+00  0.1192E+02  0.1137E+02
      5.787  0.7717E+00  0.5128E-01  0.1199E+02  0.1138E+02
      5.877  0.9039E+00 -0.1384E-01  0.1207E+02  0.1138E+02
      5.967  0.7275E+00  0.1720E+00  0.1214E+02  0.1139E+02
      6.057  0.3996E+00  0.6975E+00  0.1218E+02  0.1145E+02
      6.147  0.2069E+00  0.1258E+01  0.1219E+02  0.1157E+02
      6.237  0.2413E+00  0.1408E+01  0.1222E+02  0.1169E+02
      6.327  0.3266E+00  0.1199E+01  0.1225E+02  0.1180E+02
      6.417  0.2564E+00  0.9079E+00  0.1227E+02  0.1188E+02
      6.506  0.1041E+00  0.6800E+00  0.1228E+02  0.1195E+02
      6.596  0.5471E-01  0.6765E+00  0.1228E+02  0.1201E+02
      6.686  0.1237E+00  0.8304E+00  0.1229E+02  0.1208E+02
      6.776  0.2241E+00  0.8848E+00  0.1231E+02  0.1216E+02
      6.866  0.3155E+00  0.7438E+00  0.1234E+02  0.1223E+02
      6.956  0.3562E+00  0.4537E+00  0.1237E+02  0.1227E+02
      7.046  0.3357E+00  0.1917E+00  0.1240E+02  0.1229E+02
      7.136  0.3308E+00  0.1096E+00  0.1243E+02  0.1230E+02
      7.226  0.3148E+00  0.1183E+00  0.1246E+02  0.1231E+02
      7.316  0.2407E+00  0.1187E+00  0.1248E+02  0.1232E+02
      7.406  0.2359E+00  0.1998E+00  0.1251E+02  0.1233E+02
      7.496  0.3101E+00  0.3892E+00  0.1253E+02  0.1237E+02
      7.586  0.2756E+00  0.5233E+00  0.1256E+02  0.1242E+02
      7.676  0.1411E+00  0.4618E+00  0.1257E+02  0.1246E+02
      7.766  0.9527E-01  0.2497E+00  0.1258E+02  0.1248E+02
      7.856  0.1436E+00  0.9331E-01  0.1259E+02  0.1249E+02
      7.946  0.1381E+00  0.1485E+00  0.1261E+02  0.1250E+02
      8.035  0.5256E-01  0.2965E+00  0.1261E+02  0.1253E+02
      8.125 -0.1440E-02  0.2966E+00  0.1261E+02  0.1256E+02
      8.215  0.7209E-01  0.1606E+00  0.1262E+02  0.1257E+02
      8.305  0.2462E+00  0.9749E-01  0.1264E+02  0.1258E+02
      8.395  0.3417E+00  0.1370E+00  0.1267E+02  0.1259E+02
      8.485  0.2408E+00  0.1323E+00  0.1269E+02  0.1260E+02
      8.575  0.7080E-01  0.6136E-01  0.1270E+02  0.1261E+02
      8.665 -0.1878E-01  0.6890E-01  0.1270E+02  0.1261E+02
      8.755 -0.3470E-01  0.2156E+00  0.1269E+02  0.1263E+02
      8.845 -0.3150E-02  0.3362E+00  0.1269E+02  0.1266E+02
      8.935  0.1132E+00  0.2653E+00  0.1270E+02  0.1269E+02
      9.025  0.2884E+00  0.9486E-01  0.1273E+02  0.1270E+02
      9.115  0.4066E+00 -0.5478E-02  0.1276E+02  0.1270E+02
      9.205  0.4625E+00 -0.2496E-01  0.1281E+02  0.1269E+02
      9.295  0.5378E+00 -0.2612E-01  0.1285E+02  0.1269E+02
      9.385  0.5700E+00 -0.5672E-02  0.1291E+02  0.1269E+02
      9.475  0.4459E+00  0.1008E+00  0.1295E+02  0.1270E+02
      9.564  0.2624E+00  0.2949E+00  0.1297E+02  0.1273E+02
      9.654  0.2650E+00  0.4571E+00  0.1299E+02  0.1277E+02
      9.744  0.5999E+00  0.4758E+00  0.1305E+02  0.1281E+02
      9.834  0.1133E+01  0.3334E+00  0.1315E+02  0.1284E+02
      9.924  0.1436E+01  0.1541E+00  0.1328E+02  0.1285E+02
     10.014  0.1241E+01  0.2123E+00  0.1339E+02  0.1287E+02
     10.104  0.7680E+00  0.6208E+00  0.1346E+02  0.1293E+02
     10.194  0.3581E+00  0.1071E+01  0.1349E+02  0.1303E+02
     10.284  0.1497E+00  0.1200E+01  0.1350E+02  0.1313E+02
     10.374  0.1302E+00  0.1060E+01  0.1352E+02  0.1323E+02
     10.464  0.1721E+00  0.8926E+00  0.1353E+02  0.1331E+02
     10.554  0.1450E+00  0.7371E+00  0.1355E+02  0.1338E+02
     10.644  0.1252E+00  0.5508E+00  0.1356E+02  0.1343E+02
     10.734  0.3056E+00  0.3859E+00  0.1358E+02  0.1346E+02
     10.824  0.6134E+00  0.2850E+00  0.1364E+02  0.1349E+02
     10.914  0.7087E+00  0.2204E+00  0.1370E+02  0.1351E+02
     11.003  0.5327E+00  0.2010E+00  0.1375E+02  0.1352E+02
     11.093  0.3491E+00  0.3167E+00  0.1378E+02  0.1355E+02
     11.183  0.3475E+00  0.5930E+00  0.1381E+02  0.1361E+02
     11.273  0.6323E+00  0.7575E+00  0.1387E+02  0.1367E+02
     11.363  0.1018E+01  0.5544E+00  0.1396E+02  0.1372E+02
     11.453  0.1036E+01  0.2361E+00  0.1405E+02  0.1374E+02
     11.543  0.6677E+00  0.1524E+00  0.1412E+02  0.1376E+02
     11.633  0.3837E+00  0.2555E+00  0.1415E+02  0.1378E+02
     11.723  0.4273E+00  0.3761E+00  0.1419E+02  0.1382E+02
     11.813  0.6659E+00  0.5755E+00  0.1425E+02  0.1387E+02
     11.903  0.9454E+00  0.9530E+00  0.1433E+02  0.1395E+02
     11.993  0.1199E+01  0.1221E+01  0.1444E+02  0.1406E+02
     12.083  0.1250E+01  0.1029E+01  0.1455E+02  0.1415E+02
     12.173  0.9625E+00  0.5837E+00  0.1464E+02  0.1421E+02
     12.263  0.5612E+00  0.2647E+00  0.1469E+02  0.1423E+02
     12.353  0.3208E+00  0.1616E+00  0.1472E+02  0.1425E+02
     12.443  0.2220E+00  0.3132E+00  0.1474E+02  0.1427E+02
     12.532  0.3135E+00  0.7574E+00  0.1477E+02  0.1434E+02
     12.622  0.7284E+00  0.1217E+01  0.1483E+02  0.1445E+02
     12.712  0.1098E+01  0.1272E+01  0.1493E+02  0.1457E+02
     12.802  0.9311E+00  0.9674E+00  0.1502E+02  0.1465E+02
     12.892  0.4532E+00  0.7697E+00  0.1506E+02  0.1472E+02
     12.982  0.1713E+00  0.8006E+00  0.1507E+02  0.1479E+02
     13.072  0.1081E+00  0.8315E+00  0.1508E+02  0.1487E+02
     13.162  0.6652E-01  0.8671E+00  0.1509E+02  0.1495E+02
     13.252  0.7114E-01  0.8697E+00  0.1509E+02  0.1503E+02
     13.342  0.2039E+00  0.6031E+00  0.1511E+02  0.1508E+02
     13.432  0.3304E+00  0.1990E+00  0.1514E+02  0.1510E+02
     13.522  0.2688E+00 -0.2119E-01  0.1517E+02  0.1510E+02
     13.612  0.8916E-01 -0.5151E-01  0.1517E+02  0.1509E+02
     13.702 -0.8652E-02 -0.3342E-01  0.1517E+02  0.1509E+02
     13.792  0.5880E-01  0.1663E-01  0.1518E+02  0.1509E+02
     13.882  0.2229E+00  0.1544E+00  0.1520E+02  0.1510E+02
     13.972  0.3318E+00  0.3063E+00  0.1523E+02  0.1513E+02
     14.061  0.3712E+00  0.2878E+00  0.1526E+02  0.1516E+02
     14.151  0.4802E+00  0.1287E+00  0.1530E+02  0.1517E+02
     14.241  0.6563E+00  0.1289E+00  0.1536E+02  0.1518E+02
     14.331  0.7920E+00  0.4287E+00  0.1544E+02  0.1522E+02
     14.421  0.7801E+00  0.7042E+00  0.1551E+02  0.1528E+02
     14.511  0.5245E+00  0.5897E+00  0.1555E+02  0.1533E+02
     14.601  0.1742E+00  0.2671E+00  0.1557E+02  0.1536E+02
     14.691 -0.2300E-01  0.1508E+00  0.1557E+02  0.1537E+02
     14.781 -0.5267E-01  0.3256E+00  0.1556E+02  0.1540E+02
     14.871  0.9677E-02  0.5908E+00  0.1556E+02  0.1545E+02
     14.961  0.1613E+00  0.6577E+00  0.1558E+02  0.1551E+02
     15.051  0.3196E+00  0.4323E+00  0.1561E+02  0.1555E+02
     15.141  0.3121E+00  0.2055E+00  0.1563E+02  0.1557E+02
     15.231  0.1509E+00  0.2238E+00  0.1565E+02  0.1559E+02
     15.321  0.1744E-01  0.3143E+00  0.1565E+02  0.1562E+02
     15.411 -0.1770E-01  0.2418E+00  0.1565E+02  0.1564E+02
     15.501 -0.9951E-02  0.8022E-01  0.1565E+02  0.1565E+02
     15.590 -0.2478E-02 -0.7573E-02  0.1565E+02  0.1565E+02
     15.680 -0.3557E-03 -0.1599E-01  0.1565E+02  0.1565E+02
     15.770 -0.3216E-04 -0.5956E-02  0.1565E+02  0.1565E+02
     15.860 -0.1394E-04 -0.1158E-02  0.1565E+02  0.1565E+02
     15.950 -0.1608E-03 -0.1348E-03  0.1565E+02  0.1565E+02
     16.040 -0.1331E-02 -0.1022E-04  0.1565E+02  0.1565E+02
     16.130 -0.6570E-02 -0.8255E-05  0.1565E+02  0.1565E+02
     16.220 -0.1658E-01 -0.1106E-03  0.1564E+02  0.1565E+02
     16.310 -0.4301E-02 -0.9887E-03  0.1564E+02  0.1565E+02
     16.400  0.9290E-01 -0.5333E-02  0.1565E+02  0.1565E+02
     16.490  0.2628E+00 -0.1538E-01  0.1568E+02  0.1564E+02
     16.580  0.3386E+00 -0.1107E-01  0.1571E+02  0.1564E+02
     16.670  0.2298E+00  0.6829E-01  0.1573E+02  0.1565E+02
     16.760  0.8721E-01  0.2370E+00  0.1573E+02  0.1567E+02
     16.850  0.4004E-01  0.3546E+00  0.1574E+02  0.1570E+02
     16.940  0.3864E-01  0.2934E+00  0.1574E+02  0.1573E+02
     17.029  0.2228E-01  0.1403E+00  0.1574E+02  0.1574E+02
     17.119  0.2947E-02  0.3499E-01  0.1574E+02  0.1574E+02
     17.209 -0.3281E-02 -0.2291E-02  0.1574E+02  0.1574E+02
     17.299 -0.3830E-02 -0.7244E-02  0.1574E+02  0.1574E+02
     17.389 -0.9258E-02 -0.4146E-02  0.1574E+02  0.1574E+02
     17.479 -0.1780E-01 -0.3377E-02  0.1574E+02  0.1574E+02
     17.569  0.9137E-02 -0.9552E-02  0.1574E+02  0.1574E+02
     17.659  0.1316E+00 -0.1779E-01  0.1575E+02  0.1574E+02
     17.749  0.2985E+00  0.1299E-01  0.1578E+02  0.1574E+02
     17.839  0.3269E+00  0.1409E+00  0.1581E+02  0.1575E+02
     17.929  0.1737E+00  0.3055E+00  0.1582E+02  0.1578E+02
     18.019  0.1317E-01  0.3251E+00  0.1583E+02  0.1581E+02
     18.109 -0.9821E-02  0.1738E+00  0.1583E+02  0.1583E+02
     18.199  0.1362E+00  0.2498E-01  0.1584E+02  0.1583E+02
     18.289  0.3727E+00 -0.3052E-01  0.1587E+02  0.1583E+02
     18.379  0.4815E+00 -0.2998E-01  0.1591E+02  0.1582E+02
     18.469  0.3384E+00  0.2907E-01  0.1594E+02  0.1583E+02
     18.558  0.1101E+00  0.1981E+00  0.1595E+02  0.1584E+02
     18.648 -0.3638E-02  0.4151E+00  0.1595E+02  0.1588E+02
     18.738 -0.3466E-02  0.4796E+00  0.1595E+02  0.1592E+02
     18.828  0.1989E-01  0.3161E+00  0.1596E+02  0.1595E+02
     18.918  0.2128E-01  0.9913E-01  0.1596E+02  0.1596E+02
     19.008  0.8527E-02 -0.7672E-02  0.1596E+02  0.1596E+02
     19.098 -0.6931E-04 -0.1925E-01  0.1596E+02  0.1596E+02
     19.188 -0.1424E-02 -0.7821E-02  0.1596E+02  0.1596E+02
     19.278 -0.6086E-03 -0.1721E-02  0.1596E+02  0.1596E+02
     19.368 -0.2076E-03 -0.2681E-03  0.1596E+02  0.1596E+02
     19.458 -0.6803E-03 -0.3397E-03  0.1596E+02  0.1596E+02
     19.548 -0.3282E-02 -0.1928E-02  0.1596E+02  0.1596E+02
     19.638 -0.8282E-02 -0.6470E-02  0.1596E+02  0.1596E+02
     19.728 -0.2143E-02 -0.7655E-02  0.1596E+02  0.1596E+02
     19.818  0.4658E-01  0.2188E-01  0.1596E+02  0.1596E+02
     19.908  0.1322E+00  0.1000E+00  0.1597E+02  0.1597E+02
     19.998  0.1708E+00  0.1677E+00  0.1599E+02  0.1598E+02
     20.087  0.1135E+00  0.1435E+00  0.1600E+02  0.1600E+02
     20.177  0.3096E-01  0.5852E-01  0.1600E+02  0.1600E+02
     20.267 -0.6063E-02  0.1778E-02  0.1600E+02  0.1600E+02
     20.357 -0.7274E-02 -0.8734E-02  0.1600E+02  0.1600E+02
     20.447 -0.2414E-02 -0.3967E-02  0.1600E+02  0.1600E+02
     20.537 -0.4324E-03 -0.8765E-03  0.1600E+02  0.1600E+02
     20.627 -0.4686E-04 -0.1139E-03  0.1600E+02  0.1600E+02
     20.717 -0.3205E-05 -0.9225E-05  0.1600E+02  0.1600E+02
     20.807 -0.1411E-06 -0.4782E-06  0.1600E+02  0.1600E+02
     20.897 -0.4043E-08 -0.1608E-07  0.1600E+02  0.1600E+02
     20.987 -0.7595E-10 -0.3536E-09  0.1600E+02  0.1600E+02
     21.077 -0.9394E-12 -0.5112E-11  0.1600E+02  0.1600E+02
     21.167 -0.7715E-14 -0.4876E-13  0.1600E+02  0.1600E+02
     21.257  0.0000E+00 -0.3086E-15  0.1600E+02  0.1600E+02
     21.347  0.0000E+00  0.0000E+00  0.1600E+02  0.1600E+02
     21.437  0.0000E+00  0.0000E+00  0.1600E+02  0.1600E+02
     21.527  0.0000E+00  0.0000E+00  0.1600E+02  0.1600E+02
     21.616  0.0000E+00  0.0000E+00  0.1600E+02  0.1600E+02
     21.706  0.0000E+00  0.0000E+00  0.1600E+02  0.1600E+02
     21.796  0.0000E+00  0.0000E+00  0.1600E+02  0.1600E+02
     21.886  0.0000E+00  0.0000E+00  0.1600E+02  0.1600E+02
     21.976  0.0000E+00  0.0000E+00  0.1600E+02  0.1600E+02
