    2    2    1    2
  0.1064014E+02  0.2472000E-09  0.2472000E-09  0.4021144E-09  0.5000000E-15
  1.000000000000000E-004
  CAR 
 Co fcc                                  
     18     70     16
 
  0.0000000E+00  0.0000000E+00  0.0000000E+00  0.1250000E-02
      1          1.500920        1.518261   1.000000   1.000000
      2          5.283075        6.255977   1.000000   1.000000
      3          7.830685        9.502120   1.000000   1.000000
      4          7.889093        9.572883   1.000000   1.000000
      5          7.889094        9.572883   1.000000   1.000000
      6          8.202974        9.941071   1.000000   1.000325
      7          8.202975        9.941071   1.000000   1.000325
      8          8.579251       10.330827   1.000000   0.994434
      9          8.579251       10.398892   1.000000   0.857409
     10          9.687748       10.398893   1.000000   0.857407
     11          9.687748       11.625964   1.000000  -0.000000
     12         10.374096       11.625965   0.920614  -0.000000
     13         16.951032       18.009718   0.000000   0.000000
     14         32.754624       32.492217   0.000000   0.000000
     15         35.549145       35.745418   0.000000   0.000000
     16         35.549209       35.886030   0.000000   0.000000
 
  0.1000000E+00 -0.6938894E-17  0.0000000E+00  0.7500000E-02
      1          1.856452        1.875399   1.000000   1.000000
      2          5.494897        6.497881   1.000000   1.000000
      3          7.584980        9.206127   1.000000   1.000000
      4          8.056188        9.475516   1.000000   1.000000
      5          8.065049        9.756718   1.000000   1.000001
      6          8.154002        9.768400   1.000000   1.000002
      7          8.309224        9.869834   1.000000   1.000046
      8          8.351305       10.104219   1.000000   1.009344
      9          8.477117       10.279491   1.000000   1.031223
     10          8.763850       10.303795   1.000000   1.019516
     11          9.729185       11.675228   1.000000  -0.000000
     12         11.804977       12.789741  -0.000000  -0.000000
     13         17.012577       18.037306   0.000000   0.000000
     14         30.230719       30.410597   0.000000   0.000000
     15         32.871425       33.153739   0.000000   0.000000
     16         33.092250       33.223127   0.000000   0.000000
 
  0.2000000E+00 -0.1387779E-16  0.0000000E+00  0.7500000E-02
      1          2.862877        2.897623   1.000000   1.000000
      2          5.953831        7.059987   1.000000   1.000000
      3          7.272926        8.484259   1.000000   1.000000
      4          7.351017        8.778711   1.000000   1.000000
      5          7.912044        9.554582   1.000000   1.000000
      6          8.242690       10.007812   1.000000   1.001556
      7          8.434989       10.068830   1.000000   1.005180
      8          8.509571       10.244880   1.000000   1.035381
      9          8.514838       10.265401   1.000000   1.034363
     10          8.754741       10.549711   1.000000   0.275453
     11          9.807001       11.766428   1.000007  -0.000000
     12         13.826450       14.684254  -0.000000  -0.000000
     13         17.238728       18.155510   0.000000   0.000000
     14         25.589211       26.001896   0.000000   0.000000
     15         30.053951       30.374027   0.000000   0.000000
     16         31.936976       32.088310   0.000000   0.000000
 
  0.3000000E+00  0.2775558E-16  0.0000000E+00  0.7500000E-02
      1          4.262337        4.399388   1.000000   1.000000
      2          6.079632        7.349660   1.000000   1.000000
      3          6.578101        7.770873   1.000000   1.000000
      4          7.252609        8.533925   1.000000   1.000000
      5          7.919470        9.498381   1.000000   1.000000
      6          7.991073        9.718350   1.000000   1.000000
      7          8.194095        9.784572   1.000000   1.000003
      8          9.126915       10.919290   1.000000  -0.005236
      9          9.187755       10.955895   1.000000  -0.002618
     10          9.290517       11.144825   1.000000  -0.000021
     11          9.867459       11.836136   1.000043  -0.000000
     12         16.117337       16.857373   0.000000   0.000000
     13         17.593952       18.323272   0.000000   0.000000
     14         21.423476       22.009759   0.000000   0.000000
     15         27.764746       28.028515   0.000000   0.000000
     16         28.873923       29.110794   0.000000   0.000000
 
  0.4000000E+00  0.5551115E-16  0.0000000E+00  0.7500000E-02
      1          5.348325        5.900053   1.000000   1.000000
      2          5.858311        7.135645   1.000000   1.000000
      3          6.113641        7.352052   1.000000   1.000000
      4          7.634777        8.553434   1.000000   1.000000
      5          7.806940        9.507579   1.000000   1.000000
      6          8.011456        9.558972   1.000000   1.000000
      7          8.175746        9.766556   1.000000   1.000002
      8          9.647976       11.554698   1.000000  -0.000000
      9          9.781318       11.698054   1.000003  -0.000000
     10          9.899179       11.872161   1.000107  -0.000000
     11         10.402316       11.985414   0.847485  -0.000000
     12         16.188255       16.930891   0.000000   0.000000
     13         18.577244       19.177328   0.000000   0.000000
     14         20.128158       20.704539   0.000000   0.000000
     15         25.457134       25.869529   0.000000   0.000000
     16         26.218592       26.415333   0.000000   0.000000
 
  0.5000000E+00  0.5551115E-16  0.0000000E+00  0.3750000E-02
      1          5.664560        6.609601   1.000000   1.000000
      2          5.707018        6.900525   1.000000   1.000000
      3          5.959430        7.214754   1.000000   1.000000
      4          7.739950        8.684812   1.000000   1.000000
      5          7.943112        9.431075   1.000000   1.000000
      6          7.983448        9.473541   1.000000   1.000000
      7          8.287416        9.896078   1.000000   1.000098
      8          9.845540       11.780917   1.000022  -0.000000
      9          9.908390       11.882508   1.000137  -0.000000
     10          9.993925       11.945144   1.001147  -0.000000
     11         11.879383       13.152910  -0.000000  -0.000000
     12         13.947760       14.955394  -0.000000  -0.000000
     13         20.323207       20.769787   0.000000   0.000000
     14         21.002746       21.418639   0.000000   0.000000
     15         23.397607       23.977370   0.000000   0.000000
     16         24.697912       25.291548   0.000000   0.000000
 
  0.1000000E+00  0.1000000E+00  0.0000000E+00  0.7500000E-02
      1          2.540451        2.566830   1.000000   1.000000
      2          5.849817        6.914746   1.000000   1.000000
      3          7.308744        8.741298   1.000000   1.000000
      4          7.638246        8.862561   1.000000   1.000000
      5          7.995177        9.661042   1.000000   1.000000
      6          8.194317        9.939395   1.000000   1.000311
      7          8.278517       10.007039   1.000000   1.001530
      8          8.397444       10.130029   1.000000   1.013612
      9          8.599012       10.284155   1.000000   1.029645
     10          8.686455       10.464124   1.000000   0.626346
     11          9.769886       11.722657   1.000002  -0.000000
     12         13.260385       14.152335  -0.000000  -0.000000
     13         17.162831       18.116873   0.000000   0.000000
     14         27.760245       28.054085   0.000000   0.000000
     15         28.446334       28.830290   0.000000   0.000000
     16         34.610190       34.536598   0.000000   0.000000
 
  0.2000000E+00  0.1000000E+00  0.0000000E+00  0.1500000E-01
      1          3.775383        3.845532   1.000000   1.000000
      2          6.229366        7.426860   1.000000   1.000000
      3          6.862290        8.028829   1.000000   1.000000
      4          7.028469        8.447841   1.000000   1.000000
      5          7.897845        9.497804   1.000000   1.000000
      6          7.919129        9.602028   1.000000   1.000000
      7          8.403918       10.072135   1.000000   1.005492
      8          8.631698       10.392647   1.000000   0.874777
      9          8.982554       10.776812   1.000000  -0.031316
     10          9.301060       11.101765   1.000000  -0.000076
     11          9.811098       11.770457   1.000008  -0.000000
     12         15.299030       16.089927  -0.000000   0.000000
     13         17.545352       18.352668   0.000000   0.000000
     14         23.509559       23.988420   0.000000   0.000000
     15         26.150256       26.523442   0.000000   0.000000
     16         30.902608       31.019870   0.000000   0.000000
 
  0.3000000E+00  0.1000000E+00  0.0000000E+00  0.1500000E-01
      1          5.115425        5.412025   1.000000   1.000000
      2          6.108965        7.407954   1.000000   1.000000
      3          6.310734        7.539232   1.000000   1.000000
      4          7.180183        8.346627   1.000000   1.000000
      5          7.741616        9.382988   1.000000   1.000000
      6          8.064292        9.645908   1.000000   1.000000
      7          8.147017        9.765088   1.000000   1.000002
      8          9.198048       11.003025   1.000000  -0.000952
      9          9.556683       11.428753   1.000000  -0.000000
     10          9.839037       11.802466   1.000018  -0.000000
     11         10.186718       11.918670   1.025920  -0.000000
     12         17.611534       18.253898   0.000000   0.000000
     13         17.652562       18.327061   0.000000   0.000000
     14         20.237348       20.862777   0.000000   0.000000
     15         24.555246       24.900531   0.000000   0.000000
     16         27.274997       27.583916   0.000000   0.000000
 
  0.4000000E+00  0.1000000E+00  0.0000000E+00  0.1500000E-01
      1          5.750984        6.581899   1.000000   1.000000
      2          5.900445        7.135334   1.000000   1.000000
      3          6.032604        7.297956   1.000000   1.000000
      4          7.636667        8.466024   1.000000   1.000000
      5          7.686253        9.333310   1.000000   1.000000
      6          7.943166        9.498050   1.000000   1.000000
      7          8.282343        9.896339   1.000000   1.000099
      8          9.728962       11.623395   1.000000  -0.000000
      9          9.850635       11.778669   1.000026  -0.000000
     10          9.856930       11.815463   1.000032  -0.000000
     11         11.675066       13.035859  -0.000000  -0.000000
     12         15.022577       15.908883  -0.000000  -0.000000
     13         20.054305       20.576136   0.000000   0.000000
     14         20.864260       21.332875   0.000000   0.000000
     15         23.520592       23.856613   0.000000   0.000000
     16         24.239418       24.737803   0.000000   0.000000
 
  0.2000000E+00  0.2000000E+00  0.0000000E+00  0.7500000E-02
      1          5.048439        5.238271   1.000000   1.000000
      2          6.438349        7.662696   1.000000   1.000000
      3          6.510487        7.766269   1.000000   1.000000
      4          6.678223        8.014956   1.000000   1.000000
      5          7.641073        9.266086   1.000000   1.000000
      6          8.028606        9.608392   1.000000   1.000000
      7          8.243740        9.879444   1.000000   1.000061
      8          8.835954       10.631573   1.000000   0.045092
      9          9.559768       11.422291   1.000000  -0.000000
     10          9.780316       11.734851   1.000003  -0.000000
     11         10.223583       11.957320   1.033315  -0.000000
     12         17.345154       18.052726   0.000000   0.000000
     13         18.191087       18.839137   0.000000   0.000000
     14         21.601838       22.116289   0.000000   0.000000
     15         22.215619       22.697680   0.000000   0.000000
     16         29.298610       29.386460   0.000000   0.000000
 
  0.3000000E+00  0.2000000E+00  0.0000000E+00  0.1500000E-01
      1          6.019738        6.614968   1.000000   1.000000
      2          6.170450        7.454969   1.000000   1.000000
      3          6.306061        7.574386   1.000000   1.000000
      4          6.934263        8.028148   1.000000   1.000000
      5          7.547482        9.134959   1.000000   1.000000
      6          7.979476        9.559276   1.000000   1.000000
      7          8.281914        9.896445   1.000000   1.000099
      8          9.235907       11.072241   1.000000  -0.000171
      9          9.753688       11.704189   1.000001  -0.000000
     10          9.855201       11.769189   1.000030  -0.000000
     11         11.635068       13.091786  -0.000000  -0.000000
     12         17.227924       17.895964   0.000000   0.000000
     13         19.747140       20.348955   0.000000   0.000000
     14         19.953397       20.490063   0.000000   0.000000
     15         21.303447       21.767336   0.000000   0.000000
     16         26.185993       26.556176   0.000000   0.000000
 
  0.4000000E+00  0.2000000E+00  0.0000000E+00  0.7500000E-02
      1          6.080392        7.182711   1.000000   1.000000
      2          6.187883        7.390647   1.000000   1.000000
      3          6.216418        7.417721   1.000000   1.000000
      4          7.241576        8.144353   1.000000   1.000000
      5          7.583313        9.185724   1.000000   1.000000
      6          7.806013        9.331301   1.000000   1.000000
      7          8.408020       10.049626   1.000000   1.003635
      8          9.592348       11.468870   1.000000  -0.000000
      9          9.743549       11.692367   1.000001  -0.000000
     10          9.795068       11.708154   1.000004  -0.000000
     11         13.342201       14.368298  -0.000000  -0.000000
     12         14.774436       15.760160  -0.000000  -0.000000
     13         19.972584       20.451660   0.000000   0.000000
     14         21.677817       22.153159   0.000000   0.000000
     15         21.998250       22.405301   0.000000   0.000000
     16         23.926987       24.455510   0.000000   0.000000
 
  0.3000000E+00  0.3000000E+00  0.0000000E+00  0.7500000E-02
      1          6.132121        7.443444   1.000000   1.000000
      2          6.420923        7.470973   1.000000   1.000000
      3          6.579729        7.756139   1.000000   1.000000
      4          6.812590        7.798330   1.000000   1.000000
      5          7.535878        9.082421   1.000000   1.000000
      6          7.732523        9.270960   1.000000   1.000000
      7          8.503855       10.152050   1.000000   1.018046
      8          9.420311       11.287515   1.000000  -0.000000
      9          9.690369       11.631871   1.000000  -0.000000
     10          9.748792       11.654165   1.000001  -0.000000
     11         13.766488       14.808482  -0.000000  -0.000000
     12         16.792700       17.504146   0.000000   0.000000
     13         16.826964       17.520387   0.000000   0.000000
     14         22.226416       22.743301   0.000000   0.000000
     15         22.485272       22.905607   0.000000   0.000000
     16         25.107824       25.562352   0.000000   0.000000
 
  0.0000000E+00  0.0000000E+00  0.1250000E+00  0.2500000E-02
      1          1.659610        1.677564   1.000000   1.000000
      2          5.252217        6.140731   1.000000   1.000000
      3          7.790350        9.449848   1.000000   1.000000
      4          7.848682        9.531032   1.000000   1.000000
      5          7.848683        9.531032   1.000000   1.000000
      6          8.160577        9.892593   1.000000   1.000089
      7          8.160578        9.892593   1.000000   1.000089
      8          8.675533        9.939726   1.000000   1.000314
      9          8.675533       10.503849   1.000000   0.459915
     10          9.678424       10.503849   1.000000   0.459912
     11          9.678424       11.617188   1.000000  -0.000000
     12          9.764387       11.617189   1.000002  -0.000000
     13         17.872127       18.796663   0.000000   0.000000
     14         32.680205       32.390203   0.000000   0.000000
     15         34.762308       34.777877   0.000000   0.000000
     16         35.564124       35.398270   0.000000   0.000000
 
  0.1000000E+00 -0.6938894E-17  0.1250000E+00  0.1500000E-01
      1          2.011481        2.031532   1.000000   1.000000
      2          5.476173        6.394754   1.000000   1.000000
      3          7.589055        9.209463   1.000000   1.000000
      4          7.951816        9.214487   1.000000   1.000000
      5          7.985067        9.643171   1.000000   1.000000
      6          7.997633        9.697155   1.000000   1.000000
      7          8.301152        9.894790   1.000000   1.000095
      8          8.438411       10.045992   1.000000   1.003391
      9          8.603292       10.416620   1.000000   0.803024
     10          8.744221       10.440548   1.000000   0.718829
     11          9.714192       11.659606   1.000000  -0.000000
     12         11.244310       12.494784  -0.000001  -0.000000
     13         18.006380       18.891682   0.000000   0.000000
     14         30.326653       30.487213   0.000000   0.000000
     15         33.029848       33.065985   0.000000   0.000000
     16         33.032865       33.378924   0.000000   0.000000
 
  0.2000000E+00 -0.1387779E-16  0.1250000E+00  0.1500000E-01
      1          3.002337        3.041665   1.000000   1.000000
      2          5.969666        6.997172   1.000000   1.000000
      3          7.214065        8.345215   1.000000   1.000000
      4          7.307364        8.808301   1.000000   1.000000
      5          7.842590        9.499681   1.000000   1.000000
      6          8.203576        9.896604   1.000000   1.000099
      7          8.299366        9.951787   1.000000   1.000425
      8          8.593319       10.357157   1.000000   0.954903
      9          8.708796       10.468371   1.000000   0.608959
     10          8.737021       10.537714   1.000000   0.321262
     11          9.780222       11.736409   1.000003  -0.000000
     12         12.933837       14.005477  -0.000000  -0.000000
     13         18.473426       19.243991   0.000000   0.000000
     14         25.724350       26.132678   0.000000   0.000000
     15         30.245556       30.568385   0.000000   0.000000
     16         31.211992       31.372846   0.000000   0.000000
 
  0.3000000E+00  0.2775558E-16  0.1250000E+00  0.1500000E-01
      1          4.349940        4.510431   1.000000   1.000000
      2          6.112637        7.324284   1.000000   1.000000
      3          6.551142        7.733773   1.000000   1.000000
      4          7.230018        8.563070   1.000000   1.000000
      5          7.827927        9.385853   1.000000   1.000000
      6          8.035360        9.765625   1.000000   1.000002
      7          8.334131        9.852345   1.000000   1.000027
      8          9.146014       10.947722   1.000000  -0.003078
      9          9.182098       10.974157   1.000000  -0.001797
     10          9.245051       11.098559   1.000000  -0.000083
     11          9.833801       11.796331   1.000016  -0.000000
     12         14.651584       15.546433  -0.000000  -0.000000
     13         19.267904       19.888437   0.000000   0.000000
     14         21.596675       22.171320   0.000000   0.000000
     15         27.648884       27.994512   0.000000   0.000000
     16         27.984332       28.256111   0.000000   0.000000
 
  0.4000000E+00  0.5551115E-16  0.1250000E+00  0.1500000E-01
      1          5.293655        5.920352   1.000000   1.000000
      2          5.851178        7.091905   1.000000   1.000000
      3          6.296953        7.476283   1.000000   1.000000
      4          7.224766        8.406615   1.000000   1.000000
      5          7.870080        9.576607   1.000000   1.000000
      6          8.170091        9.707020   1.000000   1.000000
      7          8.540855        9.862162   1.000000   1.000037
      8          9.647567       11.559557   1.000000  -0.000000
      9          9.697148       11.606863   1.000000  -0.000000
     10          9.893844       11.853446   1.000092  -0.000000
     11         10.317267       11.906541   1.008802  -0.000000
     12         15.475183       16.178515  -0.000000   0.000000
     13         18.369213       19.143925   0.000000   0.000000
     14         21.085190       21.536125   0.000000   0.000000
     15         24.536830       25.058417   0.000000   0.000000
     16         26.458650       26.668552   0.000000   0.000000
 
  0.5000000E+00  0.5551115E-16  0.1250000E+00  0.7500000E-02
      1          5.483882        6.478069   1.000000   1.000000
      2          5.696578        6.915196   1.000000   1.000000
      3          6.285068        7.474781   1.000000   1.000000
      4          7.250280        8.329089   1.000000   1.000000
      5          7.808048        9.505733   1.000000   1.000000
      6          8.291565        9.868442   1.000000   1.000044
      7          8.782963        9.980521   1.000000   1.000845
      8          9.770456       11.713967   1.000002  -0.000000
      9          9.888450       11.837023   1.000079  -0.000000
     10          9.989515       11.940217   1.001038  -0.000000
     11         11.762019       12.971389  -0.000000  -0.000000
     12         13.849269       14.821224  -0.000000  -0.000000
     13         19.761267       20.312885   0.000000   0.000000
     14         20.137024       20.712244   0.000000   0.000000
     15         24.557341       24.999339   0.000000   0.000000
     16         25.583965       26.089482   0.000000   0.000000
 
  0.1000000E+00  0.1000000E+00  0.1250000E+00  0.1500000E-01
      1          2.686214        2.715480   1.000000   1.000000
      2          5.855762        6.838261   1.000000   1.000000
      3          7.328963        8.568320   1.000000   1.000000
      4          7.457535        8.887005   1.000000   1.000000
      5          7.978069        9.668555   1.000000   1.000000
      6          8.064329        9.707071   1.000000   1.000000
      7          8.292580        9.988080   1.000000   1.001005
      8          8.449926       10.204620   1.000000   1.029865
      9          8.703685       10.454854   1.000000   0.663614
     10          8.713665       10.496169   1.000000   0.492362
     11          9.750026       11.699737   1.000001  -0.000000
     12         12.478193       13.593123  -0.000000  -0.000000
     13         18.313142       19.121584   0.000000   0.000000
     14         27.879402       28.165743   0.000000   0.000000
     15         28.594296       28.975950   0.000000   0.000000
     16         33.506874       33.528596   0.000000   0.000000
 
  0.2000000E+00  0.1000000E+00  0.1250000E+00  0.3000000E-01
      1          3.891774        3.973656   1.000000   1.000000
      2          6.273948        7.406543   1.000000   1.000000
      3          6.765752        7.929604   1.000000   1.000000
      4          7.067776        8.487181   1.000000   1.000000
      5          7.777089        9.407140   1.000000   1.000000
      6          8.023246        9.650100   1.000000   1.000000
      7          8.322323        9.996164   1.000000   1.001205
      8          8.686808       10.457612   1.000000   0.652637
      9          9.060195       10.858418   1.000000  -0.013664
     10          9.249856       11.061047   1.000000  -0.000230
     11          9.801749       11.749355   1.000006  -0.000000
     12         14.088554       15.061506  -0.000000  -0.000000
     13         19.039542       19.712789   0.000000   0.000000
     14         23.655767       24.131908   0.000000   0.000000
     15         26.307299       26.682926   0.000000   0.000000
     16         29.823398       30.047014   0.000000   0.000000
 
  0.3000000E+00  0.1000000E+00  0.1250000E+00  0.3000000E-01
      1          5.139136        5.486368   1.000000   1.000000
      2          6.140412        7.372640   1.000000   1.000000
      3          6.349518        7.570693   1.000000   1.000000
      4          7.106324        8.369888   1.000000   1.000000
      5          7.776449        9.349593   1.000000   1.000000
      6          8.095427        9.722766   1.000000   1.000000
      7          8.238612        9.760991   1.000000   1.000001
      8          9.183404       10.997032   1.000000  -0.001091
      9          9.600202       11.475312   1.000000  -0.000000
     10          9.707472       11.613740   1.000000  -0.000000
     11         10.221863       11.998853   1.033051  -0.000000
     12         15.681267       16.438905  -0.000000   0.000000
     13         19.222453       19.892566   0.000000   0.000000
     14         20.901442       21.431937   0.000000   0.000000
     15         24.694989       25.059771   0.000000   0.000000
     16         26.213559       26.610192   0.000000   0.000000
 
  0.4000000E+00  0.1000000E+00  0.1250000E+00  0.3000000E-01
      1          5.594112        6.516020   1.000000   1.000000
      2          5.889262        7.120113   1.000000   1.000000
      3          6.340748        7.510030   1.000000   1.000000
      4          7.177334        8.275894   1.000000   1.000000
      5          7.719748        9.364882   1.000000   1.000000
      6          8.315065        9.729950   1.000000   1.000000
      7          8.419425        9.928793   1.000000   1.000237
      8          9.680996       11.586236   1.000000  -0.000000
      9          9.775442       11.703353   1.000002  -0.000000
     10          9.883366       11.810424   1.000068  -0.000000
     11         11.658145       12.985255  -0.000000  -0.000000
     12         14.860039       15.698164  -0.000000  -0.000000
     13         19.086973       19.759989   0.000000   0.000000
     14         21.206238       21.662909   0.000000   0.000000
     15         23.633077       24.022344   0.000000   0.000000
     16         24.507232       24.948421   0.000000   0.000000
 
  0.2000000E+00  0.2000000E+00  0.1250000E+00  0.1500000E-01
      1          5.110188        5.331739   1.000000   1.000000
      2          6.354994        7.575614   1.000000   1.000000
      3          6.625573        7.838596   1.000000   1.000000
      4          6.706834        8.055487   1.000000   1.000000
      5          7.682934        9.262732   1.000000   1.000000
      6          8.011555        9.599932   1.000000   1.000000
      7          8.177912        9.810654   1.000000   1.000007
      8          8.869044       10.666975   1.000000  -0.004467
      9          9.618016       11.488980   1.000000  -0.000000
     10          9.638489       11.548029   1.000000  -0.000000
     11         10.292566       12.056764   1.026035  -0.000000
     12         15.646296       16.458430  -0.000000   0.000000
     13         20.076929       20.651910   0.000000   0.000000
     14         21.754247       22.269444   0.000000   0.000000
     15         22.410830       22.889524   0.000000   0.000000
     16         28.207280       28.429575   0.000000   0.000000
 
  0.3000000E+00  0.2000000E+00  0.1250000E+00  0.3000000E-01
      1          5.919006        6.636263   1.000000   1.000000
      2          6.287939        7.441878   1.000000   1.000000
      3          6.362149        7.630830   1.000000   1.000000
      4          6.894848        8.087286   1.000000   1.000000
      5          7.628764        9.161284   1.000000   1.000000
      6          7.953117        9.485112   1.000000   1.000000
      7          8.302074        9.917110   1.000000   1.000174
      8          9.244619       11.084075   1.000000  -0.000124
      9          9.630880       11.557224   1.000000  -0.000000
     10          9.894841       11.817496   1.000095  -0.000000
     11         11.699497       13.143929  -0.000000  -0.000000
     12         16.721871       17.365620   0.000000   0.000000
     13         18.891603       19.591058   0.000000   0.000000
     14         20.768683       21.285563   0.000000   0.000000
     15         22.111999       22.542683   0.000000   0.000000
     16         25.238173       25.691254   0.000000   0.000000
 
  0.4000000E+00  0.2000000E+00  0.1250000E+00  0.1500000E-01
      1          5.925709        7.050974   1.000000   1.000000
      2          6.236557        7.458631   1.000000   1.000000
      3          6.476344        7.642820   1.000000   1.000000
      4          7.028098        8.053469   1.000000   1.000000
      5          7.554181        9.139562   1.000000   1.000000
      6          7.970410        9.388972   1.000000   1.000000
      7          8.443180       10.083210   1.000000   1.006649
      8          9.596068       11.474660   1.000000  -0.000000
      9          9.609559       11.533325   1.000000  -0.000000
     10          9.827396       11.746864   1.000013  -0.000000
     11         13.435807       14.434540  -0.000000  -0.000000
     12         14.769803       15.731011  -0.000000  -0.000000
     13         19.890311       20.407862   0.000000   0.000000
     14         20.957242       21.493766   0.000000   0.000000
     15         21.244339       21.757465   0.000000   0.000000
     16         25.139885       25.576235   0.000000   0.000000
 
  0.3000000E+00  0.3000000E+00  0.1250000E+00  0.1500000E-01
      1          6.159571        7.473545   1.000000   1.000000
      2          6.439816        7.476804   1.000000   1.000000
      3          6.631335        7.812447   1.000000   1.000000
      4          6.779152        7.841978   1.000000   1.000000
      5          7.587644        9.082198   1.000000   1.000000
      6          7.679895        9.188954   1.000000   1.000000