 vasp.6.3.2 27Jun22 (build Aug 12 2022 00:53:59) complex                        
  
 executed on               tv2STD date 2024.12.02  16:48:35
 running   24 mpi-ranks, with    1 threads/rank
 distrk:  each k-point on   24 cores,    1 groups
 distr:  one band on NCORE=   6 cores,    4 groups


--------------------------------------------------------------------------------------------------------


 INCAR:
   SYSTEM = Co fcc
   NWRITE = 2    write-flag
   ISTART = 0    job   : 0-new, 1-cont, 2-samecut
   ICHARG = 2    charge: 0-wave, 1-file, 2-atom, >10-const
   INIWAV = 1    electr: 0-lowe 1-rand  2-diag
   ENCUT = 375     energy cutoff in eV
   PREC = Accurate      normal | accurate
   ADDGRID = .FALSE.  (use fine grid)
   NELM = 100     number of ELM steps
   EDIFF = 1E-06    energy stopping-criterion for ELM
   LREAL = .FALSE.      real-space projection (.FALSE., .TRUE., On, Auto)
   ALGO = Normal     Normal, Fast, Very_Fast
   LWAVE = .FALSE.
   LCHARG = .FALSE.
   NSW = 0       max number of geometry steps
   IBRION = -1     ionic relax: 0-MD, 1-quasi-Newton, 2-CG, 3-Damped MD
   EDIFFG = -0.02  force (eV/A) stopping-criterion for geometry steps
   ISIF = 2     (1:force\=y stress\=trace only ions\=y shape\=n volume\=n)
   ISYM = 1     (1-use symmetry, 0-no symmetry)
   ISMEAR = 1     (-1-Fermi, 1-Methfessel/Paxton)
   SIGMA = 0.2   broadening in eV
   NPAR = 4
   ISPIN = 2
   MAGMOM = 2*3

 POTCAR:    PAW_PBE Co 02Aug2007                  
 POTCAR:    PAW_PBE Co 02Aug2007                  
   SHA256 =  0e690c60710354995174544f52f9f2c30879afabeffe3b3fbd4001cb294e56d4 Co/POTCAR             
   COPYR  = (c) Copyright 02Aug2007 Georg Kresse                                                    
   COPYR  = This file is part of the software VASP. Any use, copying, and all other rights are regul
   COPYR  = If you do not have a valid VASP license, you may not use, copy or distribute this file. 
   VRHFIN =Co: d8 s1                                                                                
   LEXCH  = PE                                                                                      
   EATOM  =   813.3670 eV,   59.7808 Ry                                                             
                                                                                                    
   TITEL  = PAW_PBE Co 02Aug2007                                                                    
   LULTRA =        F    use ultrasoft PP ?                                                          
   IUNSCR =        1    unscreen: 0-lin 1-nonlin 2-no                                               
   RPACOR =    2.000    partial core radius                                                         
   POMASS =   58.933; ZVAL   =    9.000    mass and valenz                                          
   RCORE  =    2.300    outmost cutoff radius                                                       
   RWIGS  =    2.460; RWIGS  =    1.302    wigner-seitz radius (au A)                               
   ENMAX  =  267.968; ENMIN  =  200.976 eV                                                          
   RCLOC  =    1.203    cutoff for local pot                                                        
   LCOR   =        T    correct aug charges                                                         
   LPAW   =        T    paw PP                                                                      
   EAUG   =  477.818                                                                                
   DEXC   =    0.000                                                                                
   RMAX   =    2.360    core radius for proj-oper                                                   
   RAUG   =    1.300    factor for augmentation sphere                                              
   RDEP   =    2.393    radius for radial grids                                                     
   RDEPT  =    1.864    core radius for aug-charge                                                  
                                                                                                    
   Atomic configuration                                                                             
    9 entries                                                                                       
     n  l   j            E        occ.                                                              
     1  0  0.50     -7587.6674   2.0000                                                             
     2  0  0.50      -893.6084   2.0000                                                             
     2  1  1.50      -764.5805   6.0000                                                             
     3  0  0.50       -97.5973   2.0000                                                             
     3  1  1.50       -60.9648   6.0000                                                             
     3  2  2.50        -4.2382   8.0000                                                             
     4  0  0.50        -4.3746   1.0000                                                             
     4  1  1.50        -4.0817   0.0000                                                             
     4  3  2.50        -1.3606   0.0000                                                             
   Description                                                                                      
     l       E           TYP  RCUT    TYP  RCUT                                                     
     2     -4.2382362     23  2.300                                                                 
     2     -5.5988188     23  2.300                                                                 
     0     -4.3745797     23  2.300                                                                 
     0      5.7660125     23  2.300                                                                 
     1     -2.7211652     23  2.300                                                                 
     1     16.9860234     23  2.300                                                                 
  local pseudopotential read in
  partial core-charges read in
  partial kinetic energy density read in
  atomic valenz-charges read in
  non local Contribution for L=           2  read in
    real space projection operators read in
  non local Contribution for L=           2  read in
    real space projection operators read in
  non local Contribution for L=           0  read in
    real space projection operators read in
  non local Contribution for L=           0  read in
    real space projection operators read in
  non local Contribution for L=           1  read in
    real space projection operators read in
  non local Contribution for L=           1  read in
    real space projection operators read in
    PAW grid and wavefunctions read in
 
   number of l-projection  operators is LMAX  =           6
   number of lm-projection operators is LMMAX =          18
 
  PAW_PBE Co 02Aug2007                  :
 energy of atom  1       EATOM= -813.3670
 kinetic energy error for atom=    0.0149 (will be added to EATOM!!)
 
 
 POSCAR: Co hcp
  positions in direct lattice
  No initial velocities read in
 exchange correlation table for  LEXCH =        8
   RHO(1)=    0.500       N(1)  =     2000
   RHO(2)=  100.500       N(2)  =     4000
 


--------------------------------------------------------------------------------------------------------


 ion  position               nearest neighbor table
   1  0.333  0.667  0.250-   2 2.47   2 2.47   2 2.47   2 2.47   2 2.47   2 2.47
   2  0.667  0.333  0.750-   1 2.47   1 2.47   1 2.47   1 2.47   1 2.47   1 2.47
 
  LATTYP: Found a hexagonal cell.
 ALAT       =     2.4719999032
 C/A-ratio  =     1.6266764715
  
  Lattice vectors:
  
 A1 = (   1.2359999516,  -2.1408147143,   0.0000000000)
 A2 = (   1.2359999516,   2.1408147143,   0.0000000000)
 A3 = (   0.0000000000,   0.0000000000,   4.0211440800)


Analysis of symmetry for initial positions (statically):
=====================================================================
 Subroutine PRICEL returns:
 Original cell was already a primitive cell.
 

 Routine SETGRP: Setting up the symmetry group for a 
 hexagonal supercell.


 Subroutine GETGRP returns: Found 24 space group operations
 (whereof 12 operations were pure point group operations)
 out of a pool of 24 trial point group operations.


The static configuration has the point symmetry D_3d.
 The point group associated with its full space group is D_6h.


Analysis of symmetry for dynamics (positions and initial velocities):
=====================================================================
 Subroutine PRICEL returns:
 Original cell was already a primitive cell.
 

 Routine SETGRP: Setting up the symmetry group for a 
 hexagonal supercell.


 Subroutine GETGRP returns: Found 24 space group operations
 (whereof 12 operations were pure point group operations)
 out of a pool of 24 trial point group operations.


The dynamic configuration has the point symmetry D_3d.
 The point group associated with its full space group is D_6h.


Analysis of structural, dynamic, and magnetic symmetry:
=====================================================================
 Subroutine PRICEL returns:
 Original cell was already a primitive cell.
 

 Routine SETGRP: Setting up the symmetry group for a 
 hexagonal supercell.


 Subroutine GETGRP returns: Found 24 space group operations
 (whereof 12 operations were pure point group operations)
 out of a pool of 24 trial point group operations.


The overall configuration has the point symmetry D_3d.
 The point group associated with its full space group is D_6h.


 Subroutine INISYM returns: Found 24 space group operations
 (whereof 12 operations are pure point group operations),
 and found     1 'primitive' translations


----------------------------------------------------------------------------------------

                                     Primitive cell                                     

  volume of cell :      21.2803

  direct lattice vectors                    reciprocal lattice vectors
     1.235999952 -2.140814714  0.000000000     0.404530760 -0.233555943  0.000000000
     1.235999952  2.140814714  0.000000000     0.404530760  0.233555943  0.000000000
     0.000000000  0.000000000  4.021144080     0.000000000  0.000000000  0.248685444

  length of vectors
     2.471999903  2.471999903  4.021144080     0.467111887  0.467111887  0.248685444

  position of ions in fractional coordinates (direct lattice)
     0.333333333  0.666666667  0.250000000
     0.666666667  0.333333333  0.750000000

  ion indices of the primitive-cell ions
   primitive index   ion index
                 1           1
                 2           2

----------------------------------------------------------------------------------------

 
 
 KPOINTS: Automatic mesh                          

Automatic generation of k-mesh.
 Grid dimensions read from file:
 generate k-points for:   10   10    8

 Generating k-lattice:

  Cartesian coordinates                     Fractional coordinates (reciprocal lattice)
     0.040453076 -0.023355594  0.000000000     0.100000000  0.000000000  0.000000000
     0.040453076  0.023355594  0.000000000     0.000000000  0.100000000  0.000000000
     0.000000000  0.000000000  0.031085680     0.000000000  0.000000000  0.125000000

  Length of vectors
     0.046711189  0.046711189  0.031085680

  Shift w.r.t. Gamma in fractional coordinates (k-lattice)
     0.000000000  0.000000000  0.000000000

 
 Subroutine IBZKPT returns following result:
 ===========================================
 
 Found     70 irreducible k-points:
 
 Following reciprocal coordinates:
            Coordinates               Weight
  0.000000  0.000000  0.000000      1.000000
  0.100000 -0.000000  0.000000      6.000000
  0.200000 -0.000000  0.000000      6.000000
  0.300000  0.000000  0.000000      6.000000
  0.400000  0.000000  0.000000      6.000000
  0.500000  0.000000  0.000000      3.000000
  0.100000  0.100000  0.000000      6.000000
  0.200000  0.100000  0.000000     12.000000
  0.300000  0.100000  0.000000     12.000000
  0.400000  0.100000  0.000000     12.000000
  0.200000  0.200000  0.000000      6.000000
  0.300000  0.200000  0.000000     12.000000
  0.400000  0.200000  0.000000      6.000000
  0.300000  0.300000  0.000000      6.000000
  0.000000  0.000000  0.125000      2.000000
  0.100000 -0.000000  0.125000     12.000000
  0.200000 -0.000000  0.125000     12.000000
  0.300000  0.000000  0.125000     12.000000
  0.400000  0.000000  0.125000     12.000000
  0.500000  0.000000  0.125000      6.000000
  0.100000  0.100000  0.125000     12.000000
  0.200000  0.100000  0.125000     24.000000
  0.300000  0.100000  0.125000     24.000000
  0.400000  0.100000  0.125000     24.000000
  0.200000  0.200000  0.125000     12.000000
  0.300000  0.200000  0.125000     24.000000
  0.400000  0.200000  0.125000     12.000000
  0.300000  0.300000  0.125000     12.000000
  0.000000  0.000000  0.250000      2.000000
  0.100000 -0.000000  0.250000     12.000000
  0.200000 -0.000000  0.250000     12.000000
  0.300000  0.000000  0.250000     12.000000
  0.400000  0.000000  0.250000     12.000000
  0.500000  0.000000  0.250000      6.000000
  0.100000  0.100000  0.250000     12.000000
  0.200000  0.100000  0.250000     24.000000
  0.300000  0.100000  0.250000     24.000000
  0.400000  0.100000  0.250000     24.000000
  0.200000  0.200000  0.250000     12.000000
  0.300000  0.200000  0.250000     24.000000
  0.400000  0.200000  0.250000     12.000000
  0.300000  0.300000  0.250000     12.000000
  0.000000  0.000000  0.375000      2.000000
  0.100000 -0.000000  0.375000     12.000000
  0.200000 -0.000000  0.375000     12.000000
  0.300000  0.000000  0.375000     12.000000
  0.400000  0.000000  0.375000     12.000000
  0.500000  0.000000  0.375000      6.000000
  0.100000  0.100000  0.375000     12.000000
  0.200000  0.100000  0.375000     24.000000
  0.300000  0.100000  0.375000     24.000000
  0.400000  0.100000  0.375000     24.000000
  0.200000  0.200000  0.375000     12.000000
  0.300000  0.200000  0.375000     24.000000
  0.400000  0.200000  0.375000     12.000000
  0.300000  0.300000  0.375000     12.000000
  0.000000  0.000000  0.500000      1.000000
  0.100000 -0.000000  0.500000      6.000000
  0.200000 -0.000000  0.500000      6.000000
  0.300000  0.000000  0.500000      6.000000
  0.400000  0.000000  0.500000      6.000000
  0.500000  0.000000  0.500000      3.000000
  0.100000  0.100000  0.500000      6.000000
  0.200000  0.100000  0.500000     12.000000
  0.300000  0.100000  0.500000     12.000000
  0.400000  0.100000  0.500000     12.000000
  0.200000  0.200000  0.500000      6.000000
  0.300000  0.200000  0.500000     12.000000
  0.400000  0.200000  0.500000      6.000000
  0.300000  0.300000  0.500000      6.000000
 
 Following cartesian coordinates:
            Coordinates               Weight
  0.000000  0.000000  0.000000      1.000000
  0.040453 -0.023356  0.000000      6.000000
  0.080906 -0.046711  0.000000      6.000000
  0.121359 -0.070067  0.000000      6.000000
  0.161812 -0.093422  0.000000      6.000000
  0.202265 -0.116778  0.000000      3.000000
  0.080906  0.000000  0.000000      6.000000
  0.121359 -0.023356  0.000000     12.000000
  0.161812 -0.046711  0.000000     12.000000
  0.202265 -0.070067  0.000000     12.000000
  0.161812  0.000000  0.000000      6.000000
  0.202265 -0.023356  0.000000     12.000000
  0.242718 -0.046711  0.000000      6.000000
  0.242718  0.000000  0.000000      6.000000
  0.000000  0.000000  0.031086      2.000000
  0.040453 -0.023356  0.031086     12.000000
  0.080906 -0.046711  0.031086     12.000000
  0.121359 -0.070067  0.031086     12.000000
  0.161812 -0.093422  0.031086     12.000000
  0.202265 -0.116778  0.031086      6.000000
  0.080906  0.000000  0.031086     12.000000
  0.121359 -0.023356  0.031086     24.000000
  0.161812 -0.046711  0.031086     24.000000
  0.202265 -0.070067  0.031086     24.000000
  0.161812  0.000000  0.031086     12.000000
  0.202265 -0.023356  0.031086     24.000000
  0.242718 -0.046711  0.031086     12.000000
  0.242718  0.000000  0.031086     12.000000
  0.000000  0.000000  0.062171      2.000000
  0.040453 -0.023356  0.062171     12.000000
  0.080906 -0.046711  0.062171     12.000000
  0.121359 -0.070067  0.062171     12.000000
  0.161812 -0.093422  0.062171     12.000000
  0.202265 -0.116778  0.062171      6.000000
  0.080906  0.000000  0.062171     12.000000
  0.121359 -0.023356  0.062171     24.000000
  0.161812 -0.046711  0.062171     24.000000
  0.202265 -0.070067  0.062171     24.000000
  0.161812  0.000000  0.062171     12.000000
  0.202265 -0.023356  0.062171     24.000000
  0.242718 -0.046711  0.062171     12.000000
  0.242718  0.000000  0.062171     12.000000
  0.000000  0.000000  0.093257      2.000000
  0.040453 -0.023356  0.093257     12.000000
  0.080906 -0.046711  0.093257     12.000000
  0.121359 -0.070067  0.093257     12.000000
  0.161812 -0.093422  0.093257     12.000000
  0.202265 -0.116778  0.093257      6.000000
  0.080906  0.000000  0.093257     12.000000
  0.121359 -0.023356  0.093257     24.000000
  0.161812 -0.046711  0.093257     24.000000
  0.202265 -0.070067  0.093257     24.000000
  0.161812  0.000000  0.093257     12.000000
  0.202265 -0.023356  0.093257     24.000000
  0.242718 -0.046711  0.093257     12.000000
  0.242718  0.000000  0.093257     12.000000
  0.000000  0.000000  0.124343      1.000000
  0.040453 -0.023356  0.124343      6.000000
  0.080906 -0.046711  0.124343      6.000000
  0.121359 -0.070067  0.124343      6.000000
  0.161812 -0.093422  0.124343      6.000000
  0.202265 -0.116778  0.124343      3.000000
  0.080906  0.000000  0.124343      6.000000
  0.121359 -0.023356  0.124343     12.000000
  0.161812 -0.046711  0.124343     12.000000
  0.202265 -0.070067  0.124343     12.000000
  0.161812  0.000000  0.124343      6.000000
  0.202265 -0.023356  0.124343     12.000000
  0.242718 -0.046711  0.124343      6.000000
  0.242718  0.000000  0.124343      6.000000
 


--------------------------------------------------------------------------------------------------------




 Dimension of arrays:
   k-points           NKPTS =     70   k-points in BZ     NKDIM =     70   number of bands    NBANDS=     16
   number of dos      NEDOS =    301   number of ions     NIONS =      2
   non local maximal  LDIM  =      6   non local SUM 2l+1 LMDIM =     18
   total plane-waves  NPLWV =   7168
   max r-space proj   IRMAX =      1   max aug-charges    IRDMAX=  13482
   dimension x,y,z NGX =    16 NGY =   16 NGZ =   28
   dimension x,y,z NGXF=    32 NGYF=   32 NGZF=   56
   support grid    NGXF=    32 NGYF=   32 NGZF=   56
   ions per type =               2
   NGX,Y,Z   is equivalent  to a cutoff of  10.76, 10.76, 11.58 a.u.
   NGXF,Y,Z  is equivalent  to a cutoff of  21.52, 21.52, 23.15 a.u.

 SYSTEM =  Co fcc                                  
 POSCAR =  Co hcp                                  

 Startparameter for this run:
   NWRITE =      2    write-flag & timer
   PREC   = accura    normal or accurate (medium, high low for compatibility)
   ISTART =      0    job   : 0-new  1-cont  2-samecut
   ICHARG =      2    charge: 1-file 2-atom 10-const
   ISPIN  =      2    spin polarized calculation?
   LNONCOLLINEAR =      F non collinear calculations
   LSORBIT =      F    spin-orbit coupling
   INIWAV =      1    electr: 0-lowe 1-rand  2-diag
   LASPH  =      F    aspherical Exc in radial PAW
 Electronic Relaxation 1
   ENCUT  =  375.0 eV  27.56 Ry    5.25 a.u.   3.90  3.90  6.35*2*pi/ulx,y,z
   ENINI  =  375.0     initial cutoff
   ENAUG  =  477.8 eV  augmentation charge cutoff
   NELM   =    100;   NELMIN=  2; NELMDL= -5     # of ELM steps 
   EDIFF  = 0.1E-05   stopping-criterion for ELM
   LREAL  =      F    real-space projection
   NLSPLINE    = F    spline interpolate recip. space projectors
   LCOMPAT=      F    compatible to vasp.4.4
   GGA_COMPAT  = T    GGA compatible to vasp.4.4-vasp.4.6
   LMAXPAW     = -100 max onsite density
   LMAXMIX     =    2 max onsite mixed and CHGCAR
   VOSKOWN=      0    Vosko Wilk Nusair interpolation
   ROPT   =    0.00000
 Ionic relaxation
   EDIFFG = -.2E-01   stopping-criterion for IOM
   NSW    =      0    number of steps for IOM
   NBLOCK =      1;   KBLOCK =      1    inner block; outer block 
   IBRION =     -1    ionic relax: 0-MD 1-quasi-New 2-CG
   NFREE  =      0    steps in history (QN), initial steepest desc. (CG)
   ISIF   =      2    stress and relaxation
   IWAVPR =     10    prediction:  0-non 1-charg 2-wave 3-comb
   ISYM   =      1    0-nonsym 1-usesym 2-fastsym
   LCORR  =      T    Harris-Foulkes like correction to forces

   POTIM  = 0.5000    time-step for ionic-motion
   TEIN   =    0.0    initial temperature
   TEBEG  =    0.0;   TEEND  =   0.0 temperature during run
   SMASS  =  -3.00    Nose mass-parameter (am)
   estimated Nose-frequenzy (Omega)   =  0.10E-29 period in steps = 0.13E+47 mass=  -0.140E-27a.u.
   SCALEE = 1.0000    scale energy and forces
   NPACO  =    256;   APACO  = 10.0  distance and # of slots for P.C.
   PSTRESS=    0.0 pullay stress

  Mass of Ions in am
   POMASS =  58.93
  Ionic Valenz
   ZVAL   =   9.00
  Atomic Wigner-Seitz radii
   RWIGS  =  -1.00
  virtual crystal weights 
   VCA    =   1.00
   NELECT =      18.0000    total number of electrons
   NUPDOWN=      -1.0000    fix difference up-down

 DOS related values:
   EMIN   =  10.00;   EMAX   =-10.00  energy-range for DOS
   EFERMI =   0.00
   ISMEAR =     1;   SIGMA  =   0.20  broadening in eV -4-tet -1-fermi 0-gaus

 Electronic relaxation 2 (details)
   IALGO  =     38    algorithm
   LDIAG  =      T    sub-space diagonalisation (order eigenvalues)
   LSUBROT=      F    optimize rotation matrix (better conditioning)
   TURBO    =      0    0=normal 1=particle mesh
   IRESTART =      0    0=no restart 2=restart with 2 vectors
   NREBOOT  =      0    no. of reboots
   NMIN     =      0    reboot dimension
   EREF     =   0.00    reference energy to select bands
   IMIX   =      4    mixing-type and parameters
     AMIX     =   0.40;   BMIX     =  1.00
     AMIX_MAG =   1.60;   BMIX_MAG =  1.00
     AMIN     =   0.10
     WC   =   100.;   INIMIX=   1;  MIXPRE=   1;  MAXMIX= -45

 Intra band minimization:
   WEIMIN = 0.0000     energy-eigenvalue tresh-hold
   EBREAK =  0.16E-07  absolut break condition
   DEPER  =   0.30     relativ break condition  

   TIME   =   0.40     timestep for ELM

  volume/ion in A,a.u.               =      10.64        71.80
  Fermi-wavevector in a.u.,A,eV,Ry     =   1.548246  2.925761 32.614055  2.397065
  Thomas-Fermi vector in A             =   2.653224
 
 Write flags
   LWAVE        =      F    write WAVECAR
   LDOWNSAMPLE  =      F    k-point downsampling of WAVECAR
   LCHARG       =      F    write CHGCAR
   LVTOT        =      F    write LOCPOT, total local potential
   LVHAR        =      F    write LOCPOT, Hartree potential only
   LELF         =      F    write electronic localiz. function (ELF)
   LORBIT       =      0    0 simple, 1 ext, 2 COOP (PROOUT), +10 PAW based schemes


 Dipole corrections
   LMONO  =      F    monopole corrections only (constant potential shift)
   LDIPOL =      F    correct potential (dipole corrections)
   IDIPOL =      0    1-x, 2-y, 3-z, 4-all directions 
   EPSILON=  1.0000000 bulk dielectric constant

 Exchange correlation treatment:
   GGA     =    --    GGA type
   LEXCH   =     8    internal setting for exchange type
   LIBXC   =     F    Libxc                    
   VOSKOWN =     0    Vosko Wilk Nusair interpolation
   LHFCALC =     F    Hartree Fock is set to
   LHFONE  =     F    Hartree Fock one center treatment
   AEXX    =    0.0000 exact exchange contribution

 Linear response parameters
   LEPSILON=     F    determine dielectric tensor
   LRPA    =     F    only Hartree local field effects (RPA)
   LNABLA  =     F    use nabla operator in PAW spheres
   LVEL    =     F    velocity operator in full k-point grid
   CSHIFT  =0.1000    complex shift for real part using Kramers Kronig
   OMEGAMAX=  -1.0    maximum frequency
   DEG_THRESHOLD= 0.2000000E-02 threshold for treating states as degnerate
   RTIME   =   -0.100 relaxation time in fs
  (WPLASMAI=    0.000 imaginary part of plasma frequency in eV, 0.658/RTIME)
   DFIELD  = 0.0000000 0.0000000 0.0000000 field for delta impulse in time
 
  Optional k-point grid parameters
   LKPOINTS_OPT  =     F    use optional k-point grid
   KPOINTS_OPT_MODE=     1    mode for optional k-point grid
 
 Orbital magnetization related:
   ORBITALMAG=     F  switch on orbital magnetization
   LCHIMAG   =     F  perturbation theory with respect to B field
   DQ        =  0.001000  dq finite difference perturbation B field
   LLRAUG    =     F  two centre corrections for induced B field



--------------------------------------------------------------------------------------------------------


 Static calculation
 charge density and potential will be updated during run
 spin polarized calculation
 Variant of blocked Davidson
 Davidson routine will perform the subspace rotation
 perform sub-space diagonalisation
    after iterative eigenvector-optimisation
 modified Broyden-mixing scheme, WC =      100.0
 initial mixing is a Kerker type mixing with AMIX =  0.4000 and BMIX =      1.0000
 Hartree-type preconditioning will be used
 using additional bands            7
 reciprocal scheme for non local part
 use partial core corrections
 calculate Harris-corrections to forces 
   (improved forces if not selfconsistent)
 use gradient corrections 
 use of overlap-Matrix (Vanderbilt PP)
 Methfessel and Paxton  Order N= 1 SIGMA  =   0.20


--------------------------------------------------------------------------------------------------------


  energy-cutoff  :      375.00
  volume of cell :       21.28
      direct lattice vectors                 reciprocal lattice vectors
     1.235999952 -2.140814714  0.000000000     0.404530760 -0.233555943  0.000000000
     1.235999952  2.140814714  0.000000000     0.404530760  0.233555943  0.000000000
     0.000000000  0.000000000  4.021144080     0.000000000  0.000000000  0.248685444

  length of vectors
     2.471999903  2.471999903  4.021144080     0.467111887  0.467111887  0.248685444


 
 k-points in units of 2pi/SCALE and weight: Automatic mesh                          
   0.00000000  0.00000000  0.00000000       0.001
   0.04045308 -0.02335559  0.00000000       0.007
   0.08090615 -0.04671119  0.00000000       0.007
   0.12135923 -0.07006678  0.00000000       0.007
   0.16181230 -0.09342238  0.00000000       0.007
   0.20226538 -0.11677797  0.00000000       0.004
   0.08090615  0.00000000  0.00000000       0.007
   0.12135923 -0.02335559  0.00000000       0.015
   0.16181230 -0.04671119  0.00000000       0.015
   0.20226538 -0.07006678  0.00000000       0.015
   0.16181230  0.00000000  0.00000000       0.007
   0.20226538 -0.02335559  0.00000000       0.015
   0.24271846 -0.04671119  0.00000000       0.007
   0.24271846  0.00000000  0.00000000       0.007
   0.00000000  0.00000000  0.03108568       0.003
   0.04045308 -0.02335559  0.03108568       0.015
   0.08090615 -0.04671119  0.03108568       0.015
   0.12135923 -0.07006678  0.03108568       0.015
   0.16181230 -0.09342238  0.03108568       0.015
   0.20226538 -0.11677797  0.03108568       0.007
   0.08090615  0.00000000  0.03108568       0.015
   0.12135923 -0.02335559  0.03108568       0.030
   0.16181230 -0.04671119  0.03108568       0.030
   0.20226538 -0.07006678  0.03108568       0.030
   0.16181230  0.00000000  0.03108568       0.015
   0.20226538 -0.02335559  0.03108568       0.030
   0.24271846 -0.04671119  0.03108568       0.015
   0.24271846  0.00000000  0.03108568       0.015
   0.00000000  0.00000000  0.06217136       0.003
   0.04045308 -0.02335559  0.06217136       0.015
   0.08090615 -0.04671119  0.06217136       0.015
   0.12135923 -0.07006678  0.06217136       0.015
   0.16181230 -0.09342238  0.06217136       0.015
   0.20226538 -0.11677797  0.06217136       0.007
   0.08090615  0.00000000  0.06217136       0.015
   0.12135923 -0.02335559  0.06217136       0.030
   0.16181230 -0.04671119  0.06217136       0.030
   0.20226538 -0.07006678  0.06217136       0.030
   0.16181230  0.00000000  0.06217136       0.015
   0.20226538 -0.02335559  0.06217136       0.030
   0.24271846 -0.04671119  0.06217136       0.015
   0.24271846  0.00000000  0.06217136       0.015
   0.00000000  0.00000000  0.09325704       0.003
   0.04045308 -0.02335559  0.09325704       0.015
   0.08090615 -0.04671119  0.09325704       0.015
   0.12135923 -0.07006678  0.09325704       0.015
   0.16181230 -0.09342238  0.09325704       0.015
   0.20226538 -0.11677797  0.09325704       0.007
   0.08090615  0.00000000  0.09325704       0.015
   0.12135923 -0.02335559  0.09325704       0.030
   0.16181230 -0.04671119  0.09325704       0.030
   0.20226538 -0.07006678  0.09325704       0.030
   0.16181230  0.00000000  0.09325704       0.015
   0.20226538 -0.02335559  0.09325704       0.030
   0.24271846 -0.04671119  0.09325704       0.015
   0.24271846  0.00000000  0.09325704       0.015
   0.00000000  0.00000000  0.12434272       0.001
   0.04045308 -0.02335559  0.12434272       0.007
   0.08090615 -0.04671119  0.12434272       0.007
   0.12135923 -0.07006678  0.12434272       0.007
   0.16181230 -0.09342238  0.12434272       0.007
   0.20226538 -0.11677797  0.12434272       0.004
   0.08090615  0.00000000  0.12434272       0.007
   0.12135923 -0.02335559  0.12434272       0.015
   0.16181230 -0.04671119  0.12434272       0.015
   0.20226538 -0.07006678  0.12434272       0.015
   0.16181230  0.00000000  0.12434272       0.007
   0.20226538 -0.02335559  0.12434272       0.015
   0.24271846 -0.04671119  0.12434272       0.007
   0.24271846  0.00000000  0.12434272       0.007
 
 k-points in reciprocal lattice and weights: Automatic mesh                          
   0.00000000  0.00000000  0.00000000       0.001
   0.10000000 -0.00000000  0.00000000       0.007
   0.20000000 -0.00000000  0.00000000       0.007
   0.30000000  0.00000000  0.00000000       0.007
   0.40000000  0.00000000  0.00000000       0.007
   0.50000000  0.00000000  0.00000000       0.004
   0.10000000  0.10000000  0.00000000       0.007
   0.20000000  0.10000000  0.00000000       0.015
   0.30000000  0.10000000  0.00000000       0.015
   0.40000000  0.10000000  0.00000000       0.015
   0.20000000  0.20000000  0.00000000       0.007
   0.30000000  0.20000000  0.00000000       0.015
   0.40000000  0.20000000  0.00000000       0.007
   0.30000000  0.30000000  0.00000000       0.007
   0.00000000  0.00000000  0.12500000       0.003
   0.10000000 -0.00000000  0.12500000       0.015
   0.20000000 -0.00000000  0.12500000       0.015
   0.30000000  0.00000000  0.12500000       0.015
   0.40000000  0.00000000  0.12500000       0.015
   0.50000000  0.00000000  0.12500000       0.007
   0.10000000  0.10000000  0.12500000       0.015
   0.20000000  0.10000000  0.12500000       0.030
   0.30000000  0.10000000  0.12500000       0.030
   0.40000000  0.10000000  0.12500000       0.030
   0.20000000  0.20000000  0.12500000       0.015
   0.30000000  0.20000000  0.12500000       0.030
   0.40000000  0.20000000  0.12500000       0.015
   0.30000000  0.30000000  0.12500000       0.015
   0.00000000  0.00000000  0.25000000       0.003
   0.10000000 -0.00000000  0.25000000       0.015
   0.20000000 -0.00000000  0.25000000       0.015
   0.30000000  0.00000000  0.25000000       0.015
   0.40000000  0.00000000  0.25000000       0.015
   0.50000000  0.00000000  0.25000000       0.007
   0.10000000  0.10000000  0.25000000       0.015
   0.20000000  0.10000000  0.25000000       0.030
   0.30000000  0.10000000  0.25000000       0.030
   0.40000000  0.10000000  0.25000000       0.030
   0.20000000  0.20000000  0.25000000       0.015
   0.30000000  0.20000000  0.25000000       0.030
   0.40000000  0.20000000  0.25000000       0.015
   0.30000000  0.30000000  0.25000000       0.015
   0.00000000  0.00000000  0.37500000       0.003
   0.10000000 -0.00000000  0.37500000       0.015
   0.20000000 -0.00000000  0.37500000       0.015
   0.30000000  0.00000000  0.37500000       0.015
   0.40000000  0.00000000  0.37500000       0.015
   0.50000000  0.00000000  0.37500000       0.007
   0.10000000  0.10000000  0.37500000       0.015
   0.20000000  0.10000000  0.37500000       0.030
   0.30000000  0.10000000  0.37500000       0.030
   0.40000000  0.10000000  0.37500000       0.030
   0.20000000  0.20000000  0.37500000       0.015
   0.30000000  0.20000000  0.37500000       0.030
   0.40000000  0.20000000  0.37500000       0.015
   0.30000000  0.30000000  0.37500000       0.015
   0.00000000  0.00000000  0.50000000       0.001
   0.10000000 -0.00000000  0.50000000       0.007
   0.20000000 -0.00000000  0.50000000       0.007
   0.30000000  0.00000000  0.50000000       0.007
   0.40000000  0.00000000  0.50000000       0.007
   0.50000000  0.00000000  0.50000000       0.004
   0.10000000  0.10000000  0.50000000       0.007
   0.20000000  0.10000000  0.50000000       0.015
   0.30000000  0.10000000  0.50000000       0.015
   0.40000000  0.10000000  0.50000000       0.015
   0.20000000  0.20000000  0.50000000       0.007
   0.30000000  0.20000000  0.50000000       0.015
   0.40000000  0.20000000  0.50000000       0.007
   0.30000000  0.30000000  0.50000000       0.007
 
 position of ions in fractional coordinates (direct lattice) 
   0.33333333  0.66666667  0.25000000
   0.66666667  0.33333333  0.75000000
 
 position of ions in cartesian coordinates  (Angst):
   1.23599995  0.71360490  1.00528602
   1.23599995 -0.71360490  3.01585806
 


--------------------------------------------------------------------------------------------------------


 k-point   1 :   0.0000 0.0000 0.0000  plane waves:     337
 k-point   2 :   0.1000-0.0000 0.0000  plane waves:     351
 k-point   3 :   0.2000-0.0000 0.0000  plane waves:     349
 k-point   4 :   0.3000 0.0000 0.0000  plane waves:     357
 k-point   5 :   0.4000 0.0000 0.0000  plane waves:     346
 k-point   6 :   0.5000 0.0000 0.0000  plane waves:     350
 k-point   7 :   0.1000 0.1000 0.0000  plane waves:     348
 k-point   8 :   0.2000 0.1000 0.0000  plane waves:     355
 k-point   9 :   0.3000 0.1000 0.0000  plane waves:     350
 k-point  10 :   0.4000 0.1000 0.0000  plane waves:     350
 k-point  11 :   0.2000 0.2000 0.0000  plane waves:     356
 k-point  12 :   0.3000 0.2000 0.0000  plane waves:     351
 k-point  13 :   0.4000 0.2000 0.0000  plane waves:     360
 k-point  14 :   0.3000 0.3000 0.0000  plane waves:     354
 k-point  15 :   0.0000 0.0000 0.1250  plane waves:     343
 k-point  16 :   0.1000-0.0000 0.1250  plane waves:     344
 k-point  17 :   0.2000-0.0000 0.1250  plane waves:     349
 k-point  18 :   0.3000 0.0000 0.1250  plane waves:     355
 k-point  19 :   0.4000 0.0000 0.1250  plane waves:     351
 k-point  20 :   0.5000 0.0000 0.1250  plane waves:     348
 k-point  21 :   0.1000 0.1000 0.1250  plane waves:     348
 k-point  22 :   0.2000 0.1000 0.1250  plane waves:     351
 k-point  23 :   0.3000 0.1000 0.1250  plane waves:     352
 k-point  24 :   0.4000 0.1000 0.1250  plane waves:     349
 k-point  25 :   0.2000 0.2000 0.1250  plane waves:     353
 k-point  26 :   0.3000 0.2000 0.1250  plane waves:     353
 k-point  27 :   0.4000 0.2000 0.1250  plane waves:     357
 k-point  28 :   0.3000 0.3000 0.1250  plane waves:     356
 k-point  29 :   0.0000 0.0000 0.2500  plane waves:     343
 k-point  30 :   0.1000-0.0000 0.2500  plane waves:     340
 k-point  31 :   0.2000-0.0000 0.2500  plane waves:     345
 k-point  32 :   0.3000 0.0000 0.2500  plane waves:     352
 k-point  33 :   0.4000 0.0000 0.2500  plane waves:     355
 k-point  34 :   0.5000 0.0000 0.2500  plane waves:     358
 k-point  35 :   0.1000 0.1000 0.2500  plane waves:     345
 k-point  36 :   0.2000 0.1000 0.2500  plane waves:     345
 k-point  37 :   0.3000 0.1000 0.2500  plane waves:     352
 k-point  38 :   0.4000 0.1000 0.2500  plane waves:     354
 k-point  39 :   0.2000 0.2000 0.2500  plane waves:     354
 k-point  40 :   0.3000 0.2000 0.2500  plane waves:     353
 k-point  41 :   0.4000 0.2000 0.2500  plane waves:     352
 k-point  42 :   0.3000 0.3000 0.2500  plane waves:     354
 k-point  43 :   0.0000 0.0000 0.3750  plane waves:     342
 k-point  44 :   0.1000-0.0000 0.3750  plane waves:     339
 k-point  45 :   0.2000-0.0000 0.3750  plane waves:     341
 k-point  46 :   0.3000 0.0000 0.3750  plane waves:     348
 k-point  47 :   0.4000 0.0000 0.3750  plane waves:     356
 k-point  48 :   0.5000 0.0000 0.3750  plane waves:     356
 k-point  49 :   0.1000 0.1000 0.3750  plane waves:     339
 k-point  50 :   0.2000 0.1000 0.3750  plane waves:     346
 k-point  51 :   0.3000 0.1000 0.3750  plane waves:     352
 k-point  52 :   0.4000 0.1000 0.3750  plane waves:     353
 k-point  53 :   0.2000 0.2000 0.3750  plane waves:     351
 k-point  54 :   0.3000 0.2000 0.3750  plane waves:     355
 k-point  55 :   0.4000 0.2000 0.3750  plane waves:     351
 k-point  56 :   0.3000 0.3000 0.3750  plane waves:     356
 k-point  57 :   0.0000 0.0000 0.5000  plane waves:     336
 k-point  58 :   0.1000-0.0000 0.5000  plane waves:     340
 k-point  59 :   0.2000-0.0000 0.5000  plane waves:     340
 k-point  60 :   0.3000 0.0000 0.5000  plane waves:     342
 k-point  61 :   0.4000 0.0000 0.5000  plane waves:     352
 k-point  62 :   0.5000 0.0000 0.5000  plane waves:     360
 k-point  63 :   0.1000 0.1000 0.5000  plane waves:     340
 k-point  64 :   0.2000 0.1000 0.5000  plane waves:     346
 k-point  65 :   0.3000 0.1000 0.5000  plane waves:     354
 k-point  66 :   0.4000 0.1000 0.5000  plane waves:     350
 k-point  67 :   0.2000 0.2000 0.5000  plane waves:     354
 k-point  68 :   0.3000 0.2000 0.5000  plane waves:     360
 k-point  69 :   0.4000 0.2000 0.5000  plane waves:     352
 k-point  70 :   0.3000 0.3000 0.5000  plane waves:     356

 maximum and minimum number of plane-waves per node :        66       49

 maximum number of plane-waves:       360
 maximum index in each direction: 
   IXMAX=    3   IYMAX=    3   IZMAX=    6
   IXMIN=   -4   IYMIN=   -4   IZMIN=   -6


 parallel 3D FFT for wavefunctions:
    minimum data exchange during FFTs selected (reduces bandwidth)
 parallel 3D FFT for charge:
    minimum data exchange during FFTs selected (reduces bandwidth)


 total amount of memory used by VASP MPI-rank0    31880. kBytes
=======================================================================

   base      :      30000. kBytes
   nonl-proj :        606. kBytes
   fftplans  :        153. kBytes
   grid      :        374. kBytes
   one-center:         31. kBytes
   wavefun   :        716. kBytes
 
     INWAV:  cpu time      0.0000: real time      0.0003
 Broyden mixing: mesh for mixing (old mesh)
   NGX =  7   NGY =  7   NGZ = 13
  (NGX  = 32   NGY  = 32   NGZ  = 56)
  gives a total of    637 points

 initial charge density was supplied:
 charge density of overlapping atoms calculated
 number of electron      18.0000000 magnetization       6.0000000
 keeping initial charge density in first step


--------------------------------------------------------------------------------------------------------


 Maximum index for augmentation-charges          938 (set IRDMAX)


--------------------------------------------------------------------------------------------------------


 First call to EWALD:  gamma=   0.640
 Maximum number of real-space cells 3x 3x 2
 Maximum number of reciprocal cells 3x 3x 4

    FEWALD:  cpu time      0.0014: real time      0.0014


--------------------------------------- Iteration      1(   1)  ---------------------------------------


    POTLOK:  cpu time      0.0061: real time      0.0062
    SETDIJ:  cpu time      0.0053: real time      0.0053
     EDDAV:  cpu time      0.4069: real time      0.4096
       DOS:  cpu time      0.0024: real time      0.0025
    --------------------------------------------
      LOOP:  cpu time      0.4207: real time      0.4236

 eigenvalue-minimisations  :  4600
 total energy-change (2. order) : 0.6462863E+02  (-0.6908374E+03)
 number of electron      18.0000000 magnetization       6.0000000
 augmentation part       18.0000000 magnetization       6.0000000

 Free energy of the ion-electron system (eV)
  ---------------------------------------------------
  alpha Z        PSCENC =        79.61870385
  Ewald energy   TEWEN  =     -1531.60263765
  -Hartree energ DENC   =      -295.86427829
  -exchange      EXHF   =         0.00000000
  -V(xc)+E(xc)   XCENC  =        35.75670985
  PAW double counting   =      1439.98163886    -1545.88690193
  entropy T*S    EENTRO =        -0.00057313
  eigenvalues    EBANDS =       255.92182283
  atomic energy  EATOM  =      1626.70414741
  Solvation  Ediel_sol  =         0.00000000
  ---------------------------------------------------
  free energy    TOTEN  =        64.62863180 eV

  energy without entropy =       64.62920492  energy(sigma->0) =       64.62882284


--------------------------------------------------------------------------------------------------------




--------------------------------------- Iteration      1(   2)  ---------------------------------------


     EDDAV:  cpu time      0.3874: real time      0.3899
       DOS:  cpu time      0.0019: real time      0.0019
    --------------------------------------------
      LOOP:  cpu time      0.3892: real time      0.3918

 eigenvalue-minimisations  :  4520
 total energy-change (2. order) :-0.7855160E+02  (-0.7271187E+02)
 number of electron      18.0000000 magnetization       6.0000000
 augmentation part       18.0000000 magnetization       6.0000000

 Free energy of the ion-electron system (eV)
  ---------------------------------------------------
  alpha Z        PSCENC =        79.61870385
  Ewald energy   TEWEN  =     -1531.60263765
  -Hartree energ DENC   =      -295.86427829
  -exchange      EXHF   =         0.00000000
  -V(xc)+E(xc)   XCENC  =        35.75670985
  PAW double counting   =      1439.98163886    -1545.88690193
  entropy T*S    EENTRO =         0.00125985
  eigenvalues    EBANDS =       177.36838945
  atomic energy  EATOM  =      1626.70414741
  Solvation  Ediel_sol  =         0.00000000
  ---------------------------------------------------
  free energy    TOTEN  =       -13.92296860 eV

  energy without entropy =      -13.92422845  energy(sigma->0) =      -13.92338855


--------------------------------------------------------------------------------------------------------




--------------------------------------- Iteration      1(   3)  ---------------------------------------


     EDDAV:  cpu time      0.4669: real time      0.4697
       DOS:  cpu time      0.0022: real time      0.0023
    --------------------------------------------
      LOOP:  cpu time      0.4692: real time      0.4719

 eigenvalue-minimisations  :  5648
 total energy-change (2. order) :-0.1656287E+01  (-0.1637006E+01)
 number of electron      18.0000000 magnetization       6.0000000
 augmentation part       18.0000000 magnetization       6.0000000

 Free energy of the ion-electron system (eV)
  ---------------------------------------------------
  alpha Z        PSCENC =        79.61870385
  Ewald energy   TEWEN  =     -1531.60263765
  -Hartree energ DENC   =      -295.86427829
  -exchange      EXHF   =         0.00000000
  -V(xc)+E(xc)   XCENC  =        35.75670985
  PAW double counting   =      1439.98163886    -1545.88690193
  entropy T*S    EENTRO =         0.00036356
  eigenvalues    EBANDS =       175.71299909
  atomic energy  EATOM  =      1626.70414741
  Solvation  Ediel_sol  =         0.00000000
  ---------------------------------------------------
  free energy    TOTEN  =       -15.57925525 eV

  energy without entropy =      -15.57961882  energy(sigma->0) =      -15.57937644


--------------------------------------------------------------------------------------------------------




--------------------------------------- Iteration      1(   4)  ---------------------------------------


     EDDAV:  cpu time      0.5286: real time      0.5318
       DOS:  cpu time      0.0022: real time      0.0022
    --------------------------------------------
      LOOP:  cpu time      0.5308: real time      0.5339

 eigenvalue-minimisations  :  6408
 total energy-change (2. order) :-0.2789198E-01  (-0.2788776E-01)
 number of electron      18.0000000 magnetization       6.0000000
 augmentation part       18.0000000 magnetization       6.0000000

 Free energy of the ion-electron system (eV)
  ---------------------------------------------------
  alpha Z        PSCENC =        79.61870385
  Ewald energy   TEWEN  =     -1531.60263765
  -Hartree energ DENC   =      -295.86427829
  -exchange      EXHF   =         0.00000000
  -V(xc)+E(xc)   XCENC  =        35.75670985
  PAW double counting   =      1439.98163886    -1545.88690193
  entropy T*S    EENTRO =         0.00034376
  eigenvalues    EBANDS =       175.68512691
  atomic energy  EATOM  =      1626.70414741
  Solvation  Ediel_sol  =         0.00000000
  ---------------------------------------------------
  free energy    TOTEN  =       -15.60714724 eV

  energy without entropy =      -15.60749099  energy(sigma->0) =      -15.60726182


--------------------------------------------------------------------------------------------------------




--------------------------------------- Iteration      1(   5)  ---------------------------------------


     EDDAV:  cpu time      0.4690: real time      0.4719
       DOS:  cpu time      0.0023: real time      0.0023
    CHARGE:  cpu time      0.0217: real time      0.0218
    MIXING:  cpu time      0.0002: real time      0.0002
    --------------------------------------------
      LOOP:  cpu time      0.4932: real time      0.4963

 eigenvalue-minimisations  :  5688
 total energy-change (2. order) :-0.2205114E-03  (-0.2205088E-03)
 number of electron      17.9999999 magnetization       3.3958842
 augmentation part        9.1715026 magnetization       2.6491407

 Broyden mixing:
  rms(total) = 0.16459E+01    rms(broyden)= 0.16459E+01
  rms(prec ) = 0.27081E+01
  weight for this iteration     100.00

 Free energy of the ion-electron system (eV)
  ---------------------------------------------------
  alpha Z        PSCENC =        79.61870385
  Ewald energy   TEWEN  =     -1531.60263765
  -Hartree energ DENC   =      -295.86427829
  -exchange      EXHF   =         0.00000000
  -V(xc)+E(xc)   XCENC  =        35.75670985
  PAW double counting   =      1439.98163886    -1545.88690193
  entropy T*S    EENTRO =         0.00034362
  eigenvalues    EBANDS =       175.68490654
  atomic energy  EATOM  =      1626.70414741
  Solvation  Ediel_sol  =         0.00000000
  ---------------------------------------------------
  free energy    TOTEN  =       -15.60736775 eV

  energy without entropy =      -15.60771137  energy(sigma->0) =      -15.60748229


--------------------------------------------------------------------------------------------------------




--------------------------------------- Iteration      1(   6)  ---------------------------------------


    POTLOK:  cpu time      0.0044: real time      0.0046
    SETDIJ:  cpu time      0.0050: real time      0.0050
     EDDAV:  cpu time      0.4036: real time      0.4059
       DOS:  cpu time      0.0024: real time      0.0024
    CHARGE:  cpu time      0.0208: real time      0.0209
    MIXING:  cpu time      0.0003: real time      0.0002
    --------------------------------------------
      LOOP:  cpu time      0.4365: real time      0.4391

 eigenvalue-minimisations  :  4808
 total energy-change (2. order) : 0.1191514E+01  (-0.1050011E+01)
 number of electron      17.9999999 magnetization       3.2669700
 augmentation part       10.6647965 magnetization       2.8672663

 Broyden mixing:
  rms(total) = 0.63158E+00    rms(broyden)= 0.63152E+00
  rms(prec ) = 0.83908E+00
  weight for this iteration     100.00

 eigenvalues of (default mixing * dielectric matrix)
  average eigenvalue GAMMA=   0.8968
  0.8968

 Free energy of the ion-electron system (eV)
  ---------------------------------------------------
  alpha Z        PSCENC =        79.61870385
  Ewald energy   TEWEN  =     -1531.60263765
  -Hartree energ DENC   =      -259.26171200
  -exchange      EXHF   =         0.00000000
  -V(xc)+E(xc)   XCENC  =        32.71668993
  PAW double counting   =      1595.74891247    -1691.68420657
  entropy T*S    EENTRO =        -0.00082873
  eigenvalues    EBANDS =       133.34507780
  atomic energy  EATOM  =      1626.70414741
  Solvation  Ediel_sol  =         0.00000000
  ---------------------------------------------------
  free energy    TOTEN  =       -14.41585348 eV

  energy without entropy =      -14.41502475  energy(sigma->0) =      -14.41557724


--------------------------------------------------------------------------------------------------------




--------------------------------------- Iteration      1(   7)  ---------------------------------------


    POTLOK:  cpu time      0.0042: real time      0.0044
    SETDIJ:  cpu time      0.0050: real time      0.0050
     EDDAV:  cpu time      0.4255: real time      0.4280
       DOS:  cpu time      0.0023: real time      0.0024
    CHARGE:  cpu time      0.0203: real time      0.0204
    MIXING:  cpu time      0.0002: real time      0.0002
    --------------------------------------------
      LOOP:  cpu time      0.4576: real time      0.4604

 eigenvalue-minimisations  :  5152
 total energy-change (2. order) : 0.3082471E+00  (-0.1388183E+00)
 number of electron      17.9999999 magnetization       3.2813137
 augmentation part       10.1647791 magnetization       2.9214428

 Broyden mixing:
  rms(total) = 0.38380E+00    rms(broyden)= 0.38379E+00
  rms(prec ) = 0.45860E+00
  weight for this iteration     100.00

 eigenvalues of (default mixing * dielectric matrix)
  average eigenvalue GAMMA=   0.7494
  1.0077  0.4910

 Free energy of the ion-electron system (eV)
  ---------------------------------------------------
  alpha Z        PSCENC =        79.61870385
  Ewald energy   TEWEN  =     -1531.60263765
  -Hartree energ DENC   =      -266.76708422
  -exchange      EXHF   =         0.00000000
  -V(xc)+E(xc)   XCENC  =        33.23009908
  PAW double counting   =      1678.82388947    -1781.60208243
  entropy T*S    EENTRO =        -0.00015832
  eigenvalues    EBANDS =       147.48751649
  atomic energy  EATOM  =      1626.70414741
  Solvation  Ediel_sol  =         0.00000000
  ---------------------------------------------------
  free energy    TOTEN  =       -14.10760633 eV

  energy without entropy =      -14.10744802  energy(sigma->0) =      -14.10755356


--------------------------------------------------------------------------------------------------------




--------------------------------------- Iteration      1(   8)  ---------------------------------------


    POTLOK:  cpu time      0.0042: real time      0.0044
    SETDIJ:  cpu time      0.0047: real time      0.0047
     EDDAV:  cpu time      0.5134: real time      0.5164
       DOS:  cpu time      0.0024: real time      0.0024
    CHARGE:  cpu time      0.0211: real time      0.0212
    MIXING:  cpu time      0.0003: real time      0.0003
    --------------------------------------------
      LOOP:  cpu time      0.5461: real time      0.5494

 eigenvalue-minimisations  :  6312
 total energy-change (2. order) : 0.2339423E-01  (-0.1957088E-02)
 number of electron      17.9999999 magnetization       3.3249061
 augmentation part       10.2038329 magnetization       2.9835526

 Broyden mixing:
  rms(total) = 0.17929E+00    rms(broyden)= 0.17929E+00
  rms(prec ) = 0.22788E+00
  weight for this iteration     100.00

 eigenvalues of (default mixing * dielectric matrix)
  average eigenvalue GAMMA=   1.0557
  1.8096  0.7917  0.5658

 Free energy of the ion-electron system (eV)
  ---------------------------------------------------
  alpha Z        PSCENC =        79.61870385
  Ewald energy   TEWEN  =     -1531.60263765
  -Hartree energ DENC   =      -264.09427362
  -exchange      EXHF   =         0.00000000
  -V(xc)+E(xc)   XCENC  =        33.16048917
  PAW double counting   =      1737.10248026    -1841.11514438
  entropy T*S    EENTRO =         0.00010441
  eigenvalues    EBANDS =       146.14191844
  atomic energy  EATOM  =      1626.70414741
  Solvation  Ediel_sol  =         0.00000000
  ---------------------------------------------------
  free energy    TOTEN  =       -14.08421211 eV

  energy without entropy =      -14.08431651  energy(sigma->0) =      -14.08424691


--------------------------------------------------------------------------------------------------------




--------------------------------------- Iteration      1(   9)  ---------------------------------------


    POTLOK:  cpu time      0.0044: real time      0.0046
    SETDIJ:  cpu time      0.0049: real time      0.0049
     EDDAV:  cpu time      0.5346: real time      0.5376
       DOS:  cpu time      0.0024: real time      0.0024
    CHARGE:  cpu time      0.0205: real time      0.0206
    MIXING:  cpu time      0.0003: real time      0.0003
    --------------------------------------------
      LOOP:  cpu time      0.5671: real time      0.5703

 eigenvalue-minimisations  :  6648
 total energy-change (2. order) : 0.1475089E-01  (-0.5549943E-03)
 number of electron      17.9999999 magnetization       3.3355656
 augmentation part       10.2423717 magnetization       3.0015793

 Broyden mixing:
  rms(total) = 0.48836E-01    rms(broyden)= 0.48836E-01
  rms(prec ) = 0.55466E-01
  weight for this iteration     100.00

 eigenvalues of (default mixing * dielectric matrix)
  average eigenvalue GAMMA=   1.1142
  2.2403  0.8037  0.8037  0.6091

 Free energy of the ion-electron system (eV)
  ---------------------------------------------------
  alpha Z        PSCENC =        79.61870385
  Ewald energy   TEWEN  =     -1531.60263765
  -Hartree energ DENC   =      -261.23498654
  -exchange      EXHF   =         0.00000000
  -V(xc)+E(xc)   XCENC  =        33.07763588
  PAW double counting   =      1802.93529899    -1908.50416691
  entropy T*S    EENTRO =         0.00037179
  eigenvalues    EBANDS =       144.93617197
  atomic energy  EATOM  =      1626.70414741
  Solvation  Ediel_sol  =         0.00000000
  ---------------------------------------------------
  free energy    TOTEN  =       -14.06946121 eV

  energy without entropy =      -14.06983300  energy(sigma->0) =      -14.06958514


--------------------------------------------------------------------------------------------------------




--------------------------------------- Iteration      1(  10)  ---------------------------------------


    POTLOK:  cpu time      0.0042: real time      0.0044
    SETDIJ:  cpu time      0.0048: real time      0.0048
     EDDAV:  cpu time      0.5072: real time      0.5102
       DOS:  cpu time      0.0024: real time      0.0024
    CHARGE:  cpu time      0.0203: real time      0.0204
    MIXING:  cpu time      0.0003: real time      0.0003
    --------------------------------------------
      LOOP:  cpu time      0.5391: real time      0.5424

 eigenvalue-minimisations  :  6312
 total energy-change (2. order) : 0.6214707E-03  (-0.8181490E-04)
 number of electron      17.9999999 magnetization       3.3245865
 augmentation part       10.2450918 magnetization       2.9812101

 Broyden mixing:
  rms(total) = 0.84010E-02    rms(broyden)= 0.84007E-02
  rms(prec ) = 0.98852E-02
  weight for this iteration     100.00

 eigenvalues of (default mixing * dielectric matrix)
  average eigenvalue GAMMA=   1.1600
  2.3324  1.0721  1.0721  0.6618  0.6618

 Free energy of the ion-electron system (eV)
  ---------------------------------------------------
  alpha Z        PSCENC =        79.61870385
  Ewald energy   TEWEN  =     -1531.60263765
  -Hartree energ DENC   =      -260.50621601
  -exchange      EXHF   =         0.00000000
  -V(xc)+E(xc)   XCENC  =        33.02592943
  PAW double counting   =      1824.81879761    -1931.02653328
  entropy T*S    EENTRO =         0.00037437
  eigenvalues    EBANDS =       144.89859453
  atomic energy  EATOM  =      1626.70414741
  Solvation  Ediel_sol  =         0.00000000
  ---------------------------------------------------
  free energy    TOTEN  =       -14.06883974 eV

  energy without entropy =      -14.06921412  energy(sigma->0) =      -14.06896453


--------------------------------------------------------------------------------------------------------




--------------------------------------- Iteration      1(  11)  ---------------------------------------


    POTLOK:  cpu time      0.0042: real time      0.0044
    SETDIJ:  cpu time      0.0047: real time      0.0047
     EDDAV:  cpu time      0.5318: real time      0.5348
       DOS:  cpu time      0.0024: real time      0.0024
    CHARGE:  cpu time      0.0204: real time      0.0204
    MIXING:  cpu time      0.0003: real time      0.0003
    --------------------------------------------
      LOOP:  cpu time      0.5638: real time      0.5671

 eigenvalue-minimisations  :  6608
 total energy-change (2. order) :-0.2300546E-04  (-0.8721461E-05)
 number of electron      17.9999999 magnetization       3.3227418
 augmentation part       10.2456793 magnetization       2.9772502

 Broyden mixing:
  rms(total) = 0.24726E-02    rms(broyden)= 0.24721E-02
  rms(prec ) = 0.35286E-02
  weight for this iteration     100.00

 eigenvalues of (default mixing * dielectric matrix)
  average eigenvalue GAMMA=   1.0928
  2.3270  1.1008  1.1008  0.6154  0.7064  0.7064

 Free energy of the ion-electron system (eV)
  ---------------------------------------------------
  alpha Z        PSCENC =        79.61870385
  Ewald energy   TEWEN  =     -1531.60263765
  -Hartree energ DENC   =      -260.42986936
  -exchange      EXHF   =         0.00000000
  -V(xc)+E(xc)   XCENC  =        33.00911937
  PAW double counting   =      1827.22490471    -1933.50409169
  entropy T*S    EENTRO =         0.00031467
  eigenvalues    EBANDS =       144.91054596
  atomic energy  EATOM  =      1626.70414741
  Solvation  Ediel_sol  =         0.00000000
  ---------------------------------------------------
  free energy    TOTEN  =       -14.06886275 eV

  energy without entropy =      -14.06917741  energy(sigma->0) =      -14.06896764


--------------------------------------------------------------------------------------------------------




--------------------------------------- Iteration      1(  12)  ---------------------------------------


    POTLOK:  cpu time      0.0043: real time      0.0044
    SETDIJ:  cpu time      0.0049: real time      0.0049
     EDDAV:  cpu time      0.4043: real time      0.4068
       DOS:  cpu time      0.0024: real time      0.0024
    CHARGE:  cpu time      0.0203: real time      0.0204
    MIXING:  cpu time      0.0003: real time      0.0003
    --------------------------------------------
      LOOP:  cpu time      0.4364: real time      0.4391

 eigenvalue-minimisations  :  4816
 total energy-change (2. order) : 0.3222245E-05  (-0.6849247E-06)
 number of electron      17.9999999 magnetization       3.3227792
 augmentation part       10.2458065 magnetization       2.9771638

 Broyden mixing:
  rms(total) = 0.14333E-02    rms(broyden)= 0.14333E-02
  rms(prec ) = 0.22837E-02
  weight for this iteration     100.00

 eigenvalues of (default mixing * dielectric matrix)
  average eigenvalue GAMMA=   1.2082
  2.3756  1.9126  1.0871  1.0871  0.7129  0.6411  0.6411

 Free energy of the ion-electron system (eV)
  ---------------------------------------------------
  alpha Z        PSCENC =        79.61870385
  Ewald energy   TEWEN  =     -1531.60263765
  -Hartree energ DENC   =      -260.40814726
  -exchange      EXHF   =         0.00000000
  -V(xc)+E(xc)   XCENC  =        33.00685090
  PAW double counting   =      1827.91346383    -1934.20875122
  entropy T*S    EENTRO =         0.00031385
  eigenvalues    EBANDS =       144.90719676
  atomic energy  EATOM  =      1626.70414741
  Solvation  Ediel_sol  =         0.00000000
  ---------------------------------------------------
  free energy    TOTEN  =       -14.06885952 eV

  energy without entropy =      -14.06917338  energy(sigma->0) =      -14.06896414


--------------------------------------------------------------------------------------------------------




--------------------------------------- Iteration      1(  13)  ---------------------------------------


    POTLOK:  cpu time      0.0042: real time      0.0044
    SETDIJ:  cpu time      0.0047: real time      0.0047
     EDDAV:  cpu time      0.3126: real time      0.3144
       DOS:  cpu time      0.0023: real time      0.0023
    --------------------------------------------
      LOOP:  cpu time      0.3239: real time      0.3258

 eigenvalue-minimisations  :  3104
 total energy-change (2. order) : 0.2988220E-06  (-0.1133547E-06)
 number of electron      17.9999999 magnetization       3.3227792
 augmentation part       10.2458065 magnetization       2.9771638

 Free energy of the ion-electron system (eV)
  ---------------------------------------------------
  alpha Z        PSCENC =        79.61870385
  Ewald energy   TEWEN  =     -1531.60263765
  -Hartree energ DENC   =      -260.36019070
  -exchange      EXHF   =         0.00000000
  -V(xc)+E(xc)   XCENC  =        33.00474131
  PAW double counting   =      1829.35680689    -1935.68244385
  entropy T*S    EENTRO =         0.00030884
  eigenvalues    EBANDS =       144.89170469
  atomic energy  EATOM  =      1626.70414741
  Solvation  Ediel_sol  =         0.00000000
  ---------------------------------------------------
  free energy    TOTEN  =       -14.06885923 eV

  energy without entropy =      -14.06916806  energy(sigma->0) =      -14.06896217


--------------------------------------------------------------------------------------------------------




 average (electrostatic) potential at core
  the test charge radii are     1.0452
  (the norm of the test charge is              1.0000)
       1 -78.0347       2 -78.0347
 
 
 
 E-fermi :  10.4944     XC(G=0): -13.5226     alpha+bet :-18.0772

 Fermi energy:        10.4943636284

 spin component 1

 k-point     1 :       0.0000    0.0000    0.0000
  band No.  band energies     occupation 
      1       1.5009      1.00000
      2       5.2831      1.00000
      3       7.8307      1.00000
      4       7.8891      1.00000
      5       7.8891      1.00000
      6       8.2030      1.00000
      7       8.2030      1.00000
      8       8.5793      1.00000
      9       8.5793      1.00000
     10       9.6877      1.00000
     11       9.6877      1.00000
     12      10.3741      0.92061
     13      16.9510      0.00000
     14      32.7546      0.00000
     15      35.5491      0.00000
     16      35.5492      0.00000

 k-point     2 :       0.1000   -0.0000    0.0000
  band No.  band energies     occupation 
      1       1.8565      1.00000
      2       5.4949      1.00000
      3       7.5850      1.00000
      4       8.0562      1.00000
      5       8.0650      1.00000
      6       8.1540      1.00000
      7       8.3092      1.00000
      8       8.3513      1.00000
      9       8.4771      1.00000
     10       8.7638      1.00000
     11       9.7292      1.00000
     12      11.8050     -0.00000
     13      17.0126      0.00000
     14      30.2307      0.00000
     15      32.8714      0.00000
     16      33.0922      0.00000

 k-point     3 :       0.2000   -0.0000    0.0000
  band No.  band energies     occupation 
      1       2.8629      1.00000
      2       5.9538      1.00000
      3       7.2729      1.00000
      4       7.3510      1.00000
      5       7.9120      1.00000
      6       8.2427      1.00000
      7       8.4350      1.00000
      8       8.5096      1.00000
      9       8.5148      1.00000
     10       8.7547      1.00000
     11       9.8070      1.00001
     12      13.8264     -0.00000
     13      17.2387      0.00000
     14      25.5892      0.00000
     15      30.0540      0.00000
     16      31.9370      0.00000

 k-point     4 :       0.3000    0.0000    0.0000
  band No.  band energies     occupation 
      1       4.2623      1.00000
      2       6.0796      1.00000
      3       6.5781      1.00000
      4       7.2526      1.00000
      5       7.9195      1.00000
      6       7.9911      1.00000
      7       8.1941      1.00000
      8       9.1269      1.00000
      9       9.1878      1.00000
     10       9.2905      1.00000
     11       9.8675      1.00004
     12      16.1173      0.00000
     13      17.5940      0.00000
     14      21.4235      0.00000
     15      27.7647      0.00000
     16      28.8739      0.00000

 k-point     5 :       0.4000    0.0000    0.0000
  band No.  band energies     occupation 
      1       5.3483      1.00000
      2       5.8583      1.00000
      3       6.1136      1.00000
      4       7.6348      1.00000
      5       7.8069      1.00000
      6       8.0115      1.00000
      7       8.1757      1.00000
      8       9.6480      1.00000
      9       9.7813      1.00000
     10       9.8992      1.00011
     11      10.4023      0.84749
     12      16.1883      0.00000
     13      18.5772      0.00000
     14      20.1282      0.00000
     15      25.4571      0.00000
     16      26.2186      0.00000

 k-point     6 :       0.5000    0.0000    0.0000
  band No.  band energies     occupation 
      1       5.6646      1.00000
      2       5.7070      1.00000
      3       5.9594      1.00000
      4       7.7399      1.00000
      5       7.9431      1.00000
      6       7.9834      1.00000
      7       8.2874      1.00000
      8       9.8455      1.00002
      9       9.9084      1.00014
     10       9.9939      1.00115
     11      11.8794     -0.00000
     12      13.9478     -0.00000
     13      20.3232      0.00000
     14      21.0027      0.00000
     15      23.3976      0.00000
     16      24.6979      0.00000

 k-point     7 :       0.1000    0.1000    0.0000
  band No.  band energies     occupation 
      1       2.5405      1.00000
      2       5.8498      1.00000
      3       7.3087      1.00000
      4       7.6382      1.00000
      5       7.9952      1.00000
      6       8.1943      1.00000
      7       8.2785      1.00000
      8       8.3974      1.00000
      9       8.5990      1.00000
     10       8.6865      1.00000
     11       9.7699      1.00000
     12      13.2604     -0.00000
     13      17.1628      0.00000
     14      27.7602      0.00000
     15      28.4463      0.00000
     16      34.6102      0.00000

 k-point     8 :       0.2000    0.1000    0.0000
  band No.  band energies     occupation 
      1       3.7754      1.00000
      2       6.2294      1.00000
      3       6.8623      1.00000
      4       7.0285      1.00000
      5       7.8978      1.00000
      6       7.9191      1.00000
      7       8.4039      1.00000
      8       8.6317      1.00000
      9       8.9826      1.00000
     10       9.3011      1.00000
     11       9.8111      1.00001
     12      15.2990     -0.00000
     13      17.5454      0.00000
     14      23.5096      0.00000
     15      26.1503      0.00000
     16      30.9026      0.00000

 k-point     9 :       0.3000    0.1000    0.0000
  band No.  band energies     occupation 
      1       5.1154      1.00000
      2       6.1090      1.00000
      3       6.3107      1.00000
      4       7.1802      1.00000
      5       7.7416      1.00000
      6       8.0643      1.00000
      7       8.1470      1.00000
      8       9.1980      1.00000
      9       9.5567      1.00000
     10       9.8390      1.00002
     11      10.1867      1.02592
     12      17.6115      0.00000
     13      17.6526      0.00000
     14      20.2373      0.00000
     15      24.5552      0.00000
     16      27.2750      0.00000

 k-point    10 :       0.4000    0.1000    0.0000
  band No.  band energies     occupation 
      1       5.7510      1.00000
      2       5.9004      1.00000
      3       6.0326      1.00000
      4       7.6367      1.00000
      5       7.6863      1.00000
      6       7.9432      1.00000
      7       8.2823      1.00000
      8       9.7290      1.00000
      9       9.8506      1.00003
     10       9.8569      1.00003
     11      11.6751     -0.00000
     12      15.0226     -0.00000
     13      20.0543      0.00000
     14      20.8643      0.00000
     15      23.5206      0.00000
     16      24.2394      0.00000

 k-point    11 :       0.2000    0.2000    0.0000
  band No.  band energies     occupation 
      1       5.0484      1.00000
      2       6.4383      1.00000
      3       6.5105      1.00000
      4       6.6782      1.00000
      5       7.6411      1.00000
      6       8.0286      1.00000
      7       8.2437      1.00000
      8       8.8360      1.00000
      9       9.5598      1.00000
     10       9.7803      1.00000
     11      10.2236      1.03331
     12      17.3452      0.00000
     13      18.1911      0.00000
     14      21.6018      0.00000
     15      22.2156      0.00000
     16      29.2986      0.00000

 k-point    12 :       0.3000    0.2000    0.0000
  band No.  band energies     occupation 
      1       6.0197      1.00000
      2       6.1704      1.00000
      3       6.3061      1.00000
      4       6.9343      1.00000
      5       7.5475      1.00000
      6       7.9795      1.00000
      7       8.2819      1.00000
      8       9.2359      1.00000
      9       9.7537      1.00000
     10       9.8552      1.00003
     11      11.6351     -0.00000
     12      17.2279      0.00000
     13      19.7471      0.00000
     14      19.9534      0.00000
     15      21.3034      0.00000
     16      26.1860      0.00000

 k-point    13 :       0.4000    0.2000    0.0000
  band No.  band energies     occupation 
      1       6.0804      1.00000
      2       6.1879      1.00000
      3       6.2164      1.00000
      4       7.2416      1.00000
      5       7.5833      1.00000
      6       7.8060      1.00000
      7       8.4080      1.00000
      8       9.5923      1.00000
      9       9.7435      1.00000
     10       9.7951      1.00000
     11      13.3422     -0.00000
     12      14.7744     -0.00000
     13      19.9726      0.00000
     14      21.6778      0.00000
     15      21.9982      0.00000
     16      23.9270      0.00000

 k-point    14 :       0.3000    0.3000    0.0000
  band No.  band energies     occupation 
      1       6.1321      1.00000
      2       6.4209      1.00000
      3       6.5797      1.00000
      4       6.8126      1.00000
      5       7.5359      1.00000
      6       7.7325      1.00000
      7       8.5039      1.00000
      8       9.4203      1.00000
      9       9.6904      1.00000
     10       9.7488      1.00000
     11      13.7665     -0.00000
     12      16.7927      0.00000
     13      16.8270      0.00000
     14      22.2264      0.00000
     15      22.4853      0.00000
     16      25.1078      0.00000

 k-point    15 :       0.0000    0.0000    0.1250
  band No.  band energies     occupation 
      1       1.6596      1.00000
      2       5.2522      1.00000
      3       7.7903      1.00000
      4       7.8487      1.00000
      5       7.8487      1.00000
      6       8.1606      1.00000
      7       8.1606      1.00000
      8       8.6755      1.00000
      9       8.6755      1.00000
     10       9.6784      1.00000
     11       9.6784      1.00000
     12       9.7644      1.00000
     13      17.8721      0.00000
     14      32.6802      0.00000
     15      34.7623      0.00000
     16      35.5641      0.00000

 k-point    16 :       0.1000   -0.0000    0.1250
  band No.  band energies     occupation 
      1       2.0115      1.00000
      2       5.4762      1.00000
      3       7.5891      1.00000
      4       7.9518      1.00000
      5       7.9851      1.00000
      6       7.9976      1.00000
      7       8.3012      1.00000
      8       8.4384      1.00000
      9       8.6033      1.00000
     10       8.7442      1.00000
     11       9.7142      1.00000
     12      11.2443     -0.00000
     13      18.0064      0.00000
     14      30.3267      0.00000
     15      33.0298      0.00000
     16      33.0329      0.00000

 k-point    17 :       0.2000   -0.0000    0.1250
  band No.  band energies     occupation 
      1       3.0023      1.00000
      2       5.9697      1.00000
      3       7.2141      1.00000
      4       7.3074      1.00000
      5       7.8426      1.00000
      6       8.2036      1.00000
      7       8.2994      1.00000
      8       8.5933      1.00000
      9       8.7088      1.00000
     10       8.7370      1.00000
     11       9.7802      1.00000
     12      12.9338     -0.00000
     13      18.4734      0.00000
     14      25.7244      0.00000
     15      30.2456      0.00000
     16      31.2120      0.00000

 k-point    18 :       0.3000    0.0000    0.1250
  band No.  band energies     occupation 
      1       4.3499      1.00000
      2       6.1126      1.00000
      3       6.5511      1.00000
      4       7.2300      1.00000
      5       7.8279      1.00000
      6       8.0354      1.00000
      7       8.3341      1.00000
      8       9.1460      1.00000
      9       9.1821      1.00000
     10       9.2451      1.00000
     11       9.8338      1.00002
     12      14.6516     -0.00000
     13      19.2679      0.00000
     14      21.5967      0.00000
     15      27.6489      0.00000
     16      27.9843      0.00000

 k-point    19 :       0.4000    0.0000    0.1250
  band No.  band energies     occupation 
      1       5.2937      1.00000
      2       5.8512      1.00000
      3       6.2970      1.00000
      4       7.2248      1.00000
      5       7.8701      1.00000
      6       8.1701      1.00000
      7       8.5409      1.00000
      8       9.6476      1.00000
      9       9.6971      1.00000
     10       9.8938      1.00009
     11      10.3173      1.00880
     12      15.4752     -0.00000
     13      18.3692      0.00000
     14      21.0852      0.00000
     15      24.5368      0.00000
     16      26.4586      0.00000

 k-point    20 :       0.5000    0.0000    0.1250
  band No.  band energies     occupation 
      1       5.4839      1.00000
      2       5.6966      1.00000
      3       6.2851      1.00000
      4       7.2503      1.00000
      5       7.8080      1.00000
      6       8.2916      1.00000
      7       8.7830      1.00000
      8       9.7705      1.00000
      9       9.8885      1.00008
     10       9.9895      1.00104
     11      11.7620     -0.00000
     12      13.8493     -0.00000
     13      19.7613      0.00000
     14      20.1370      0.00000
     15      24.5573      0.00000
     16      25.5840      0.00000

 k-point    21 :       0.1000    0.1000    0.1250
  band No.  band energies     occupation 
      1       2.6862      1.00000
      2       5.8558      1.00000
      3       7.3290      1.00000
      4       7.4575      1.00000
      5       7.9781      1.00000
      6       8.0643      1.00000
      7       8.2926      1.00000
      8       8.4499      1.00000
      9       8.7037      1.00000
     10       8.7137      1.00000
     11       9.7500      1.00000
     12      12.4782     -0.00000
     13      18.3131      0.00000
     14      27.8794      0.00000
     15      28.5943      0.00000
     16      33.5069      0.00000

 k-point    22 :       0.2000    0.1000    0.1250
  band No.  band energies     occupation 
      1       3.8918      1.00000
      2       6.2739      1.00000
      3       6.7658      1.00000
      4       7.0678      1.00000
      5       7.7771      1.00000
      6       8.0232      1.00000
      7       8.3223      1.00000
      8       8.6868      1.00000
      9       9.0602      1.00000
     10       9.2499      1.00000
     11       9.8017      1.00001
     12      14.0886     -0.00000
     13      19.0395      0.00000
     14      23.6558      0.00000
     15      26.3073      0.00000
     16      29.8234      0.00000

 k-point    23 :       0.3000    0.1000    0.1250
  band No.  band energies     occupation 
      1       5.1391      1.00000
      2       6.1404      1.00000
      3       6.3495      1.00000
      4       7.1063      1.00000
      5       7.7764      1.00000
      6       8.0954      1.00000
      7       8.2386      1.00000
      8       9.1834      1.00000
      9       9.6002      1.00000
     10       9.7075      1.00000
     11      10.2219      1.03305
     12      15.6813     -0.00000
     13      19.2225      0.00000
     14      20.9014      0.00000
     15      24.6950      0.00000
     16      26.2136      0.00000

 k-point    24 :       0.4000    0.1000    0.1250
  band No.  band energies     occupation 
      1       5.5941      1.00000
      2       5.8893      1.00000
      3       6.3407      1.00000
      4       7.1773      1.00000
      5       7.7197      1.00000
      6       8.3151      1.00000
      7       8.4194      1.00000
      8       9.6810      1.00000
      9       9.7754      1.00000
     10       9.8834      1.00007
     11      11.6581     -0.00000
     12      14.8600     -0.00000
     13      19.0870      0.00000
     14      21.2062      0.00000
     15      23.6331      0.00000
     16      24.5072      0.00000

 k-point    25 :       0.2000    0.2000    0.1250
  band No.  band energies     occupation 
      1       5.1102      1.00000
      2       6.3550      1.00000
      3       6.6256      1.00000
      4       6.7068      1.00000
      5       7.6829      1.00000
      6       8.0116      1.00000
      7       8.1779      1.00000
      8       8.8690      1.00000
      9       9.6180      1.00000
     10       9.6385      1.00000
     11      10.2926      1.02604
     12      15.6463     -0.00000
     13      20.0769      0.00000
     14      21.7542      0.00000
     15      22.4108      0.00000
     16      28.2073      0.00000

 k-point    26 :       0.3000    0.2000    0.1250
  band No.  band energies     occupation 
      1       5.9190      1.00000
      2       6.2879      1.00000
      3       6.3621      1.00000
      4       6.8948      1.00000
      5       7.6288      1.00000
      6       7.9531      1.00000
      7       8.3021      1.00000
      8       9.2446      1.00000
      9       9.6309      1.00000
     10       9.8948      1.00009
     11      11.6995     -0.00000
     12      16.7219      0.00000
     13      18.8916      0.00000
     14      20.7687      0.00000
     15      22.1120      0.00000
     16      25.2382      0.00000

 k-point    27 :       0.4000    0.2000    0.1250
  band No.  band energies     occupation 
      1       5.9257      1.00000
      2       6.2366      1.00000
      3       6.4763      1.00000
      4       7.0281      1.00000
      5       7.5542      1.00000
      6       7.9704      1.00000
      7       8.4432      1.00000
      8       9.5961      1.00000
      9       9.6096      1.00000
     10       9.8274      1.00001
     11      13.4358     -0.00000
     12      14.7698     -0.00000
     13      19.8903      0.00000
     14      20.9572      0.00000
     15      21.2443      0.00000
     16      25.1399      0.00000

 k-point    28 :       0.3000    0.3000    0.1250
  band No.  band energies     occupation 
      1       6.1596      1.00000
[...]
      2       5.9271      1.00000
      3       8.3419      1.00000
      4       8.3419      1.00000
      5       9.4622      1.00000
      6       9.4622      1.00000
      7      10.3817      0.90279
      8      10.3817      0.90279
      9      11.3773     -0.00000
     10      11.3773     -0.00000
     11      11.9602     -0.00000
     12      11.9602     -0.00000
     13      23.8245      0.00000
     14      23.8245      0.00000
     15      28.2888      0.00000
     16      28.2888      0.00000

 k-point    61 :       0.4000    0.0000    0.5000
  band No.  band energies     occupation 
      1       6.4048      1.00000
      2       6.4048      1.00000
      3       8.1696      1.00000
      4       8.1696      1.00000
      5      10.2864      1.02879
      6      10.2864      1.02879
      7      10.4917      0.51111
      8      10.4917      0.51111
      9      11.7067     -0.00000
     10      11.7067     -0.00000
     11      12.3937     -0.00000
     12      12.3937     -0.00000
     13      20.4730      0.00000
     14      20.4730      0.00000
     15      29.5713      0.00000
     16      29.5713      0.00000

 k-point    62 :       0.5000    0.0000    0.5000
  band No.  band energies     occupation 
      1       6.4912      1.00000
      2       6.4912      1.00000
      3       8.1034      1.00000
      4       8.1034      1.00000
      5      10.4996      0.47785
      6      10.4996      0.47785
      7      10.8060     -0.02499
      8      10.8060     -0.02499
      9      11.8797     -0.00000
     10      11.8797     -0.00000
     11      12.8030     -0.00000
     12      12.8030     -0.00000
     13      18.9085      0.00000
     14      18.9085      0.00000
     15      29.4915      0.00000
     16      29.4915      0.00000

 k-point    63 :       0.1000    0.1000    0.5000
  band No.  band energies     occupation 
      1       4.7311      1.00000
      2       4.7311      1.00000
      3       8.6355      1.00000
      4       8.6355      1.00000
      5       9.3160      1.00000
      6       9.3160      1.00000
      7       9.9342      1.00027
      8       9.9342      1.00027
      9      11.2442     -0.00000
     10      11.2442     -0.00000
     11      11.5525     -0.00000
     12      11.5525     -0.00000
     13      26.7418      0.00000
     14      26.7418      0.00000
     15      29.6791      0.00000
     16      29.6791      0.00000

 k-point    64 :       0.2000    0.1000    0.5000
  band No.  band energies     occupation 
      1       5.6628      1.00000
      2       5.6628      1.00000
      3       8.4519      1.00000
      4       8.4519      1.00000
      5       9.1643      1.00000
      6       9.1643      1.00000
      7      10.2748      1.03253
      8      10.2748      1.03253
      9      11.3890     -0.00000
     10      11.3890     -0.00000
     11      11.8546     -0.00000
     12      11.8546     -0.00000
     13      25.9049      0.00000
     14      25.9049      0.00000
     15      27.7215      0.00000
     16      27.7215      0.00000

 k-point    65 :       0.3000    0.1000    0.5000
  band No.  band energies     occupation 
      1       6.4110      1.00000
      2       6.4110      1.00000
      3       8.3053      1.00000
      4       8.3053      1.00000
      5       9.4485      1.00000
      6       9.4485      1.00000
      7      10.4276      0.76569
      8      10.4276      0.76569
      9      11.7092     -0.00000
     10      11.7092     -0.00000
     11      12.4281     -0.00000
     12      12.4281     -0.00000
     13      22.1867      0.00000
     14      22.1867      0.00000
     15      27.5283      0.00000
     16      27.5283      0.00000

 k-point    66 :       0.4000    0.1000    0.5000
  band No.  band energies     occupation 
      1       6.6505      1.00000
      2       6.6505      1.00000
      3       8.2087      1.00000
      4       8.2087      1.00000
      5       9.8505      1.00003
      6       9.8505      1.00003
      7      10.7219     -0.03415
      8      10.7219     -0.03415
      9      11.7610     -0.00000
     10      11.7610     -0.00000
     11      13.3980     -0.00000
     12      13.3980     -0.00000
     13      19.4315      0.00000
     14      19.4315      0.00000
     15      26.8678      0.00000
     16      26.8678      0.00000

 k-point    67 :       0.2000    0.2000    0.5000
  band No.  band energies     occupation 
      1       6.4820      1.00000
      2       6.4820      1.00000
      3       8.4232      1.00000
      4       8.4232      1.00000
      5       8.9897      1.00000
      6       8.9897      1.00000
      7      10.2960      1.02428
      8      10.2960      1.02428
      9      11.7745     -0.00000
     10      11.7745     -0.00000
     11      12.5136     -0.00000
     12      12.5136     -0.00000
     13      24.1594      0.00000
     14      24.1594      0.00000
     15      25.0644      0.00000
     16      25.0644      0.00000

 k-point    68 :       0.3000    0.2000    0.5000
  band No.  band energies     occupation 
      1       7.0044      1.00000
      2       7.0044      1.00000
      3       8.3990      1.00000
      4       8.3990      1.00000
      5       9.0388      1.00000
      6       9.0388      1.00000
      7      10.3559      0.95710
      8      10.3559      0.95710
      9      11.7984     -0.00000
     10      11.7984     -0.00000
     11      13.9817     -0.00000
     12      13.9817     -0.00000
     13      20.9710      0.00000
     14      20.9710      0.00000
     15      23.7732      0.00000
     16      23.7732      0.00000

 k-point    69 :       0.4000    0.2000    0.5000
  band No.  band energies     occupation 
      1       7.1392      1.00000
      2       7.1392      1.00000
      3       8.3913      1.00000
      4       8.3913      1.00000
      5       9.0620      1.00000
      6       9.0620      1.00000
      7      10.5380      0.31997
      8      10.5380      0.31997
      9      11.7063     -0.00000
     10      11.7063     -0.00000
     11      15.1523     -0.00000
     12      15.1523     -0.00000
     13      19.1087      0.00000
     14      19.1087      0.00000
     15      23.4172      0.00000
     16      23.4172      0.00000

 k-point    70 :       0.3000    0.3000    0.5000
  band No.  band energies     occupation 
      1       7.5802      1.00000
      2       7.5802      1.00000
      3       8.2648      1.00000
      4       8.2648      1.00000
      5       8.7799      1.00000
      6       8.7799      1.00000
      7      10.3528      0.96256
      8      10.3528      0.96256
      9      11.6876     -0.00000
     10      11.6876     -0.00000
     11      16.1220      0.00000
     12      16.1220      0.00000
     13      19.5199      0.00000
     14      19.5199      0.00000
     15      21.3852      0.00000
     16      21.3852      0.00000


--------------------------------------------------------------------------------------------------------


 soft charge-density along one line, spin component           1
         0         1         2         3         4         5         6         7         8         9
 total charge-density along one line
 
 soft charge-density along one line, spin component           2
         0         1         2         3         4         5         6         7         8         9
 total charge-density along one line
 
 pseudopotential strength for first ion, spin component:           1
 -0.459  -0.000  -0.000   0.000  -0.000  -1.099  -0.000  -0.000
 -0.000  -0.470   0.000   0.000  -0.000  -0.000  -1.109   0.000
 -0.000   0.000  -0.462   0.000   0.000  -0.000   0.000  -1.101
  0.000   0.000   0.000  -0.470  -0.000   0.000   0.000   0.000
 -0.000  -0.000   0.000  -0.000  -0.459  -0.000  -0.000   0.000
 -1.099  -0.000  -0.000   0.000  -0.000  -1.679  -0.000  -0.000
 -0.000  -1.109   0.000   0.000  -0.000  -0.000  -1.689   0.000
 -0.000   0.000  -1.101   0.000   0.000  -0.000   0.000  -1.681
  0.000   0.000   0.000  -1.109  -0.000   0.000   0.000   0.000
 -0.000  -0.000   0.000  -0.000  -1.099  -0.000  -0.000   0.000
 -0.000  -0.000   0.001   0.000   0.000  -0.000  -0.000   0.001
 -0.000  -0.000   0.002   0.000   0.000  -0.000  -0.000   0.002
 -0.000   0.000   0.000  -0.000   0.001  -0.000   0.000   0.000
 -0.000   0.000   0.000  -0.000   0.000  -0.000   0.000   0.000
  0.001  -0.000   0.000   0.000  -0.000   0.001  -0.000   0.000
 -0.000   0.000  -0.000  -0.000   0.001  -0.000   0.000   0.000
 -0.000   0.000   0.000  -0.000   0.000  -0.000   0.000   0.000
  0.001  -0.000   0.000   0.000  -0.000   0.001  -0.000   0.000
 pseudopotential strength for first ion, spin component:           2
  0.908  -0.000  -0.000   0.000  -0.000   0.211  -0.000  -0.000
 -0.000   0.916   0.000   0.000  -0.000  -0.000   0.219   0.000
 -0.000   0.000   0.894   0.000   0.000  -0.000   0.000   0.197
  0.000   0.000   0.000   0.916  -0.000   0.000   0.000   0.000
 -0.000  -0.000   0.000  -0.000   0.908  -0.000  -0.000   0.000
  0.211  -0.000  -0.000   0.000  -0.000  -0.424  -0.000  -0.000
 -0.000   0.219   0.000   0.000  -0.000  -0.000  -0.417   0.000
 -0.000   0.000   0.197   0.000   0.000  -0.000   0.000  -0.438
  0.000   0.000   0.000   0.219  -0.000   0.000   0.000   0.000
 -0.000  -0.000   0.000  -0.000   0.211  -0.000  -0.000   0.000
 -0.000  -0.000   0.000   0.000   0.000  -0.000  -0.000   0.000
 -0.000  -0.000   0.000   0.000   0.000  -0.000  -0.000   0.000
 -0.000   0.000  -0.000  -0.000   0.000  -0.000   0.000  -0.000
 -0.000   0.000   0.000  -0.000   0.000  -0.000   0.000   0.000
  0.000  -0.000   0.000   0.000  -0.000   0.000  -0.000   0.000
 -0.000   0.000  -0.000  -0.000   0.000  -0.000   0.000  -0.000
 -0.000   0.000   0.000  -0.000   0.000  -0.000   0.000   0.000
  0.000  -0.000   0.000   0.000  -0.000   0.000  -0.000   0.000
 total augmentation occupancy for first ion, spin component:           1
  3.009  -0.000  -0.000  -0.000   0.000  -1.674  -0.000  -0.000   0.000   0.000   0.000  -0.000   0.000  -0.000  -0.043  -0.000
  0.000   3.124   0.000   0.000  -0.000   0.000  -1.724  -0.000   0.000   0.000   0.000   0.000  -0.000   0.000   0.000  -0.000
 -0.000  -0.000   2.862  -0.000   0.000  -0.000   0.000  -1.612   0.000  -0.000  -0.019   0.000   0.000  -0.000   0.000   0.000
  0.000   0.000  -0.000   3.124   0.000   0.000   0.000   0.000  -1.724   0.000  -0.000   0.000   0.000  -0.000   0.000   0.000
  0.000   0.000   0.000  -0.000   3.009  -0.000   0.000  -0.000   0.000  -1.674  -0.000   0.000  -0.043   0.000   0.000   0.003
 -1.674   0.000  -0.000   0.000   0.000   1.892  -0.000   0.000  -0.000  -0.000   0.000   0.000   0.000  -0.000   0.059  -0.000
  0.000  -1.724  -0.000   0.000  -0.000   0.000   1.871  -0.000  -0.000   0.000  -0.000  -0.000   0.000   0.000   0.000  -0.000
 -0.000  -0.000  -1.612   0.000  -0.000  -0.000  -0.000   1.914  -0.000   0.000   0.015  -0.000   0.000  -0.000  -0.000   0.000
  0.000   0.000   0.000  -1.724  -0.000   0.000   0.000   0.000   1.871   0.000  -0.000   0.000  -0.000   0.000   0.000   0.000
 -0.000   0.000  -0.000  -0.000  -1.674   0.000  -0.000   0.000   0.000   1.892  -0.000   0.000   0.059   0.000   0.000  -0.004
  0.000  -0.000  -0.019  -0.000   0.000   0.000   0.000   0.015  -0.000  -0.000   2.362  -0.281  -0.000  -0.000   0.000   0.000
  0.000   0.000   0.000  -0.000   0.000   0.000  -0.000  -0.000   0.000   0.000  -0.281   0.042   0.000   0.000   0.000  -0.000
  0.000   0.000   0.000   0.000  -0.043   0.000   0.000   0.000   0.000   0.059   0.000   0.000   0.324   0.000   0.000  -0.031
  0.000  -0.000  -0.000   0.000   0.000   0.000  -0.000  -0.000   0.000  -0.000   0.000   0.000  -0.000   0.328   0.000   0.000
 -0.043   0.000  -0.000   0.000   0.000   0.059  -0.000   0.000  -0.000  -0.000  -0.000   0.000   0.000   0.000   0.324   0.000
 -0.000  -0.000   0.000   0.000   0.003   0.000   0.000   0.000   0.000  -0.004   0.000   0.000  -0.031  -0.000  -0.000   0.003
 -0.000   0.000   0.000  -0.000  -0.000  -0.000  -0.000  -0.000  -0.000   0.000  -0.000   0.000   0.000  -0.031   0.000   0.000
  0.003   0.000   0.000  -0.000   0.000  -0.004  -0.000   0.000   0.000   0.000   0.000   0.000  -0.000  -0.000  -0.031   0.000
 total augmentation occupancy for first ion, spin component:           2
  2.166  -0.000   0.000   0.000  -0.000  -1.051   0.000   0.000   0.000   0.000   0.000   0.000   0.000  -0.000   0.004   0.000
  0.000   2.201  -0.000   0.000   0.000   0.000  -1.068  -0.000   0.000   0.000   0.000   0.000   0.000  -0.000  -0.000   0.000
  0.000   0.000   2.169   0.000   0.000   0.000  -0.000  -1.051   0.000  -0.000  -0.001  -0.000  -0.000   0.000   0.000  -0.000
 -0.000   0.000   0.000   2.201  -0.000   0.000   0.000  -0.000  -1.068   0.000   0.000  -0.000   0.000  -0.000  -0.000   0.000
  0.000   0.000   0.000   0.000   2.166  -0.000   0.000  -0.000  -0.000  -1.051  -0.000   0.000   0.004   0.000   0.000  -0.000
 -1.051   0.000   0.000   0.000   0.000   0.314  -0.000  -0.000   0.000  -0.000   0.000  -0.000   0.000  -0.000  -0.008   0.000
  0.000  -1.068  -0.000   0.000   0.000   0.000   0.332   0.000   0.000  -0.000   0.000   0.000  -0.000  -0.000   0.000   0.000
 -0.000   0.000  -1.051  -0.000  -0.000  -0.000  -0.000   0.302  -0.000   0.000  -0.000   0.001  -0.000   0.000   0.000  -0.000
  0.000  -0.000  -0.000  -1.068  -0.000   0.000  -0.000   0.000   0.332   0.000   0.000  -0.000   0.000   0.000  -0.000  -0.000
 -0.000   0.000  -0.000   0.000  -1.051   0.000  -0.000   0.000  -0.000   0.314   0.000  -0.000  -0.008   0.000   0.000   0.000
  0.000   0.000  -0.001  -0.000  -0.000   0.000   0.000  -0.000   0.000   0.000  -0.307   0.095   0.000   0.000  -0.000   0.000
  0.000   0.000  -0.000  -0.000   0.000  -0.000   0.000   0.001  -0.000  -0.000   0.095  -0.016   0.000  -0.000   0.000   0.000
  0.000   0.000   0.000   0.000   0.004   0.000  -0.000   0.000   0.000  -0.008  -0.000  -0.000  -0.033   0.000   0.000   0.005
  0.000  -0.000   0.000   0.000   0.000   0.000   0.000  -0.000   0.000   0.000   0.000  -0.000   0.000  -0.038   0.000   0.000
  0.004  -0.000   0.000   0.000   0.000  -0.008   0.000   0.000  -0.000   0.000   0.000   0.000   0.000  -0.000  -0.033  -0.000
  0.000   0.000  -0.000   0.000  -0.000  -0.000  -0.000  -0.000  -0.000   0.000   0.000   0.000   0.005   0.000   0.000  -0.001
  0.000   0.000   0.000   0.000  -0.000  -0.000  -0.000   0.000   0.000   0.000   0.000  -0.000   0.000   0.005   0.000  -0.000
 -0.000  -0.000  -0.000   0.000   0.000   0.000   0.000   0.000   0.000   0.000  -0.000  -0.000  -0.000   0.000   0.005   0.000


------------------------ aborting loop because EDIFF is reached ----------------------------------------


    CHARGE:  cpu time      0.0202: real time      0.0203
    FORLOC:  cpu time      0.0001: real time      0.0001
    FORNL :  cpu time      0.0155: real time      0.0156
    STRESS:  cpu time      0.0471: real time      0.0472
    FORCOR:  cpu time      0.0039: real time      0.0039
    FORHAR:  cpu time      0.0004: real time      0.0004
    MIXING:  cpu time      0.0002: real time      0.0002
    OFIELD:  cpu time      0.0000: real time      0.0000

  FORCE on cell =-STRESS in cart. coord.  units (eV):
  Direction    XX          YY          ZZ          XY          YZ          ZX
  --------------------------------------------------------------------------------------
  Alpha Z    79.61870    79.61870    79.61870
  Ewald    -511.71047  -511.71047  -508.18277     0.00000     0.00000    -0.00000
  Hartree    86.25582    86.25582    87.85342     0.00000     0.00000    -0.00000
  E(xc)     -92.69925   -92.69925   -92.69170     0.00000     0.00000    -0.00000
  Local     -15.41249   -15.41225   -20.05591     0.00000     0.00000    -0.00000
  n-local   -14.20813    -3.17528    -8.86734     3.31856    -0.63138     2.37517
  augment   310.88462   310.88438   310.62348    -0.00000    -0.00000     0.00000
  Kinetic   155.50251   149.29555   152.09541    -3.42564    -0.62076     0.58897
  Fock        0.00000     0.00000     0.00000     0.00000     0.00000     0.00000
  -------------------------------------------------------------------------------------
  Total       0.64426     0.64426     0.39328     0.00000    -0.00000     0.00000
  in kB      48.50615    48.50615    29.60978     0.00000    -0.00000     0.00000
  external pressure =       42.21 kB  Pullay stress =        0.00 kB


 VOLUME and BASIS-vectors are now :
 -----------------------------------------------------------------------------
  energy-cutoff  :      375.00
  volume of cell :       21.28
      direct lattice vectors                 reciprocal lattice vectors
     1.235999952 -2.140814714  0.000000000     0.404530760 -0.233555943  0.000000000
     1.235999952  2.140814714  0.000000000     0.404530760  0.233555943  0.000000000
     0.000000000  0.000000000  4.021144080     0.000000000  0.000000000  0.248685444

  length of vectors
     2.471999903  2.471999903  4.021144080     0.467111887  0.467111887  0.248685444


 FORCES acting on ions
    electron-ion (+dipol)            ewald-force                    non-local-force                 convergence-correction
 -----------------------------------------------------------------------------------------------
   0.918E-12 -.136E-05 -.212E-11   -.138E-13 0.239E-11 -.240E-13   0.173E-17 -.173E-16 -.390E-17   0.433E-13 -.552E-08 -.794E-13
   -.128E-11 0.136E-05 -.599E-11   0.114E-13 -.239E-11 0.240E-13   -.694E-17 0.173E-16 -.217E-17   -.174E-13 0.552E-08 0.738E-13
 -----------------------------------------------------------------------------------------------
   -.359E-12 0.322E-10 -.811E-11   -.234E-14 0.772E-15 0.000E+00   -.520E-17 0.000E+00 -.607E-17   0.259E-13 -.152E-13 -.567E-14
 
 
 POSITION                                       TOTAL-FORCE (eV/Angst)
 -----------------------------------------------------------------------------------
      1.23600      0.71360      1.00529         0.000000      0.000000     -0.000000
      1.23600     -0.71360      3.01586        -0.000000     -0.000000      0.000000
 -----------------------------------------------------------------------------------
    total drift:                               -0.000000      0.000000     -0.000000


--------------------------------------------------------------------------------------------------------



  FREE ENERGIE OF THE ION-ELECTRON SYSTEM (eV)
  ---------------------------------------------------
  free  energy   TOTEN  =       -14.06885923 eV

  energy  without entropy=      -14.06916806  energy(sigma->0) =      -14.06896217
 


--------------------------------------------------------------------------------------------------------


    POTLOK:  cpu time      0.0093: real time      0.0093


--------------------------------------------------------------------------------------------------------


     LOOP+:  cpu time      6.2807: real time      6.3224
    4ORBIT:  cpu time      0.0000: real time      0.0000

 total amount of memory used by VASP MPI-rank0    31880. kBytes
=======================================================================

   base      :      30000. kBytes
   nonl-proj :        606. kBytes
   fftplans  :        153. kBytes
   grid      :        374. kBytes
   one-center:         31. kBytes
   wavefun   :        716. kBytes
 
  
  
 General timing and accounting informations for this job:
 ========================================================
  
                  Total CPU time used (sec):        7.007
                            User time (sec):        6.554
                          System time (sec):        0.454
                         Elapsed time (sec):        8.191
  
                   Maximum memory used (kb):      221132.
                   Average memory used (kb):          N/A
  
                          Minor page faults:        20151
                          Major page faults:           74
                 Voluntary context switches:         2272
