<?xml version="1.0" encoding="ISO-8859-1"?>
<modeling>
 <generator>
  <i name="program" type="string">vasp </i>
  <i name="version" type="string">6.3.2  </i>
  <i name="subversion" type="string">27Jun22 (build Aug 12 2022 00:53:59) complex                          parallel </i>
  <i name="platform" type="string">tv2STD </i>
  <i name="date" type="string">2024 11 30 </i>
  <i name="time" type="string">15:14:08 </i>
 </generator>
 <incar>
  <i type="string" name="SYSTEM">Co fcc</i>
  <i type="int" name="ISTART">     0</i>
  <i type="string" name="PREC">Accurate      normal | accurate</i>
  <i type="string" name="ALGO">Normal     Normal, Fast, Very_Fast</i>
  <i type="logical" name="ADDGRID"> F  </i>
  <i type="int" name="ISPIN">     2</i>
  <i type="int" name="ICHARG">     2</i>
  <i type="int" name="INIWAV">     1</i>
  <i type="int" name="NELM">   100</i>
  <i type="int" name="IBRION">    -1</i>
  <i name="EDIFF">      0.00000100</i>
  <i name="EDIFFG">     -0.02000000</i>
  <i type="int" name="NSW">     0</i>
  <i type="int" name="ISIF">     2</i>
  <i type="int" name="ISYM">     1</i>
  <i name="ENCUT">    375.00000000</i>
  <v name="MAGMOM">      3.00000000      3.00000000</v>
  <i type="logical" name="LREAL"> F  </i>
  <i type="int" name="ISMEAR">     1</i>
  <i name="SIGMA">      0.20000000</i>
  <i type="int" name="NWRITE">     2</i>
  <i type="logical" name="LWAVE"> F  </i>
  <i type="logical" name="LCHARG"> F  </i>
 </incar>
 <primitive_cell>
  <structure name="primitive_cell" >
   <crystal>
    <varray name="basis" >
     <v>       2.47000000       0.00000000       0.00000000 </v>
     <v>      -1.23500000       2.13908275       0.00000000 </v>
     <v>       0.00000000       0.00000000       8.09000000 </v>
    </varray>
    <i name="volume">     42.74379318 </i>
    <varray name="rec_basis" >
     <v>       0.40485830       0.23374505       0.00000000 </v>
     <v>       0.00000000       0.46749010       0.00000000 </v>
     <v>       0.00000000       0.00000000       0.12360939 </v>
    </varray>
   </crystal>
   <varray name="positions" >
    <v>       0.00000000       0.00000000       0.00000000 </v>
    <v>       0.33333333       0.66666667       0.50000000 </v>
   </varray>
  </structure>
  <varray name="primitive_index" >
   <v type="int" >        1 </v>
   <v type="int" >        2 </v>
  </varray>
 </primitive_cell>
 <kpoints>
  <generation param="Gamma">
   <v type="int" name="divisions">       6        6        4 </v>
   <v name="usershift">      0.00000000       0.00000000       0.00000000 </v>
   <v name="genvec1">      0.16666667       0.00000000       0.00000000 </v>
   <v name="genvec2">      0.00000000       0.16666667       0.00000000 </v>
   <v name="genvec3">      0.00000000       0.00000000       0.25000000 </v>
   <v name="shift">      0.00000000       0.00000000       0.00000000 </v>
  </generation>
  <varray name="kpointlist" >
   <v>       0.00000000       0.00000000       0.00000000 </v>
   <v>       0.16666667      -0.00000000       0.00000000 </v>
   <v>       0.33333333      -0.00000000       0.00000000 </v>
   <v>       0.50000000      -0.00000000       0.00000000 </v>
   <v>       0.16666667       0.16666667       0.00000000 </v>
   <v>       0.33333333       0.16666667       0.00000000 </v>
   <v>       0.33333333       0.33333333       0.00000000 </v>
   <v>       0.00000000       0.00000000       0.25000000 </v>
   <v>       0.16666667      -0.00000000       0.25000000 </v>
   <v>       0.33333333      -0.00000000       0.25000000 </v>
   <v>       0.50000000      -0.00000000       0.25000000 </v>
   <v>       0.16666667       0.16666667       0.25000000 </v>
   <v>       0.33333333       0.16666667       0.25000000 </v>
   <v>       0.33333333       0.33333333       0.25000000 </v>
   <v>       0.00000000       0.00000000       0.50000000 </v>
   <v>       0.16666667      -0.00000000       0.50000000 </v>
   <v>       0.33333333      -0.00000000       0.50000000 </v>
   <v>       0.50000000      -0.00000000       0.50000000 </v>
   <v>       0.16666667       0.16666667       0.50000000 </v>
   <v>       0.33333333       0.16666667       0.50000000 </v>
   <v>       0.33333333       0.33333333       0.50000000 </v>
  </varray>
  <varray name="weights" >
   <v>       0.00694444 </v>
   <v>       0.04166667 </v>
   <v>       0.04166667 </v>
   <v>       0.02083333 </v>
   <v>       0.04166667 </v>
   <v>       0.08333333 </v>
   <v>       0.01388889 </v>
   <v>       0.01388889 </v>
   <v>       0.08333333 </v>
   <v>       0.08333333 </v>
   <v>       0.04166667 </v>
   <v>       0.08333333 </v>
   <v>       0.16666667 </v>
   <v>       0.02777778 </v>
   <v>       0.00694444 </v>
   <v>       0.04166667 </v>
   <v>       0.04166667 </v>
   <v>       0.02083333 </v>
   <v>       0.04166667 </v>
   <v>       0.08333333 </v>
   <v>       0.01388889 </v>
  </varray>
 </kpoints>
 <parameters>
  <separator name="general" >
   <i type="string" name="SYSTEM">Co fcc</i>
   <i type="logical" name="LCOMPAT"> F  </i>
  </separator>
  <separator name="electronic" >
   <i type="string" name="PREC">accura</i>
   <i name="ENMAX">    375.00000000</i>
   <i name="ENAUG">    477.81800000</i>
   <i name="EDIFF">      0.00000100</i>
   <i type="int" name="IALGO">    38</i>
   <i type="int" name="IWAVPR">    10</i>
   <i type="int" name="NBANDS">    16</i>
   <i type="int" name="NBANDSLOW">    -1</i>
   <i type="int" name="NBANDSHIGH">    -1</i>
   <i name="NELECT">     18.00000000</i>
   <i type="int" name="TURBO">     0</i>
   <i type="int" name="IRESTART">     0</i>
   <i type="int" name="NREBOOT">     0</i>
   <i type="int" name="NMIN">     0</i>
   <i name="EREF">      0.00000000</i>
   <separator name="electronic smearing" >
    <i type="int" name="ISMEAR">     1</i>
    <i name="SIGMA">      0.20000000</i>
    <i name="KSPACING">      0.50000000</i>
    <i type="logical" name="KGAMMA"> T  </i>
    <i type="logical" name="KBLOWUP"> T  </i>
   </separator>
   <separator name="electronic projectors" >
    <i type="logical" name="LREAL"> F  </i>
    <v name="ROPT">      0.00000000</v>
    <i type="int" name="LMAXPAW">  -100</i>
    <i type="int" name="LMAXMIX">     2</i>
    <i type="logical" name="NLSPLINE"> F  </i>
   </separator>
   <separator name="electronic startup" >
    <i type="int" name="ISTART">     0</i>
    <i type="int" name="ICHARG">     2</i>
    <i type="int" name="INIWAV">     1</i>
   </separator>
   <separator name="electronic spin" >
    <i type="int" name="ISPIN">     2</i>
    <i type="logical" name="LNONCOLLINEAR"> F  </i>
    <v name="MAGMOM">      3.00000000      3.00000000</v>
    <i name="NUPDOWN">     -1.00000000</i>
    <i type="logical" name="LSORBIT"> F  </i>
    <v name="SAXIS">      0.00000000      0.00000000      1.00000000</v>
    <i type="logical" name="LSPIRAL"> F  </i>
    <v name="QSPIRAL">      0.00000000      0.00000000      0.00000000</v>
    <i type="logical" name="LZEROZ"> F  </i>
   </separator>
   <separator name="electronic exchange-correlation" >
    <i type="logical" name="LASPH"> F  </i>
    <i type="logical" name="LMETAGGA"> F  </i>
   </separator>
   <separator name="electronic convergence" >
    <i type="int" name="NELM">   100</i>
    <i type="int" name="NELMDL">    -5</i>
    <i type="int" name="NELMIN">     2</i>
    <i name="ENINI">    375.00000000</i>
    <separator name="electronic convergence detail" >
     <i type="logical" name="LDIAG"> T  </i>
     <i type="logical" name="LSUBROT"> F  </i>
     <i name="WEIMIN">      0.00000000</i>
     <i name="EBREAK">      0.00000002</i>
     <i name="DEPER">      0.30000000</i>
     <i type="int" name="NRMM">     4</i>
     <i name="TIME">      0.40000000</i>
    </separator>
   </separator>
   <separator name="electronic mixer" >
    <i name="AMIX">      0.40000000</i>
    <i name="BMIX">      1.00000000</i>
    <i name="AMIN">      0.10000000</i>
    <i name="AMIX_MAG">      1.60000000</i>
    <i name="BMIX_MAG">      1.00000000</i>
    <separator name="electronic mixer details" >
     <i type="int" name="IMIX">     4</i>
     <i type="logical" name="MIXFIRST"> F  </i>
     <i type="int" name="MAXMIX">   -45</i>
     <i name="WC">    100.00000000</i>
     <i type="int" name="INIMIX">     1</i>
     <i type="int" name="MIXPRE">     1</i>
     <i type="int" name="MREMOVE">     5</i>
    </separator>
   </separator>
   <separator name="electronic dipolcorrection" >
    <i type="logical" name="LDIPOL"> F  </i>
    <i type="logical" name="LMONO"> F  </i>
    <i type="int" name="IDIPOL">     0</i>
    <i name="EPSILON">      1.00000000</i>
    <v name="DIPOL">   -100.00000000   -100.00000000   -100.00000000</v>
    <i name="EFIELD">      0.00000000</i>
   </separator>
  </separator>
  <separator name="grids" >
   <i type="int" name="NGX">    16</i>
   <i type="int" name="NGY">    16</i>
   <i type="int" name="NGZ">    54</i>
   <i type="int" name="NGXF">    32</i>
   <i type="int" name="NGYF">    32</i>
   <i type="int" name="NGZF">   108</i>
   <i type="logical" name="ADDGRID"> F  </i>
  </separator>
  <separator name="ionic" >
   <i type="int" name="NSW">     0</i>
   <i type="int" name="IBRION">    -1</i>
   <i type="int" name="MDALGO">     0</i>
   <i type="int" name="ISIF">     2</i>
   <i name="PSTRESS">      0.00000000</i>
   <i name="EDIFFG">     -0.02000000</i>
   <i type="int" name="NFREE">     0</i>
   <i name="POTIM">      0.50000000</i>
   <i name="SMASS">     -3.00000000</i>
   <i name="SCALEE">      1.00000000</i>
  </separator>
  <separator name="ionic md" >
   <i name="TEBEG">      0.00010000</i>
   <i name="TEEND">      0.00010000</i>
   <i type="int" name="NBLOCK">     1</i>
   <i type="int" name="KBLOCK">     1</i>
   <i type="int" name="NPACO">   256</i>
   <i name="APACO">     10.00000000</i>
  </separator>
  <separator name="symmetry" >
   <i type="int" name="ISYM">     1</i>
   <i name="SYMPREC">      0.00001000</i>
  </separator>
  <separator name="dos" >
   <i type="int" name="LORBIT">     0</i>
   <v name="RWIGS">     -1.00000000</v>
   <i type="int" name="NEDOS">   301</i>
   <i name="EMIN">     10.00000000</i>
   <i name="EMAX">    -10.00000000</i>
   <i name="EFERMI">      0.00000000</i>
  </separator>
  <separator name="writing" >
   <i type="int" name="NWRITE">     2</i>
   <i type="logical" name="LWAVE"> F  </i>
   <i type="logical" name="LDOWNSAMPLE"> F  </i>
   <i type="logical" name="LCHARG"> F  </i>
   <i type="logical" name="LPARD"> F  </i>
   <i type="logical" name="LVTOT"> F  </i>
   <i type="logical" name="LVHAR"> F  </i>
   <i type="logical" name="LELF"> F  </i>
   <i type="logical" name="LOPTICS"> F  </i>
   <v name="STM">      0.00000000      0.00000000      0.00000000      0.00000000      0.00000000      0.00000000      0.00000000</v>
  </separator>
  <separator name="performance" >
   <i type="int" name="NPAR">     4</i>
   <i type="int" name="NSIM">     4</i>
   <i type="int" name="NBLK">    -1</i>
   <i type="logical" name="LPLANE"> T  </i>
   <i type="logical" name="LSCALAPACK"> T  </i>
   <i type="logical" name="LSCAAWARE"> F  </i>
   <i type="logical" name="LSCALU"> F  </i>
   <i type="logical" name="LASYNC"> F  </i>
   <i type="logical" name="LORBITALREAL"> F  </i>
  </separator>
  <separator name="miscellaneous" >
   <i type="int" name="IDIOT">     3</i>
   <i type="int" name="PHON_NSTRUCT">    -1</i>
   <i type="logical" name="LMUSIC"> F  </i>
   <v name="POMASS">     58.93300000</v>
   <v name="DARWINR">      0.00000000</v>
   <v name="DARWINV">      1.00000000</v>
   <i type="logical" name="LCORR"> T  </i>
  </separator>
  <i type="logical" name="GGA_COMPAT"> T  </i>
  <i type="logical" name="LBERRY"> F  </i>
  <i type="int" name="ICORELEVEL">     0</i>
  <i type="logical" name="LDAU"> F  </i>
  <i type="int" name="I_CONSTRAINED_M">     0</i>
  <separator name="electronic exchange-correlation" >
   <i type="string" name="GGA">--</i>
   <i type="int" name="VOSKOWN">     0</i>
   <i type="logical" name="LHFCALC"> F  </i>
   <i type="string" name="PRECFOCK"></i>
   <i type="logical" name="LSYMGRAD"> F  </i>
   <i type="logical" name="LHFONE"> F  </i>
   <i type="logical" name="LRHFCALC"> F  </i>
   <i type="logical" name="LTHOMAS"> F  </i>
   <i type="logical" name="LMODELHF"> F  </i>
   <i type="logical" name="LFOCKACE"> F  </i>
   <i name="ENCUT4O">     -1.00000000</i>
   <i type="int" name="EXXOEP">     0</i>
   <i type="int" name="FOURORBIT">     0</i>
   <i name="AEXX">      0.00000000</i>
   <i name="HFALPHA">      0.00000000</i>
   <i name="MCALPHA">      0.00000000</i>
   <i name="ALDAX">      1.00000000</i>
   <i name="AGGAX">      1.00000000</i>
   <i name="ALDAC">      1.00000000</i>
   <i name="AGGAC">      1.00000000</i>
   <i type="int" name="NKREDX">     1</i>
   <i type="int" name="NKREDY">     1</i>
   <i type="int" name="NKREDZ">     1</i>
   <i type="logical" name="SHIFTRED"> F  </i>
   <i type="logical" name="ODDONLY"> F  </i>
   <i type="logical" name="EVENONLY"> F  </i>
   <i type="int" name="LMAXFOCK">     0</i>
   <i type="int" name="NMAXFOCKAE">     0</i>
   <i type="logical" name="LFOCKAEDFT"> F  </i>
   <i name="HFSCREEN">      0.00000000</i>
   <i name="HFSCREENC">      0.00000000</i>
   <i type="int" name="NBANDSGWLOW">     0</i>
  </separator>
  <separator name="vdW DFT" >
   <i type="logical" name="LUSE_VDW"> F  </i>
   <i name="Zab_VDW">     -0.84910000</i>
   <i name="PARAM1">      0.12340000</i>
   <i name="PARAM2">      1.00000000</i>
   <i name="PARAM3">      0.00000000</i>
  </separator>
  <separator name="model GW" >
   <i type="int" name="MODEL_GW">     0</i>
   <i name="MODEL_EPS0">     12.82313795</i>
   <i name="MODEL_ALPHA">      1.00000000</i>
  </separator>
  <separator name="linear response parameters" >
   <i type="logical" name="LEPSILON"> F  </i>
   <i type="logical" name="LRPA"> F  </i>
   <i type="logical" name="LNABLA"> F  </i>
   <i type="logical" name="LVEL"> F  </i>
   <i name="CSHIFT">      0.10000000</i>
   <i name="OMEGAMAX">     -1.00000000</i>
   <i name="DEG_THRESHOLD">      0.00200000</i>
   <i name="RTIME">     -0.10000000</i>
   <i name="WPLASMAI">      0.00000000</i>
   <v name="DFIELD">      0.00000000      0.00000000      0.00000000</v>
   <v name="WPLASMA">      0.00000000      0.00000000      0.00000000      0.00000000      0.00000000      0.00000000      0.00000000      0.00000000      0.00000000</v>
  </separator>
  <separator name="orbital magnetization" >
   <i type="logical" name="NUCIND"> F  </i>
   <v name="MAGPOS">      0.00000000      0.00000000      0.00000000</v>
   <i type="logical" name="LNICSALL"> T  </i>
   <i type="logical" name="ORBITALMAG"> F  </i>
   <i type="logical" name="LMAGBLOCH"> F  </i>
   <i type="logical" name="LCHIMAG"> F  </i>
   <i type="logical" name="LGAUGE"> T  </i>
   <i type="int" name="MAGATOM">     0</i>
   <v name="MAGDIPOL">      0.00000000      0.00000000      0.00000000</v>
   <v name="AVECCONST">      0.00000000      0.00000000      0.00000000</v>
  </separator>
  <separator name="response functions" >
   <i type="logical" name="LFINITE_TEMPERATURE"> F  </i>
   <i type="logical" name="LADDER"> F  </i>
   <i type="logical" name="LRPAFORCE"> F  </i>
   <i type="logical" name="LFXC"> F  </i>
   <i type="logical" name="LHARTREE"> T  </i>
   <i type="int" name="IBSE">     0</i>
   <v type="int" name="KPOINT">    -1     0     0     0</v>
   <i type="logical" name="LTCTC"> F  </i>
   <i type="logical" name="LTCTE"> F  </i>
   <i type="logical" name="LTETE"> F  </i>
   <i type="logical" name="LTRIPLET"> F  </i>
   <i type="logical" name="LFXCEPS"> F  </i>
   <i type="logical" name="LFXHEG"> F  </i>
   <i type="int" name="NATURALO">     2</i>
   <i type="logical" name="LHOLEGF"> F  </i>
   <i type="logical" name="L2ORDER"> F  </i>
   <i type="logical" name="LDMP1"> F  </i>
   <i type="logical" name="LMP2LT"> F  </i>
   <i type="logical" name="LSMP2LT"> F  </i>
   <i type="logical" name="LGWLF"> F  </i>
   <i name="ENCUTGW">     -2.00000000</i>
   <i name="ENCUTGWSOFT">     -2.00000000</i>
   <i name="ENCUTLF">     -1.00000000</i>
   <i type="logical" name="LESF_SPLINES"> F  </i>
   <i type="int" name="LMAXMP2">    -1</i>
   <i name="SCISSOR">      0.00000000</i>
   <i type="int" name="NOMEGA">     0</i>
   <i type="int" name="NOMEGAR">     0</i>
   <i type="int" name="NBANDSGW">    -1</i>
   <i type="int" name="NBANDSO">    -1</i>
   <i type="int" name="NBANDSV">    -1</i>
   <i type="int" name="NELMGW">     1</i>
   <i type="int" name="NELMHF">     1</i>
   <i type="int" name="DIM">     3</i>
   <i type="int" name="IESPILON">     4</i>
   <i type="int" name="ANTIRES">     0</i>
   <i name="OMEGAMAX">    -30.00000000</i>
   <i name="OMEGAMIN">    -30.00000000</i>
   <i name="OMEGATL">   -200.00000000</i>
   <i type="int" name="OMEGAGRID">     0</i>
   <i name="CSHIFT">     -0.10000000</i>
   <i type="logical" name="LSELFENERGY"> F  </i>
   <i type="logical" name="LSPECTRAL"> F  </i>
   <i type="logical" name="LSPECTRALGW"> F  </i>
   <i type="logical" name="LSINGLES"> F  </i>
   <i type="logical" name="LFERMIGW"> F  </i>
   <i type="logical" name="ODDONLYGW"> F  </i>
   <i type="logical" name="EVENONLYGW"> F  </i>
   <i type="int" name="NKREDLFX">     1</i>
   <i type="int" name="NKREDLFY">     1</i>
   <i type="int" name="NKREDLFZ">     1</i>
   <i type="int" name="MAXMEM">  2800</i>
   <i type="int" name="TELESCOPE">     0</i>
   <i type="int" name="NTAUPAR">    -1</i>
   <i type="int" name="NOMEGAPAR">    -1</i>
   <i name="DAMP_NEWTON">      0.80000001</i>
   <i name="LAMBDA">      1.00000000</i>
  </separator>
  <separator name="External order field" >
   <i name="OFIELD_KAPPA">      0.00000000</i>
   <v name="OFIELD_K">      0.00000000      0.00000000      0.00000000</v>
   <i name="OFIELD_Q6_NEAR">      0.00000000</i>
   <i name="OFIELD_Q6_FAR">      0.00000000</i>
   <i name="OFIELD_A">      0.00000000</i>
  </separator>
  <separator name="optional k-points parameters" >
   <i type="int" name="KPOINTS_OPT_MODE">     1</i>
   <i type="logical" name="LKPOINTS_OPT"> F  </i>
  </separator>
 </parameters>
 <atominfo>
  <atoms>       2 </atoms>
  <types>       1 </types>
  <array name="atoms" >
   <dimension dim="1">ion</dimension>
   <field type="string">element</field>
   <field type="int">atomtype</field>
   <set>
    <rc><c>Co</c><c>   1</c></rc>
    <rc><c>Co</c><c>   1</c></rc>
   </set>
  </array>
  <array name="atomtypes" >
   <dimension dim="1">type</dimension>
   <field type="int">atomspertype</field>
   <field type="string">element</field>
   <field>mass</field>
   <field>valence</field>
   <field type="string">pseudopotential</field>
   <set>
    <rc><c>   2</c><c>Co</c><c>     58.93300000</c><c>      9.00000000</c><c>  PAW_PBE Co 02Aug2007                  </c></rc>
   </set>
  </array>
 </atominfo>
 <structure name="initialpos" >
  <crystal>
   <varray name="basis" >
    <v>       2.47000000       0.00000000       0.00000000 </v>
    <v>      -1.23500000       2.13908275       0.00000000 </v>
    <v>       0.00000000       0.00000000       8.09000000 </v>
   </varray>
   <i name="volume">     42.74379318 </i>
   <varray name="rec_basis" >
    <v>       0.40485830       0.23374505       0.00000000 </v>
    <v>       0.00000000       0.46749010       0.00000000 </v>
    <v>       0.00000000       0.00000000       0.12360939 </v>
   </varray>
  </crystal>
  <varray name="positions" >
   <v>       0.00000000       0.00000000       0.00000000 </v>
   <v>       0.33333333       0.66666667       0.50000000 </v>
  </varray>
 </structure>
 <calculation>
  <scstep>
   <time name="dav">    0.14    0.14</time>
   <time name="total">    0.16    0.16</time>
   <energy>
    <i name="alphaZ">     39.63868225 </i>
    <i name="ewald">  -1054.56880693 </i>
    <i name="hartreedc">   -595.60964206 </i>
    <i name="XCdc">     33.36921587 </i>
    <i name="pawpsdc">   1439.98163886 </i>
    <i name="pawaedc">  -1545.88690193 </i>
    <i name="eentropy">     -0.01665564 </i>
    <i name="bandstr">    133.85890461 </i>
    <i name="atom">   1626.70414741 </i>
    <i name="e_fr_energy">     77.47058243 </i>
    <i name="e_wo_entrp">     77.48723807 </i>
    <i name="e_0_energy">     77.47613431 </i>
   </energy>
  </scstep>
  <scstep>
   <time name="dav">    0.14    0.14</time>
   <time name="total">    0.14    0.14</time>
   <energy>
    <i name="e_fr_energy">    -10.66132797 </i>
    <i name="e_wo_entrp">    -10.65890946 </i>
    <i name="e_0_energy">    -10.66052180 </i>
   </energy>
  </scstep>
  <scstep>
   <time name="dav">    0.15    0.15</time>
   <time name="total">    0.15    0.15</time>
   <energy>
    <i name="e_fr_energy">    -12.72534042 </i>
    <i name="e_wo_entrp">    -12.71768882 </i>
    <i name="e_0_energy">    -12.72278989 </i>
   </energy>
  </scstep>
  <scstep>
   <time name="dav">    0.17    0.17</time>
   <time name="total">    0.17    0.17</time>
   <energy>
    <i name="e_fr_energy">    -12.75929951 </i>
    <i name="e_wo_entrp">    -12.75155628 </i>
    <i name="e_0_energy">    -12.75671843 </i>
   </energy>
  </scstep>
  <scstep>
   <time name="dav">    0.15    0.15</time>
   <time name="total">    0.18    0.18</time>
   <energy>
    <i name="e_fr_energy">    -12.75956035 </i>
    <i name="e_wo_entrp">    -12.75180184 </i>
    <i name="e_0_energy">    -12.75697418 </i>
   </energy>
  </scstep>
  <scstep>
   <time name="dav">    0.14    0.14</time>
   <time name="total">    0.18    0.18</time>
   <energy>
    <i name="e_fr_energy">    -12.67419725 </i>
    <i name="e_wo_entrp">    -12.68211931 </i>
    <i name="e_0_energy">    -12.67683794 </i>
   </energy>
  </scstep>
  <scstep>
   <time name="dav">    0.15    0.15</time>
   <time name="total">    0.18    0.18</time>
   <energy>
    <i name="e_fr_energy">    -11.19534659 </i>
    <i name="e_wo_entrp">    -11.18716639 </i>
    <i name="e_0_energy">    -11.19261986 </i>
   </energy>
  </scstep>
  <scstep>
   <time name="dav">    0.16    0.16</time>
   <time name="total">    0.19    0.19</time>
   <energy>
    <i name="e_fr_energy">    -11.22327706 </i>
    <i name="e_wo_entrp">    -11.21205546 </i>
    <i name="e_0_energy">    -11.21953652 </i>
   </energy>
  </scstep>
  <scstep>
   <time name="dav">    0.17    0.17</time>
   <time name="total">    0.21    0.21</time>
   <energy>
    <i name="e_fr_energy">    -11.24352418 </i>
    <i name="e_wo_entrp">    -11.23696667 </i>
    <i name="e_0_energy">    -11.24133834 </i>
   </energy>
  </scstep>
  <scstep>
   <time name="dav">    0.15    0.15</time>
   <time name="total">    0.19    0.19</time>
   <energy>
    <i name="e_fr_energy">    -11.24568636 </i>
    <i name="e_wo_entrp">    -11.24291790 </i>
    <i name="e_0_energy">    -11.24476354 </i>
   </energy>
  </scstep>
  <scstep>
   <time name="dav">    0.15    0.15</time>
   <time name="total">    0.19    0.19</time>
   <energy>
    <i name="e_fr_energy">    -11.24156311 </i>
    <i name="e_wo_entrp">    -11.23600191 </i>
    <i name="e_0_energy">    -11.23970938 </i>
   </energy>
  </scstep>
  <scstep>
   <time name="dav">    0.15    0.15</time>
   <time name="total">    0.19    0.19</time>
   <energy>
    <i name="e_fr_energy">    -11.24133918 </i>
    <i name="e_wo_entrp">    -11.23599085 </i>
    <i name="e_0_energy">    -11.23955640 </i>
   </energy>
  </scstep>
  <scstep>
   <time name="dav">    0.14    0.14</time>
   <time name="total">    0.18    0.18</time>
   <energy>
    <i name="e_fr_energy">    -11.24166275 </i>
    <i name="e_wo_entrp">    -11.23665831 </i>
    <i name="e_0_energy">    -11.23999461 </i>
   </energy>
  </scstep>
  <scstep>
   <time name="dav">    0.15    0.15</time>
   <time name="total">    0.19    0.19</time>
   <energy>
    <i name="e_fr_energy">    -11.24184037 </i>
    <i name="e_wo_entrp">    -11.23703827 </i>
    <i name="e_0_energy">    -11.24023967 </i>
   </energy>
  </scstep>
  <scstep>
   <time name="dav">    0.14    0.14</time>
   <time name="total">    0.18    0.18</time>
   <energy>
    <i name="e_fr_energy">    -11.24186029 </i>
    <i name="e_wo_entrp">    -11.23712125 </i>
    <i name="e_0_energy">    -11.24028061 </i>
   </energy>
  </scstep>
  <scstep>
   <time name="dav">    0.14    0.14</time>
   <time name="total">    0.18    0.18</time>
   <energy>
    <i name="e_fr_energy">    -11.24188058 </i>
    <i name="e_wo_entrp">    -11.23726735 </i>
    <i name="e_0_energy">    -11.24034284 </i>
   </energy>
  </scstep>
  <scstep>
   <time name="dav">    0.12    0.12</time>
   <time name="total">    0.16    0.16</time>
   <energy>
    <i name="e_fr_energy">    -11.24188368 </i>
    <i name="e_wo_entrp">    -11.23730706 </i>
    <i name="e_0_energy">    -11.24035814 </i>
   </energy>
  </scstep>
  <scstep>
   <time name="dav">    0.10    0.10</time>
   <time name="total">    0.11    0.11</time>
   <energy>
    <i name="alphaZ">     39.63868225 </i>
    <i name="ewald">  -1054.56880693 </i>
    <i name="hartreedc">   -566.47090045 </i>
    <i name="XCdc">     31.45178840 </i>
    <i name="pawpsdc">   1612.37939532 </i>
    <i name="pawaedc">  -1718.37106195 </i>
    <i name="eentropy">     -0.00455062 </i>
    <i name="bandstr">     17.99942259 </i>
    <i name="atom">   1626.70414741 </i>
    <i name="e_fr_energy">    -11.24188399 </i>
    <i name="e_wo_entrp">    -11.23733337 </i>
    <i name="e_0_energy">    -11.24036712 </i>
   </energy>
  </scstep>
  <structure>
   <crystal>
    <varray name="basis" >
     <v>       2.47000000       0.00000000       0.00000000 </v>
     <v>      -1.23500000       2.13908275       0.00000000 </v>
     <v>       0.00000000       0.00000000       8.09000000 </v>
    </varray>
    <i name="volume">     42.74379318 </i>
    <varray name="rec_basis" >
     <v>       0.40485830       0.23374505       0.00000000 </v>
     <v>       0.00000000       0.46749010       0.00000000 </v>
     <v>       0.00000000       0.00000000       0.12360939 </v>
    </varray>
   </crystal>
   <varray name="positions" >
    <v>       0.00000000       0.00000000       0.00000000 </v>
    <v>       0.33333333       0.66666667       0.50000000 </v>
   </varray>
  </structure>
  <varray name="forces" >
   <v>       0.00000000      -0.00000000       0.00000000 </v>
   <v>      -0.00000000       0.00000000       0.00000000 </v>
  </varray>
  <varray name="stress" >
   <v>    -110.33885128       0.00000000       0.00000000 </v>
   <v>       0.00000000    -110.33885128       0.00000000 </v>
   <v>      -0.00000000       0.00000000     -50.73441367 </v>
  </varray>
  <energy>
   <i name="e_fr_energy">    -11.24188399 </i>
   <i name="e_wo_entrp">    -11.23733337 </i>
   <i name="e_0_energy">    -11.24036712 </i>
  </energy>
  <time name="totalsc">    3.21    3.23</time>
  <eigenvalues>
   <array>
    <dimension dim="1">band</dimension>
    <dimension dim="2">kpoint</dimension>
    <dimension dim="3">spin</dimension>
    <field>eigene</field>
    <field>occ</field>
    <set>
     <set comment="spin 1">
      <set comment="kpoint 1">
       <r>   -3.0059    1.0000 </r>
       <r>   -2.5459    1.0000 </r>
       <r>   -0.2924    1.0000 </r>
       <r>    0.7184    1.0000 </r>
       <r>    0.7184    1.0000 </r>
       <r>    0.7192    1.0000 </r>
       <r>    0.7192    1.0000 </r>
       <r>    0.7310    1.0000 </r>
       <r>    1.4245    1.0000 </r>
       <r>    1.4245    1.0000 </r>
       <r>    1.4277    1.0000 </r>
       <r>    1.4277    1.0000 </r>
       <r>    2.1362    1.0000 </r>
       <r>    6.4122   -0.0000 </r>
       <r>   10.8444    0.0000 </r>
       <r>   18.8002    0.0000 </r>
      </set>
      <set comment="kpoint 2">
       <r>   -2.0404    1.0000 </r>
       <r>   -1.6496    1.0000 </r>
       <r>   -0.0006    1.0000 </r>
       <r>    0.4799    1.0000 </r>
       <r>    0.4890    1.0000 </r>
       <r>    0.5236    1.0000 </r>
       <r>    0.8033    1.0000 </r>
       <r>    0.9953    1.0000 </r>
       <r>    1.1281    1.0000 </r>
       <r>    1.1290    1.0000 </r>
       <r>    1.3440    1.0000 </r>
       <r>    1.3501    1.0000 </r>
       <r>    3.7280   -0.0000 </r>
       <r>    7.8471   -0.0000 </r>
       <r>   11.4701    0.0000 </r>
       <r>   19.9425    0.0000 </r>
      </set>
      <set comment="kpoint 3">
       <r>   -0.9042    1.0000 </r>
       <r>   -0.8550    1.0000 </r>
       <r>   -0.1990    1.0000 </r>
       <r>   -0.0392    1.0000 </r>
       <r>    0.6209    1.0000 </r>
       <r>    0.7860    1.0000 </r>
       <r>    1.1861    1.0000 </r>
       <r>    1.1968    1.0000 </r>
       <r>    1.7698    1.0000 </r>
       <r>    2.0265    1.0000 </r>
       <r>    2.0270    1.0000 </r>
       <r>    2.7015    1.0230 </r>
       <r>    6.7000   -0.0000 </r>
       <r>   11.0729    0.0000 </r>
       <r>   13.0117    0.0000 </r>
       <r>   14.2162    0.0000 </r>
      </set>
      <set comment="kpoint 4">
       <r>   -1.0433    1.0000 </r>
       <r>   -1.0404    1.0000 </r>
       <r>   -0.4413    1.0000 </r>
       <r>   -0.3747    1.0000 </r>
       <r>    0.9369    1.0000 </r>
       <r>    1.0315    1.0000 </r>
       <r>    1.1082    1.0000 </r>
       <r>    1.1208    1.0000 </r>
       <r>    2.5253    1.0013 </r>
       <r>    2.5253    1.0013 </r>
       <r>    5.2367   -0.0000 </r>
       <r>    5.5901   -0.0000 </r>
       <r>    9.2187    0.0000 </r>
       <r>   10.0373    0.0000 </r>
       <r>   10.4413    0.0000 </r>
       <r>   11.5777    0.0000 </r>
      </set>
      <set comment="kpoint 5">
       <r>   -0.5302    1.0000 </r>
       <r>   -0.3934    1.0000 </r>
       <r>    0.0158    1.0000 </r>
       <r>    0.1068    1.0000 </r>
       <r>    0.1108    1.0000 </r>
       <r>    0.2246    1.0000 </r>
       <r>    0.5160    1.0000 </r>
       <r>    1.1298    1.0000 </r>
       <r>    1.1375    1.0000 </r>
       <r>    1.2213    1.0000 </r>
       <r>    2.1880    1.0000 </r>
       <r>    2.5769    1.0036 </r>
       <r>    5.8029   -0.0000 </r>
       <r>   10.1497    0.0000 </r>
       <r>   12.7765    0.0000 </r>
       <r>   18.2686    0.0000 </r>
      </set>
      <set comment="kpoint 6">
       <r>   -0.4733    1.0000 </r>
       <r>   -0.4669    1.0000 </r>
       <r>   -0.2401    1.0000 </r>
       <r>   -0.1518    1.0000 </r>
       <r>    0.8283    1.0000 </r>
       <r>    0.8405    1.0000 </r>
       <r>    0.8541    1.0000 </r>
       <r>    0.8778    1.0000 </r>
       <r>    1.3610    1.0000 </r>
       <r>    1.5234    1.0000 </r>
       <r>    5.1584   -0.0000 </r>
       <r>    5.9776   -0.0000 </r>
       <r>    9.4012    0.0000 </r>
       <r>   11.3244    0.0000 </r>
       <r>   12.3486    0.0000 </r>
       <r>   13.4045    0.0000 </r>
      </set>
      <set comment="kpoint 7">
       <r>    0.1757    1.0000 </r>
       <r>    0.2123    1.0000 </r>
       <r>    0.2123    1.0000 </r>
       <r>    0.2511    1.0000 </r>
       <r>    0.4450    1.0000 </r>
       <r>    0.4602    1.0000 </r>
       <r>    0.4602    1.0000 </r>
       <r>    0.4813    1.0000 </r>
       <r>    0.9658    1.0000 </r>
       <r>    0.9658    1.0000 </r>
       <r>    9.6829    0.0000 </r>
       <r>    9.9379    0.0000 </r>
       <r>    9.9379    0.0000 </r>
       <r>   10.5889    0.0000 </r>
       <r>   12.0406    0.0000 </r>
       <r>   12.0406    0.0000 </r>
      </set>
      <set comment="kpoint 8">
       <r>   -2.9411    1.0000 </r>
       <r>   -2.6151    1.0000 </r>
       <r>   -0.2270    1.0000 </r>
       <r>    0.3892    1.0000 </r>
       <r>    0.7184    1.0000 </r>
       <r>    0.7184    1.0000 </r>
       <r>    0.7190    1.0000 </r>
       <r>    0.7190    1.0000 </r>
       <r>    1.4249    1.0000 </r>
       <r>    1.4249    1.0000 </r>
       <r>    1.4270    1.0000 </r>
       <r>    1.4270    1.0000 </r>
       <r>    2.8067    1.0313 </r>
       <r>    5.5797   -0.0000 </r>
       <r>   11.9454    0.0000 </r>
       <r>   16.8522    0.0000 </r>
      </set>
      <set comment="kpoint 9">
       <r>   -1.9826    1.0000 </r>
       <r>   -1.7050    1.0000 </r>
       <r>    0.0502    1.0000 </r>
       <r>    0.4162    1.0000 </r>
       <r>    0.4887    1.0000 </r>
       <r>    0.4907    1.0000 </r>
       <r>    0.8102    1.0000 </r>
       <r>    0.9119    1.0000 </r>
       <r>    1.1283    1.0000 </r>
       <r>    1.1288    1.0000 </r>
       <r>    1.3448    1.0000 </r>
       <r>    1.3493    1.0000 </r>
       <r>    4.2296   -0.0000 </r>
       <r>    6.9134   -0.0000 </r>
       <r>   12.6903    0.0000 </r>
       <r>   17.7624    0.0000 </r>
      </set>
      <set comment="kpoint 10">
       <r>   -0.8969    1.0000 </r>
       <r>   -0.8622    1.0000 </r>
       <r>   -0.1817    1.0000 </r>
       <r>   -0.0715    1.0000 </r>
       <r>    0.6612    1.0000 </r>
       <r>    0.7734    1.0000 </r>
       <r>    1.1876    1.0000 </r>
       <r>    1.1952    1.0000 </r>
       <r>    1.8633    1.0000 </r>
       <r>    2.0266    1.0000 </r>
       <r>    2.0269    1.0000 </r>
       <r>    2.5062    1.0008 </r>
       <r>    7.1687   -0.0000 </r>
       <r>    9.9007    0.0000 </r>
       <r>   13.9198    0.0000 </r>
       <r>   14.3963    0.0000 </r>
      </set>
      <set comment="kpoint 11">
       <r>   -1.0431    1.0000 </r>
       <r>   -1.0409    1.0000 </r>
       <r>   -0.4329    1.0000 </r>
       <r>   -0.3861    1.0000 </r>
       <r>    0.9536    1.0000 </r>
       <r>    1.0208    1.0000 </r>
       <r>    1.1100    1.0000 </r>
       <r>    1.1190    1.0000 </r>
       <r>    2.5253    1.0013 </r>
       <r>    2.5254    1.0013 </r>
       <r>    5.2791   -0.0000 </r>
       <r>    5.5287   -0.0000 </r>
       <r>    9.2212    0.0000 </r>
       <r>    9.6284    0.0000 </r>
       <r>   11.0727    0.0000 </r>
       <r>   11.7727    0.0000 </r>
      </set>
      <set comment="kpoint 12">
       <r>   -0.5085    1.0000 </r>
       <r>   -0.4120    1.0000 </r>
       <r>    0.0338    1.0000 </r>
       <r>    0.1073    1.0000 </r>
       <r>    0.1104    1.0000 </r>
       <r>    0.1657    1.0000 </r>
       <r>    0.6400    1.0000 </r>
       <r>    1.1238    1.0000 </r>
       <r>    1.1341    1.0000 </r>
       <r>    1.1365    1.0000 </r>
       <r>    2.2121    1.0000 </r>
       <r>    2.4618    1.0003 </r>
       <r>    6.2851   -0.0000 </r>
       <r>    9.0375    0.0000 </r>
       <r>   14.1642    0.0000 </r>
       <r>   18.3528    0.0000 </r>
      </set>
      <set comment="kpoint 13">
       <r>   -0.4727    1.0000 </r>
       <r>   -0.4683    1.0000 </r>
       <r>   -0.2287    1.0000 </r>
       <r>   -0.1666    1.0000 </r>
       <r>    0.8296    1.0000 </r>
       <r>    0.8463    1.0000 </r>
       <r>    0.8540    1.0000 </r>
       <r>    0.8775    1.0000 </r>
       <r>    1.3843    1.0000 </r>
       <r>    1.4996    1.0000 </r>
       <r>    5.2417   -0.0000 </r>
       <r>    5.8021   -0.0000 </r>
       <r>    9.8337    0.0000 </r>
       <r>   11.3644    0.0000 </r>
       <r>   12.1045    0.0000 </r>
       <r>   12.6660    0.0000 </r>
      </set>
      <set comment="kpoint 14">
       <r>    0.1856    1.0000 </r>
       <r>    0.2109    1.0000 </r>
       <r>    0.2109    1.0000 </r>
       <r>    0.2384    1.0000 </r>
       <r>    0.4519    1.0000 </r>
       <r>    0.4614    1.0000 </r>
       <r>    0.4614    1.0000 </r>
       <r>    0.4771    1.0000 </r>
       <r>    0.9666    1.0000 </r>
       <r>    0.9666    1.0000 </r>
       <r>    9.7873    0.0000 </r>
       <r>    9.9631    0.0000 </r>
       <r>    9.9631    0.0000 </r>
       <r>   10.4157    0.0000 </r>
       <r>   11.7918    0.0000 </r>
       <r>   11.7918    0.0000 </r>
      </set>
      <set comment="kpoint 15">
       <r>   -2.7805    1.0000 </r>
       <r>   -2.7805    1.0000 </r>
       <r>   -0.0099    1.0000 </r>
       <r>   -0.0099    1.0000 </r>
       <r>    0.7187    1.0000 </r>
       <r>    0.7187    1.0000 </r>
       <r>    0.7187    1.0000 </r>
       <r>    0.7187    1.0000 </r>
       <r>    1.4260    1.0000 </r>
       <r>    1.4260    1.0000 </r>
       <r>    1.4260    1.0000 </r>
       <r>    1.4260    1.0000 </r>
       <r>    4.1198   -0.0000 </r>
       <r>    4.1198   -0.0000 </r>
       <r>   14.2114    0.0000 </r>
       <r>   14.2114    0.0000 </r>
      </set>
      <set comment="kpoint 16">
       <r>   -1.8426    1.0000 </r>
       <r>   -1.8426    1.0000 </r>
       <r>    0.2058    1.0000 </r>
       <r>    0.2058    1.0000 </r>
       <r>    0.4885    1.0000 </r>
       <r>    0.4885    1.0000 </r>
       <r>    0.8370    1.0000 </r>
       <r>    0.8370    1.0000 </r>
       <r>    1.1286    1.0000 </r>
       <r>    1.1286    1.0000 </r>
       <r>    1.3471    1.0000 </r>
       <r>    1.3471    1.0000 </r>
       <r>    5.4309   -0.0000 </r>
       <r>    5.4309   -0.0000 </r>
       <r>   15.0474    0.0000 </r>
       <r>   15.0474    0.0000 </r>
      </set>
      <set comment="kpoint 17">
       <r>   -0.8796    1.0000 </r>
       <r>   -0.8796    1.0000 </r>
       <r>   -0.1336    1.0000 </r>
       <r>   -0.1336    1.0000 </r>
       <r>    0.7303    1.0000 </r>
       <r>    0.7303    1.0000 </r>
       <r>    1.1913    1.0000 </r>
       <r>    1.1913    1.0000 </r>
       <r>    2.0268    1.0000 </r>
       <r>    2.0268    1.0000 </r>
       <r>    2.1382    1.0000 </r>
       <r>    2.1382    1.0000 </r>
       <r>    8.3477   -0.0000 </r>
       <r>    8.3477   -0.0000 </r>
       <r>   14.3843    0.0000 </r>
       <r>   14.3843    0.0000 </r>
      </set>
      <set comment="kpoint 18">
       <r>   -1.0422    1.0000 </r>
       <r>   -1.0422    1.0000 </r>
       <r>   -0.4108    1.0000 </r>
       <r>   -0.4108    1.0000 </r>
       <r>    0.9902    1.0000 </r>
       <r>    0.9902    1.0000 </r>
       <r>    1.1146    1.0000 </r>
       <r>    1.1146    1.0000 </r>
       <r>    2.5253    1.0013 </r>
       <r>    2.5253    1.0013 </r>
       <r>    5.3945   -0.0000 </r>
       <r>    5.3945   -0.0000 </r>
       <r>    9.3211    0.0000 </r>
       <r>    9.3211    0.0000 </r>
       <r>   11.7841    0.0000 </r>
       <r>   11.7841    0.0000 </r>
      </set>
      <set comment="kpoint 19">
       <r>   -0.4587    1.0000 </r>
       <r>   -0.4587    1.0000 </r>
       <r>    0.0857    1.0000 </r>
       <r>    0.0857    1.0000 </r>
       <r>    0.1095    1.0000 </r>
       <r>    0.1095    1.0000 </r>
       <r>    0.8902    1.0000 </r>
       <r>    0.8902    1.0000 </r>
       <r>    1.1338    1.0000 </r>
       <r>    1.1338    1.0000 </r>
       <r>    2.2982    1.0000 </r>
       <r>    2.2982    1.0000 </r>
       <r>    7.4822   -0.0000 </r>
       <r>    7.4822   -0.0000 </r>
       <r>   16.5247    0.0000 </r>
       <r>   16.5247    0.0000 </r>
      </set>
      <set comment="kpoint 20">
       <r>   -0.4709    1.0000 </r>
       <r>   -0.4709    1.0000 </r>
       <r>   -0.1993    1.0000 </r>
       <r>   -0.1993    1.0000 </r>
       <r>    0.8372    1.0000 </r>
       <r>    0.8372    1.0000 </r>
       <r>    0.8696    1.0000 </r>
       <r>    0.8696    1.0000 </r>
       <r>    1.4418    1.0000 </r>
       <r>    1.4418    1.0000 </r>
       <r>    5.4805   -0.0000 </r>
       <r>    5.4805   -0.0000 </r>
       <r>   10.8342    0.0000 </r>
       <r>   10.8342    0.0000 </r>
       <r>   11.9627    0.0000 </r>
       <r>   11.9627    0.0000 </r>
      </set>
      <set comment="kpoint 21">
       <r>    0.2094    1.0000 </r>
       <r>    0.2094    1.0000 </r>
       <r>    0.2106    1.0000 </r>
       <r>    0.2106    1.0000 </r>
       <r>    0.4625    1.0000 </r>
       <r>    0.4625    1.0000 </r>
       <r>    0.4659    1.0000 </r>
       <r>    0.4659    1.0000 </r>
       <r>    0.9673    1.0000 </r>
       <r>    0.9673    1.0000 </r>
       <r>    9.9907    0.0000 </r>
       <r>    9.9907    0.0000 </r>
       <r>   10.0697    0.0000 </r>
       <r>   10.0697    0.0000 </r>
       <r>   11.6068    0.0000 </r>
       <r>   11.6068    0.0000 </r>
      </set>
     </set>
     <set comment="spin 2">
      <set comment="kpoint 1">
       <r>   -2.7767    1.0000 </r>
       <r>   -2.1332    1.0000 </r>
       <r>    1.4949    1.0000 </r>
       <r>    2.1814    1.0000 </r>
       <r>    2.5696    1.0031 </r>
       <r>    2.5696    1.0031 </r>
       <r>    2.5707    1.0032 </r>
       <r>    2.5707    1.0032 </r>
       <r>    2.7044    1.0237 </r>
       <r>    3.8497   -0.0000 </r>
       <r>    3.8497   -0.0000 </r>
       <r>    3.8539   -0.0000 </r>
       <r>    3.8539   -0.0000 </r>
       <r>    6.6996   -0.0000 </r>
       <r>   11.1984    0.0000 </r>
       <r>   18.7858    0.0000 </r>
      </set>
      <set comment="kpoint 2">
       <r>   -1.7827    1.0000 </r>
       <r>   -1.1451    1.0000 </r>
       <r>    1.8494    1.0000 </r>
       <r>    1.9876    1.0000 </r>
       <r>    2.2510    1.0000 </r>
       <r>    2.2675    1.0000 </r>
       <r>    2.9156    0.8867 </r>
       <r>    2.9486    0.7879 </r>
       <r>    3.0269    0.4784 </r>
       <r>    3.0282    0.4730 </r>
       <r>    3.7534   -0.0000 </r>
       <r>    3.7620   -0.0000 </r>
       <r>    4.6751   -0.0000 </r>
       <r>    8.3927   -0.0000 </r>
       <r>   11.7384    0.0000 </r>
       <r>   19.9762    0.0000 </r>
      </set>
      <set comment="kpoint 3">
       <r>    0.1786    1.0000 </r>
       <r>    0.4045    1.0000 </r>
       <r>    1.6266    1.0000 </r>
       <r>    1.9709    1.0000 </r>
       <r>    2.3893    1.0000 </r>
       <r>    2.7647    1.0349 </r>
       <r>    2.8452    1.0083 </r>
       <r>    3.5378   -0.0008 </r>
       <r>    3.5655   -0.0004 </r>
       <r>    3.5808   -0.0003 </r>
       <r>    4.0453   -0.0000 </r>
       <r>    4.0460   -0.0000 </r>
       <r>    7.1704   -0.0000 </r>
       <r>   11.6866    0.0000 </r>
       <r>   13.1942    0.0000 </r>
       <r>   14.7122    0.0000 </r>
      </set>
      <set comment="kpoint 4">
       <r>    0.3522    1.0000 </r>
       <r>    0.3666    1.0000 </r>
       <r>    1.4849    1.0000 </r>
       <r>    1.5985    1.0000 </r>
       <r>    3.1897    0.0005 </r>
       <r>    3.3309   -0.0256 </r>
       <r>    3.4732   -0.0032 </r>
       <r>    3.4912   -0.0022 </r>
       <r>    4.6221   -0.0000 </r>
       <r>    4.6222   -0.0000 </r>
       <r>    5.2647   -0.0000 </r>
       <r>    5.6427   -0.0000 </r>
       <r>   10.0952    0.0000 </r>
       <r>   10.7394    0.0000 </r>
       <r>   10.9641    0.0000 </r>
       <r>   11.8505    0.0000 </r>
      </set>
      <set comment="kpoint 5">
       <r>   -0.0355    1.0000 </r>
       <r>    0.4915    1.0000 </r>
       <r>    1.7654    1.0000 </r>
       <r>    1.7718    1.0000 </r>
       <r>    1.7779    1.0000 </r>
       <r>    2.2683    1.0000 </r>
       <r>    2.4448    1.0002 </r>
       <r>    3.2295   -0.0287 </r>
       <r>    3.4895   -0.0023 </r>
       <r>    3.5012   -0.0018 </r>
       <r>    4.0086   -0.0000 </r>
       <r>    4.1426   -0.0000 </r>
       <r>    6.3904   -0.0000 </r>
       <r>   10.7845    0.0000 </r>
       <r>   12.9137    0.0000 </r>
       <r>   18.5968    0.0000 </r>
      </set>
      <set comment="kpoint 6">
       <r>    0.9490    1.0000 </r>
       <r>    0.9839    1.0000 </r>
       <r>    1.7038    1.0000 </r>
       <r>    1.8709    1.0000 </r>
       <r>    2.6595    1.0140 </r>
       <r>    2.7307    1.0296 </r>
       <r>    3.1260    0.1186 </r>
       <r>    3.1308    0.1064 </r>
       <r>    3.1453    0.0723 </r>
       <r>    3.4550   -0.0045 </r>
       <r>    6.1098   -0.0000 </r>
       <r>    6.7841   -0.0000 </r>
       <r>    9.7607    0.0000 </r>
       <r>   11.9469    0.0000 </r>
       <r>   12.9928    0.0000 </r>
       <r>   13.9721    0.0000 </r>
      </set>
      <set comment="kpoint 7">
       <r>    1.9101    1.0000 </r>
       <r>    1.9410    1.0000 </r>
       <r>    1.9410    1.0000 </r>
       <r>    1.9788    1.0000 </r>
       <r>    2.2685    1.0000 </r>
       <r>    2.3301    1.0000 </r>
       <r>    2.3301    1.0000 </r>
       <r>    2.3967    1.0000 </r>
       <r>    3.3223   -0.0275 </r>
       <r>    3.3223   -0.0275 </r>
       <r>   10.2107    0.0000 </r>
       <r>   10.5086    0.0000 </r>
       <r>   10.5086    0.0000 </r>
       <r>   11.2048    0.0000 </r>
       <r>   12.7969    0.0000 </r>
       <r>   12.7969    0.0000 </r>
      </set>
      <set comment="kpoint 8">
       <r>   -2.6957    1.0000 </r>
       <r>   -2.2436    1.0000 </r>
       <r>    1.5248    1.0000 </r>
       <r>    1.8705    1.0000 </r>
       <r>    2.5696    1.0032 </r>
       <r>    2.5696    1.0032 </r>
       <r>    2.5704    1.0032 </r>
       <r>    2.5704    1.0032 </r>
       <r>    3.3769   -0.0154 </r>
       <r>    3.8502   -0.0000 </r>
       <r>    3.8502   -0.0000 </r>
       <r>    3.8530   -0.0000 </r>
       <r>    3.8530   -0.0000 </r>
       <r>    5.9315   -0.0000 </r>
       <r>   12.2461    0.0000 </r>
       <r>   16.9880    0.0000 </r>
      </set>
      <set comment="kpoint 9">
       <r>   -1.7027    1.0000 </r>
       <r>   -1.2549    1.0000 </r>
       <r>    1.8586    1.0000 </r>
       <r>    1.9479    1.0000 </r>
       <r>    2.2559    1.0000 </r>
       <r>    2.2663    1.0000 </r>
       <r>    2.9295    0.8482 </r>
       <r>    2.9490    0.7867 </r>
       <r>    3.0272    0.4773 </r>
       <r>    3.0280    0.4737 </r>
       <r>    3.7546   -0.0000 </r>
       <r>    3.7608   -0.0000 </r>
       <r>    5.0663   -0.0000 </r>
       <r>    7.4829   -0.0000 </r>
       <r>   12.9561    0.0000 </r>
       <r>   17.9374    0.0000 </r>
      </set>
      <set comment="kpoint 10">
       <r>    0.2108    1.0000 </r>
       <r>    0.3704    1.0000 </r>
       <r>    1.6597    1.0000 </r>
       <r>    1.8813    1.0000 </r>
       <r>    2.5412    1.0018 </r>
       <r>    2.7663    1.0351 </r>
       <r>    2.8530    1.0005 </r>
       <r>    3.3442   -0.0225 </r>
       <r>    3.5677   -0.0004 </r>
       <r>    3.5785   -0.0003 </r>
       <r>    4.0454   -0.0000 </r>
       <r>    4.0459   -0.0000 </r>
       <r>    7.6372   -0.0000 </r>
       <r>   10.3842    0.0000 </r>
       <r>   14.3851    0.0000 </r>
       <r>   14.8739    0.0000 </r>
      </set>
      <set comment="kpoint 11">
       <r>    0.3538    1.0000 </r>
       <r>    0.3642    1.0000 </r>
       <r>    1.4992    1.0000 </r>
       <r>    1.5789    1.0000 </r>
       <r>    3.2193   -0.0238 </r>
       <r>    3.3216   -0.0277 </r>
       <r>    3.4758   -0.0030 </r>
       <r>    3.4887   -0.0024 </r>
       <r>    4.6222   -0.0000 </r>
       <r>    4.6223   -0.0000 </r>
       <r>    5.2990   -0.0000 </r>
       <r>    5.5677   -0.0000 </r>
       <r>   10.0863    0.0000 </r>
       <r>   10.3731    0.0000 </r>
       <r>   11.5517    0.0000 </r>
       <r>   12.0532    0.0000 </r>
      </set>
      <set comment="kpoint 12">
       <r>    0.0314    1.0000 </r>
       <r>    0.4008    1.0000 </r>
       <r>    1.7664    1.0000 </r>
       <r>    1.7706    1.0000 </r>
       <r>    1.8357    1.0000 </r>
       <r>    2.1383    1.0000 </r>
       <r>    2.6045    1.0060 </r>
       <r>    3.1116    0.1592 </r>
       <r>    3.4913   -0.0022 </r>
       <r>    3.4996   -0.0019 </r>
       <r>    4.0146   -0.0000 </r>
       <r>    4.0930   -0.0000 </r>
       <r>    6.8617   -0.0000 </r>
       <r>    9.5848    0.0000 </r>
       <r>   14.3999    0.0000 </r>
       <r>   18.6977    0.0000 </r>
      </set>
      <set comment="kpoint 13">
       <r>    0.9536    1.0000 </r>
       <r>    0.9783    1.0000 </r>
       <r>    1.7237    1.0000 </r>
       <r>    1.8401    1.0000 </r>
       <r>    2.6803    1.0182 </r>
       <r>    2.7276    1.0289 </r>
       <r>    3.1216    0.1304 </r>
       <r>    3.1402    0.0837 </r>
       <r>    3.1829    0.0086 </r>
       <r>    3.4084   -0.0099 </r>
       <r>    6.1697   -0.0000 </r>
       <r>    6.6240   -0.0000 </r>
       <r>   10.2033    0.0000 </r>
       <r>   11.9528    0.0000 </r>
       <r>   12.6908    0.0000 </r>
       <r>   13.2186    0.0000 </r>
      </set>
      <set comment="kpoint 14">
       <r>    1.9179    1.0000 </r>
       <r>    1.9419    1.0000 </r>
       <r>    1.9419    1.0000 </r>
       <r>    1.9654    1.0000 </r>
       <r>    2.2904    1.0000 </r>
       <r>    2.3275    1.0000 </r>
       <r>    2.3275    1.0000 </r>
       <r>    2.3800    1.0000 </r>
       <r>    3.3250   -0.0269 </r>
       <r>    3.3250   -0.0269 </r>
       <r>   10.3217    0.0000 </r>
       <r>   10.5262    0.0000 </r>
       <r>   10.5262    0.0000 </r>
       <r>   11.0067    0.0000 </r>
       <r>   12.4912    0.0000 </r>
       <r>   12.4912    0.0000 </r>
      </set>
      <set comment="kpoint 15">
       <r>   -2.4840    1.0000 </r>
       <r>   -2.4840    1.0000 </r>
       <r>    1.6318    1.0000 </r>
       <r>    1.6318    1.0000 </r>
       <r>    2.5700    1.0032 </r>
       <r>    2.5700    1.0032 </r>
       <r>    2.5700    1.0032 </r>
       <r>    2.5700    1.0032 </r>
       <r>    3.8517   -0.0000 </r>
       <r>    3.8517   -0.0000 </r>
       <r>    3.8517   -0.0000 </r>
       <r>    3.8517   -0.0000 </r>
       <r>    4.5788   -0.0000 </r>
       <r>    4.5788   -0.0000 </r>
       <r>   14.4368    0.0000 </r>
       <r>   14.4368    0.0000 </r>
      </set>
      <set comment="kpoint 16">
       <r>   -1.4933    1.0000 </r>
       <r>   -1.4933    1.0000 </r>
       <r>    1.8905    1.0000 </r>
       <r>    1.8905    1.0000 </r>
       <r>    2.2624    1.0000 </r>
       <r>    2.2624    1.0000 </r>
       <r>    2.9449    0.8003 </r>
       <r>    2.9449    0.8003 </r>
       <r>    3.0277    0.4751 </r>
       <r>    3.0277    0.4751 </r>
       <r>    3.7578   -0.0000 </r>
       <r>    3.7578   -0.0000 </r>
       <r>    6.1034   -0.0000 </r>
       <r>    6.1034   -0.0000 </r>
       <r>   15.2791    0.0000 </r>
       <r>   15.2791    0.0000 </r>
      </set>
      <set comment="kpoint 17">
       <r>    0.2895    1.0000 </r>
       <r>    0.2895    1.0000 </r>
       <r>    1.7512    1.0000 </r>
       <r>    1.7512    1.0000 </r>
       <r>    2.7413    1.0317 </r>
       <r>    2.7413    1.0317 </r>
       <r>    2.9904    0.6310 </r>
       <r>    2.9904    0.6310 </r>
       <r>    3.5730   -0.0003 </r>
       <r>    3.5730   -0.0003 </r>
       <r>    4.0457   -0.0000 </r>
       <r>    4.0457   -0.0000 </r>
       <r>    8.8112    0.0000 </r>
       <r>    8.8112    0.0000 </r>
       <r>   14.9396    0.0000 </r>
       <r>   14.9396    0.0000 </r>
      </set>
      <set comment="kpoint 18">
       <r>    0.3587    1.0000 </r>
       <r>    0.3587    1.0000 </r>
       <r>    1.5365    1.0000 </r>
       <r>    1.5365    1.0000 </r>
       <r>    3.2806   -0.0348 </r>
       <r>    3.2806   -0.0348 </r>
       <r>    3.4823   -0.0027 </r>
       <r>    3.4823   -0.0027 </r>
       <r>    4.6222   -0.0000 </r>
       <r>    4.6222   -0.0000 </r>
       <r>    5.4132   -0.0000 </r>
       <r>    5.4133   -0.0000 </r>
       <r>   10.1447    0.0000 </r>
       <r>   10.1448    0.0000 </r>
       <r>   12.1458    0.0000 </r>
       <r>   12.1458    0.0000 </r>
      </set>
      <set comment="kpoint 19">
       <r>    0.2047    1.0000 </r>
       <r>    0.2047    1.0000 </r>
       <r>    1.7686    1.0000 </r>
       <r>    1.7686    1.0000 </r>
       <r>    1.9714    1.0000 </r>
       <r>    1.9714    1.0000 </r>
       <r>    2.8583    0.9944 </r>
       <r>    2.8583    0.9944 </r>
       <r>    3.4954   -0.0020 </r>
       <r>    3.4954   -0.0020 </r>
       <r>    4.0380   -0.0000 </r>
       <r>    4.0380   -0.0000 </r>
       <r>    8.0318   -0.0000 </r>
       <r>    8.0318   -0.0000 </r>
       <r>   16.8086    0.0000 </r>
       <r>   16.8086    0.0000 </r>
      </set>
      <set comment="kpoint 20">
       <r>    0.9655    1.0000 </r>
       <r>    0.9655    1.0000 </r>
       <r>    1.7768    1.0000 </r>
       <r>    1.7768    1.0000 </r>
       <r>    2.7120    1.0254 </r>
       <r>    2.7120    1.0254 </r>
       <r>    3.1303    0.1075 </r>
       <r>    3.1303    0.1075 </r>
       <r>    3.2947   -0.0330 </r>
       <r>    3.2947   -0.0330 </r>
       <r>    6.3527   -0.0000 </r>
       <r>    6.3527   -0.0000 </r>
       <r>   11.2364    0.0000 </r>
       <r>   11.2364    0.0000 </r>
       <r>   12.5876    0.0000 </r>
       <r>   12.5876    0.0000 </r>
      </set>
      <set comment="kpoint 21">
       <r>    1.9392    1.0000 </r>
       <r>    1.9392    1.0000 </r>
       <r>    1.9429    1.0000 </r>
       <r>    1.9429    1.0000 </r>
       <r>    2.3249    1.0000 </r>
       <r>    2.3249    1.0000 </r>
       <r>    2.3375    1.0000 </r>
       <r>    2.3375    1.0000 </r>
       <r>    3.3275   -0.0264 </r>
       <r>    3.3275   -0.0264 </r>
       <r>   10.5453    0.0000 </r>
       <r>   10.5453    0.0000 </r>
       <r>   10.6250    0.0000 </r>
       <r>   10.6250    0.0000 </r>
       <r>   12.2918    0.0000 </r>
       <r>   12.2918    0.0000 </r>
      </set>
     </set>
    </set>
   </array>
  </eigenvalues>
  <separator name="orbital magnetization" >
   <v name="MAGDIPOLOUT">      0.00000000      0.00000000      0.00000000</v>
  </separator>
  <dos>
   <i name="efermi">      3.02181857 </i>
   <total>
    <array>
     <dimension dim="1">gridpoints</dimension>
     <dimension dim="2">spin</dimension>
     <field>energy</field>
     <field>total</field>
     <field>integrated</field>
     <set>
      <set comment="spin 1">
       <r>    -5.0059     0.0000     0.0000 </r>
       <r>    -4.9159     0.0000     0.0000 </r>
       <r>    -4.8260     0.0000     0.0000 </r>
       <r>    -4.7361     0.0000     0.0000 </r>
       <r>    -4.6461    -0.0000    -0.0000 </r>
       <r>    -4.5562    -0.0000    -0.0000 </r>
       <r>    -4.4662    -0.0000    -0.0000 </r>
       <r>    -4.3763    -0.0000    -0.0000 </r>
       <r>    -4.2864    -0.0000    -0.0000 </r>
       <r>    -4.1964    -0.0000    -0.0000 </r>
       <r>    -4.1065    -0.0000    -0.0000 </r>
       <r>    -4.0165    -0.0000    -0.0000 </r>
       <r>    -3.9266    -0.0000    -0.0000 </r>
       <r>    -3.8367    -0.0000    -0.0000 </r>
       <r>    -3.7467    -0.0000    -0.0000 </r>
       <r>    -3.6568    -0.0000    -0.0000 </r>
       <r>    -3.5668    -0.0000    -0.0000 </r>
       <r>    -3.4769    -0.0002    -0.0000 </r>
       <r>    -3.3870    -0.0011    -0.0001 </r>
       <r>    -3.2970    -0.0034    -0.0004 </r>
       <r>    -3.2071    -0.0033    -0.0007 </r>
       <r>    -3.1171     0.0114     0.0003 </r>
       <r>    -3.0272     0.0480     0.0046 </r>
       <r>    -2.9373     0.0860     0.0124 </r>
       <r>    -2.8473     0.0993     0.0213 </r>
       <r>    -2.7574     0.0955     0.0299 </r>
       <r>    -2.6674     0.0958     0.0385 </r>
       <r>    -2.5775     0.0942     0.0470 </r>
       <r>    -2.4876     0.0678     0.0531 </r>
       <r>    -2.3976     0.0194     0.0548 </r>
       <r>    -2.3077    -0.0228     0.0527 </r>
       <r>    -2.2177    -0.0142     0.0515 </r>
       <r>    -2.1278     0.1179     0.0621 </r>
       <r>    -2.0379     0.3758     0.0959 </r>
       <r>    -1.9479     0.6033     0.1501 </r>
       <r>    -1.8580     0.6876     0.2120 </r>
       <r>    -1.7680     0.6971     0.2747 </r>
       <r>    -1.6781     0.6513     0.3333 </r>
       <r>    -1.5882     0.4620     0.3748 </r>
       <r>    -1.4982     0.1851     0.3915 </r>
       <r>    -1.4083    -0.0085     0.3907 </r>
       <r>    -1.3183    -0.0766     0.3838 </r>
       <r>    -1.2284    -0.0321     0.3809 </r>
       <r>    -1.1384     0.2226     0.4009 </r>
       <r>    -1.0485     0.7490     0.4683 </r>
       <r>    -0.9586     1.3478     0.5895 </r>
       <r>    -0.8686     1.5559     0.7295 </r>
       <r>    -0.7787     1.0471     0.8236 </r>
       <r>    -0.6887     0.4261     0.8620 </r>
       <r>    -0.5988     1.0377     0.9553 </r>
       <r>    -0.5089     3.0301     1.2278 </r>
       <r>    -0.4189     4.4782     1.6306 </r>
       <r>    -0.3290     4.2428     2.0122 </r>
       <r>    -0.2390     3.7155     2.3464 </r>
       <r>    -0.1491     3.7036     2.6795 </r>
       <r>    -0.0592     3.5283     2.9968 </r>
       <r>     0.0308     3.4029     3.3029 </r>
       <r>     0.1207     3.6248     3.6289 </r>
       <r>     0.2107     3.3336     3.9287 </r>
       <r>     0.3006     2.4025     4.1448 </r>
       <r>     0.3905     2.0718     4.3311 </r>
       <r>     0.4805     2.5662     4.5619 </r>
       <r>     0.5704     2.7459     4.8089 </r>
       <r>     0.6604     2.9438     5.0736 </r>
       <r>     0.7503     4.7840     5.5039 </r>
       <r>     0.8402     7.4288     6.1721 </r>
       <r>     0.9302     7.9494     6.8870 </r>
       <r>     1.0201     6.3978     7.4625 </r>
       <r>     1.1101     5.4549     7.9531 </r>
       <r>     1.2000     5.3254     8.4320 </r>
       <r>     1.2899     4.8208     8.8656 </r>
       <r>     1.3799     4.3004     9.2524 </r>
       <r>     1.4698     3.7639     9.5909 </r>
       <r>     1.5598     2.4979     9.8156 </r>
       <r>     1.6497     0.9796     9.9037 </r>
       <r>     1.7396     0.2023     9.9219 </r>
       <r>     1.8296     0.2826     9.9473 </r>
       <r>     1.9195     0.8261    10.0216 </r>
       <r>     2.0095     1.4884    10.1555 </r>
       <r>     2.0994     1.8349    10.3205 </r>
       <r>     2.1893     1.6208    10.4663 </r>
       <r>     2.2793     1.1451    10.5693 </r>
       <r>     2.3692     0.9301    10.6529 </r>
       <r>     2.4592     1.1966    10.7606 </r>
       <r>     2.5491     1.4832    10.8940 </r>
       <r>     2.6390     1.2184    11.0036 </r>
       <r>     2.7290     0.6154    11.0589 </r>
       <r>     2.8189     0.1932    11.0763 </r>
       <r>     2.9089     0.0342    11.0794 </r>
       <r>     2.9988    -0.0087    11.0786 </r>
       <r>     3.0887    -0.0139    11.0773 </r>
       <r>     3.1787    -0.0077    11.0766 </r>
       <r>     3.2686    -0.0034    11.0763 </r>
       <r>     3.3586    -0.0051    11.0759 </r>
       <r>     3.4485    -0.0089    11.0751 </r>
       <r>     3.5384     0.0060    11.0756 </r>
       <r>     3.6284     0.0691    11.0818 </r>
       <r>     3.7183     0.1503    11.0953 </r>
       <r>     3.8083     0.1561    11.1094 </r>
       <r>     3.8982     0.0733    11.1160 </r>
       <r>     3.9881     0.0150    11.1173 </r>
       <r>     4.0781     0.0865    11.1251 </r>
       <r>     4.1680     0.2655    11.1490 </r>
       <r>     4.2580     0.3776    11.1829 </r>
       <r>     4.3479     0.2873    11.2088 </r>
       <r>     4.4378     0.1027    11.2180 </r>
       <r>     4.5278    -0.0034    11.2177 </r>
       <r>     4.6177    -0.0184    11.2161 </r>
       <r>     4.7077    -0.0111    11.2151 </r>
       <r>     4.7976    -0.0192    11.2133 </r>
       <r>     4.8876    -0.0472    11.2091 </r>
       <r>     4.9775    -0.0343    11.2060 </r>
       <r>     5.0674     0.1858    11.2227 </r>
       <r>     5.1574     0.6864    11.2844 </r>
       <r>     5.2473     1.1869    11.3912 </r>
       <r>     5.3373     1.4086    11.5179 </r>
       <r>     5.4272     1.4660    11.6497 </r>
       <r>     5.5171     1.3708    11.7730 </r>
       <r>     5.6071     0.9930    11.8623 </r>
       <r>     5.6970     0.6842    11.9239 </r>
       <r>     5.7870     0.7717    11.9933 </r>
       <r>     5.8769     0.9039    12.0746 </r>
       <r>     5.9668     0.7275    12.1400 </r>
       <r>     6.0568     0.3996    12.1760 </r>
       <r>     6.1467     0.2069    12.1946 </r>
       <r>     6.2367     0.2413    12.2163 </r>
       <r>     6.3266     0.3266    12.2457 </r>
       <r>     6.4165     0.2564    12.2687 </r>
       <r>     6.5065     0.1041    12.2781 </r>
       <r>     6.5964     0.0547    12.2830 </r>
       <r>     6.6864     0.1237    12.2941 </r>
       <r>     6.7763     0.2241    12.3143 </r>
       <r>     6.8662     0.3155    12.3426 </r>
       <r>     6.9562     0.3562    12.3747 </r>
       <r>     7.0461     0.3357    12.4049 </r>
       <r>     7.1361     0.3308    12.4346 </r>
       <r>     7.2260     0.3148    12.4629 </r>
       <r>     7.3159     0.2407    12.4846 </r>
       <r>     7.4059     0.2359    12.5058 </r>
       <r>     7.4958     0.3101    12.5337 </r>
       <r>     7.5858     0.2756    12.5585 </r>
       <r>     7.6757     0.1411    12.5712 </r>
       <r>     7.7656     0.0953    12.5797 </r>
       <r>     7.8556     0.1436    12.5927 </r>
       <r>     7.9455     0.1381    12.6051 </r>
       <r>     8.0355     0.0526    12.6098 </r>
       <r>     8.1254    -0.0014    12.6097 </r>
       <r>     8.2153     0.0721    12.6162 </r>
       <r>     8.3053     0.2462    12.6383 </r>
       <r>     8.3952     0.3417    12.6690 </r>
       <r>     8.4852     0.2408    12.6907 </r>
       <r>     8.5751     0.0708    12.6971 </r>
       <r>     8.6650    -0.0188    12.6954 </r>
       <r>     8.7550    -0.0347    12.6923 </r>
       <r>     8.8449    -0.0031    12.6920 </r>
       <r>     8.9349     0.1132    12.7022 </r>
       <r>     9.0248     0.2884    12.7281 </r>
       <r>     9.1147     0.4066    12.7647 </r>
       <r>     9.2047     0.4625    12.8063 </r>
       <r>     9.2946     0.5378    12.8546 </r>
       <r>     9.3846     0.5700    12.9059 </r>
       <r>     9.4745     0.4459    12.9460 </r>
       <r>     9.5644     0.2624    12.9696 </r>
       <r>     9.6544     0.2650    12.9934 </r>
       <r>     9.7443     0.5999    13.0474 </r>
       <r>     9.8343     1.1330    13.1493 </r>
       <r>     9.9242     1.4365    13.2785 </r>
       <r>    10.0141     1.2413    13.3901 </r>
       <r>    10.1041     0.7680    13.4592 </r>
       <r>    10.1940     0.3581    13.4914 </r>
       <r>    10.2840     0.1497    13.5049 </r>
       <r>    10.3739     0.1302    13.5166 </r>
       <r>    10.4638     0.1721    13.5321 </r>
       <r>    10.5538     0.1450    13.5451 </r>
       <r>    10.6437     0.1252    13.5564 </r>
       <r>    10.7337     0.3056    13.5839 </r>
       <r>    10.8236     0.6134    13.6390 </r>
       <r>    10.9135     0.7087    13.7028 </r>
       <r>    11.0035     0.5327    13.7507 </r>
       <r>    11.0934     0.3491    13.7821 </r>
       <r>    11.1834     0.3475    13.8134 </r>
       <r>    11.2733     0.6323    13.8702 </r>
       <r>    11.3633     1.0185    13.9618 </r>
       <r>    11.4532     1.0359    14.0550 </r>
       <r>    11.5431     0.6677    14.1150 </r>
       <r>    11.6331     0.3837    14.1496 </r>
       <r>    11.7230     0.4273    14.1880 </r>
       <r>    11.8130     0.6659    14.2479 </r>
       <r>    11.9029     0.9454    14.3329 </r>
       <r>    11.9928     1.1993    14.4408 </r>
       <r>    12.0828     1.2497    14.5532 </r>
       <r>    12.1727     0.9625    14.6397 </r>
       <r>    12.2627     0.5612    14.6902 </r>
       <r>    12.3526     0.3208    14.7191 </r>
       <r>    12.4425     0.2220    14.7390 </r>
       <r>    12.5325     0.3135    14.7672 </r>
       <r>    12.6224     0.7284    14.8327 </r>
       <r>    12.7124     1.0985    14.9315 </r>
       <r>    12.8023     0.9311    15.0153 </r>
       <r>    12.8922     0.4532    15.0560 </r>
       <r>    12.9822     0.1713    15.0715 </r>
       <r>    13.0721     0.1081    15.0812 </r>
       <r>    13.1621     0.0665    15.0872 </r>
       <r>    13.2520     0.0711    15.0936 </r>
       <r>    13.3419     0.2039    15.1119 </r>
       <r>    13.4319     0.3304    15.1416 </r>
       <r>    13.5218     0.2688    15.1658 </r>
       <r>    13.6118     0.0892    15.1738 </r>
       <r>    13.7017    -0.0087    15.1730 </r>
       <r>    13.7916     0.0588    15.1783 </r>
       <r>    13.8816     0.2229    15.1984 </r>
       <r>    13.9715     0.3318    15.2282 </r>
       <r>    14.0615     0.3712    15.2616 </r>
       <r>    14.1514     0.4802    15.3048 </r>
       <r>    14.2413     0.6563    15.3638 </r>
       <r>    14.3313     0.7920    15.4350 </r>
       <r>    14.4212     0.7801    15.5052 </r>
       <r>    14.5112     0.5245    15.5524 </r>
       <r>    14.6011     0.1742    15.5680 </r>
       <r>    14.6910    -0.0230    15.5660 </r>
       <r>    14.7810    -0.0527    15.5612 </r>
       <r>    14.8709     0.0097    15.5621 </r>
       <r>    14.9609     0.1613    15.5766 </r>
       <r>    15.0508     0.3196    15.6054 </r>
       <r>    15.1407     0.3121    15.6334 </r>
       <r>    15.2307     0.1509    15.6470 </r>
       <r>    15.3206     0.0174    15.6486 </r>
       <r>    15.4106    -0.0177    15.6470 </r>
       <r>    15.5005    -0.0100    15.6461 </r>
       <r>    15.5904    -0.0025    15.6459 </r>
       <r>    15.6804    -0.0004    15.6458 </r>
       <r>    15.7703    -0.0000    15.6458 </r>
       <r>    15.8603    -0.0000    15.6458 </r>
       <r>    15.9502    -0.0002    15.6458 </r>
       <r>    16.0401    -0.0013    15.6457 </r>
       <r>    16.1301    -0.0066    15.6451 </r>
       <r>    16.2200    -0.0166    15.6436 </r>
       <r>    16.3100    -0.0043    15.6432 </r>
       <r>    16.3999     0.0929    15.6516 </r>
       <r>    16.4898     0.2628    15.6752 </r>
       <r>    16.5798     0.3386    15.7057 </r>
       <r>    16.6697     0.2298    15.7263 </r>
       <r>    16.7597     0.0872    15.7342 </r>
       <r>    16.8496     0.0400    15.7378 </r>
       <r>    16.9395     0.0386    15.7413 </r>
       <r>    17.0295     0.0223    15.7433 </r>
       <r>    17.1194     0.0029    15.7435 </r>
       <r>    17.2094    -0.0033    15.7432 </r>
       <r>    17.2993    -0.0038    15.7429 </r>
       <r>    17.3892    -0.0093    15.7421 </r>
       <r>    17.4792    -0.0178    15.7405 </r>
       <r>    17.5691     0.0091    15.7413 </r>
       <r>    17.6591     0.1316    15.7531 </r>
       <r>    17.7490     0.2985    15.7800 </r>
       <r>    17.8390     0.3269    15.8094 </r>
       <r>    17.9289     0.1737    15.8250 </r>
       <r>    18.0188     0.0132    15.8262 </r>
       <r>    18.1088    -0.0098    15.8253 </r>
       <r>    18.1987     0.1362    15.8375 </r>
       <r>    18.2887     0.3727    15.8711 </r>
       <r>    18.3786     0.4815    15.9144 </r>
       <r>    18.4685     0.3384    15.9448 </r>
       <r>    18.5585     0.1101    15.9547 </r>
       <r>    18.6484    -0.0036    15.9544 </r>
       <r>    18.7384    -0.0035    15.9541 </r>
       <r>    18.8283     0.0199    15.9559 </r>
       <r>    18.9182     0.0213    15.9578 </r>
       <r>    19.0082     0.0085    15.9585 </r>
       <r>    19.0981    -0.0001    15.9585 </r>
       <r>    19.1881    -0.0014    15.9584 </r>
       <r>    19.2780    -0.0006    15.9583 </r>
       <r>    19.3679    -0.0002    15.9583 </r>
       <r>    19.4579    -0.0007    15.9583 </r>
       <r>    19.5478    -0.0033    15.9580 </r>
       <r>    19.6378    -0.0083    15.9572 </r>
       <r>    19.7277    -0.0021    15.9570 </r>
       <r>    19.8176     0.0466    15.9612 </r>
       <r>    19.9076     0.1322    15.9731 </r>
       <r>    19.9975     0.1708    15.9885 </r>
       <r>    20.0875     0.1135    15.9987 </r>
       <r>    20.1774     0.0310    16.0015 </r>
       <r>    20.2673    -0.0061    16.0009 </r>
       <r>    20.3573    -0.0073    16.0003 </r>
       <r>    20.4472    -0.0024    16.0000 </r>
       <r>    20.5372    -0.0004    16.0000 </r>
       <r>    20.6271    -0.0000    16.0000 </r>
       <r>    20.7170    -0.0000    16.0000 </r>
       <r>    20.8070    -0.0000    16.0000 </r>
       <r>    20.8969    -0.0000    16.0000 </r>
       <r>    20.9869    -0.0000    16.0000 </r>
       <r>    21.0768    -0.0000    16.0000 </r>
       <r>    21.1667    -0.0000    16.0000 </r>
       <r>    21.2567     0.0000    16.0000 </r>
       <r>    21.3466     0.0000    16.0000 </r>
       <r>    21.4366     0.0000    16.0000 </r>
       <r>    21.5265     0.0000    16.0000 </r>
       <r>    21.6164     0.0000    16.0000 </r>
       <r>    21.7064     0.0000    16.0000 </r>
       <r>    21.7963     0.0000    16.0000 </r>
       <r>    21.8863     0.0000    16.0000 </r>
       <r>    21.9762     0.0000    16.0000 </r>
      </set>
      <set comment="spin 2">
       <r>    -5.0059     0.0000     0.0000 </r>
       <r>    -4.9159     0.0000     0.0000 </r>
       <r>    -4.8260     0.0000     0.0000 </r>
       <r>    -4.7361     0.0000     0.0000 </r>
       <r>    -4.6461     0.0000     0.0000 </r>
       <r>    -4.5562     0.0000     0.0000 </r>
       <r>    -4.4662    -0.0000    -0.0000 </r>
       <r>    -4.3763    -0.0000    -0.0000 </r>
       <r>    -4.2864    -0.0000    -0.0000 </r>
       <r>    -4.1964    -0.0000    -0.0000 </r>
       <r>    -4.1065    -0.0000    -0.0000 </r>
       <r>    -4.0165    -0.0000    -0.0000 </r>
       <r>    -3.9266    -0.0000    -0.0000 </r>
       <r>    -3.8367    -0.0000    -0.0000 </r>
       <r>    -3.7467    -0.0000    -0.0000 </r>
       <r>    -3.6568    -0.0000    -0.0000 </r>
       <r>    -3.5668    -0.0000    -0.0000 </r>
       <r>    -3.4769    -0.0000    -0.0000 </r>
       <r>    -3.3870    -0.0000    -0.0000 </r>
       <r>    -3.2970    -0.0001    -0.0000 </r>
       <r>    -3.2071    -0.0004    -0.0000 </r>
       <r>    -3.1171    -0.0018    -0.0002 </r>
       <r>    -3.0272    -0.0037    -0.0005 </r>
       <r>    -2.9373     0.0007    -0.0005 </r>
       <r>    -2.8473     0.0234     0.0016 </r>
       <r>    -2.7574     0.0604     0.0071 </r>
       <r>    -2.6674     0.0829     0.0145 </r>
       <r>    -2.5775     0.0786     0.0216 </r>
       <r>    -2.4876     0.0665     0.0276 </r>
       <r>    -2.3976     0.0586     0.0328 </r>
       <r>    -2.3077     0.0606     0.0383 </r>
       <r>    -2.2177     0.0706     0.0446 </r>
       <r>    -2.1278     0.0601     0.0500 </r>
       <r>    -2.0379     0.0203     0.0519 </r>
       <r>    -1.9479     0.0127     0.0530 </r>
       <r>    -1.8580     0.1298     0.0647 </r>
       <r>    -1.7680     0.3506     0.0962 </r>
       <r>    -1.6781     0.4964     0.1409 </r>
       <r>    -1.5882     0.4792     0.1840 </r>
       <r>    -1.4982     0.4056     0.2204 </r>
       <r>    -1.4083     0.3560     0.2525 </r>
       <r>    -1.3183     0.3696     0.2857 </r>
       <r>    -1.2284     0.4404     0.3253 </r>
       <r>    -1.1384     0.4213     0.3632 </r>
       <r>    -1.0485     0.2505     0.3857 </r>
       <r>    -0.9586     0.0697     0.3920 </r>
       <r>    -0.8686    -0.0103     0.3911 </r>
       <r>    -0.7787    -0.0163     0.3896 </r>
       <r>    -0.6887    -0.0064     0.3890 </r>
       <r>    -0.5988    -0.0015     0.3889 </r>
       <r>    -0.5089    -0.0014     0.3888 </r>
       <r>    -0.4189    -0.0066     0.3882 </r>
       <r>    -0.3290    -0.0203     0.3864 </r>
       <r>    -0.2390    -0.0252     0.3841 </r>
       <r>    -0.1491     0.0420     0.3879 </r>
       <r>    -0.0592     0.2288     0.4084 </r>
       <r>     0.0308     0.4871     0.4522 </r>
       <r>     0.1207     0.8156     0.5256 </r>
       <r>     0.2107     1.3344     0.6456 </r>
       <r>     0.3006     1.9476     0.8208 </r>
       <r>     0.3905     2.1647     1.0155 </r>
       <r>     0.4805     1.6194     1.1611 </r>
       <r>     0.5704     0.6636     1.2208 </r>
       <r>     0.6604    -0.0345     1.2177 </r>
       <r>     0.7503    -0.1060     1.2082 </r>
       <r>     0.8402     0.6901     1.2702 </r>
       <r>     0.9302     2.0794     1.4573 </r>
       <r>     1.0201     2.7126     1.7012 </r>
       <r>     1.1101     1.8132     1.8643 </r>
       <r>     1.2000     0.4759     1.9071 </r>
       <r>     1.2899    -0.1531     1.8933 </r>
       <r>     1.3799    -0.1232     1.8823 </r>
       <r>     1.4698     0.2238     1.9024 </r>
       <r>     1.5598     0.9463     1.9875 </r>
       <r>     1.6497     2.4297     2.2060 </r>
       <r>     1.7396     4.6193     2.6215 </r>
       <r>     1.8296     6.2526     3.1839 </r>
       <r>     1.9195     5.9320     3.7174 </r>
       <r>     2.0095     3.9051     4.0686 </r>
       <r>     2.0994     1.9567     4.2446 </r>
       <r>     2.1893     1.5334     4.3825 </r>
       <r>     2.2793     2.1467     4.5756 </r>
       <r>     2.3692     2.2792     4.7806 </r>
       <r>     2.4592     1.7493     4.9379 </r>
       <r>     2.5491     1.7874     5.0987 </r>
       <r>     2.6390     2.9031     5.3598 </r>
       <r>     2.7290     4.0232     5.7216 </r>
       <r>     2.8189     4.1011     6.0905 </r>
       <r>     2.9089     3.7602     6.4287 </r>
       <r>     2.9988     4.2224     6.8084 </r>
       <r>     3.0887     5.3212     7.2870 </r>
       <r>     3.1787     5.7325     7.8026 </r>
       <r>     3.2686     4.9758     8.2501 </r>
       <r>     3.3586     4.1985     8.6278 </r>
       <r>     3.4485     4.2479     9.0098 </r>
       <r>     3.5384     4.3038     9.3969 </r>
       <r>     3.6284     3.4769     9.7096 </r>
       <r>     3.7183     2.3494     9.9209 </r>
       <r>     3.8083     1.7311    10.0766 </r>
       <r>     3.8982     1.6904    10.2287 </r>
       <r>     3.9881     2.1974    10.4263 </r>
       <r>     4.0781     2.6402    10.6638 </r>
       <r>     4.1680     2.0558    10.8487 </r>
       <r>     4.2580     0.8071    10.9212 </r>
       <r>     4.3479    -0.0054    10.9208 </r>
       <r>     4.4378    -0.0830    10.9133 </r>
       <r>     4.5278     0.3052    10.9407 </r>
       <r>     4.6177     0.7721    11.0102 </r>
       <r>     4.7077     0.8426    11.0860 </r>
       <r>     4.7976     0.4628    11.1276 </r>
       <r>     4.8876     0.1140    11.1378 </r>
       <r>     4.9775     0.1072    11.1475 </r>
       <r>     5.0674     0.2757    11.1723 </r>
       <r>     5.1574     0.3589    11.2046 </r>
       <r>     5.2473     0.3522    11.2362 </r>
       <r>     5.3373     0.3568    11.2683 </r>
       <r>     5.4272     0.3575    11.3005 </r>
       <r>     5.5171     0.3321    11.3303 </r>
       <r>     5.6071     0.2881    11.3562 </r>
       <r>     5.6970     0.1905    11.3734 </r>
       <r>     5.7870     0.0513    11.3780 </r>
       <r>     5.8769    -0.0138    11.3767 </r>
       <r>     5.9668     0.1720    11.3922 </r>
       <r>     6.0568     0.6975    11.4549 </r>
       <r>     6.1467     1.2583    11.5681 </r>
       <r>     6.2367     1.4084    11.6948 </r>
       <r>     6.3266     1.1991    11.8026 </r>
       <r>     6.4165     0.9079    11.8843 </r>
       <r>     6.5065     0.6800    11.9455 </r>
       <r>     6.5964     0.6765    12.0063 </r>
       <r>     6.6864     0.8304    12.0810 </r>
       <r>     6.7763     0.8848    12.1606 </r>
       <r>     6.8662     0.7438    12.2275 </r>
       <r>     6.9562     0.4537    12.2683 </r>
       <r>     7.0461     0.1917    12.2855 </r>
       <r>     7.1361     0.1096    12.2954 </r>
       <r>     7.2260     0.1183    12.3060 </r>
       <r>     7.3159     0.1187    12.3167 </r>
       <r>     7.4059     0.1998    12.3347 </r>
       <r>     7.4958     0.3892    12.3697 </r>
       <r>     7.5858     0.5233    12.4167 </r>
       <r>     7.6757     0.4618    12.4583 </r>
       <r>     7.7656     0.2497    12.4807 </r>
       <r>     7.8556     0.0933    12.4891 </r>
       <r>     7.9455     0.1485    12.5025 </r>
       <r>     8.0355     0.2965    12.5291 </r>
       <r>     8.1254     0.2966    12.5558 </r>
       <r>     8.2153     0.1606    12.5703 </r>
       <r>     8.3053     0.0975    12.5790 </r>
       <r>     8.3952     0.1370    12.5914 </r>
       <r>     8.4852     0.1323    12.6033 </r>
       <r>     8.5751     0.0614    12.6088 </r>
       <r>     8.6650     0.0689    12.6150 </r>
       <r>     8.7550     0.2156    12.6344 </r>
       <r>     8.8449     0.3362    12.6646 </r>
       <r>     8.9349     0.2653    12.6885 </r>
       <r>     9.0248     0.0949    12.6970 </r>
       <r>     9.1147    -0.0055    12.6965 </r>
       <r>     9.2047    -0.0250    12.6943 </r>
       <r>     9.2946    -0.0261    12.6919 </r>
       <r>     9.3846    -0.0057    12.6914 </r>
       <r>     9.4745     0.1008    12.7005 </r>
       <r>     9.5644     0.2949    12.7270 </r>
       <r>     9.6544     0.4571    12.7681 </r>
       <r>     9.7443     0.4758    12.8109 </r>
       <r>     9.8343     0.3334    12.8409 </r>
       <r>     9.9242     0.1541    12.8547 </r>
       <r>    10.0141     0.2123    12.8738 </r>
       <r>    10.1041     0.6208    12.9297 </r>
       <r>    10.1940     1.0714    13.0260 </r>
       <r>    10.2840     1.1996    13.1339 </r>
       <r>    10.3739     1.0598    13.2292 </r>
       <r>    10.4638     0.8926    13.3095 </r>
       <r>    10.5538     0.7371    13.3758 </r>
       <r>    10.6437     0.5508    13.4253 </r>
       <r>    10.7337     0.3859    13.4601 </r>
       <r>    10.8236     0.2850    13.4857 </r>
       <r>    10.9135     0.2204    13.5055 </r>
       <r>    11.0035     0.2010    13.5236 </r>
       <r>    11.0934     0.3167    13.5521 </r>
       <r>    11.1834     0.5930    13.6054 </r>
       <r>    11.2733     0.7575    13.6735 </r>
       <r>    11.3633     0.5544    13.7234 </r>
       <r>    11.4532     0.2361    13.7446 </r>
       <r>    11.5431     0.1524    13.7583 </r>
       <r>    11.6331     0.2555    13.7813 </r>
       <r>    11.7230     0.3761    13.8151 </r>
       <r>    11.8130     0.5755    13.8669 </r>
       <r>    11.9029     0.9530    13.9526 </r>
       <r>    11.9928     1.2206    14.0624 </r>
       <r>    12.0828     1.0294    14.1550 </r>
       <r>    12.1727     0.5837    14.2075 </r>
       <r>    12.2627     0.2647    14.2313 </r>
       <r>    12.3526     0.1616    14.2458 </r>
       <r>    12.4425     0.3132    14.2740 </r>
       <r>    12.5325     0.7574    14.3421 </r>
       <r>    12.6224     1.2173    14.4516 </r>
       <r>    12.7124     1.2716    14.5660 </r>
       <r>    12.8023     0.9674    14.6530 </r>
       <r>    12.8922     0.7697    14.7222 </r>
       <r>    12.9822     0.8006    14.7942 </r>
       <r>    13.0721     0.8315    14.8690 </r>
       <r>    13.1621     0.8671    14.9470 </r>
       <r>    13.2520     0.8697    15.0252 </r>
       <r>    13.3419     0.6031    15.0795 </r>
       <r>    13.4319     0.1990    15.0974 </r>
       <r>    13.5218    -0.0212    15.0955 </r>
       <r>    13.6118    -0.0515    15.0908 </r>
       <r>    13.7017    -0.0334    15.0878 </r>
       <r>    13.7916     0.0166    15.0893 </r>
       <r>    13.8816     0.1544    15.1032 </r>
       <r>    13.9715     0.3063    15.1307 </r>
       <r>    14.0615     0.2878    15.1566 </r>
       <r>    14.1514     0.1287    15.1682 </r>
       <r>    14.2413     0.1289    15.1798 </r>
       <r>    14.3313     0.4287    15.2184 </r>
       <r>    14.4212     0.7042    15.2817 </r>
       <r>    14.5112     0.5897    15.3347 </r>
       <r>    14.6011     0.2671    15.3588 </r>
       <r>    14.6910     0.1508    15.3723 </r>
       <r>    14.7810     0.3256    15.4016 </r>
       <r>    14.8709     0.5908    15.4547 </r>
       <r>    14.9609     0.6577    15.5139 </r>
       <r>    15.0508     0.4323    15.5528 </r>
       <r>    15.1407     0.2055    15.5713 </r>
       <r>    15.2307     0.2238    15.5914 </r>
       <r>    15.3206     0.3143    15.6196 </r>
       <r>    15.4106     0.2418    15.6414 </r>
       <r>    15.5005     0.0802    15.6486 </r>
       <r>    15.5904    -0.0076    15.6479 </r>
       <r>    15.6804    -0.0160    15.6465 </r>
       <r>    15.7703    -0.0060    15.6460 </r>
       <r>    15.8603    -0.0012    15.6458 </r>
       <r>    15.9502    -0.0001    15.6458 </r>
       <r>    16.0401    -0.0000    15.6458 </r>
       <r>    16.1301    -0.0000    15.6458 </r>
       <r>    16.2200    -0.0001    15.6458 </r>
       <r>    16.3100    -0.0010    15.6457 </r>
       <r>    16.3999    -0.0053    15.6453 </r>
       <r>    16.4898    -0.0154    15.6439 </r>
       <r>    16.5798    -0.0111    15.6429 </r>
       <r>    16.6697     0.0683    15.6490 </r>
       <r>    16.7597     0.2370    15.6703 </r>
       <r>    16.8496     0.3546    15.7022 </r>
       <r>    16.9395     0.2934    15.7286 </r>
       <r>    17.0295     0.1403    15.7412 </r>
       <r>    17.1194     0.0350    15.7444 </r>
       <r>    17.2094    -0.0023    15.7442 </r>
       <r>    17.2993    -0.0072    15.7435 </r>
       <r>    17.3892    -0.0041    15.7431 </r>
       <r>    17.4792    -0.0034    15.7428 </r>
       <r>    17.5691    -0.0096    15.7420 </r>
       <r>    17.6591    -0.0178    15.7404 </r>
       <r>    17.7490     0.0130    15.7416 </r>
       <r>    17.8390     0.1409    15.7542 </r>
       <r>    17.9289     0.3055    15.7817 </r>
       <r>    18.0188     0.3251    15.8109 </r>
       <r>    18.1088     0.1738    15.8266 </r>
       <r>    18.1987     0.0250    15.8288 </r>
       <r>    18.2887    -0.0305    15.8261 </r>
       <r>    18.3786    -0.0300    15.8234 </r>
       <r>    18.4685     0.0291    15.8260 </r>
       <r>    18.5585     0.1981    15.8438 </r>
       <r>    18.6484     0.4151    15.8812 </r>
       <r>    18.7384     0.4796    15.9243 </r>
       <r>    18.8283     0.3161    15.9527 </r>
       <r>    18.9182     0.0991    15.9616 </r>
       <r>    19.0082    -0.0077    15.9609 </r>
       <r>    19.0981    -0.0193    15.9592 </r>
       <r>    19.1881    -0.0078    15.9585 </r>
       <r>    19.2780    -0.0017    15.9584 </r>
       <r>    19.3679    -0.0003    15.9583 </r>
       <r>    19.4579    -0.0003    15.9583 </r>
       <r>    19.5478    -0.0019    15.9581 </r>
       <r>    19.6378    -0.0065    15.9575 </r>
       <r>    19.7277    -0.0077    15.9569 </r>
       <r>    19.8176     0.0219    15.9588 </r>
       <r>    19.9076     0.1000    15.9678 </r>
       <r>    19.9975     0.1677    15.9829 </r>
       <r>    20.0875     0.1435    15.9958 </r>
       <r>    20.1774     0.0585    16.0011 </r>
       <r>    20.2673     0.0018    16.0012 </r>
       <r>    20.3573    -0.0087    16.0004 </r>
       <r>    20.4472    -0.0040    16.0001 </r>
       <r>    20.5372    -0.0009    16.0000 </r>
       <r>    20.6271    -0.0001    16.0000 </r>
       <r>    20.7170    -0.0000    16.0000 </r>
       <r>    20.8070    -0.0000    16.0000 </r>
       <r>    20.8969    -0.0000    16.0000 </r>
       <r>    20.9869    -0.0000    16.0000 </r>
       <r>    21.0768    -0.0000    16.0000 </r>
       <r>    21.1667    -0.0000    16.0000 </r>
       <r>    21.2567    -0.0000    16.0000 </r>
       <r>    21.3466     0.0000    16.0000 </r>
       <r>    21.4366     0.0000    16.0000 </r>
       <r>    21.5265     0.0000    16.0000 </r>
       <r>    21.6164     0.0000    16.0000 </r>
       <r>    21.7064     0.0000    16.0000 </r>
       <r>    21.7963     0.0000    16.0000 </r>
       <r>    21.8863     0.0000    16.0000 </r>
       <r>    21.9762     0.0000    16.0000 </r>
      </set>
     </set>
    </array>
   </total>
  </dos>
 </calculation>
 <structure name="finalpos" >
  <crystal>
   <varray name="basis" >
    <v>       2.47000000       0.00000000       0.00000000 </v>
    <v>      -1.23500000       2.13908275       0.00000000 </v>
    <v>       0.00000000       0.00000000       8.09000000 </v>
   </varray>
   <i name="volume">     42.74379318 </i>
   <varray name="rec_basis" >
    <v>       0.40485830       0.23374505       0.00000000 </v>
    <v>       0.00000000       0.46749010       0.00000000 </v>
    <v>       0.00000000       0.00000000       0.12360939 </v>
   </varray>
  </crystal>
  <varray name="positions" >
   <v>       0.00000000       0.00000000       0.00000000 </v>
   <v>       0.33333333       0.66666667       0.50000000 </v>
  </varray>
 </structure>
</modeling>
