<?xml version="1.0" encoding="ISO-8859-1"?>
<modeling>
 <generator>
  <i name="program" type="string">vasp </i>
  <i name="version" type="string">6.3.2  </i>
  <i name="subversion" type="string">27Jun22 (build Aug 12 2022 00:53:59) complex                          parallel </i>
  <i name="platform" type="string">tv2STD </i>
  <i name="date" type="string">2024 12 02 </i>
  <i name="time" type="string">16:48:35 </i>
 </generator>
 <incar>
  <i type="string" name="SYSTEM">Co fcc</i>
  <i type="int" name="ISTART">     0</i>
  <i type="string" name="PREC">Accurate      normal | accurate</i>
  <i type="string" name="ALGO">Normal     Normal, Fast, Very_Fast</i>
  <i type="logical" name="ADDGRID"> F  </i>
  <i type="int" name="ISPIN">     2</i>
  <i type="int" name="ICHARG">     2</i>
  <i type="int" name="INIWAV">     1</i>
  <i type="int" name="NELM">   100</i>
  <i type="int" name="IBRION">    -1</i>
  <i name="EDIFF">      0.00000100</i>
  <i name="EDIFFG">     -0.02000000</i>
  <i type="int" name="NSW">     0</i>
  <i type="int" name="ISIF">     2</i>
  <i type="int" name="ISYM">     1</i>
  <i name="ENCUT">    375.00000000</i>
  <v name="MAGMOM">      3.00000000      3.00000000</v>
  <i type="logical" name="LREAL"> F  </i>
  <i type="int" name="ISMEAR">     1</i>
  <i name="SIGMA">      0.20000000</i>
  <i type="int" name="NWRITE">     2</i>
  <i type="logical" name="LWAVE"> F  </i>
  <i type="logical" name="LCHARG"> F  </i>
 </incar>
 <primitive_cell>
  <structure name="primitive_cell" >
   <crystal>
    <varray name="basis" >
     <v>       1.23599995      -2.14081471       0.00000000 </v>
     <v>       1.23599995       2.14081471       0.00000000 </v>
     <v>       0.00000000       0.00000000       4.02114408 </v>
    </varray>
    <i name="volume">     21.28027152 </i>
    <varray name="rec_basis" >
     <v>       0.40453076      -0.23355594       0.00000000 </v>
     <v>       0.40453076       0.23355594       0.00000000 </v>
     <v>       0.00000000       0.00000000       0.24868544 </v>
    </varray>
   </crystal>
   <varray name="positions" >
    <v>       0.33333333       0.66666667       0.25000000 </v>
    <v>       0.66666667       0.33333333       0.75000000 </v>
   </varray>
  </structure>
  <varray name="primitive_index" >
   <v type="int" >        1 </v>
   <v type="int" >        2 </v>
  </varray>
 </primitive_cell>
 <kpoints>
  <generation param="Gamma">
   <v type="int" name="divisions">      10       10        8 </v>
   <v name="usershift">      0.00000000       0.00000000       0.00000000 </v>
   <v name="genvec1">      0.10000000       0.00000000       0.00000000 </v>
   <v name="genvec2">      0.00000000       0.10000000       0.00000000 </v>
   <v name="genvec3">      0.00000000       0.00000000       0.12500000 </v>
   <v name="shift">      0.00000000       0.00000000       0.00000000 </v>
  </generation>
  <varray name="kpointlist" >
   <v>       0.00000000       0.00000000       0.00000000 </v>
   <v>       0.10000000      -0.00000000       0.00000000 </v>
   <v>       0.20000000      -0.00000000       0.00000000 </v>
   <v>       0.30000000       0.00000000       0.00000000 </v>
   <v>       0.40000000       0.00000000       0.00000000 </v>
   <v>       0.50000000       0.00000000       0.00000000 </v>
   <v>       0.10000000       0.10000000       0.00000000 </v>
   <v>       0.20000000       0.10000000       0.00000000 </v>
   <v>       0.30000000       0.10000000       0.00000000 </v>
   <v>       0.40000000       0.10000000       0.00000000 </v>
   <v>       0.20000000       0.20000000       0.00000000 </v>
   <v>       0.30000000       0.20000000       0.00000000 </v>
   <v>       0.40000000       0.20000000       0.00000000 </v>
   <v>       0.30000000       0.30000000       0.00000000 </v>
   <v>       0.00000000       0.00000000       0.12500000 </v>
   <v>       0.10000000      -0.00000000       0.12500000 </v>
   <v>       0.20000000      -0.00000000       0.12500000 </v>
   <v>       0.30000000       0.00000000       0.12500000 </v>
   <v>       0.40000000       0.00000000       0.12500000 </v>
   <v>       0.50000000       0.00000000       0.12500000 </v>
   <v>       0.10000000       0.10000000       0.12500000 </v>
   <v>       0.20000000       0.10000000       0.12500000 </v>
   <v>       0.30000000       0.10000000       0.12500000 </v>
   <v>       0.40000000       0.10000000       0.12500000 </v>
   <v>       0.20000000       0.20000000       0.12500000 </v>
   <v>       0.30000000       0.20000000       0.12500000 </v>
   <v>       0.40000000       0.20000000       0.12500000 </v>
   <v>       0.30000000       0.30000000       0.12500000 </v>
   <v>       0.00000000       0.00000000       0.25000000 </v>
   <v>       0.10000000      -0.00000000       0.25000000 </v>
   <v>       0.20000000      -0.00000000       0.25000000 </v>
   <v>       0.30000000       0.00000000       0.25000000 </v>
   <v>       0.40000000       0.00000000       0.25000000 </v>
   <v>       0.50000000       0.00000000       0.25000000 </v>
   <v>       0.10000000       0.10000000       0.25000000 </v>
   <v>       0.20000000       0.10000000       0.25000000 </v>
   <v>       0.30000000       0.10000000       0.25000000 </v>
   <v>       0.40000000       0.10000000       0.25000000 </v>
   <v>       0.20000000       0.20000000       0.25000000 </v>
   <v>       0.30000000       0.20000000       0.25000000 </v>
   <v>       0.40000000       0.20000000       0.25000000 </v>
   <v>       0.30000000       0.30000000       0.25000000 </v>
   <v>       0.00000000       0.00000000       0.37500000 </v>
   <v>       0.10000000      -0.00000000       0.37500000 </v>
   <v>       0.20000000      -0.00000000       0.37500000 </v>
   <v>       0.30000000       0.00000000       0.37500000 </v>
   <v>       0.40000000       0.00000000       0.37500000 </v>
   <v>       0.50000000       0.00000000       0.37500000 </v>
   <v>       0.10000000       0.10000000       0.37500000 </v>
   <v>       0.20000000       0.10000000       0.37500000 </v>
   <v>       0.30000000       0.10000000       0.37500000 </v>
   <v>       0.40000000       0.10000000       0.37500000 </v>
   <v>       0.20000000       0.20000000       0.37500000 </v>
   <v>       0.30000000       0.20000000       0.37500000 </v>
   <v>       0.40000000       0.20000000       0.37500000 </v>
   <v>       0.30000000       0.30000000       0.37500000 </v>
   <v>       0.00000000       0.00000000       0.50000000 </v>
   <v>       0.10000000      -0.00000000       0.50000000 </v>
   <v>       0.20000000      -0.00000000       0.50000000 </v>
   <v>       0.30000000       0.00000000       0.50000000 </v>
   <v>       0.40000000       0.00000000       0.50000000 </v>
   <v>       0.50000000       0.00000000       0.50000000 </v>
   <v>       0.10000000       0.10000000       0.50000000 </v>
   <v>       0.20000000       0.10000000       0.50000000 </v>
   <v>       0.30000000       0.10000000       0.50000000 </v>
   <v>       0.40000000       0.10000000       0.50000000 </v>
   <v>       0.20000000       0.20000000       0.50000000 </v>
   <v>       0.30000000       0.20000000       0.50000000 </v>
   <v>       0.40000000       0.20000000       0.50000000 </v>
   <v>       0.30000000       0.30000000       0.50000000 </v>
  </varray>
  <varray name="weights" >
   <v>       0.00125000 </v>
   <v>       0.00750000 </v>
   <v>       0.00750000 </v>
   <v>       0.00750000 </v>
   <v>       0.00750000 </v>
   <v>       0.00375000 </v>
   <v>       0.00750000 </v>
   <v>       0.01500000 </v>
   <v>       0.01500000 </v>
   <v>       0.01500000 </v>
   <v>       0.00750000 </v>
   <v>       0.01500000 </v>
   <v>       0.00750000 </v>
   <v>       0.00750000 </v>
   <v>       0.00250000 </v>
   <v>       0.01500000 </v>
   <v>       0.01500000 </v>
   <v>       0.01500000 </v>
   <v>       0.01500000 </v>
   <v>       0.00750000 </v>
   <v>       0.01500000 </v>
   <v>       0.03000000 </v>
   <v>       0.03000000 </v>
   <v>       0.03000000 </v>
   <v>       0.01500000 </v>
   <v>       0.03000000 </v>
   <v>       0.01500000 </v>
   <v>       0.01500000 </v>
   <v>       0.00250000 </v>
   <v>       0.01500000 </v>
   <v>       0.01500000 </v>
   <v>       0.01500000 </v>
   <v>       0.01500000 </v>
   <v>       0.00750000 </v>
   <v>       0.01500000 </v>
   <v>       0.03000000 </v>
   <v>       0.03000000 </v>
   <v>       0.03000000 </v>
   <v>       0.01500000 </v>
   <v>       0.03000000 </v>
   <v>       0.01500000 </v>
   <v>       0.01500000 </v>
   <v>       0.00250000 </v>
   <v>       0.01500000 </v>
   <v>       0.01500000 </v>
   <v>       0.01500000 </v>
   <v>       0.01500000 </v>
   <v>       0.00750000 </v>
   <v>       0.01500000 </v>
   <v>       0.03000000 </v>
   <v>       0.03000000 </v>
   <v>       0.03000000 </v>
   <v>       0.01500000 </v>
   <v>       0.03000000 </v>
   <v>       0.01500000 </v>
   <v>       0.01500000 </v>
   <v>       0.00125000 </v>
   <v>       0.00750000 </v>
   <v>       0.00750000 </v>
   <v>       0.00750000 </v>
   <v>       0.00750000 </v>
   <v>       0.00375000 </v>
   <v>       0.00750000 </v>
   <v>       0.01500000 </v>
   <v>       0.01500000 </v>
   <v>       0.01500000 </v>
   <v>       0.00750000 </v>
   <v>       0.01500000 </v>
   <v>       0.00750000 </v>
   <v>       0.00750000 </v>
  </varray>
 </kpoints>
 <parameters>
  <separator name="general" >
   <i type="string" name="SYSTEM">Co fcc</i>
   <i type="logical" name="LCOMPAT"> F  </i>
  </separator>
  <separator name="electronic" >
   <i type="string" name="PREC">accura</i>
   <i name="ENMAX">    375.00000000</i>
   <i name="ENAUG">    477.81800000</i>
   <i name="EDIFF">      0.00000100</i>
   <i type="int" name="IALGO">    38</i>
   <i type="int" name="IWAVPR">    10</i>
   <i type="int" name="NBANDS">    16</i>
   <i type="int" name="NBANDSLOW">    -1</i>
   <i type="int" name="NBANDSHIGH">    -1</i>
   <i name="NELECT">     18.00000000</i>
   <i type="int" name="TURBO">     0</i>
   <i type="int" name="IRESTART">     0</i>
   <i type="int" name="NREBOOT">     0</i>
   <i type="int" name="NMIN">     0</i>
   <i name="EREF">      0.00000000</i>
   <separator name="electronic smearing" >
    <i type="int" name="ISMEAR">     1</i>
    <i name="SIGMA">      0.20000000</i>
    <i name="KSPACING">      0.50000000</i>
    <i type="logical" name="KGAMMA"> T  </i>
    <i type="logical" name="KBLOWUP"> T  </i>
   </separator>
   <separator name="electronic projectors" >
    <i type="logical" name="LREAL"> F  </i>
    <v name="ROPT">      0.00000000</v>
    <i type="int" name="LMAXPAW">  -100</i>
    <i type="int" name="LMAXMIX">     2</i>
    <i type="logical" name="NLSPLINE"> F  </i>
   </separator>
   <separator name="electronic startup" >
    <i type="int" name="ISTART">     0</i>
    <i type="int" name="ICHARG">     2</i>
    <i type="int" name="INIWAV">     1</i>
   </separator>
   <separator name="electronic spin" >
    <i type="int" name="ISPIN">     2</i>
    <i type="logical" name="LNONCOLLINEAR"> F  </i>
    <v name="MAGMOM">      3.00000000      3.00000000</v>
    <i name="NUPDOWN">     -1.00000000</i>
    <i type="logical" name="LSORBIT"> F  </i>
    <v name="SAXIS">      0.00000000      0.00000000      1.00000000</v>
    <i type="logical" name="LSPIRAL"> F  </i>
    <v name="QSPIRAL">      0.00000000      0.00000000      0.00000000</v>
    <i type="logical" name="LZEROZ"> F  </i>
   </separator>
   <separator name="electronic exchange-correlation" >
    <i type="logical" name="LASPH"> F  </i>
    <i type="logical" name="LMETAGGA"> F  </i>
   </separator>
   <separator name="electronic convergence" >
    <i type="int" name="NELM">   100</i>
    <i type="int" name="NELMDL">    -5</i>
    <i type="int" name="NELMIN">     2</i>
    <i name="ENINI">    375.00000000</i>
    <separator name="electronic convergence detail" >
     <i type="logical" name="LDIAG"> T  </i>
     <i type="logical" name="LSUBROT"> F  </i>
     <i name="WEIMIN">      0.00000000</i>
     <i name="EBREAK">      0.00000002</i>
     <i name="DEPER">      0.30000000</i>
     <i type="int" name="NRMM">     4</i>
     <i name="TIME">      0.40000000</i>
    </separator>
   </separator>
   <separator name="electronic mixer" >
    <i name="AMIX">      0.40000000</i>
    <i name="BMIX">      1.00000000</i>
    <i name="AMIN">      0.10000000</i>
    <i name="AMIX_MAG">      1.60000000</i>
    <i name="BMIX_MAG">      1.00000000</i>
    <separator name="electronic mixer details" >
     <i type="int" name="IMIX">     4</i>
     <i type="logical" name="MIXFIRST"> F  </i>
     <i type="int" name="MAXMIX">   -45</i>
     <i name="WC">    100.00000000</i>
     <i type="int" name="INIMIX">     1</i>
     <i type="int" name="MIXPRE">     1</i>
     <i type="int" name="MREMOVE">     5</i>
    </separator>
   </separator>
   <separator name="electronic dipolcorrection" >
    <i type="logical" name="LDIPOL"> F  </i>
    <i type="logical" name="LMONO"> F  </i>
    <i type="int" name="IDIPOL">     0</i>
    <i name="EPSILON">      1.00000000</i>
    <v name="DIPOL">   -100.00000000   -100.00000000   -100.00000000</v>
    <i name="EFIELD">      0.00000000</i>
   </separator>
  </separator>
  <separator name="grids" >
   <i type="int" name="NGX">    16</i>
   <i type="int" name="NGY">    16</i>
   <i type="int" name="NGZ">    28</i>
   <i type="int" name="NGXF">    32</i>
   <i type="int" name="NGYF">    32</i>
   <i type="int" name="NGZF">    56</i>
   <i type="logical" name="ADDGRID"> F  </i>
  </separator>
  <separator name="ionic" >
   <i type="int" name="NSW">     0</i>
   <i type="int" name="IBRION">    -1</i>
   <i type="int" name="MDALGO">     0</i>
   <i type="int" name="ISIF">     2</i>
   <i name="PSTRESS">      0.00000000</i>
   <i name="EDIFFG">     -0.02000000</i>
   <i type="int" name="NFREE">     0</i>
   <i name="POTIM">      0.50000000</i>
   <i name="SMASS">     -3.00000000</i>
   <i name="SCALEE">      1.00000000</i>
  </separator>
  <separator name="ionic md" >
   <i name="TEBEG">      0.00010000</i>
   <i name="TEEND">      0.00010000</i>
   <i type="int" name="NBLOCK">     1</i>
   <i type="int" name="KBLOCK">     1</i>
   <i type="int" name="NPACO">   256</i>
   <i name="APACO">     10.00000000</i>
  </separator>
  <separator name="symmetry" >
   <i type="int" name="ISYM">     1</i>
   <i name="SYMPREC">      0.00001000</i>
  </separator>
  <separator name="dos" >
   <i type="int" name="LORBIT">     0</i>
   <v name="RWIGS">     -1.00000000</v>
   <i type="int" name="NEDOS">   301</i>
   <i name="EMIN">     10.00000000</i>
   <i name="EMAX">    -10.00000000</i>
   <i name="EFERMI">      0.00000000</i>
  </separator>
  <separator name="writing" >
   <i type="int" name="NWRITE">     2</i>
   <i type="logical" name="LWAVE"> F  </i>
   <i type="logical" name="LDOWNSAMPLE"> F  </i>
   <i type="logical" name="LCHARG"> F  </i>
   <i type="logical" name="LPARD"> F  </i>
   <i type="logical" name="LVTOT"> F  </i>
   <i type="logical" name="LVHAR"> F  </i>
   <i type="logical" name="LELF"> F  </i>
   <i type="logical" name="LOPTICS"> F  </i>
   <v name="STM">      0.00000000      0.00000000      0.00000000      0.00000000      0.00000000      0.00000000      0.00000000</v>
  </separator>
  <separator name="performance" >
   <i type="int" name="NPAR">     4</i>
   <i type="int" name="NSIM">     4</i>
   <i type="int" name="NBLK">    -1</i>
   <i type="logical" name="LPLANE"> T  </i>
   <i type="logical" name="LSCALAPACK"> T  </i>
   <i type="logical" name="LSCAAWARE"> F  </i>
   <i type="logical" name="LSCALU"> F  </i>
   <i type="logical" name="LASYNC"> F  </i>
   <i type="logical" name="LORBITALREAL"> F  </i>
  </separator>
  <separator name="miscellaneous" >
   <i type="int" name="IDIOT">     3</i>
   <i type="int" name="PHON_NSTRUCT">    -1</i>
   <i type="logical" name="LMUSIC"> F  </i>
   <v name="POMASS">     58.93300000</v>
   <v name="DARWINR">      0.00000000</v>
   <v name="DARWINV">      1.00000000</v>
   <i type="logical" name="LCORR"> T  </i>
  </separator>
  <i type="logical" name="GGA_COMPAT"> T  </i>
  <i type="logical" name="LBERRY"> F  </i>
  <i type="int" name="ICORELEVEL">     0</i>
  <i type="logical" name="LDAU"> F  </i>
  <i type="int" name="I_CONSTRAINED_M">     0</i>
  <separator name="electronic exchange-correlation" >
   <i type="string" name="GGA">--</i>
   <i type="int" name="VOSKOWN">     0</i>
   <i type="logical" name="LHFCALC"> F  </i>
   <i type="string" name="PRECFOCK"></i>
   <i type="logical" name="LSYMGRAD"> F  </i>
   <i type="logical" name="LHFONE"> F  </i>
   <i type="logical" name="LRHFCALC"> F  </i>
   <i type="logical" name="LTHOMAS"> F  </i>
   <i type="logical" name="LMODELHF"> F  </i>
   <i type="logical" name="LFOCKACE"> F  </i>
   <i name="ENCUT4O">     -1.00000000</i>
   <i type="int" name="EXXOEP">     0</i>
   <i type="int" name="FOURORBIT">     0</i>
   <i name="AEXX">      0.00000000</i>
   <i name="HFALPHA">      0.00000000</i>
   <i name="MCALPHA">      0.00000000</i>
   <i name="ALDAX">      1.00000000</i>
   <i name="AGGAX">      1.00000000</i>
   <i name="ALDAC">      1.00000000</i>
   <i name="AGGAC">      1.00000000</i>
   <i type="int" name="NKREDX">     1</i>
   <i type="int" name="NKREDY">     1</i>
   <i type="int" name="NKREDZ">     1</i>
   <i type="logical" name="SHIFTRED"> F  </i>
   <i type="logical" name="ODDONLY"> F  </i>
   <i type="logical" name="EVENONLY"> F  </i>
   <i type="int" name="LMAXFOCK">     0</i>
   <i type="int" name="NMAXFOCKAE">     0</i>
   <i type="logical" name="LFOCKAEDFT"> F  </i>
   <i name="HFSCREEN">      0.00000000</i>
   <i name="HFSCREENC">      0.00000000</i>
   <i type="int" name="NBANDSGWLOW">     0</i>
  </separator>
  <separator name="vdW DFT" >
   <i type="logical" name="LUSE_VDW"> F  </i>
   <i name="Zab_VDW">     -0.84910000</i>
   <i name="PARAM1">      0.12340000</i>
   <i name="PARAM2">      1.00000000</i>
   <i name="PARAM3">      0.00000000</i>
  </separator>
  <separator name="model GW" >
   <i type="int" name="MODEL_GW">     0</i>
   <i name="MODEL_EPS0">      6.38408146</i>
   <i name="MODEL_ALPHA">      1.00000000</i>
  </separator>
  <separator name="linear response parameters" >
   <i type="logical" name="LEPSILON"> F  </i>
   <i type="logical" name="LRPA"> F  </i>
   <i type="logical" name="LNABLA"> F  </i>
   <i type="logical" name="LVEL"> F  </i>
   <i name="CSHIFT">      0.10000000</i>
   <i name="OMEGAMAX">     -1.00000000</i>
   <i name="DEG_THRESHOLD">      0.00200000</i>
   <i name="RTIME">     -0.10000000</i>
   <i name="WPLASMAI">      0.00000000</i>
   <v name="DFIELD">      0.00000000      0.00000000      0.00000000</v>
   <v name="WPLASMA">      0.00000000      0.00000000      0.00000000      0.00000000      0.00000000      0.00000000      0.00000000      0.00000000      0.00000000</v>
  </separator>
  <separator name="orbital magnetization" >
   <i type="logical" name="NUCIND"> F  </i>
   <v name="MAGPOS">      0.00000000      0.00000000      0.00000000</v>
   <i type="logical" name="LNICSALL"> T  </i>
   <i type="logical" name="ORBITALMAG"> F  </i>
   <i type="logical" name="LMAGBLOCH"> F  </i>
   <i type="logical" name="LCHIMAG"> F  </i>
   <i type="logical" name="LGAUGE"> T  </i>
   <i type="int" name="MAGATOM">     0</i>
   <v name="MAGDIPOL">      0.00000000      0.00000000      0.00000000</v>
   <v name="AVECCONST">      0.00000000      0.00000000      0.00000000</v>
  </separator>
  <separator name="response functions" >
   <i type="logical" name="LFINITE_TEMPERATURE"> F  </i>
   <i type="logical" name="LADDER"> F  </i>
   <i type="logical" name="LRPAFORCE"> F  </i>
   <i type="logical" name="LFXC"> F  </i>
   <i type="logical" name="LHARTREE"> T  </i>
   <i type="int" name="IBSE">     0</i>
   <v type="int" name="KPOINT">    -1     0     0     0</v>
   <i type="logical" name="LTCTC"> F  </i>
   <i type="logical" name="LTCTE"> F  </i>
   <i type="logical" name="LTETE"> F  </i>
   <i type="logical" name="LTRIPLET"> F  </i>
   <i type="logical" name="LFXCEPS"> F  </i>
   <i type="logical" name="LFXHEG"> F  </i>
   <i type="int" name="NATURALO">     2</i>
   <i type="logical" name="LHOLEGF"> F  </i>
   <i type="logical" name="L2ORDER"> F  </i>
   <i type="logical" name="LDMP1"> F  </i>
   <i type="logical" name="LMP2LT"> F  </i>
   <i type="logical" name="LSMP2LT"> F  </i>
   <i type="logical" name="LGWLF"> F  </i>
   <i name="ENCUTGW">     -2.00000000</i>
   <i name="ENCUTGWSOFT">     -2.00000000</i>
   <i name="ENCUTLF">     -1.00000000</i>
   <i type="logical" name="LESF_SPLINES"> F  </i>
   <i type="int" name="LMAXMP2">    -1</i>
   <i name="SCISSOR">      0.00000000</i>
   <i type="int" name="NOMEGA">     0</i>
   <i type="int" name="NOMEGAR">     0</i>
   <i type="int" name="NBANDSGW">    -1</i>
   <i type="int" name="NBANDSO">    -1</i>
   <i type="int" name="NBANDSV">    -1</i>
   <i type="int" name="NELMGW">     1</i>
   <i type="int" name="NELMHF">     1</i>
   <i type="int" name="DIM">     3</i>
   <i type="int" name="IESPILON">     4</i>
   <i type="int" name="ANTIRES">     0</i>
   <i name="OMEGAMAX">    -30.00000000</i>
   <i name="OMEGAMIN">    -30.00000000</i>
   <i name="OMEGATL">   -200.00000000</i>
   <i type="int" name="OMEGAGRID">     0</i>
   <i name="CSHIFT">     -0.10000000</i>
   <i type="logical" name="LSELFENERGY"> F  </i>
   <i type="logical" name="LSPECTRAL"> F  </i>
   <i type="logical" name="LSPECTRALGW"> F  </i>
   <i type="logical" name="LSINGLES"> F  </i>
   <i type="logical" name="LFERMIGW"> F  </i>
   <i type="logical" name="ODDONLYGW"> F  </i>
   <i type="logical" name="EVENONLYGW"> F  </i>
   <i type="int" name="NKREDLFX">     1</i>
   <i type="int" name="NKREDLFY">     1</i>
   <i type="int" name="NKREDLFZ">     1</i>
   <i type="int" name="MAXMEM">  2800</i>
   <i type="int" name="TELESCOPE">     0</i>
   <i type="int" name="NTAUPAR">    -1</i>
   <i type="int" name="NOMEGAPAR">    -1</i>
   <i name="DAMP_NEWTON">      0.80000001</i>
   <i name="LAMBDA">      1.00000000</i>
  </separator>
  <separator name="External order field" >
   <i name="OFIELD_KAPPA">      0.00000000</i>
   <v name="OFIELD_K">      0.00000000      0.00000000      0.00000000</v>
   <i name="OFIELD_Q6_NEAR">      0.00000000</i>
   <i name="OFIELD_Q6_FAR">      0.00000000</i>
   <i name="OFIELD_A">      0.00000000</i>
  </separator>
  <separator name="optional k-points parameters" >
   <i type="int" name="KPOINTS_OPT_MODE">     1</i>
   <i type="logical" name="LKPOINTS_OPT"> F  </i>
  </separator>
 </parameters>
 <atominfo>
  <atoms>       2 </atoms>
  <types>       1 </types>
  <array name="atoms" >
   <dimension dim="1">ion</dimension>
   <field type="string">element</field>
   <field type="int">atomtype</field>
   <set>
    <rc><c>Co</c><c>   1</c></rc>
    <rc><c>Co</c><c>   1</c></rc>
   </set>
  </array>
  <array name="atomtypes" >
   <dimension dim="1">type</dimension>
   <field type="int">atomspertype</field>
   <field type="string">element</field>
   <field>mass</field>
   <field>valence</field>
   <field type="string">pseudopotential</field>
   <set>
    <rc><c>   2</c><c>Co</c><c>     58.93300000</c><c>      9.00000000</c><c>  PAW_PBE Co 02Aug2007                  </c></rc>
   </set>
  </array>
 </atominfo>
 <structure name="initialpos" >
  <crystal>
   <varray name="basis" >
    <v>       1.23599995      -2.14081471       0.00000000 </v>
    <v>       1.23599995       2.14081471       0.00000000 </v>
    <v>       0.00000000       0.00000000       4.02114408 </v>
   </varray>
   <i name="volume">     21.28027152 </i>
   <varray name="rec_basis" >
    <v>       0.40453076      -0.23355594       0.00000000 </v>
    <v>       0.40453076       0.23355594       0.00000000 </v>
    <v>       0.00000000       0.00000000       0.24868544 </v>
   </varray>
  </crystal>
  <varray name="positions" >
   <v>       0.33333333       0.66666667       0.25000000 </v>
   <v>       0.66666667       0.33333333       0.75000000 </v>
  </varray>
 </structure>
 <calculation>
  <scstep>
   <time name="dav">    0.41    0.41</time>
   <time name="total">    0.42    0.42</time>
   <energy>
    <i name="alphaZ">     79.61870385 </i>
    <i name="ewald">  -1531.60263765 </i>
    <i name="hartreedc">   -295.86427829 </i>
    <i name="XCdc">     35.75670985 </i>
    <i name="pawpsdc">   1439.98163886 </i>
    <i name="pawaedc">  -1545.88690193 </i>
    <i name="eentropy">     -0.00057313 </i>
    <i name="bandstr">    255.92182283 </i>
    <i name="atom">   1626.70414741 </i>
    <i name="e_fr_energy">     64.62863180 </i>
    <i name="e_wo_entrp">     64.62920492 </i>
    <i name="e_0_energy">     64.62882284 </i>
   </energy>
  </scstep>
  <scstep>
   <time name="dav">    0.39    0.39</time>
   <time name="total">    0.39    0.39</time>
   <energy>
    <i name="e_fr_energy">    -13.92296860 </i>
    <i name="e_wo_entrp">    -13.92422845 </i>
    <i name="e_0_energy">    -13.92338855 </i>
   </energy>
  </scstep>
  <scstep>
   <time name="dav">    0.47    0.47</time>
   <time name="total">    0.47    0.47</time>
   <energy>
    <i name="e_fr_energy">    -15.57925525 </i>
    <i name="e_wo_entrp">    -15.57961882 </i>
    <i name="e_0_energy">    -15.57937644 </i>
   </energy>
  </scstep>
  <scstep>
   <time name="dav">    0.53    0.53</time>
   <time name="total">    0.53    0.53</time>
   <energy>
    <i name="e_fr_energy">    -15.60714724 </i>
    <i name="e_wo_entrp">    -15.60749099 </i>
    <i name="e_0_energy">    -15.60726182 </i>
   </energy>
  </scstep>
  <scstep>
   <time name="dav">    0.47    0.47</time>
   <time name="total">    0.49    0.50</time>
   <energy>
    <i name="e_fr_energy">    -15.60736775 </i>
    <i name="e_wo_entrp">    -15.60771137 </i>
    <i name="e_0_energy">    -15.60748229 </i>
   </energy>
  </scstep>
  <scstep>
   <time name="dav">    0.40    0.41</time>
   <time name="total">    0.44    0.44</time>
   <energy>
    <i name="e_fr_energy">    -14.41585348 </i>
    <i name="e_wo_entrp">    -14.41502475 </i>
    <i name="e_0_energy">    -14.41557724 </i>
   </energy>
  </scstep>
  <scstep>
   <time name="dav">    0.43    0.43</time>
   <time name="total">    0.46    0.46</time>
   <energy>
    <i name="e_fr_energy">    -14.10760633 </i>
    <i name="e_wo_entrp">    -14.10744802 </i>
    <i name="e_0_energy">    -14.10755356 </i>
   </energy>
  </scstep>
  <scstep>
   <time name="dav">    0.51    0.52</time>
   <time name="total">    0.55    0.55</time>
   <energy>
    <i name="e_fr_energy">    -14.08421211 </i>
    <i name="e_wo_entrp">    -14.08431651 </i>
    <i name="e_0_energy">    -14.08424691 </i>
   </energy>
  </scstep>
  <scstep>
   <time name="dav">    0.53    0.54</time>
   <time name="total">    0.57    0.57</time>
   <energy>
    <i name="e_fr_energy">    -14.06946121 </i>
    <i name="e_wo_entrp">    -14.06983300 </i>
    <i name="e_0_energy">    -14.06958514 </i>
   </energy>
  </scstep>
  <scstep>
   <time name="dav">    0.51    0.51</time>
   <time name="total">    0.54    0.54</time>
   <energy>
    <i name="e_fr_energy">    -14.06883974 </i>
    <i name="e_wo_entrp">    -14.06921412 </i>
    <i name="e_0_energy">    -14.06896453 </i>
   </energy>
  </scstep>
  <scstep>
   <time name="dav">    0.53    0.53</time>
   <time name="total">    0.56    0.57</time>
   <energy>
    <i name="e_fr_energy">    -14.06886275 </i>
    <i name="e_wo_entrp">    -14.06917741 </i>
    <i name="e_0_energy">    -14.06896764 </i>
   </energy>
  </scstep>
  <scstep>
   <time name="dav">    0.40    0.41</time>
   <time name="total">    0.44    0.44</time>
   <energy>
    <i name="e_fr_energy">    -14.06885952 </i>
    <i name="e_wo_entrp">    -14.06917338 </i>
    <i name="e_0_energy">    -14.06896414 </i>
   </energy>
  </scstep>
  <scstep>
   <time name="dav">    0.31    0.31</time>
   <time name="total">    0.32    0.33</time>
   <energy>
    <i name="alphaZ">     79.61870385 </i>
    <i name="ewald">  -1531.60263765 </i>
    <i name="hartreedc">   -260.36019070 </i>
    <i name="XCdc">     33.00474131 </i>
    <i name="pawpsdc">   1829.35680689 </i>
    <i name="pawaedc">  -1935.68244385 </i>
    <i name="eentropy">      0.00030884 </i>
    <i name="bandstr">    144.89170469 </i>
    <i name="atom">   1626.70414741 </i>
    <i name="e_fr_energy">    -14.06885923 </i>
    <i name="e_wo_entrp">    -14.06916806 </i>
    <i name="e_0_energy">    -14.06896217 </i>
   </energy>
  </scstep>
  <structure>
   <crystal>
    <varray name="basis" >
     <v>       1.23599995      -2.14081471       0.00000000 </v>
     <v>       1.23599995       2.14081471       0.00000000 </v>
     <v>       0.00000000       0.00000000       4.02114408 </v>
    </varray>
    <i name="volume">     21.28027152 </i>
    <varray name="rec_basis" >
     <v>       0.40453076      -0.23355594       0.00000000 </v>
     <v>       0.40453076       0.23355594       0.00000000 </v>
     <v>       0.00000000       0.00000000       0.24868544 </v>
    </varray>
   </crystal>
   <varray name="positions" >
    <v>       0.33333333       0.66666667       0.25000000 </v>
    <v>       0.66666667       0.33333333       0.75000000 </v>
   </varray>
  </structure>
  <varray name="forces" >
   <v>       0.00000000       0.00000000      -0.00000000 </v>
   <v>      -0.00000000      -0.00000000       0.00000000 </v>
  </varray>
  <varray name="stress" >
   <v>      48.50614895       0.00000000       0.00000000 </v>
   <v>       0.00000000      48.50614895      -0.00000000 </v>
   <v>       0.00000000      -0.00000000      29.60977618 </v>
  </varray>
  <energy>
   <i name="e_fr_energy">    -14.06885923 </i>
   <i name="e_wo_entrp">    -14.06916806 </i>
   <i name="e_0_energy">    -14.06896217 </i>
  </energy>
  <time name="totalsc">    6.28    6.32</time>
  <eigenvalues>
   <array>
    <dimension dim="1">band</dimension>
    <dimension dim="2">kpoint</dimension>
    <dimension dim="3">spin</dimension>
    <field>eigene</field>
    <field>occ</field>
    <set>
     <set comment="spin 1">
      <set comment="kpoint 1">
       <r>    1.5009    1.0000 </r>
       <r>    5.2831    1.0000 </r>
       <r>    7.8307    1.0000 </r>
       <r>    7.8891    1.0000 </r>
       <r>    7.8891    1.0000 </r>
       <r>    8.2030    1.0000 </r>
       <r>    8.2030    1.0000 </r>
       <r>    8.5793    1.0000 </r>
       <r>    8.5793    1.0000 </r>
       <r>    9.6877    1.0000 </r>
       <r>    9.6877    1.0000 </r>
       <r>   10.3741    0.9206 </r>
       <r>   16.9510    0.0000 </r>
       <r>   32.7546    0.0000 </r>
       <r>   35.5491    0.0000 </r>
       <r>   35.5492    0.0000 </r>
      </set>
      <set comment="kpoint 2">
       <r>    1.8565    1.0000 </r>
       <r>    5.4949    1.0000 </r>
       <r>    7.5850    1.0000 </r>
       <r>    8.0562    1.0000 </r>
       <r>    8.0650    1.0000 </r>
       <r>    8.1540    1.0000 </r>
       <r>    8.3092    1.0000 </r>
       <r>    8.3513    1.0000 </r>
       <r>    8.4771    1.0000 </r>
       <r>    8.7638    1.0000 </r>
       <r>    9.7292    1.0000 </r>
       <r>   11.8050   -0.0000 </r>
       <r>   17.0126    0.0000 </r>
       <r>   30.2307    0.0000 </r>
       <r>   32.8714    0.0000 </r>
       <r>   33.0922    0.0000 </r>
      </set>
      <set comment="kpoint 3">
       <r>    2.8629    1.0000 </r>
       <r>    5.9538    1.0000 </r>
       <r>    7.2729    1.0000 </r>
       <r>    7.3510    1.0000 </r>
       <r>    7.9120    1.0000 </r>
       <r>    8.2427    1.0000 </r>
       <r>    8.4350    1.0000 </r>
       <r>    8.5096    1.0000 </r>
       <r>    8.5148    1.0000 </r>
       <r>    8.7547    1.0000 </r>
       <r>    9.8070    1.0000 </r>
       <r>   13.8264   -0.0000 </r>
       <r>   17.2387    0.0000 </r>
       <r>   25.5892    0.0000 </r>
       <r>   30.0540    0.0000 </r>
       <r>   31.9370    0.0000 </r>
      </set>
      <set comment="kpoint 4">
       <r>    4.2623    1.0000 </r>
       <r>    6.0796    1.0000 </r>
       <r>    6.5781    1.0000 </r>
       <r>    7.2526    1.0000 </r>
       <r>    7.9195    1.0000 </r>
       <r>    7.9911    1.0000 </r>
       <r>    8.1941    1.0000 </r>
       <r>    9.1269    1.0000 </r>
       <r>    9.1878    1.0000 </r>
       <r>    9.2905    1.0000 </r>
       <r>    9.8675    1.0000 </r>
       <r>   16.1173    0.0000 </r>
       <r>   17.5940    0.0000 </r>
       <r>   21.4235    0.0000 </r>
       <r>   27.7647    0.0000 </r>
       <r>   28.8739    0.0000 </r>
      </set>
      <set comment="kpoint 5">
       <r>    5.3483    1.0000 </r>
       <r>    5.8583    1.0000 </r>
       <r>    6.1136    1.0000 </r>
       <r>    7.6348    1.0000 </r>
       <r>    7.8069    1.0000 </r>
       <r>    8.0115    1.0000 </r>
       <r>    8.1757    1.0000 </r>
       <r>    9.6480    1.0000 </r>
       <r>    9.7813    1.0000 </r>
       <r>    9.8992    1.0001 </r>
       <r>   10.4023    0.8475 </r>
       <r>   16.1883    0.0000 </r>
       <r>   18.5772    0.0000 </r>
       <r>   20.1282    0.0000 </r>
       <r>   25.4571    0.0000 </r>
       <r>   26.2186    0.0000 </r>
      </set>
      <set comment="kpoint 6">
       <r>    5.6646    1.0000 </r>
       <r>    5.7070    1.0000 </r>
       <r>    5.9594    1.0000 </r>
       <r>    7.7399    1.0000 </r>
       <r>    7.9431    1.0000 </r>
       <r>    7.9834    1.0000 </r>
       <r>    8.2874    1.0000 </r>
       <r>    9.8455    1.0000 </r>
       <r>    9.9084    1.0001 </r>
       <r>    9.9939    1.0011 </r>
       <r>   11.8794   -0.0000 </r>
       <r>   13.9478   -0.0000 </r>
       <r>   20.3232    0.0000 </r>
       <r>   21.0027    0.0000 </r>
       <r>   23.3976    0.0000 </r>
       <r>   24.6979    0.0000 </r>
      </set>
      <set comment="kpoint 7">
       <r>    2.5405    1.0000 </r>
       <r>    5.8498    1.0000 </r>
       <r>    7.3087    1.0000 </r>
       <r>    7.6382    1.0000 </r>
       <r>    7.9952    1.0000 </r>
       <r>    8.1943    1.0000 </r>
       <r>    8.2785    1.0000 </r>
       <r>    8.3974    1.0000 </r>
       <r>    8.5990    1.0000 </r>
       <r>    8.6865    1.0000 </r>
       <r>    9.7699    1.0000 </r>
       <r>   13.2604   -0.0000 </r>
       <r>   17.1628    0.0000 </r>
       <r>   27.7602    0.0000 </r>
       <r>   28.4463    0.0000 </r>
       <r>   34.6102    0.0000 </r>
      </set>
      <set comment="kpoint 8">
       <r>    3.7754    1.0000 </r>
       <r>    6.2294    1.0000 </r>
       <r>    6.8623    1.0000 </r>
       <r>    7.0285    1.0000 </r>
       <r>    7.8978    1.0000 </r>
       <r>    7.9191    1.0000 </r>
       <r>    8.4039    1.0000 </r>
       <r>    8.6317    1.0000 </r>
       <r>    8.9826    1.0000 </r>
       <r>    9.3011    1.0000 </r>
       <r>    9.8111    1.0000 </r>
       <r>   15.2990   -0.0000 </r>
       <r>   17.5454    0.0000 </r>
       <r>   23.5096    0.0000 </r>
       <r>   26.1503    0.0000 </r>
       <r>   30.9026    0.0000 </r>
      </set>
      <set comment="kpoint 9">
       <r>    5.1154    1.0000 </r>
       <r>    6.1090    1.0000 </r>
       <r>    6.3107    1.0000 </r>
       <r>    7.1802    1.0000 </r>
       <r>    7.7416    1.0000 </r>
       <r>    8.0643    1.0000 </r>
       <r>    8.1470    1.0000 </r>
       <r>    9.1980    1.0000 </r>
       <r>    9.5567    1.0000 </r>
       <r>    9.8390    1.0000 </r>
       <r>   10.1867    1.0259 </r>
       <r>   17.6115    0.0000 </r>
       <r>   17.6526    0.0000 </r>
       <r>   20.2373    0.0000 </r>
       <r>   24.5552    0.0000 </r>
       <r>   27.2750    0.0000 </r>
      </set>
      <set comment="kpoint 10">
       <r>    5.7510    1.0000 </r>
       <r>    5.9004    1.0000 </r>
       <r>    6.0326    1.0000 </r>
       <r>    7.6367    1.0000 </r>
       <r>    7.6863    1.0000 </r>
       <r>    7.9432    1.0000 </r>
       <r>    8.2823    1.0000 </r>
       <r>    9.7290    1.0000 </r>
       <r>    9.8506    1.0000 </r>
       <r>    9.8569    1.0000 </r>
       <r>   11.6751   -0.0000 </r>
       <r>   15.0226   -0.0000 </r>
       <r>   20.0543    0.0000 </r>
       <r>   20.8643    0.0000 </r>
       <r>   23.5206    0.0000 </r>
       <r>   24.2394    0.0000 </r>
      </set>
      <set comment="kpoint 11">
       <r>    5.0484    1.0000 </r>
       <r>    6.4383    1.0000 </r>
       <r>    6.5105    1.0000 </r>
       <r>    6.6782    1.0000 </r>
       <r>    7.6411    1.0000 </r>
       <r>    8.0286    1.0000 </r>
       <r>    8.2437    1.0000 </r>
       <r>    8.8360    1.0000 </r>
       <r>    9.5598    1.0000 </r>
       <r>    9.7803    1.0000 </r>
       <r>   10.2236    1.0333 </r>
       <r>   17.3452    0.0000 </r>
       <r>   18.1911    0.0000 </r>
       <r>   21.6018    0.0000 </r>
       <r>   22.2156    0.0000 </r>
       <r>   29.2986    0.0000 </r>
      </set>
      <set comment="kpoint 12">
       <r>    6.0197    1.0000 </r>
       <r>    6.1704    1.0000 </r>
       <r>    6.3061    1.0000 </r>
       <r>    6.9343    1.0000 </r>
       <r>    7.5475    1.0000 </r>
       <r>    7.9795    1.0000 </r>
       <r>    8.2819    1.0000 </r>
       <r>    9.2359    1.0000 </r>
       <r>    9.7537    1.0000 </r>
       <r>    9.8552    1.0000 </r>
       <r>   11.6351   -0.0000 </r>
       <r>   17.2279    0.0000 </r>
       <r>   19.7471    0.0000 </r>
       <r>   19.9534    0.0000 </r>
       <r>   21.3034    0.0000 </r>
       <r>   26.1860    0.0000 </r>
      </set>
      <set comment="kpoint 13">
       <r>    6.0804    1.0000 </r>
       <r>    6.1879    1.0000 </r>
       <r>    6.2164    1.0000 </r>
       <r>    7.2416    1.0000 </r>
       <r>    7.5833    1.0000 </r>
       <r>    7.8060    1.0000 </r>
       <r>    8.4080    1.0000 </r>
       <r>    9.5923    1.0000 </r>
       <r>    9.7435    1.0000 </r>
       <r>    9.7951    1.0000 </r>
       <r>   13.3422   -0.0000 </r>
       <r>   14.7744   -0.0000 </r>
       <r>   19.9726    0.0000 </r>
       <r>   21.6778    0.0000 </r>
       <r>   21.9982    0.0000 </r>
       <r>   23.9270    0.0000 </r>
      </set>
      <set comment="kpoint 14">
       <r>    6.1321    1.0000 </r>
       <r>    6.4209    1.0000 </r>
       <r>    6.5797    1.0000 </r>
       <r>    6.8126    1.0000 </r>
       <r>    7.5359    1.0000 </r>
       <r>    7.7325    1.0000 </r>
       <r>    8.5039    1.0000 </r>
       <r>    9.4203    1.0000 </r>
       <r>    9.6904    1.0000 </r>
       <r>    9.7488    1.0000 </r>
       <r>   13.7665   -0.0000 </r>
       <r>   16.7927    0.0000 </r>
       <r>   16.8270    0.0000 </r>
       <r>   22.2264    0.0000 </r>
       <r>   22.4853    0.0000 </r>
       <r>   25.1078    0.0000 </r>
      </set>
      <set comment="kpoint 15">
       <r>    1.6596    1.0000 </r>
       <r>    5.2522    1.0000 </r>
       <r>    7.7903    1.0000 </r>
       <r>    7.8487    1.0000 </r>
       <r>    7.8487    1.0000 </r>
       <r>    8.1606    1.0000 </r>
       <r>    8.1606    1.0000 </r>
       <r>    8.6755    1.0000 </r>
       <r>    8.6755    1.0000 </r>
       <r>    9.6784    1.0000 </r>
       <r>    9.6784    1.0000 </r>
       <r>    9.7644    1.0000 </r>
       <r>   17.8721    0.0000 </r>
       <r>   32.6802    0.0000 </r>
       <r>   34.7623    0.0000 </r>
       <r>   35.5641    0.0000 </r>
      </set>
      <set comment="kpoint 16">
       <r>    2.0115    1.0000 </r>
       <r>    5.4762    1.0000 </r>
       <r>    7.5891    1.0000 </r>
       <r>    7.9518    1.0000 </r>
       <r>    7.9851    1.0000 </r>
       <r>    7.9976    1.0000 </r>
       <r>    8.3012    1.0000 </r>
       <r>    8.4384    1.0000 </r>
       <r>    8.6033    1.0000 </r>
       <r>    8.7442    1.0000 </r>
       <r>    9.7142    1.0000 </r>
       <r>   11.2443   -0.0000 </r>
       <r>   18.0064    0.0000 </r>
       <r>   30.3267    0.0000 </r>
       <r>   33.0298    0.0000 </r>
       <r>   33.0329    0.0000 </r>
      </set>
      <set comment="kpoint 17">
       <r>    3.0023    1.0000 </r>
       <r>    5.9697    1.0000 </r>
       <r>    7.2141    1.0000 </r>
       <r>    7.3074    1.0000 </r>
       <r>    7.8426    1.0000 </r>
       <r>    8.2036    1.0000 </r>
       <r>    8.2994    1.0000 </r>
       <r>    8.5933    1.0000 </r>
       <r>    8.7088    1.0000 </r>
       <r>    8.7370    1.0000 </r>
       <r>    9.7802    1.0000 </r>
       <r>   12.9338   -0.0000 </r>
       <r>   18.4734    0.0000 </r>
       <r>   25.7244    0.0000 </r>
       <r>   30.2456    0.0000 </r>
       <r>   31.2120    0.0000 </r>
      </set>
      <set comment="kpoint 18">
       <r>    4.3499    1.0000 </r>
       <r>    6.1126    1.0000 </r>
       <r>    6.5511    1.0000 </r>
       <r>    7.2300    1.0000 </r>
       <r>    7.8279    1.0000 </r>
       <r>    8.0354    1.0000 </r>
       <r>    8.3341    1.0000 </r>
       <r>    9.1460    1.0000 </r>
       <r>    9.1821    1.0000 </r>
       <r>    9.2451    1.0000 </r>
       <r>    9.8338    1.0000 </r>
       <r>   14.6516   -0.0000 </r>
       <r>   19.2679    0.0000 </r>
       <r>   21.5967    0.0000 </r>
       <r>   27.6489    0.0000 </r>
       <r>   27.9843    0.0000 </r>
      </set>
      <set comment="kpoint 19">
       <r>    5.2937    1.0000 </r>
       <r>    5.8512    1.0000 </r>
       <r>    6.2970    1.0000 </r>
       <r>    7.2248    1.0000 </r>
       <r>    7.8701    1.0000 </r>
       <r>    8.1701    1.0000 </r>
       <r>    8.5409    1.0000 </r>
       <r>    9.6476    1.0000 </r>
       <r>    9.6971    1.0000 </r>
       <r>    9.8938    1.0001 </r>
       <r>   10.3173    1.0088 </r>
       <r>   15.4752   -0.0000 </r>
       <r>   18.3692    0.0000 </r>
       <r>   21.0852    0.0000 </r>
       <r>   24.5368    0.0000 </r>
       <r>   26.4586    0.0000 </r>
      </set>
      <set comment="kpoint 20">
       <r>    5.4839    1.0000 </r>
       <r>    5.6966    1.0000 </r>
       <r>    6.2851    1.0000 </r>
       <r>    7.2503    1.0000 </r>
       <r>    7.8080    1.0000 </r>
       <r>    8.2916    1.0000 </r>
       <r>    8.7830    1.0000 </r>
       <r>    9.7705    1.0000 </r>
       <r>    9.8885    1.0001 </r>
       <r>    9.9895    1.0010 </r>
       <r>   11.7620   -0.0000 </r>
       <r>   13.8493   -0.0000 </r>
       <r>   19.7613    0.0000 </r>
       <r>   20.1370    0.0000 </r>
       <r>   24.5573    0.0000 </r>
       <r>   25.5840    0.0000 </r>
      </set>
      <set comment="kpoint 21">
       <r>    2.6862    1.0000 </r>
       <r>    5.8558    1.0000 </r>
       <r>    7.3290    1.0000 </r>
       <r>    7.4575    1.0000 </r>
       <r>    7.9781    1.0000 </r>
       <r>    8.0643    1.0000 </r>
       <r>    8.2926    1.0000 </r>
       <r>    8.4499    1.0000 </r>
       <r>    8.7037    1.0000 </r>
       <r>    8.7137    1.0000 </r>
       <r>    9.7500    1.0000 </r>
       <r>   12.4782   -0.0000 </r>
       <r>   18.3131    0.0000 </r>
       <r>   27.8794    0.0000 </r>
       <r>   28.5943    0.0000 </r>
       <r>   33.5069    0.0000 </r>
      </set>
      <set comment="kpoint 22">
       <r>    3.8918    1.0000 </r>
       <r>    6.2739    1.0000 </r>
       <r>    6.7658    1.0000 </r>
       <r>    7.0678    1.0000 </r>
       <r>    7.7771    1.0000 </r>
       <r>    8.0232    1.0000 </r>
       <r>    8.3223    1.0000 </r>
       <r>    8.6868    1.0000 </r>
       <r>    9.0602    1.0000 </r>
       <r>    9.2499    1.0000 </r>
       <r>    9.8017    1.0000 </r>
       <r>   14.0886   -0.0000 </r>
       <r>   19.0395    0.0000 </r>
       <r>   23.6558    0.0000 </r>
       <r>   26.3073    0.0000 </r>
       <r>   29.8234    0.0000 </r>
      </set>
      <set comment="kpoint 23">
       <r>    5.1391    1.0000 </r>
       <r>    6.1404    1.0000 </r>
       <r>    6.3495    1.0000 </r>
       <r>    7.1063    1.0000 </r>
       <r>    7.7764    1.0000 </r>
       <r>    8.0954    1.0000 </r>
       <r>    8.2386    1.0000 </r>
       <r>    9.1834    1.0000 </r>
       <r>    9.6002    1.0000 </r>
       <r>    9.7075    1.0000 </r>
       <r>   10.2219    1.0331 </r>
       <r>   15.6813   -0.0000 </r>
       <r>   19.2225    0.0000 </r>
       <r>   20.9014    0.0000 </r>
       <r>   24.6950    0.0000 </r>
       <r>   26.2136    0.0000 </r>
      </set>
      <set comment="kpoint 24">
       <r>    5.5941    1.0000 </r>
       <r>    5.8893    1.0000 </r>
       <r>    6.3407    1.0000 </r>
       <r>    7.1773    1.0000 </r>
       <r>    7.7197    1.0000 </r>
       <r>    8.3151    1.0000 </r>
       <r>    8.4194    1.0000 </r>
       <r>    9.6810    1.0000 </r>
       <r>    9.7754    1.0000 </r>
       <r>    9.8834    1.0001 </r>
       <r>   11.6581   -0.0000 </r>
       <r>   14.8600   -0.0000 </r>
       <r>   19.0870    0.0000 </r>
       <r>   21.2062    0.0000 </r>
       <r>   23.6331    0.0000 </r>
       <r>   24.5072    0.0000 </r>
      </set>
      <set comment="kpoint 25">
       <r>    5.1102    1.0000 </r>
       <r>    6.3550    1.0000 </r>
       <r>    6.6256    1.0000 </r>
       <r>    6.7068    1.0000 </r>
       <r>    7.6829    1.0000 </r>
       <r>    8.0116    1.0000 </r>
       <r>    8.1779    1.0000 </r>
       <r>    8.8690    1.0000 </r>
       <r>    9.6180    1.0000 </r>
       <r>    9.6385    1.0000 </r>
       <r>   10.2926    1.0260 </r>
       <r>   15.6463   -0.0000 </r>
       <r>   20.0769    0.0000 </r>
       <r>   21.7542    0.0000 </r>
       <r>   22.4108    0.0000 </r>
       <r>   28.2073    0.0000 </r>
      </set>
      <set comment="kpoint 26">
       <r>    5.9190    1.0000 </r>
       <r>    6.2879    1.0000 </r>
       <r>    6.3621    1.0000 </r>
       <r>    6.8948    1.0000 </r>
       <r>    7.6288    1.0000 </r>
       <r>    7.9531    1.0000 </r>
       <r>    8.3021    1.0000 </r>
       <r>    9.2446    1.0000 </r>
       <r>    9.6309    1.0000 </r>
       <r>    9.8948    1.0001 </r>
       <r>   11.6995   -0.0000 </r>
       <r>   16.7219    0.0000 </r>
       <r>   18.8916    0.0000 </r>
       <r>   20.7687    0.0000 </r>
       <r>   22.1120    0.0000 </r>
       <r>   25.2382    0.0000 </r>
      </set>
      <set comment="kpoint 27">
       <r>    5.9257    1.0000 </r>
       <r>    6.2366    1.0000 </r>
       <r>    6.4763    1.0000 </r>
       <r>    7.0281    1.0000 </r>
       <r>    7.5542    1.0000 </r>
       <r>    7.9704    1.0000 </r>
       <r>    8.4432    1.0000 </r>
       <r>    9.5961    1.0000 </r>
       <r>    9.6096    1.0000 </r>
       <r>    9.8274    1.0000 </r>
       <r>   13.4358   -0.0000 </r>
       <r>   14.7698   -0.0000 </r>
       <r>   19.8903    0.0000 </r>
       <r>   20.9572    0.0000 </r>
       <r>   21.2443    0.0000 </r>
       <r>   25.1399    0.0000 </r>
      </set>
      <set comment="kpoint 28">
       <r>    6.1596    1.0000 </r>
       <r>    6.4398    1.0000 </r>
       <r>    6.6313    1.0000 </r>
       <r>    6.7792    1.0000 </r>
       <r>    7.5876    1.0000 </r>
       <r>    7.6799    1.0000 </r>
       <r>    8.4937    1.0000 </r>
       <r>    9.4419    1.0000 </r>
       <r>    9.5581    1.0000 </r>
       <r>    9.7758    1.0000 </r>
       <r>   13.8905   -0.0000 </r>
       <r>   16.7967    0.0000 </r>
       <r>   16.9421    0.0000 </r>
       <r>   20.9103    0.0000 </r>
       <r>   22.9387    0.0000 </r>
       <r>   24.0897    0.0000 </r>
      </set>
      <set comment="kpoint 29">
       <r>    2.1244    1.0000 </r>
       <r>    5.0860    1.0000 </r>
       <r>    7.6839    1.0000 </r>
       <r>    7.7892    1.0000 </r>
       <r>    7.7892    1.0000 </r>
       <r>    8.0539    1.0000 </r>
       <r>    8.0539    1.0000 </r>
       <r>    8.6337    1.0000 </r>
       <r>    8.8943    1.0000 </r>
       <r>    8.8943    1.0000 </r>
       <r>    9.6373    1.0000 </r>
       <r>    9.6373    1.0000 </r>
       <r>   20.0004    0.0000 </r>
       <r>   31.5894    0.0000 </r>
       <r>   33.1460    0.0000 </r>
       <r>   34.8424    0.0000 </r>
      </set>
      <set comment="kpoint 30">
       <r>    2.4653    1.0000 </r>
       <r>    5.3412    1.0000 </r>
       <r>    7.6138    1.0000 </r>
       <r>    7.6648    1.0000 </r>
       <r>    7.7352    1.0000 </r>
       <r>    7.9238    1.0000 </r>
       <r>    8.1927    1.0000 </r>
       <r>    8.3143    1.0000 </r>
       <r>    8.8475    1.0000 </r>
       <r>    8.9037    1.0000 </r>
       <r>    9.6578    1.0000 </r>
       <r>   10.3990    0.8570 </r>
       <r>   20.2050    0.0000 </r>
       <r>   30.5965    0.0000 </r>
       <r>   31.9296    0.0000 </r>
       <r>   33.1638    0.0000 </r>
      </set>
      <set comment="kpoint 31">
       <r>    3.4082    1.0000 </r>
       <r>    5.9268    1.0000 </r>
       <r>    6.9509    1.0000 </r>
       <r>    7.3740    1.0000 </r>
       <r>    7.6499    1.0000 </r>
       <r>    8.1729    1.0000 </r>
       <r>    8.1742    1.0000 </r>
       <r>    8.5640    1.0000 </r>
       <r>    8.8685    1.0000 </r>
       <r>    8.9924    1.0000 </r>
       <r>    9.6953    1.0000 </r>
       <r>   11.6030   -0.0000 </r>
       <r>   20.8389    0.0000 </r>
       <r>   26.1257    0.0000 </r>
       <r>   29.9268    0.0000 </r>
       <r>   30.8115    0.0000 </r>
      </set>
      <set comment="kpoint 32">
       <r>    4.5979    1.0000 </r>
       <r>    6.0997    1.0000 </r>
       <r>    6.5158    1.0000 </r>
       <r>    7.2095    1.0000 </r>
       <r>    7.7696    1.0000 </r>
       <r>    8.1640    1.0000 </r>
       <r>    8.4816    1.0000 </r>
       <r>    9.0747    1.0000 </r>
       <r>    9.2408    1.0000 </r>
       <r>    9.2566    1.0000 </r>
       <r>    9.7430    1.0000 </r>
       <r>   12.9070   -0.0000 </r>
       <r>   21.3535    0.0000 </r>
       <r>   22.3571    0.0000 </r>
       <r>   26.2132    0.0000 </r>
       <r>   28.6264    0.0000 </r>
      </set>
      <set comment="kpoint 33">
       <r>    5.2426    1.0000 </r>
       <r>    5.8514    1.0000 </r>
       <r>    6.5120    1.0000 </r>
       <r>    6.9295    1.0000 </r>
       <r>    8.0538    1.0000 </r>
       <r>    8.2383    1.0000 </r>
       <r>    9.3037    1.0000 </r>
       <r>    9.4304    1.0000 </r>
       <r>    9.6915    1.0000 </r>
       <r>    9.8695    1.0000 </r>
       <r>   10.0667    1.0050 </r>
       <r>   14.0231   -0.0000 </r>
       <r>   18.5198    0.0000 </r>
       <r>   21.5068    0.0000 </r>
       <r>   24.8793    0.0000 </r>
       <r>   27.1554    0.0000 </r>
      </set>
      <set comment="kpoint 34">
       <r>    5.3166    1.0000 </r>
       <r>    5.7436    1.0000 </r>
       <r>    6.6658    1.0000 </r>
       <r>    6.7339    1.0000 </r>
       <r>    8.0062    1.0000 </r>
       <r>    8.3971    1.0000 </r>
       <r>    9.5036    1.0000 </r>
       <r>    9.5942    1.0000 </r>
       <r>    9.8950    1.0001 </r>
       <r>    9.9768    1.0008 </r>
       <r>   11.4741   -0.0000 </r>
       <r>   13.5270   -0.0000 </r>
       <r>   18.8374    0.0000 </r>
       <r>   18.9810    0.0000 </r>
       <r>   26.6093    0.0000 </r>
       <r>   26.6278    0.0000 </r>
      </set>
      <set comment="kpoint 35">
       <r>    3.1119    1.0000 </r>
       <r>    5.7857    1.0000 </r>
       <r>    7.1292    1.0000 </r>
       <r>    7.3937    1.0000 </r>
       <r>    7.7086    1.0000 </r>
       <r>    8.1034    1.0000 </r>
       <r>    8.1514    1.0000 </r>
       <r>    8.4425    1.0000 </r>
       <r>    8.9080    1.0000 </r>
       <r>    8.9193    1.0000 </r>
       <r>    9.6826    1.0000 </r>
       <r>   11.2765   -0.0000 </r>
       <r>   20.6315    0.0000 </r>
       <r>   28.2298    0.0000 </r>
       <r>   29.0212    0.0000 </r>
       <r>   32.0159    0.0000 </r>
      </set>
      <set comment="kpoint 36">
       <r>    4.2260    1.0000 </r>
       <r>    6.2982    1.0000 </r>
       <r>    6.5941    1.0000 </r>
       <r>    7.1610    1.0000 </r>
       <r>    7.6226    1.0000 </r>
       <r>    8.0571    1.0000 </r>
       <r>    8.2287    1.0000 </r>
       <r>    8.8037    1.0000 </r>
       <r>    9.1801    1.0000 </r>
       <r>    9.2260    1.0000 </r>
       <r>    9.7634    1.0000 </r>
       <r>   12.4829   -0.0000 </r>
       <r>   21.4883    0.0000 </r>
       <r>   24.0904    0.0000 </r>
       <r>   26.7314    0.0000 </r>
       <r>   28.4085    0.0000 </r>
      </set>
      <set comment="kpoint 37">
       <r>    5.2230    1.0000 </r>
       <r>    6.1170    1.0000 </r>
       <r>    6.4440    1.0000 </r>
       <r>    7.0951    1.0000 </r>
       <r>    7.7731    1.0000 </r>
       <r>    8.1787    1.0000 </r>
       <r>    8.4683    1.0000 </r>
       <r>    9.1611    1.0000 </r>
       <r>    9.4645    1.0000 </r>
       <r>    9.7177    1.0000 </r>
       <r>   10.2643    1.0345 </r>
       <r>   13.8716   -0.0000 </r>
       <r>   19.9879    0.0000 </r>
       <r>   22.5708    0.0000 </r>
       <r>   24.7171    0.0000 </r>
       <r>   25.6752    0.0000 </r>
      </set>
      <set comment="kpoint 38">
       <r>    5.4579    1.0000 </r>
       <r>    5.9391    1.0000 </r>
       <r>    6.6251    1.0000 </r>
       <r>    6.8669    1.0000 </r>
       <r>    7.7419    1.0000 </r>
       <r>    8.4808    1.0000 </r>
       <r>    8.9179    1.0000 </r>
       <r>    9.4161    1.0000 </r>
       <r>    9.7242    1.0000 </r>
       <r>    9.9505    1.0004 </r>
       <r>   11.6662   -0.0000 </r>
       <r>   14.3099   -0.0000 </r>
       <r>   18.3002    0.0000 </r>
       <r>   20.3563    0.0000 </r>
       <r>   24.4075    0.0000 </r>
       <r>   26.0548    0.0000 </r>
      </set>
      <set comment="kpoint 39">
       <r>    5.2817    1.0000 </r>
       <r>    6.2300    1.0000 </r>
       <r>    6.8038    1.0000 </r>
       <r>    6.8143    1.0000 </r>
       <r>    7.7173    1.0000 </r>
       <r>    7.8817    1.0000 </r>
       <r>    8.1412    1.0000 </r>
       <r>    8.9965    1.0000 </r>
       <r>    9.3952    1.0000 </r>
       <r>    9.7419    1.0000 </r>
       <r>   10.4019    0.8488 </r>
       <r>   13.8377   -0.0000 </r>
       <r>   22.1942    0.0000 </r>
       <r>   22.1979    0.0000 </r>
       <r>   23.1711    0.0000 </r>
       <r>   26.8547    0.0000 </r>
      </set>
      <set comment="kpoint 40">
       <r>    5.8476    1.0000 </r>
       <r>    6.2979    1.0000 </r>
       <r>    6.5067    1.0000 </r>
       <r>    7.0211    1.0000 </r>
       <r>    7.5857    1.0000 </r>
       <r>    7.9802    1.0000 </r>
       <r>    8.3781    1.0000 </r>
       <r>    9.2126    1.0000 </r>
       <r>    9.4370    1.0000 </r>
       <r>    9.9714    1.0007 </r>
       <r>   11.8914   -0.0000 </r>
       <r>   15.4064   -0.0000 </r>
       <r>   18.9395    0.0000 </r>
       <r>   21.2907    0.0000 </r>
       <r>   22.5170    0.0000 </r>
       <r>   25.2702    0.0000 </r>
      </set>
      <set comment="kpoint 41">
       <r>    5.8345    1.0000 </r>
       <r>    6.3455    1.0000 </r>
       <r>    6.7107    1.0000 </r>
       <r>    6.8761    1.0000 </r>
       <r>    7.4411    1.0000 </r>
       <r>    8.1578    1.0000 </r>
       <r>    8.5568    1.0000 </r>
       <r>    9.2921    1.0000 </r>
       <r>    9.6173    1.0000 </r>
       <r>    9.8800    1.0001 </r>
       <r>   13.6902   -0.0000 </r>
       <r>   14.7432   -0.0000 </r>
       <r>   19.2431    0.0000 </r>
       <r>   19.6097    0.0000 </r>
       <r>   21.2599    0.0000 </r>
       <r>   25.3979    0.0000 </r>
      </set>
      <set comment="kpoint 42">
       <r>    6.2281    1.0000 </r>
       <r>    6.4628    1.0000 </r>
       <r>    6.7561    1.0000 </r>
       <r>    6.7727    1.0000 </r>
       <r>    7.5576    1.0000 </r>
       <r>    7.6648    1.0000 </r>
       <r>    8.4765    1.0000 </r>
       <r>    9.2172    1.0000 </r>
       <r>    9.5336    1.0000 </r>
       <r>    9.8259    1.0000 </r>
       <r>   14.2218   -0.0000 </r>
       <r>   16.5983    0.0000 </r>
       <r>   17.3788    0.0000 </r>
       <r>   19.8200    0.0000 </r>
       <r>   21.9423    0.0000 </r>
       <r>   22.6435    0.0000 </r>
      </set>
      <set comment="kpoint 43">
       <r>    2.8548    1.0000 </r>
       <r>    4.5918    1.0000 </r>
       <r>    7.5622    1.0000 </r>
       <r>    7.7757    1.0000 </r>
       <r>    7.7757    1.0000 </r>
       <r>    7.8127    1.0000 </r>
       <r>    7.9278    1.0000 </r>
       <r>    7.9278    1.0000 </r>
       <r>    9.1444    1.0000 </r>
       <r>    9.1444    1.0000 </r>
       <r>    9.5383    1.0000 </r>
       <r>    9.5383    1.0000 </r>
       <r>   22.6697    0.0000 </r>
       <r>   28.6804    0.0000 </r>
       <r>   33.1362    0.0000 </r>
       <r>   34.0829    0.0000 </r>
      </set>
      <set comment="kpoint 44">
       <r>    3.1779    1.0000 </r>
       <r>    4.8738    1.0000 </r>
       <r>    7.3653    1.0000 </r>
       <r>    7.4983    1.0000 </r>
       <r>    7.6919    1.0000 </r>
       <r>    7.9083    1.0000 </r>
       <r>    8.0452    1.0000 </r>
       <r>    8.0654    1.0000 </r>
       <r>    9.1131    1.0000 </r>
       <r>    9.1931    1.0000 </r>
       <r>    9.5400    1.0000 </r>
       <r>    9.8622    1.0000 </r>
       <r>   22.9046    0.0000 </r>
       <r>   28.9295    0.0000 </r>
       <r>   31.1259    0.0000 </r>
       <r>   32.5072    0.0000 </r>
      </set>
      <set comment="kpoint 45">
       <r>    4.0382    1.0000 </r>
       <r>    5.5297    1.0000 </r>
       <r>    6.8826    1.0000 </r>
       <r>    7.3301    1.0000 </r>
       <r>    7.5718    1.0000 </r>
       <r>    7.9905    1.0000 </r>
       <r>    8.2059    1.0000 </r>
       <r>    8.4297    1.0000 </r>
       <r>    9.1065    1.0000 </r>
       <r>    9.3596    1.0000 </r>
       <r>    9.5478    1.0000 </r>
       <r>   10.5646    0.2223 </r>
       <r>   23.5766    0.0000 </r>
       <r>   26.7758    0.0000 </r>
       <r>   28.6013    0.0000 </r>
       <r>   29.9216    0.0000 </r>
      </set>
      <set comment="kpoint 46">
       <r>    4.9649    1.0000 </r>
       <r>    5.8123    1.0000 </r>
       <r>    6.6720    1.0000 </r>
       <r>    7.1215    1.0000 </r>
       <r>    7.8961    1.0000 </r>
       <r>    8.3627    1.0000 </r>
       <r>    8.4067    1.0000 </r>
       <r>    8.8588    1.0000 </r>
       <r>    9.3463    1.0000 </r>
       <r>    9.6175    1.0000 </r>
       <r>    9.6279    1.0000 </r>
       <r>   11.4533   -0.0000 </r>
       <r>   22.3938    0.0000 </r>
       <r>   23.8898    0.0000 </r>
       <r>   25.6943    0.0000 </r>
       <r>   29.6486    0.0000 </r>
      </set>
      <set comment="kpoint 47">
       <r>    5.2976    1.0000 </r>
       <r>    5.7054    1.0000 </r>
       <r>    6.5824    1.0000 </r>
       <r>    6.8928    1.0000 </r>
       <r>    8.3403    1.0000 </r>
       <r>    8.5630    1.0000 </r>
       <r>    9.0816    1.0000 </r>
       <r>    9.6319    1.0000 </r>
       <r>    9.7321    1.0000 </r>
       <r>    9.8293    1.0000 </r>
       <r>   10.2125    1.0314 </r>
       <r>   12.5500   -0.0000 </r>
       <r>   18.9998    0.0000 </r>
       <r>   20.6446    0.0000 </r>
       <r>   26.9954    0.0000 </r>
       <r>   28.2488    0.0000 </r>
      </set>
      <set comment="kpoint 48">
       <r>    5.3063    1.0000 </r>
       <r>    5.6495    1.0000 </r>
       <r>    6.5660    1.0000 </r>
       <r>    6.7909    1.0000 </r>
       <r>    8.3158    1.0000 </r>
       <r>    8.8051    1.0000 </r>
       <r>    9.1220    1.0000 </r>
       <r>    9.9132    1.0002 </r>
       <r>    9.9383    1.0003 </r>
       <r>    9.9579    1.0005 </r>
       <r>   11.4704   -0.0000 </r>
       <r>   12.9429   -0.0000 </r>
       <r>   18.1849    0.0000 </r>
       <r>   18.2209    0.0000 </r>
       <r>   27.7478    0.0000 </r>
       <r>   28.8101    0.0000 </r>
      </set>
      <set comment="kpoint 49">
       <r>    3.7769    1.0000 </r>
       <r>    5.3639    1.0000 </r>
       <r>    6.9872    1.0000 </r>
       <r>    7.3856    1.0000 </r>
       <r>    7.5554    1.0000 </r>
       <r>    7.9416    1.0000 </r>
       <r>    8.1522    1.0000 </r>
       <r>    8.3281    1.0000 </r>
       <r>    9.1331    1.0000 </r>
       <r>    9.2705    1.0000 </r>
       <r>    9.5618    1.0000 </r>
       <r>   10.3629    0.9441 </r>
       <r>   23.3708    0.0000 </r>
       <r>   28.7888    0.0000 </r>
       <r>   29.3408    0.0000 </r>
       <r>   29.5999    0.0000 </r>
      </set>
      <set comment="kpoint 50">
       <r>    4.7312    1.0000 </r>
       <r>    5.9027    1.0000 </r>
       <r>    6.7496    1.0000 </r>
       <r>    7.2198    1.0000 </r>
       <r>    7.5039    1.0000 </r>
       <r>    7.8775    1.0000 </r>
       <r>    8.3376    1.0000 </r>
       <r>    8.7278    1.0000 </r>
       <r>    9.3459    1.0000 </r>
       <r>    9.4755    1.0000 </r>
       <r>    9.7176    1.0000 </r>
       <r>   11.1633   -0.0000 </r>
       <r>   24.0739    0.0000 </r>
       <r>   24.8631    0.0000 </r>
       <r>   26.7491    0.0000 </r>
       <r>   27.8884    0.0000 </r>
      </set>
      <set comment="kpoint 51">
       <r>    5.3843    1.0000 </r>
       <r>    5.8947    1.0000 </r>
       <r>    6.6520    1.0000 </r>
       <r>    7.0917    1.0000 </r>
       <r>    7.8859    1.0000 </r>
       <r>    8.2711    1.0000 </r>
       <r>    8.5667    1.0000 </r>
       <r>    8.9482    1.0000 </r>
       <r>    9.5657    1.0000 </r>
       <r>    9.8393    1.0000 </r>
       <r>   10.4262    0.7707 </r>
       <r>   12.3217   -0.0000 </r>
       <r>   20.7002    0.0000 </r>
       <r>   22.5313    0.0000 </r>
       <r>   25.8285    0.0000 </r>
       <r>   26.7243    0.0000 </r>
      </set>
      <set comment="kpoint 52">
       <r>    5.4644    1.0000 </r>
       <r>    5.8283    1.0000 </r>
       <r>    6.6099    1.0000 </r>
       <r>    6.9387    1.0000 </r>
       <r>    7.9559    1.0000 </r>
       <r>    8.7636    1.0000 </r>
       <r>    8.9133    1.0000 </r>
       <r>    9.2651    1.0000 </r>
       <r>    9.7284    1.0000 </r>
       <r>    9.9671    1.0006 </r>
       <r>   11.9110   -0.0000 </r>
       <r>   13.4403   -0.0000 </r>
       <r>   18.1816    0.0000 </r>
       <r>   19.3407    0.0000 </r>
       <r>   25.3589    0.0000 </r>
       <r>   27.7440    0.0000 </r>
      </set>
      <set comment="kpoint 53">
       <r>    5.5264    1.0000 </r>
       <r>    6.0444    1.0000 </r>
       <r>    6.9721    1.0000 </r>
       <r>    7.0264    1.0000 </r>
       <r>    7.6286    1.0000 </r>
       <r>    7.6460    1.0000 </r>
       <r>    8.2725    1.0000 </r>
       <r>    8.8553    1.0000 </r>
       <r>    9.5748    1.0000 </r>
       <r>    9.8478    1.0000 </r>
       <r>   10.5847    0.1575 </r>
       <r>   12.3158   -0.0000 </r>
       <r>   22.8735    0.0000 </r>
       <r>   23.3553    0.0000 </r>
       <r>   24.4166    0.0000 </r>
       <r>   25.7707    0.0000 </r>
      </set>
      <set comment="kpoint 54">
       <r>    5.8683    1.0000 </r>
       <r>    6.1382    1.0000 </r>
       <r>    6.7476    1.0000 </r>
       <r>    7.2619    1.0000 </r>
       <r>    7.4506    1.0000 </r>
       <r>    7.9581    1.0000 </r>
       <r>    8.4755    1.0000 </r>
       <r>    8.8887    1.0000 </r>
       <r>    9.6280    1.0000 </r>
       <r>    9.9938    1.0011 </r>
       <r>   12.2709   -0.0000 </r>
       <r>   14.0484   -0.0000 </r>
       <r>   19.4887    0.0000 </r>
       <r>   21.2316    0.0000 </r>
       <r>   22.3686    0.0000 </r>
       <r>   24.4304    0.0000 </r>
      </set>
      <set comment="kpoint 55">
       <r>    5.8635    1.0000 </r>
       <r>    6.2381    1.0000 </r>
       <r>    6.7160    1.0000 </r>
       <r>    7.2284    1.0000 </r>
       <r>    7.3383    1.0000 </r>
       <r>    8.1312    1.0000 </r>
       <r>    8.7099    1.0000 </r>
       <r>    8.9824    1.0000 </r>
       <r>    9.6823    1.0000 </r>
       <r>    9.8800    1.0001 </r>
       <r>   14.0477   -0.0000 </r>
       <r>   14.6466   -0.0000 </r>
       <r>   18.5068    0.0000 </r>
       <r>   18.6355    0.0000 </r>
       <r>   21.9347    0.0000 </r>
       <r>   24.1073    0.0000 </r>
      </set>
      <set comment="kpoint 56">
       <r>    6.3084    1.0000 </r>
       <r>    6.4350    1.0000 </r>
       <r>    6.8305    1.0000 </r>
       <r>    6.9306    1.0000 </r>
       <r>    7.4634    1.0000 </r>
       <r>    7.6539    1.0000 </r>
       <r>    8.4922    1.0000 </r>
       <r>    8.8559    1.0000 </r>
       <r>    9.6579    1.0000 </r>
       <r>    9.8390    1.0000 </r>
       <r>   14.7128   -0.0000 </r>
       <r>   16.0621    0.0000 </r>
       <r>   18.0540    0.0000 </r>
       <r>   19.3288    0.0000 </r>
       <r>   20.9181    0.0000 </r>
       <r>   21.4515    0.0000 </r>
      </set>
      <set comment="kpoint 57">
       <r>    3.7518    1.0000 </r>
       <r>    3.7518    1.0000 </r>
       <r>    7.5329    1.0000 </r>
       <r>    7.5329    1.0000 </r>
       <r>    7.8254    1.0000 </r>
       <r>    7.8254    1.0000 </r>
       <r>    7.8254    1.0000 </r>
       <r>    7.8254    1.0000 </r>
       <r>    9.3702    1.0000 </r>
       <r>    9.3702    1.0000 </r>
       <r>    9.3702    1.0000 </r>
       <r>    9.3702    1.0000 </r>
       <r>   25.6139    0.0000 </r>
       <r>   25.6139    0.0000 </r>
       <r>   33.4864    0.0000 </r>
       <r>   33.4864    0.0000 </r>
      </set>
      <set comment="kpoint 58">
       <r>    4.0532    1.0000 </r>
       <r>    4.0532    1.0000 </r>
       <r>    7.3343    1.0000 </r>
       <r>    7.3343    1.0000 </r>
       <r>    7.8317    1.0000 </r>
       <r>    7.8317    1.0000 </r>
       <r>    7.9604    1.0000 </r>
       <r>    7.9604    1.0000 </r>
       <r>    9.3541    1.0000 </r>
       <r>    9.3541    1.0000 </r>
       <r>    9.5058    1.0000 </r>
       <r>    9.5058    1.0000 </r>
       <r>   25.8619    0.0000 </r>
       <r>   25.8619    0.0000 </r>
       <r>   31.7596    0.0000 </r>
       <r>   31.7596    0.0000 </r>
      </set>
      <set comment="kpoint 59">
       <r>    4.8033    1.0000 </r>
       <r>    4.8033    1.0000 </r>
       <r>    7.0721    1.0000 </r>
       <r>    7.0721    1.0000 </r>
       <r>    7.7635    1.0000 </r>
       <r>    7.7635    1.0000 </r>
       <r>    8.2979    1.0000 </r>
       <r>    8.2979    1.0000 </r>
       <r>    9.3445    1.0000 </r>
       <r>    9.3445    1.0000 </r>
       <r>    9.8545    1.0000 </r>
       <r>    9.8545    1.0000 </r>
       <r>   26.4178    0.0000 </r>
       <r>   26.4178    0.0000 </r>
       <r>   27.8616    0.0000 </r>
       <r>   27.8616    0.0000 </r>
      </set>
      <set comment="kpoint 60">
       <r>    5.3930    1.0000 </r>
       <r>    5.3930    1.0000 </r>
       <r>    6.9143    1.0000 </r>
       <r>    6.9143    1.0000 </r>
       <r>    8.1634    1.0000 </r>
       <r>    8.1634    1.0000 </r>
       <r>    8.6064    1.0000 </r>
       <r>    8.6064    1.0000 </r>
       <r>    9.4788    1.0000 </r>
       <r>    9.4788    1.0000 </r>
       <r>   10.3567    0.9557 </r>
       <r>   10.3567    0.9557 </r>
       <r>   23.2910    0.0000 </r>
       <r>   23.2910    0.0000 </r>
       <r>   27.9857    0.0000 </r>
       <r>   27.9857    0.0000 </r>
      </set>
      <set comment="kpoint 61">
       <r>    5.4693    1.0000 </r>
       <r>    5.4693    1.0000 </r>
       <r>    6.7504    1.0000 </r>
       <r>    6.7504    1.0000 </r>
       <r>    8.6983    1.0000 </r>
       <r>    8.6983    1.0000 </r>
       <r>    9.1021    1.0000 </r>
       <r>    9.1021    1.0000 </r>
       <r>    9.7809    1.0000 </r>
       <r>    9.7809    1.0000 </r>
       <r>   11.2674   -0.0000 </r>
       <r>   11.2674   -0.0000 </r>
       <r>   19.7261    0.0000 </r>
       <r>   19.7261    0.0000 </r>
       <r>   29.3829    0.0000 </r>
       <r>   29.3830    0.0000 </r>
      </set>
      <set comment="kpoint 62">
       <r>    5.4411    1.0000 </r>
       <r>    5.4411    1.0000 </r>
       <r>    6.6797    1.0000 </r>
       <r>    6.6797    1.0000 </r>
       <r>    8.7040    1.0000 </r>
       <r>    8.7040    1.0000 </r>
       <r>    9.4517    1.0000 </r>
       <r>    9.4517    1.0000 </r>
       <r>    9.9354    1.0003 </r>
       <r>    9.9354    1.0003 </r>
       <r>   12.1595   -0.0000 </r>
       <r>   12.1595   -0.0000 </r>
       <r>   17.9631    0.0000 </r>
       <r>   17.9631    0.0000 </r>
       <r>   29.1883    0.0000 </r>
       <r>   29.1883    0.0000 </r>
      </set>
      <set comment="kpoint 63">
       <r>    4.5914    1.0000 </r>
       <r>    4.5914    1.0000 </r>
       <r>    7.1328    1.0000 </r>
       <r>    7.1328    1.0000 </r>
       <r>    7.7279    1.0000 </r>
       <r>    7.7279    1.0000 </r>
       <r>    8.2191    1.0000 </r>
       <r>    8.2191    1.0000 </r>
       <r>    9.3513    1.0000 </r>
       <r>    9.3513    1.0000 </r>
       <r>    9.7489    1.0000 </r>
       <r>    9.7489    1.0000 </r>
       <r>   26.3288    0.0000 </r>
       <r>   26.3288    0.0000 </r>
       <r>   29.4733    0.0000 </r>
       <r>   29.4733    0.0000 </r>
      </set>
      <set comment="kpoint 64">
       <r>    5.3262    1.0000 </r>
       <r>    5.3262    1.0000 </r>
       <r>    7.0169    1.0000 </r>
       <r>    7.0169    1.0000 </r>
       <r>    7.6497    1.0000 </r>
       <r>    7.6497    1.0000 </r>
       <r>    8.5257    1.0000 </r>
       <r>    8.5257    1.0000 </r>
       <r>    9.5069    1.0000 </r>
       <r>    9.5069    1.0000 </r>
       <r>   10.1974    1.0283 </r>
       <r>   10.1974    1.0283 </r>
       <r>   25.4609    0.0000 </r>
       <r>   25.4609    0.0000 </r>
       <r>   27.3695    0.0000 </r>
       <r>   27.3695    0.0000 </r>
      </set>
      <set comment="kpoint 65">
       <r>    5.6194    1.0000 </r>
       <r>    5.6194    1.0000 </r>
       <r>    6.9044    1.0000 </r>
       <r>    6.9044    1.0000 </r>
       <r>    8.1617    1.0000 </r>
       <r>    8.1617    1.0000 </r>
       <r>    8.6695    1.0000 </r>
       <r>    8.6695    1.0000 </r>
       <r>    9.7913    1.0000 </r>
       <r>    9.7913    1.0000 </r>
       <r>   11.1173   -0.0000 </r>
       <r>   11.1173   -0.0000 </r>
       <r>   21.5724    0.0000 </r>
       <r>   21.5724    0.0000 </r>
       <r>   27.1491    0.0000 </r>
       <r>   27.1491    0.0000 </r>
      </set>
      <set comment="kpoint 66">
       <r>    5.6071    1.0000 </r>
       <r>    5.6071    1.0000 </r>
       <r>    6.7859    1.0000 </r>
       <r>    6.7859    1.0000 </r>
       <r>    8.4030    1.0000 </r>
       <r>    8.4030    1.0000 </r>
       <r>    9.1299    1.0000 </r>
       <r>    9.1299    1.0000 </r>
       <r>    9.8444    1.0000 </r>
       <r>    9.8444    1.0000 </r>
       <r>   12.5509   -0.0000 </r>
       <r>   12.5509   -0.0000 </r>
       <r>   18.5768    0.0000 </r>
       <r>   18.5768    0.0000 </r>
       <r>   26.4967    0.0000 </r>
       <r>   26.4967    0.0000 </r>
      </set>
      <set comment="kpoint 67">
       <r>    5.7971    1.0000 </r>
       <r>    5.7971    1.0000 </r>
       <r>    7.1275    1.0000 </r>
       <r>    7.1275    1.0000 </r>
       <r>    7.5119    1.0000 </r>
       <r>    7.5119    1.0000 </r>
       <r>    8.5320    1.0000 </r>
       <r>    8.5320    1.0000 </r>
       <r>    9.8419    1.0000 </r>
       <r>    9.8419    1.0000 </r>
       <r>   11.1739   -0.0000 </r>
       <r>   11.1739   -0.0000 </r>
       <r>   23.6698    0.0000 </r>
       <r>   23.6698    0.0000 </r>
       <r>   24.5716    0.0000 </r>
       <r>   24.5716    0.0000 </r>
      </set>
      <set comment="kpoint 68">
       <r>    5.9744    1.0000 </r>
       <r>    5.9744    1.0000 </r>
       <r>    7.0323    1.0000 </r>
       <r>    7.0323    1.0000 </r>
       <r>    7.7471    1.0000 </r>
       <r>    7.7471    1.0000 </r>
       <r>    8.6163    1.0000 </r>
       <r>    8.6163    1.0000 </r>
       <r>    9.8786    1.0001 </r>
       <r>    9.8786    1.0001 </r>
       <r>   12.9707   -0.0000 </r>
       <r>   12.9707   -0.0000 </r>
       <r>   20.3035    0.0000 </r>
       <r>   20.3035    0.0000 </r>
       <r>   23.2728    0.0000 </r>
       <r>   23.2728    0.0000 </r>
      </set>
      <set comment="kpoint 69">
       <r>    6.0082    1.0000 </r>
       <r>    6.0082    1.0000 </r>
       <r>    6.9657    1.0000 </r>
       <r>    6.9657    1.0000 </r>
       <r>    7.8001    1.0000 </r>
       <r>    7.8001    1.0000 </r>
       <r>    8.8312    1.0000 </r>
       <r>    8.8312    1.0000 </r>
       <r>    9.7936    1.0000 </r>
       <r>    9.7936    1.0000 </r>
       <r>   14.4087   -0.0000 </r>
       <r>   14.4087   -0.0000 </r>
       <r>   18.2466    0.0000 </r>
       <r>   18.2466    0.0000 </r>
       <r>   22.9173    0.0000 </r>
       <r>   22.9173    0.0000 </r>
      </set>
      <set comment="kpoint 70">
       <r>    6.3787    1.0000 </r>
       <r>    6.3787    1.0000 </r>
       <r>    6.9384    1.0000 </r>
       <r>    6.9384    1.0000 </r>
       <r>    7.5335    1.0000 </r>
       <r>    7.5335    1.0000 </r>
       <r>    8.6015    1.0000 </r>
       <r>    8.6015    1.0000 </r>
       <r>    9.7784    1.0000 </r>
       <r>    9.7784    1.0000 </r>
       <r>   15.3512   -0.0000 </r>
       <r>   15.3512   -0.0000 </r>
       <r>   18.8270    0.0000 </r>
       <r>   18.8270    0.0000 </r>
       <r>   20.7265    0.0000 </r>
       <r>   20.7265    0.0000 </r>
      </set>
     </set>
     <set comment="spin 2">
      <set comment="kpoint 1">
       <r>    1.5183    1.0000 </r>
       <r>    6.2560    1.0000 </r>
       <r>    9.5021    1.0000 </r>
       <r>    9.5729    1.0000 </r>
       <r>    9.5729    1.0000 </r>
       <r>    9.9411    1.0003 </r>
       <r>    9.9411    1.0003 </r>
       <r>   10.3308    0.9944 </r>
       <r>   10.3989    0.8574 </r>
       <r>   10.3989    0.8574 </r>
       <r>   11.6260   -0.0000 </r>
       <r>   11.6260   -0.0000 </r>
       <r>   18.0097    0.0000 </r>
       <r>   32.4922    0.0000 </r>
       <r>   35.7454    0.0000 </r>
       <r>   35.8860    0.0000 </r>
      </set>
      <set comment="kpoint 2">
       <r>    1.8754    1.0000 </r>
       <r>    6.4979    1.0000 </r>
       <r>    9.2061    1.0000 </r>
       <r>    9.4755    1.0000 </r>
       <r>    9.7567    1.0000 </r>
       <r>    9.7684    1.0000 </r>
       <r>    9.8698    1.0000 </r>
       <r>   10.1042    1.0093 </r>
       <r>   10.2795    1.0312 </r>
       <r>   10.3038    1.0195 </r>
       <r>   11.6752   -0.0000 </r>
       <r>   12.7897   -0.0000 </r>
       <r>   18.0373    0.0000 </r>
       <r>   30.4106    0.0000 </r>
       <r>   33.1537    0.0000 </r>
       <r>   33.2231    0.0000 </r>
      </set>
      <set comment="kpoint 3">
       <r>    2.8976    1.0000 </r>
       <r>    7.0600    1.0000 </r>
       <r>    8.4843    1.0000 </r>
       <r>    8.7787    1.0000 </r>
       <r>    9.5546    1.0000 </r>
       <r>   10.0078    1.0016 </r>
       <r>   10.0688    1.0052 </r>
       <r>   10.2449    1.0354 </r>
       <r>   10.2654    1.0344 </r>
       <r>   10.5497    0.2755 </r>
       <r>   11.7664   -0.0000 </r>
       <r>   14.6843   -0.0000 </r>
       <r>   18.1555    0.0000 </r>
       <r>   26.0019    0.0000 </r>
       <r>   30.3740    0.0000 </r>
       <r>   32.0883    0.0000 </r>
      </set>
      <set comment="kpoint 4">
       <r>    4.3994    1.0000 </r>
       <r>    7.3497    1.0000 </r>
       <r>    7.7709    1.0000 </r>
       <r>    8.5339    1.0000 </r>
       <r>    9.4984    1.0000 </r>
       <r>    9.7183    1.0000 </r>
       <r>    9.7846    1.0000 </r>
       <r>   10.9193   -0.0052 </r>
       <r>   10.9559   -0.0026 </r>
       <r>   11.1448   -0.0000 </r>
       <r>   11.8361   -0.0000 </r>
       <r>   16.8574    0.0000 </r>
       <r>   18.3233    0.0000 </r>
       <r>   22.0098    0.0000 </r>
       <r>   28.0285    0.0000 </r>
       <r>   29.1108    0.0000 </r>
      </set>
      <set comment="kpoint 5">
       <r>    5.9001    1.0000 </r>
       <r>    7.1356    1.0000 </r>
       <r>    7.3521    1.0000 </r>
       <r>    8.5534    1.0000 </r>
       <r>    9.5076    1.0000 </r>
       <r>    9.5590    1.0000 </r>
       <r>    9.7666    1.0000 </r>
       <r>   11.5547   -0.0000 </r>
       <r>   11.6981   -0.0000 </r>
       <r>   11.8722   -0.0000 </r>
       <r>   11.9854   -0.0000 </r>
       <r>   16.9309    0.0000 </r>
       <r>   19.1773    0.0000 </r>
       <r>   20.7045    0.0000 </r>
       <r>   25.8695    0.0000 </r>
       <r>   26.4153    0.0000 </r>
      </set>
      <set comment="kpoint 6">
       <r>    6.6096    1.0000 </r>
       <r>    6.9005    1.0000 </r>
       <r>    7.2148    1.0000 </r>
       <r>    8.6848    1.0000 </r>
       <r>    9.4311    1.0000 </r>
       <r>    9.4735    1.0000 </r>
       <r>    9.8961    1.0001 </r>
       <r>   11.7809   -0.0000 </r>
       <r>   11.8825   -0.0000 </r>
       <r>   11.9451   -0.0000 </r>
       <r>   13.1529   -0.0000 </r>
       <r>   14.9554   -0.0000 </r>
       <r>   20.7698    0.0000 </r>
       <r>   21.4186    0.0000 </r>
       <r>   23.9774    0.0000 </r>
       <r>   25.2915    0.0000 </r>
      </set>
      <set comment="kpoint 7">
       <r>    2.5668    1.0000 </r>
       <r>    6.9147    1.0000 </r>
       <r>    8.7413    1.0000 </r>
       <r>    8.8626    1.0000 </r>
       <r>    9.6610    1.0000 </r>
       <r>    9.9394    1.0003 </r>
       <r>   10.0070    1.0015 </r>
       <r>   10.1300    1.0136 </r>
       <r>   10.2842    1.0296 </r>
       <r>   10.4641    0.6263 </r>
       <r>   11.7227   -0.0000 </r>
       <r>   14.1523   -0.0000 </r>
       <r>   18.1169    0.0000 </r>
       <r>   28.0541    0.0000 </r>
       <r>   28.8303    0.0000 </r>
       <r>   34.5366    0.0000 </r>
      </set>
      <set comment="kpoint 8">
       <r>    3.8455    1.0000 </r>
       <r>    7.4269    1.0000 </r>
       <r>    8.0288    1.0000 </r>
       <r>    8.4478    1.0000 </r>
       <r>    9.4978    1.0000 </r>
       <r>    9.6020    1.0000 </r>
       <r>   10.0721    1.0055 </r>
       <r>   10.3926    0.8748 </r>
       <r>   10.7768   -0.0313 </r>
       <r>   11.1018   -0.0001 </r>
       <r>   11.7705   -0.0000 </r>
       <r>   16.0899    0.0000 </r>
       <r>   18.3527    0.0000 </r>
       <r>   23.9884    0.0000 </r>
       <r>   26.5234    0.0000 </r>
       <r>   31.0199    0.0000 </r>
      </set>
      <set comment="kpoint 9">
       <r>    5.4120    1.0000 </r>
       <r>    7.4080    1.0000 </r>
       <r>    7.5392    1.0000 </r>
       <r>    8.3466    1.0000 </r>
       <r>    9.3830    1.0000 </r>
       <r>    9.6459    1.0000 </r>
       <r>    9.7651    1.0000 </r>
       <r>   11.0030   -0.0010 </r>
       <r>   11.4288   -0.0000 </r>
       <r>   11.8025   -0.0000 </r>
       <r>   11.9187   -0.0000 </r>
       <r>   18.2539    0.0000 </r>
       <r>   18.3271    0.0000 </r>
       <r>   20.8628    0.0000 </r>
       <r>   24.9005    0.0000 </r>
       <r>   27.5839    0.0000 </r>
      </set>
      <set comment="kpoint 10">
       <r>    6.5819    1.0000 </r>
       <r>    7.1353    1.0000 </r>
       <r>    7.2980    1.0000 </r>
       <r>    8.4660    1.0000 </r>
       <r>    9.3333    1.0000 </r>
       <r>    9.4981    1.0000 </r>
       <r>    9.8963    1.0001 </r>
       <r>   11.6234   -0.0000 </r>
       <r>   11.7787   -0.0000 </r>
       <r>   11.8155   -0.0000 </r>
       <r>   13.0359   -0.0000 </r>
       <r>   15.9089   -0.0000 </r>
       <r>   20.5761    0.0000 </r>
       <r>   21.3329    0.0000 </r>
       <r>   23.8566    0.0000 </r>
       <r>   24.7378    0.0000 </r>
      </set>
      <set comment="kpoint 11">
       <r>    5.2383    1.0000 </r>
       <r>    7.6627    1.0000 </r>
       <r>    7.7663    1.0000 </r>
[...]
       <r>    26.6264     0.3106    14.9839 </r>
       <r>    26.7543     0.4540    15.0420 </r>
       <r>    26.8823     0.3898    15.0919 </r>
       <r>    27.0102     0.1719    15.1139 </r>
       <r>    27.1382     0.1791    15.1368 </r>
       <r>    27.2661     0.2450    15.1681 </r>
       <r>    27.3941     0.1977    15.1934 </r>
       <r>    27.5220     0.0903    15.2050 </r>
       <r>    27.6500     0.1117    15.2193 </r>
       <r>    27.7780     0.3154    15.2596 </r>
       <r>    27.9059     0.4313    15.3148 </r>
       <r>    28.0339     0.3071    15.3541 </r>
       <r>    28.1618     0.1668    15.3754 </r>
       <r>    28.2898     0.1912    15.3999 </r>
       <r>    28.4177     0.2157    15.4275 </r>
       <r>    28.5457     0.2181    15.4554 </r>
       <r>    28.6736     0.2228    15.4839 </r>
       <r>    28.8016     0.1931    15.5086 </r>
       <r>    28.9295     0.1744    15.5309 </r>
       <r>    29.0575     0.1326    15.5479 </r>
       <r>    29.1854     0.0813    15.5583 </r>
       <r>    29.3134     0.1236    15.5741 </r>
       <r>    29.4413     0.1855    15.5978 </r>
       <r>    29.5693     0.1705    15.6197 </r>
       <r>    29.6972     0.1527    15.6392 </r>
       <r>    29.8252     0.1899    15.6635 </r>
       <r>    29.9531     0.2177    15.6914 </r>
       <r>    30.0811     0.1361    15.7088 </r>
       <r>    30.2090     0.1016    15.7218 </r>
       <r>    30.3370     0.1318    15.7386 </r>
       <r>    30.4649     0.0844    15.7494 </r>
       <r>    30.5929     0.0515    15.7560 </r>
       <r>    30.7208     0.0693    15.7649 </r>
       <r>    30.8488     0.0996    15.7776 </r>
       <r>    30.9767     0.1011    15.7906 </r>
       <r>    31.1047     0.0925    15.8024 </r>
       <r>    31.2326     0.1080    15.8162 </r>
       <r>    31.3606     0.0586    15.8237 </r>
       <r>    31.4885     0.0035    15.8242 </r>
       <r>    31.6165     0.0086    15.8253 </r>
       <r>    31.7444     0.0515    15.8319 </r>
       <r>    31.8724     0.1122    15.8462 </r>
       <r>    32.0003     0.1517    15.8656 </r>
       <r>    32.1283     0.0952    15.8778 </r>
       <r>    32.2562     0.0111    15.8793 </r>
       <r>    32.3842     0.0060    15.8800 </r>
       <r>    32.5121     0.0500    15.8864 </r>
       <r>    32.6401     0.0541    15.8933 </r>
       <r>    32.7680     0.0254    15.8966 </r>
       <r>    32.8960     0.0486    15.9028 </r>
       <r>    33.0239     0.1480    15.9217 </r>
       <r>    33.1519     0.2025    15.9476 </r>
       <r>    33.2798     0.1093    15.9616 </r>
       <r>    33.4078     0.0358    15.9662 </r>
       <r>    33.5357     0.0598    15.9739 </r>
       <r>    33.6637     0.0466    15.9798 </r>
       <r>    33.7916     0.0050    15.9805 </r>
       <r>    33.9196    -0.0026    15.9801 </r>
       <r>    34.0475     0.0060    15.9809 </r>
       <r>    34.1755     0.0094    15.9821 </r>
       <r>    34.3034     0.0023    15.9824 </r>
       <r>    34.4314     0.0001    15.9824 </r>
       <r>    34.5593     0.0169    15.9846 </r>
       <r>    34.6873     0.0353    15.9891 </r>
       <r>    34.8152     0.0305    15.9930 </r>
       <r>    34.9432     0.0149    15.9949 </r>
       <r>    35.0711     0.0023    15.9952 </r>
       <r>    35.1991    -0.0015    15.9950 </r>
       <r>    35.3270    -0.0011    15.9948 </r>
       <r>    35.4550     0.0062    15.9956 </r>
       <r>    35.5829     0.0189    15.9980 </r>
       <r>    35.7109     0.0145    15.9999 </r>
       <r>    35.8388     0.0019    16.0002 </r>
       <r>    35.9668    -0.0010    16.0000 </r>
       <r>    36.0947    -0.0002    16.0000 </r>
       <r>    36.2227    -0.0000    16.0000 </r>
       <r>    36.3506    -0.0000    16.0000 </r>
       <r>    36.4786    -0.0000    16.0000 </r>
       <r>    36.6065    -0.0000    16.0000 </r>
       <r>    36.7345    -0.0000    16.0000 </r>
       <r>    36.8624    -0.0000    16.0000 </r>
       <r>    36.9904     0.0000    16.0000 </r>
       <r>    37.1183     0.0000    16.0000 </r>
       <r>    37.2463     0.0000    16.0000 </r>
       <r>    37.3742     0.0000    16.0000 </r>
       <r>    37.5022     0.0000    16.0000 </r>
       <r>    37.6301     0.0000    16.0000 </r>
       <r>    37.7581     0.0000    16.0000 </r>
       <r>    37.8860     0.0000    16.0000 </r>
      </set>
      <set comment="spin 2">
       <r>    -0.4991     0.0000     0.0000 </r>
       <r>    -0.3711     0.0000     0.0000 </r>
       <r>    -0.2432     0.0000     0.0000 </r>
       <r>    -0.1152    -0.0000    -0.0000 </r>
       <r>     0.0127    -0.0000    -0.0000 </r>
       <r>     0.1407    -0.0000    -0.0000 </r>
       <r>     0.2686    -0.0000    -0.0000 </r>
       <r>     0.3966    -0.0000    -0.0000 </r>
       <r>     0.5245    -0.0000    -0.0000 </r>
       <r>     0.6525    -0.0000    -0.0000 </r>
       <r>     0.7804    -0.0000    -0.0000 </r>
       <r>     0.9084    -0.0000    -0.0000 </r>
       <r>     1.0363    -0.0000    -0.0000 </r>
       <r>     1.1643    -0.0002    -0.0000 </r>
       <r>     1.2922    -0.0004    -0.0001 </r>
       <r>     1.4202     0.0010     0.0001 </r>
       <r>     1.5481     0.0054     0.0007 </r>
       <r>     1.6761     0.0102     0.0020 </r>
       <r>     1.8040     0.0208     0.0047 </r>
       <r>     1.9320     0.0508     0.0112 </r>
       <r>     2.0599     0.0768     0.0210 </r>
       <r>     2.1879     0.0499     0.0274 </r>
       <r>     2.3158     0.0106     0.0288 </r>
       <r>     2.4438     0.0375     0.0336 </r>
       <r>     2.5717     0.0905     0.0451 </r>
       <r>     2.6997     0.0945     0.0572 </r>
       <r>     2.8276     0.0738     0.0667 </r>
       <r>     2.9556     0.0726     0.0760 </r>
       <r>     3.0835     0.1147     0.0906 </r>
       <r>     3.2115     0.1434     0.1090 </r>
       <r>     3.3394     0.0996     0.1217 </r>
       <r>     3.4674     0.0611     0.1295 </r>
       <r>     3.5953     0.0360     0.1341 </r>
       <r>     3.7233     0.0301     0.1380 </r>
       <r>     3.8512     0.1310     0.1548 </r>
       <r>     3.9792     0.2167     0.1825 </r>
       <r>     4.1071     0.1937     0.2073 </r>
       <r>     4.2351     0.1605     0.2278 </r>
       <r>     4.3630     0.1720     0.2498 </r>
       <r>     4.4910     0.1573     0.2699 </r>
       <r>     4.6189     0.0859     0.2809 </r>
       <r>     4.7469     0.0894     0.2924 </r>
       <r>     4.8748     0.1885     0.3165 </r>
       <r>     5.0028     0.2263     0.3454 </r>
       <r>     5.1307     0.1490     0.3645 </r>
       <r>     5.2587     0.1421     0.3827 </r>
       <r>     5.3866     0.2209     0.4109 </r>
       <r>     5.5146     0.2762     0.4463 </r>
       <r>     5.6425     0.3470     0.4907 </r>
       <r>     5.7705     0.3581     0.5365 </r>
       <r>     5.8984     0.3626     0.5829 </r>
       <r>     6.0264     0.4567     0.6413 </r>
       <r>     6.1543     0.2883     0.6782 </r>
       <r>     6.2823     0.1615     0.6989 </r>
       <r>     6.4102     0.6035     0.7761 </r>
       <r>     6.5382     1.0921     0.9158 </r>
       <r>     6.6661     1.0025     1.0441 </r>
       <r>     6.7941     0.7647     1.1419 </r>
       <r>     6.9220     0.8199     1.2468 </r>
       <r>     7.0500     1.0945     1.3869 </r>
       <r>     7.1779     1.1228     1.5305 </r>
       <r>     7.3059     0.9912     1.6574 </r>
       <r>     7.4338     1.3891     1.8351 </r>
       <r>     7.5618     1.6296     2.0436 </r>
       <r>     7.6897     1.2291     2.2009 </r>
       <r>     7.8177     1.0492     2.3351 </r>
       <r>     7.9456     1.3141     2.5033 </r>
       <r>     8.0736     1.6255     2.7112 </r>
       <r>     8.2015     1.7207     2.9314 </r>
       <r>     8.3295     1.9021     3.1748 </r>
       <r>     8.4574     1.9997     3.4306 </r>
       <r>     8.5854     1.5969     3.6350 </r>
       <r>     8.7133     1.0158     3.7649 </r>
       <r>     8.8413     0.7803     3.8648 </r>
       <r>     8.9692     1.0102     3.9940 </r>
       <r>     9.0972     1.5119     4.1875 </r>
       <r>     9.2251     2.1278     4.4597 </r>
       <r>     9.3531     2.5672     4.7882 </r>
       <r>     9.4810     2.5094     5.1093 </r>
       <r>     9.6090     2.2963     5.4031 </r>
       <r>     9.7369     2.4835     5.7209 </r>
       <r>     9.8649     2.7379     6.0712 </r>
       <r>     9.9928     2.6981     6.4164 </r>
       <r>    10.1208     2.2962     6.7102 </r>
       <r>    10.2488     1.8301     6.9444 </r>
       <r>    10.3767     1.6307     7.1530 </r>
       <r>    10.5047     1.5686     7.3537 </r>
       <r>    10.6326     1.3354     7.5246 </r>
       <r>    10.7606     1.2614     7.6860 </r>
       <r>    10.8885     1.3015     7.8525 </r>
       <r>    11.0165     1.7041     8.0705 </r>
       <r>    11.1444     1.8255     8.3041 </r>
       <r>    11.2724     1.4760     8.4930 </r>
       <r>    11.4003     1.6849     8.7085 </r>
       <r>    11.5283     2.4828     9.0262 </r>
       <r>    11.6562     3.5549     9.4811 </r>
       <r>    11.7842     3.9950     9.9922 </r>
       <r>    11.9121     3.0964    10.3884 </r>
       <r>    12.0401     1.6724    10.6024 </r>
       <r>    12.1680     0.6345    10.6836 </r>
       <r>    12.2960     0.1902    10.7079 </r>
       <r>    12.4239     0.2201    10.7361 </r>
       <r>    12.5519     0.3133    10.7762 </r>
       <r>    12.6798     0.2717    10.8109 </r>
       <r>    12.8078     0.3299    10.8531 </r>
       <r>    12.9357     0.4996    10.9171 </r>
       <r>    13.0637     0.5144    10.9829 </r>
       <r>    13.1916     0.3629    11.0293 </r>
       <r>    13.3196     0.3246    11.0708 </r>
       <r>    13.4475     0.4684    11.1308 </r>
       <r>    13.5755     0.4440    11.1876 </r>
       <r>    13.7034     0.2546    11.2202 </r>
       <r>    13.8314     0.1380    11.2378 </r>
       <r>    13.9593     0.1718    11.2598 </r>
       <r>    14.0873     0.2642    11.2936 </r>
       <r>    14.2152     0.2268    11.3226 </r>
       <r>    14.3432     0.1570    11.3427 </r>
       <r>    14.4711     0.1206    11.3581 </r>
       <r>    14.5991     0.1088    11.3721 </r>
       <r>    14.7270     0.2535    11.4045 </r>
       <r>    14.8550     0.4908    11.4673 </r>
       <r>    14.9829     0.4912    11.5302 </r>
       <r>    15.1109     0.3822    11.5791 </r>
       <r>    15.2388     0.2400    11.6098 </r>
       <r>    15.3668     0.0852    11.6207 </r>
       <r>    15.4947     0.1063    11.6343 </r>
       <r>    15.6227     0.2624    11.6678 </r>
       <r>    15.7506     0.3246    11.7094 </r>
       <r>    15.8786     0.1914    11.7339 </r>
       <r>    16.0065     0.1436    11.7522 </r>
       <r>    16.1345     0.2649    11.7861 </r>
       <r>    16.2624     0.2323    11.8158 </r>
       <r>    16.3904     0.1461    11.8345 </r>
       <r>    16.5183     0.1634    11.8554 </r>
       <r>    16.6463     0.1020    11.8685 </r>
       <r>    16.7742     0.0720    11.8777 </r>
       <r>    16.9022     0.0790    11.8878 </r>
       <r>    17.0301     0.0436    11.8934 </r>
       <r>    17.1581     0.0297    11.8972 </r>
       <r>    17.2860     0.1080    11.9110 </r>
       <r>    17.4140     0.2066    11.9374 </r>
       <r>    17.5419     0.2000    11.9630 </r>
       <r>    17.6699     0.1156    11.9778 </r>
       <r>    17.7978     0.0613    11.9857 </r>
       <r>    17.9258     0.0759    11.9954 </r>
       <r>    18.0537     0.1501    12.0146 </r>
       <r>    18.1817     0.2167    12.0423 </r>
       <r>    18.3096     0.2378    12.0727 </r>
       <r>    18.4376     0.1702    12.0945 </r>
       <r>    18.5655     0.0373    12.0993 </r>
       <r>    18.6935     0.0195    12.1018 </r>
       <r>    18.8214     0.1060    12.1153 </r>
       <r>    18.9494     0.1895    12.1396 </r>
       <r>    19.0773     0.3843    12.1888 </r>
       <r>    19.2053     0.5340    12.2571 </r>
       <r>    19.3332     0.3969    12.3079 </r>
       <r>    19.4612     0.3267    12.3497 </r>
       <r>    19.5891     0.3961    12.4004 </r>
       <r>    19.7171     0.5077    12.4653 </r>
       <r>    19.8450     0.5331    12.5335 </r>
       <r>    19.9730     0.4025    12.5850 </r>
       <r>    20.1009     0.2838    12.6213 </r>
       <r>    20.2289     0.2716    12.6561 </r>
       <r>    20.3568     0.3085    12.6956 </r>
       <r>    20.4848     0.3632    12.7420 </r>
       <r>    20.6127     0.3753    12.7901 </r>
       <r>    20.7407     0.3326    12.8326 </r>
       <r>    20.8686     0.3055    12.8717 </r>
       <r>    20.9966     0.3191    12.9125 </r>
       <r>    21.1245     0.1919    12.9371 </r>
       <r>    21.2525     0.2430    12.9682 </r>
       <r>    21.3804     0.5796    13.0424 </r>
       <r>    21.5084     0.6459    13.1250 </r>
       <r>    21.6363     0.4349    13.1806 </r>
       <r>    21.7643     0.4110    13.2332 </r>
       <r>    21.8922     0.4702    13.2934 </r>
       <r>    22.0202     0.4359    13.3492 </r>
       <r>    22.1481     0.4410    13.4056 </r>
       <r>    22.2761     0.3368    13.4487 </r>
       <r>    22.4040     0.2124    13.4759 </r>
       <r>    22.5320     0.2282    13.5051 </r>
       <r>    22.6599     0.2341    13.5350 </r>
       <r>    22.7879     0.2950    13.5728 </r>
       <r>    22.9158     0.4842    13.6347 </r>
       <r>    23.0438     0.5585    13.7062 </r>
       <r>    23.1717     0.3395    13.7496 </r>
       <r>    23.2997     0.1685    13.7712 </r>
       <r>    23.4276     0.2161    13.7988 </r>
       <r>    23.5556     0.1907    13.8232 </r>
       <r>    23.6835     0.1354    13.8405 </r>
       <r>    23.8115     0.2624    13.8741 </r>
       <r>    23.9394     0.4099    13.9266 </r>
       <r>    24.0674     0.4366    13.9824 </r>
       <r>    24.1953     0.3298    14.0246 </r>
       <r>    24.3233     0.1444    14.0431 </r>
       <r>    24.4512     0.1568    14.0632 </r>
       <r>    24.5792     0.3545    14.1085 </r>
       <r>    24.7071     0.3911    14.1586 </r>
       <r>    24.8351     0.3806    14.2073 </r>
       <r>    24.9630     0.4888    14.2698 </r>
       <r>    25.0910     0.4873    14.3322 </r>
       <r>    25.2189     0.3718    14.3797 </r>
       <r>    25.3469     0.2683    14.4141 </r>
       <r>    25.4748     0.1394    14.4319 </r>
       <r>    25.6028     0.1754    14.4543 </r>
       <r>    25.7307     0.3942    14.5048 </r>
       <r>    25.8587     0.4347    14.5604 </r>
       <r>    25.9866     0.3508    14.6053 </r>
       <r>    26.1146     0.3635    14.6518 </r>
       <r>    26.2425     0.3688    14.6990 </r>
       <r>    26.3705     0.3129    14.7390 </r>
       <r>    26.4984     0.3523    14.7841 </r>
       <r>    26.6264     0.4958    14.8475 </r>
       <r>    26.7543     0.4938    14.9107 </r>
       <r>    26.8823     0.3491    14.9554 </r>
       <r>    27.0102     0.3092    14.9949 </r>
       <r>    27.1382     0.4479    15.0522 </r>
       <r>    27.2661     0.3831    15.1013 </r>
       <r>    27.3941     0.1855    15.1250 </r>
       <r>    27.5220     0.1858    15.1488 </r>
       <r>    27.6500     0.2227    15.1772 </r>
       <r>    27.7780     0.1583    15.1975 </r>
       <r>    27.9059     0.0867    15.2086 </r>
       <r>    28.0339     0.1944    15.2335 </r>
       <r>    28.1618     0.3989    15.2845 </r>
       <r>    28.2898     0.4284    15.3393 </r>
       <r>    28.4177     0.2790    15.3750 </r>
       <r>    28.5457     0.1805    15.3981 </r>
       <r>    28.6736     0.1559    15.4180 </r>
       <r>    28.8016     0.1850    15.4417 </r>
       <r>    28.9295     0.2637    15.4755 </r>
       <r>    29.0575     0.2669    15.5096 </r>
       <r>    29.1854     0.1561    15.5296 </r>
       <r>    29.3134     0.0968    15.5420 </r>
       <r>    29.4413     0.1220    15.5576 </r>
       <r>    29.5693     0.1662    15.5788 </r>
       <r>    29.6972     0.1718    15.6008 </r>
       <r>    29.8252     0.1145    15.6155 </r>
       <r>    29.9531     0.1512    15.6348 </r>
       <r>    30.0811     0.2490    15.6667 </r>
       <r>    30.2090     0.2126    15.6939 </r>
       <r>    30.3370     0.1150    15.7086 </r>
       <r>    30.4649     0.1199    15.7239 </r>
       <r>    30.5929     0.1573    15.7441 </r>
       <r>    30.7208     0.1159    15.7589 </r>
       <r>    30.8488     0.0392    15.7639 </r>
       <r>    30.9767     0.0365    15.7686 </r>
       <r>    31.1047     0.0998    15.7813 </r>
       <r>    31.2326     0.1359    15.7987 </r>
       <r>    31.3606     0.1238    15.8146 </r>
       <r>    31.4885     0.0704    15.8236 </r>
       <r>    31.6165     0.0213    15.8263 </r>
       <r>    31.7444     0.0319    15.8304 </r>
       <r>    31.8724     0.0531    15.8372 </r>
       <r>    32.0003     0.0588    15.8447 </r>
       <r>    32.1283     0.1140    15.8593 </r>
       <r>    32.2562     0.1172    15.8743 </r>
       <r>    32.3842     0.0611    15.8821 </r>
       <r>    32.5121     0.0626    15.8901 </r>
       <r>    32.6401     0.0513    15.8967 </r>
       <r>    32.7680     0.0064    15.8975 </r>
       <r>    32.8960     0.0009    15.8976 </r>
       <r>    33.0239     0.0511    15.9042 </r>
       <r>    33.1519     0.1333    15.9212 </r>
       <r>    33.2798     0.1718    15.9432 </r>
       <r>    33.4078     0.1401    15.9611 </r>
       <r>    33.5357     0.0969    15.9735 </r>
       <r>    33.6637     0.0494    15.9798 </r>
       <r>    33.7916     0.0115    15.9813 </r>
       <r>    33.9196     0.0063    15.9821 </r>
       <r>    34.0475     0.0036    15.9826 </r>
       <r>    34.1755    -0.0010    15.9824 </r>
       <r>    34.3034    -0.0020    15.9822 </r>
       <r>    34.4314     0.0084    15.9833 </r>
       <r>    34.5593     0.0323    15.9874 </r>
       <r>    34.6873     0.0360    15.9920 </r>
       <r>    34.8152     0.0188    15.9944 </r>
       <r>    34.9432     0.0054    15.9951 </r>
       <r>    35.0711    -0.0005    15.9950 </r>
       <r>    35.1991    -0.0006    15.9950 </r>
       <r>    35.3270     0.0046    15.9955 </r>
       <r>    35.4550     0.0097    15.9968 </r>
       <r>    35.5829     0.0057    15.9975 </r>
       <r>    35.7109     0.0038    15.9980 </r>
       <r>    35.8388     0.0075    15.9990 </r>
       <r>    35.9668     0.0066    15.9998 </r>
       <r>    36.0947     0.0019    16.0001 </r>
       <r>    36.2227    -0.0002    16.0000 </r>
       <r>    36.3506    -0.0002    16.0000 </r>
       <r>    36.4786    -0.0000    16.0000 </r>
       <r>    36.6065    -0.0000    16.0000 </r>
       <r>    36.7345    -0.0000    16.0000 </r>
       <r>    36.8624    -0.0000    16.0000 </r>
       <r>    36.9904    -0.0000    16.0000 </r>
       <r>    37.1183    -0.0000    16.0000 </r>
       <r>    37.2463     0.0000    16.0000 </r>
       <r>    37.3742     0.0000    16.0000 </r>
       <r>    37.5022     0.0000    16.0000 </r>
       <r>    37.6301     0.0000    16.0000 </r>
       <r>    37.7581     0.0000    16.0000 </r>
       <r>    37.8860     0.0000    16.0000 </r>
      </set>
     </set>
    </array>
   </total>
  </dos>
 </calculation>
 <structure name="finalpos" >
  <crystal>
   <varray name="basis" >
    <v>       1.23599995      -2.14081471       0.00000000 </v>
    <v>       1.23599995       2.14081471       0.00000000 </v>
    <v>       0.00000000       0.00000000       4.02114408 </v>
   </varray>
   <i name="volume">     21.28027152 </i>
   <varray name="rec_basis" >
    <v>       0.40453076      -0.23355594       0.00000000 </v>
    <v>       0.40453076       0.23355594       0.00000000 </v>
    <v>       0.00000000       0.00000000       0.24868544 </v>
   </varray>
  </crystal>
  <varray name="positions" >
   <v>       0.33333333       0.66666667       0.25000000 </v>
   <v>       0.66666667       0.33333333       0.75000000 </v>
  </varray>
 </structure>
</modeling>
