   2   2   1   0
  0.1216287E+02  0.2591967E-09  0.2591967E-09  0.4180965E-09  0.5000000E-15
  1.000000000000000E-004
  CAR 
 Co-hcc                                  
     46.27312236     -1.72407775  301      8.71004465      1.00000000
     -1.724  0.0000E+00  0.0000E+00  0.0000E+00  0.0000E+00
     -1.564  0.0000E+00  0.0000E+00  0.0000E+00  0.0000E+00
     -1.404  0.0000E+00  0.0000E+00  0.0000E+00  0.0000E+00
     -1.244  0.0000E+00  0.0000E+00  0.0000E+00  0.0000E+00
     -1.084  0.0000E+00  0.0000E+00  0.0000E+00  0.0000E+00
     -0.924  0.0000E+00  0.0000E+00  0.0000E+00  0.0000E+00
     -0.764  0.0000E+00  0.0000E+00  0.0000E+00  0.0000E+00
     -0.604  0.0000E+00  0.0000E+00  0.0000E+00  0.0000E+00
     -0.444  0.0000E+00  0.0000E+00  0.0000E+00  0.0000E+00
     -0.284  0.0000E+00  0.0000E+00  0.0000E+00  0.0000E+00
     -0.124  0.0000E+00  0.0000E+00  0.0000E+00  0.0000E+00
      0.036  0.0000E+00  0.0000E+00  0.0000E+00  0.0000E+00
      0.196  0.1325E-18  0.3560E-17  0.2120E-19  0.5696E-18
      0.356  0.2588E-07  0.1080E-06  0.4140E-08  0.1728E-07
      0.516  0.4842E-04  0.5217E-04  0.7751E-05  0.8364E-05
      0.676  0.2036E-03  0.2522E-03  0.4033E-04  0.4871E-04
      0.836  0.5421E-03  0.5881E-03  0.1271E-03  0.1428E-03
      0.996  0.3546E-03  0.2631E-03  0.1838E-03  0.1849E-03
      1.156  0.3488E-03  0.3719E-03  0.2396E-03  0.2444E-03
      1.316  0.1357E-02  0.1390E-02  0.4566E-03  0.4669E-03
      1.476  0.6584E-03  0.6355E-03  0.5620E-03  0.5685E-03
      1.636  0.4248E-03  0.3937E-03  0.6299E-03  0.6315E-03
      1.796  0.6806E-03  0.6685E-03  0.7388E-03  0.7385E-03
      1.956  0.1501E-02  0.1427E-02  0.9790E-03  0.9668E-03
      2.116  0.1540E-02  0.1500E-02  0.1225E-02  0.1207E-02
      2.276  0.3099E-03  0.3581E-03  0.1275E-02  0.1264E-02
      2.436  0.1642E-02  0.1160E-02  0.1538E-02  0.1450E-02
      2.596  0.1926E-02  0.2396E-02  0.1846E-02  0.1833E-02
      2.756  0.5330E-03  0.1353E-03  0.1931E-02  0.1855E-02
      2.916  0.1059E-02  0.1327E-02  0.2100E-02  0.2067E-02
      3.076  0.2767E-02  0.1260E-02  0.2543E-02  0.2269E-02
      3.236  0.2046E-02  0.3022E-02  0.2870E-02  0.2752E-02
      3.396  0.2764E-02  0.1471E-02  0.3313E-02  0.2987E-02
      3.556  0.1739E-02  0.1845E-02  0.3591E-02  0.3283E-02
      3.716  0.2138E-02  0.1353E-02  0.3933E-02  0.3499E-02
      3.876  0.2907E-02  0.1524E-02  0.4398E-02  0.3743E-02
      4.036  0.6737E-02  0.2391E-02  0.5476E-02  0.4125E-02
      4.196  0.9566E-02  0.2973E-02  0.7006E-02  0.4601E-02
      4.356  0.1025E-01  0.2215E-02  0.8647E-02  0.4955E-02
      4.516  0.1388E-01  0.3473E-02  0.1087E-01  0.5511E-02
      4.676  0.1407E-01  0.3410E-02  0.1312E-01  0.6056E-02
      4.836  0.2450E-01  0.3608E-02  0.1704E-01  0.6634E-02
      4.996  0.1781E-01  0.4544E-02  0.1989E-01  0.7361E-02
      5.156  0.1888E-01  0.2196E-02  0.2291E-01  0.7712E-02
      5.316  0.2074E-01  0.1320E-01  0.2623E-01  0.9824E-02
      5.476  0.2386E-01  0.7214E-02  0.3004E-01  0.1098E-01
      5.635  0.2508E-01  0.8042E-02  0.3406E-01  0.1226E-01
      5.795  0.2155E-01  0.7122E-02  0.3751E-01  0.1340E-01
      5.955  0.1446E-01  0.1407E-01  0.3982E-01  0.1565E-01
      6.115  0.3447E-01  0.1278E-01  0.4533E-01  0.1770E-01
      6.275  0.3366E-01  0.1587E-01  0.5072E-01  0.2024E-01
      6.435  0.3673E-01  0.1352E-01  0.5659E-01  0.2240E-01
      6.595  0.3689E-01  0.1623E-01  0.6250E-01  0.2500E-01
      6.755  0.3192E-01  0.1803E-01  0.6760E-01  0.2788E-01
      6.915  0.2445E-01  0.2061E-01  0.7152E-01  0.3118E-01
      7.075  0.2490E-01  0.2551E-01  0.7550E-01  0.3526E-01
      7.235  0.2155E-01  0.1184E-01  0.7895E-01  0.3716E-01
      7.395  0.1907E-01  0.1110E-01  0.8200E-01  0.3893E-01
      7.555  0.3142E-01  0.1326E-01  0.8702E-01  0.4106E-01
      7.715  0.3825E-01  0.2673E-01  0.9314E-01  0.4533E-01
      7.875  0.5578E-01  0.2772E-01  0.1021E+00  0.4977E-01
      8.035  0.1463E-01  0.2941E-01  0.1044E+00  0.5447E-01
      8.195  0.1522E-02  0.3268E-01  0.1047E+00  0.5970E-01
      8.355  0.6454E-02  0.3425E-01  0.1057E+00  0.6518E-01
      8.515  0.4873E-02  0.2202E-01  0.1065E+00  0.6870E-01
      8.675  0.4271E-02  0.2015E-01  0.1071E+00  0.7193E-01
      8.835  0.1295E-02  0.1586E-01  0.1074E+00  0.7446E-01
      8.995  0.9872E-03  0.2035E-01  0.1075E+00  0.7772E-01
      9.155  0.1129E-02  0.1386E-01  0.1077E+00  0.7994E-01
      9.315  0.3035E-02  0.1679E-01  0.1082E+00  0.8262E-01
      9.475  0.5357E-02  0.2766E-01  0.1090E+00  0.8705E-01
      9.635  0.5612E-02  0.2805E-01  0.1099E+00  0.9154E-01
      9.795  0.3827E-02  0.4532E-01  0.1105E+00  0.9879E-01
      9.955  0.1427E-02  0.3748E-01  0.1108E+00  0.1048E+00
     10.115  0.2067E-02  0.1033E-01  0.1111E+00  0.1064E+00
     10.275  0.1021E-02  0.4799E-02  0.1113E+00  0.1072E+00
     10.435  0.3806E-02  0.3600E-02  0.1119E+00  0.1078E+00
     10.595  0.1368E-02  0.3486E-02  0.1121E+00  0.1083E+00
     10.755  0.4326E-02  0.4709E-02  0.1128E+00  0.1091E+00
     10.915  0.8534E-03  0.5322E-02  0.1129E+00  0.1099E+00
     11.075  0.3719E-02  0.4813E-02  0.1135E+00  0.1107E+00
     11.235  0.2710E-02  0.2841E-02  0.1140E+00  0.1112E+00
     11.395  0.1743E-02  0.4167E-02  0.1142E+00  0.1118E+00
     11.555  0.1279E-02  0.1955E-02  0.1144E+00  0.1122E+00
     11.715  0.2202E-02  0.1628E-02  0.1148E+00  0.1124E+00
     11.875  0.6642E-02  0.5072E-02  0.1159E+00  0.1132E+00
     12.035  0.2019E-02  0.1601E-02  0.1162E+00  0.1135E+00
     12.195  0.2418E-02  0.3303E-02  0.1166E+00  0.1140E+00
     12.355  0.1713E-02  0.1863E-02  0.1168E+00  0.1143E+00
     12.515  0.1431E-02  0.4007E-02  0.1171E+00  0.1149E+00
     12.675  0.3822E-03  0.4639E-02  0.1171E+00  0.1157E+00
     12.835  0.2510E-02  0.2026E-02  0.1175E+00  0.1160E+00
     12.995  0.4319E-03  0.2207E-02  0.1176E+00  0.1164E+00
     13.155  0.1940E-02  0.2586E-02  0.1179E+00  0.1168E+00
     13.315  0.1050E-02  0.1868E-02  0.1181E+00  0.1171E+00
     13.475  0.5868E-02  0.1798E-02  0.1190E+00  0.1174E+00
     13.635  0.2084E-02  0.1247E-02  0.1193E+00  0.1176E+00
     13.795  0.1520E-02  0.1785E-02  0.1196E+00  0.1179E+00
     13.955  0.4930E-03  0.6597E-03  0.1197E+00  0.1180E+00
     14.115  0.2052E-04  0.4353E-02  0.1197E+00  0.1187E+00
     14.275  0.4978E-03  0.4173E-02  0.1198E+00  0.1193E+00
     14.435  0.1071E-02  0.1365E-02  0.1199E+00  0.1195E+00
     14.595  0.1347E-02  0.8193E-03  0.1201E+00  0.1197E+00
     14.755  0.8974E-03  0.3718E-05  0.1203E+00  0.1197E+00
     14.915  0.1972E-03  0.2944E-07  0.1203E+00  0.1197E+00
     15.075  0.1613E-02  0.6107E-03  0.1206E+00  0.1198E+00
     15.235  0.3183E-02  0.1573E-02  0.1211E+00  0.1200E+00
     15.395  0.2866E-02  0.7807E-03  0.1215E+00  0.1201E+00
     15.555  0.6764E-02  0.1093E-02  0.1226E+00  0.1203E+00
     15.715  0.5905E-02  0.6154E-03  0.1236E+00  0.1204E+00
     15.875  0.1997E-02  0.1151E-02  0.1239E+00  0.1206E+00
     16.035  0.4751E-02  0.2362E-02  0.1246E+00  0.1210E+00
     16.195  0.3345E-02  0.7202E-02  0.1252E+00  0.1221E+00
     16.355  0.3376E-02  0.6852E-02  0.1257E+00  0.1232E+00
     16.515  0.1960E-02  0.2800E-02  0.1260E+00  0.1237E+00
     16.675  0.4398E-02  0.4266E-02  0.1267E+00  0.1244E+00
     16.835  0.3127E-02  0.3767E-02  0.1272E+00  0.1250E+00
     16.995  0.2072E-02  0.4836E-02  0.1276E+00  0.1257E+00
     17.155  0.4519E-02  0.2259E-02  0.1283E+00  0.1261E+00
     17.315  0.2307E-02  0.3946E-02  0.1287E+00  0.1267E+00
     17.475  0.2895E-02  0.3773E-02  0.1291E+00  0.1273E+00
     17.635  0.5585E-02  0.3260E-02  0.1300E+00  0.1279E+00
     17.795  0.4650E-02  0.3803E-02  0.1308E+00  0.1285E+00
     17.955  0.2009E-02  0.2488E-02  0.1311E+00  0.1289E+00
     18.115  0.5083E-02  0.3283E-02  0.1319E+00  0.1294E+00
     18.275  0.3808E-02  0.5670E-02  0.1325E+00  0.1303E+00
     18.435  0.3549E-02  0.5264E-02  0.1331E+00  0.1311E+00
     18.595  0.4229E-02  0.5055E-02  0.1338E+00  0.1319E+00
     18.755  0.5216E-02  0.3332E-02  0.1346E+00  0.1325E+00
     18.915  0.2665E-02  0.3058E-02  0.1350E+00  0.1330E+00
     19.075  0.2944E-02  0.5487E-02  0.1355E+00  0.1338E+00
     19.235  0.2231E-02  0.4139E-02  0.1358E+00  0.1345E+00
     19.395  0.5750E-02  0.4015E-02  0.1368E+00  0.1351E+00
     19.555  0.4213E-02  0.2679E-02  0.1374E+00  0.1356E+00
     19.715  0.2086E-02  0.3286E-02  0.1378E+00  0.1361E+00
     19.875  0.3174E-02  0.5288E-02  0.1383E+00  0.1369E+00
     20.035  0.1891E-02  0.3496E-02  0.1386E+00  0.1375E+00
     20.195  0.3038E-02  0.2437E-02  0.1391E+00  0.1379E+00
     20.355  0.2875E-02  0.2230E-02  0.1395E+00  0.1383E+00
     20.515  0.1435E-02  0.3569E-02  0.1398E+00  0.1388E+00
     20.675  0.3360E-02  0.2100E-02  0.1403E+00  0.1392E+00
     20.835  0.5170E-02  0.2569E-02  0.1411E+00  0.1396E+00
     20.995  0.3418E-02  0.1724E-02  0.1417E+00  0.1398E+00
     21.155  0.3014E-02  0.4784E-02  0.1421E+00  0.1406E+00
     21.315  0.1503E-02  0.5219E-02  0.1424E+00  0.1414E+00
     21.475  0.2845E-02  0.2882E-02  0.1428E+00  0.1419E+00
     21.635  0.7322E-02  0.1587E-02  0.1440E+00  0.1422E+00
     21.795  0.2624E-02  0.2913E-02  0.1444E+00  0.1426E+00
     21.955  0.2330E-02  0.5771E-02  0.1448E+00  0.1436E+00
     22.115  0.5205E-02  0.4799E-02  0.1456E+00  0.1443E+00
     22.275  0.2854E-02  0.8950E-03  0.1461E+00  0.1445E+00
     22.435  0.3985E-02  0.5086E-02  0.1467E+00  0.1453E+00
     22.595  0.5781E-02  0.3952E-02  0.1477E+00  0.1459E+00
     22.754  0.4063E-02  0.4076E-02  0.1483E+00  0.1466E+00
     22.914  0.5210E-02  0.5699E-02  0.1491E+00  0.1475E+00
     23.074  0.6280E-02  0.4221E-02  0.1501E+00  0.1481E+00
     23.234  0.4550E-02  0.5170E-02  0.1509E+00  0.1490E+00
     23.394  0.2859E-02  0.6148E-02  0.1513E+00  0.1500E+00
     23.554  0.1161E-02  0.4636E-02  0.1515E+00  0.1507E+00
     23.714  0.6630E-02  0.3178E-02  0.1526E+00  0.1512E+00
     23.874  0.3246E-02  0.2600E-02  0.1531E+00  0.1516E+00
     24.034  0.3122E-02  0.6236E-02  0.1536E+00  0.1526E+00
     24.194  0.6775E-02  0.3950E-02  0.1547E+00  0.1533E+00
     24.354  0.6729E-02  0.1771E-02  0.1558E+00  0.1535E+00
     24.514  0.2660E-02  0.7778E-02  0.1562E+00  0.1548E+00
     24.674  0.3919E-02  0.7007E-02  0.1568E+00  0.1559E+00
     24.834  0.5162E-02  0.2713E-02  0.1576E+00  0.1563E+00
     24.994  0.5270E-02  0.2678E-02  0.1585E+00  0.1568E+00
     25.154  0.1935E-02  0.7039E-02  0.1588E+00  0.1579E+00
     25.314  0.4283E-02  0.4414E-02  0.1595E+00  0.1586E+00
     25.474  0.4770E-02  0.3509E-02  0.1602E+00  0.1592E+00
     25.634  0.3262E-02  0.3210E-02  0.1608E+00  0.1597E+00
     25.794  0.3783E-02  0.4234E-02  0.1614E+00  0.1604E+00
     25.954  0.3809E-02  0.3924E-02  0.1620E+00  0.1610E+00
     26.114  0.5606E-02  0.3651E-02  0.1629E+00  0.1616E+00
     26.274  0.3321E-02  0.5528E-02  0.1634E+00  0.1624E+00
     26.434  0.5821E-02  0.4828E-02  0.1643E+00  0.1632E+00
     26.594  0.6085E-02  0.3878E-02  0.1653E+00  0.1638E+00
     26.754  0.3854E-02  0.7482E-02  0.1659E+00  0.1650E+00
     26.914  0.2724E-02  0.4351E-02  0.1664E+00  0.1657E+00
     27.074  0.5559E-02  0.2300E-02  0.1673E+00  0.1661E+00
     27.234  0.4051E-02  0.4962E-02  0.1679E+00  0.1669E+00
     27.394  0.2832E-02  0.5053E-02  0.1684E+00  0.1677E+00
     27.554  0.5106E-02  0.3422E-02  0.1692E+00  0.1683E+00
     27.714  0.4152E-02  0.4192E-02  0.1698E+00  0.1689E+00
     27.874  0.4998E-02  0.5791E-02  0.1706E+00  0.1698E+00
     28.034  0.2782E-02  0.2392E-02  0.1711E+00  0.1702E+00
     28.194  0.3330E-02  0.5322E-02  0.1716E+00  0.1711E+00
     28.354  0.1923E-02  0.3433E-02  0.1719E+00  0.1716E+00
     28.514  0.6277E-02  0.1132E-02  0.1729E+00  0.1718E+00
     28.674  0.6957E-02  0.6666E-02  0.1740E+00  0.1729E+00
     28.834  0.4324E-02  0.5799E-02  0.1747E+00  0.1738E+00
     28.994  0.7216E-02  0.5352E-02  0.1759E+00  0.1747E+00
     29.154  0.4185E-02  0.6197E-02  0.1766E+00  0.1757E+00
     29.314  0.2221E-02  0.2581E-02  0.1769E+00  0.1761E+00
     29.474  0.5830E-02  0.4711E-02  0.1778E+00  0.1768E+00
     29.634  0.3483E-02  0.5066E-02  0.1784E+00  0.1776E+00
     29.794  0.5010E-02  0.5760E-02  0.1792E+00  0.1786E+00
     29.954  0.5606E-02  0.5420E-02  0.1801E+00  0.1794E+00
     30.114  0.3302E-02  0.5504E-02  0.1806E+00  0.1803E+00
     30.274  0.2811E-02  0.2592E-02  0.1811E+00  0.1807E+00
     30.434  0.1256E-02  0.3853E-03  0.1813E+00  0.1808E+00
     30.594  0.7081E-02  0.3731E-02  0.1824E+00  0.1814E+00
     30.754  0.6517E-02  0.3655E-02  0.1835E+00  0.1820E+00
     30.914  0.6644E-02  0.7245E-02  0.1845E+00  0.1831E+00
     31.074  0.6544E-02  0.5731E-02  0.1856E+00  0.1840E+00
     31.234  0.6657E-02  0.7285E-02  0.1866E+00  0.1852E+00
     31.394  0.3454E-02  0.9020E-02  0.1872E+00  0.1866E+00
     31.554  0.6182E-02  0.3556E-02  0.1882E+00  0.1872E+00
     31.714  0.4587E-02  0.5819E-02  0.1889E+00  0.1881E+00
     31.874  0.5275E-02  0.4919E-02  0.1897E+00  0.1889E+00
     32.034  0.3319E-02  0.4888E-02  0.1903E+00  0.1897E+00
     32.194  0.3188E-02  0.4283E-02  0.1908E+00  0.1904E+00
     32.354  0.2821E-02  0.3447E-02  0.1912E+00  0.1910E+00
     32.514  0.2670E-02  0.3523E-02  0.1917E+00  0.1915E+00
     32.674  0.4157E-02  0.1931E-02  0.1923E+00  0.1918E+00
     32.834  0.6473E-02  0.2948E-02  0.1934E+00  0.1923E+00
     32.994  0.2926E-02  0.6135E-02  0.1938E+00  0.1933E+00
     33.154  0.3733E-02  0.3066E-02  0.1944E+00  0.1938E+00
     33.314  0.6328E-02  0.2744E-02  0.1954E+00  0.1942E+00
     33.474  0.6711E-02  0.6553E-02  0.1965E+00  0.1953E+00
     33.634  0.6629E-02  0.6526E-02  0.1976E+00  0.1963E+00
     33.794  0.1965E-02  0.8103E-02  0.1979E+00  0.1976E+00
     33.954  0.4521E-02  0.6095E-03  0.1986E+00  0.1977E+00
     34.114  0.3102E-02  0.2836E-02  0.1991E+00  0.1981E+00
     34.274  0.4083E-02  0.5397E-02  0.1998E+00  0.1990E+00
     34.434  0.5590E-02  0.5583E-02  0.2007E+00  0.1999E+00
     34.594  0.5444E-02  0.5466E-02  0.2015E+00  0.2008E+00
     34.754  0.4392E-02  0.4106E-02  0.2022E+00  0.2014E+00
     34.914  0.7634E-02  0.2883E-02  0.2035E+00  0.2019E+00
     35.074  0.3688E-02  0.5722E-02  0.2040E+00  0.2028E+00
     35.234  0.5420E-02  0.7202E-02  0.2049E+00  0.2040E+00
     35.394  0.2531E-02  0.6298E-02  0.2053E+00  0.2050E+00
     35.554  0.3817E-02  0.2161E-02  0.2059E+00  0.2053E+00
     35.714  0.3125E-02  0.3671E-02  0.2064E+00  0.2059E+00
     35.874  0.2843E-02  0.3476E-02  0.2069E+00  0.2065E+00
     36.034  0.5501E-02  0.3750E-02  0.2078E+00  0.2071E+00
     36.194  0.7223E-02  0.3390E-02  0.2089E+00  0.2076E+00
     36.354  0.6209E-02  0.7048E-02  0.2099E+00  0.2087E+00
     36.514  0.2929E-02  0.5379E-02  0.2104E+00  0.2096E+00
     36.674  0.6436E-02  0.5712E-02  0.2114E+00  0.2105E+00
     36.834  0.6811E-02  0.5913E-02  0.2125E+00  0.2115E+00
     36.994  0.5072E-02  0.6381E-02  0.2133E+00  0.2125E+00
     37.154  0.4893E-02  0.6507E-02  0.2141E+00  0.2135E+00
     37.314  0.3802E-02  0.4259E-02  0.2147E+00  0.2142E+00
     37.474  0.3707E-02  0.2269E-02  0.2153E+00  0.2146E+00
     37.634  0.5864E-02  0.5132E-02  0.2162E+00  0.2154E+00
     37.794  0.4805E-02  0.7033E-02  0.2170E+00  0.2165E+00
     37.954  0.4300E-02  0.3766E-02  0.2177E+00  0.2171E+00
     38.114  0.1216E-02  0.3571E-02  0.2179E+00  0.2177E+00
     38.274  0.2401E-02  0.1750E-02  0.2183E+00  0.2180E+00
     38.434  0.5424E-02  0.2145E-02  0.2191E+00  0.2183E+00
     38.594  0.7865E-02  0.5861E-02  0.2204E+00  0.2192E+00
     38.754  0.1089E-01  0.6789E-02  0.2221E+00  0.2203E+00
     38.914  0.6176E-02  0.5877E-02  0.2231E+00  0.2213E+00
     39.074  0.1981E-02  0.9346E-02  0.2234E+00  0.2228E+00
     39.234  0.5640E-02  0.5245E-02  0.2243E+00  0.2236E+00
     39.394  0.6412E-02  0.5528E-02  0.2254E+00  0.2245E+00
     39.554  0.4341E-02  0.4869E-02  0.2261E+00  0.2253E+00
     39.714  0.4304E-02  0.5603E-02  0.2268E+00  0.2262E+00
     39.873  0.3020E-02  0.2819E-02  0.2272E+00  0.2266E+00
     40.033  0.5355E-02  0.5833E-02  0.2281E+00  0.2275E+00
     40.193  0.4075E-02  0.3300E-02  0.2287E+00  0.2281E+00
     40.353  0.7665E-02  0.5336E-02  0.2300E+00  0.2289E+00
     40.513  0.4694E-02  0.6824E-02  0.2307E+00  0.2300E+00
     40.673  0.4764E-02  0.5871E-02  0.2315E+00  0.2310E+00
     40.833  0.4966E-02  0.1403E-02  0.2323E+00  0.2312E+00
     40.993  0.1937E-02  0.3310E-02  0.2326E+00  0.2317E+00
     41.153  0.4517E-02  0.6675E-02  0.2333E+00  0.2328E+00
     41.313  0.3015E-02  0.2686E-02  0.2338E+00  0.2332E+00
     41.473  0.2341E-02  0.4638E-02  0.2342E+00  0.2339E+00
     41.633  0.1198E-02  0.1662E-02  0.2344E+00  0.2342E+00
     41.793  0.3455E-02  0.2347E-02  0.2349E+00  0.2346E+00
     41.953  0.2681E-02  0.2386E-02  0.2353E+00  0.2350E+00
     42.113  0.6230E-02  0.1498E-02  0.2363E+00  0.2352E+00
     42.273  0.3395E-02  0.4098E-02  0.2369E+00  0.2359E+00
     42.433  0.4375E-02  0.6888E-02  0.2376E+00  0.2370E+00
     42.593  0.3872E-02  0.3812E-02  0.2382E+00  0.2376E+00
     42.753  0.1767E-02  0.2210E-02  0.2385E+00  0.2379E+00
     42.913  0.2676E-02  0.3595E-02  0.2389E+00  0.2385E+00
     43.073  0.9386E-03  0.2200E-02  0.2391E+00  0.2389E+00
     43.233  0.1504E-02  0.8809E-03  0.2393E+00  0.2390E+00
     43.393  0.6861E-03  0.1728E-02  0.2394E+00  0.2393E+00
     43.553  0.1737E-02  0.7991E-03  0.2397E+00  0.2394E+00
     43.713  0.5868E-03  0.1996E-02  0.2398E+00  0.2397E+00
     43.873  0.6954E-03  0.4144E-03  0.2399E+00  0.2398E+00
     44.033  0.7512E-04  0.9423E-04  0.2399E+00  0.2398E+00
     44.193  0.5856E-03  0.1212E-02  0.2400E+00  0.2400E+00
     44.353  0.3839E-06  0.1807E-05  0.2400E+00  0.2400E+00
     44.513  0.0000E+00  0.0000E+00  0.2400E+00  0.2400E+00
     44.673  0.0000E+00  0.0000E+00  0.2400E+00  0.2400E+00
     44.833  0.0000E+00  0.0000E+00  0.2400E+00  0.2400E+00
     44.993  0.0000E+00  0.0000E+00  0.2400E+00  0.2400E+00
     45.153  0.0000E+00  0.0000E+00  0.2400E+00  0.2400E+00
     45.313  0.0000E+00  0.0000E+00  0.2400E+00  0.2400E+00
     45.473  0.0000E+00  0.0000E+00  0.2400E+00  0.2400E+00
     45.633  0.0000E+00  0.0000E+00  0.2400E+00  0.2400E+00
     45.793  0.0000E+00  0.0000E+00  0.2400E+00  0.2400E+00
     45.953  0.0000E+00  0.0000E+00  0.2400E+00  0.2400E+00
     46.113  0.0000E+00  0.0000E+00  0.2400E+00  0.2400E+00
     46.273  0.0000E+00  0.0000E+00  0.2400E+00  0.2400E+00
     46.27312236     -1.72407775  301      8.71004465      1.00000000
     -1.724  0.0000E+00  0.0000E+00  0.0000E+00  0.0000E+00  0.0000E+00  0.0000E+00  0.0000E+00  0.0000E+00  0.0000E+00  0.0000E+00  0.0000E+00  0.0000E+00  0.0000E+00  0.0000E+00  0.0000E+00  0.0000E+00  0.0000E+00  0.0000E+00
     -1.564  0.0000E+00  0.0000E+00  0.0000E+00  0.0000E+00  0.0000E+00  0.0000E+00  0.0000E+00  0.0000E+00  0.0000E+00  0.0000E+00  0.0000E+00  0.0000E+00  0.0000E+00  0.0000E+00  0.0000E+00  0.0000E+00  0.0000E+00  0.0000E+00
     -1.404  0.0000E+00  0.0000E+00  0.0000E+00  0.0000E+00  0.0000E+00  0.0000E+00  0.0000E+00  0.0000E+00  0.0000E+00  0.0000E+00  0.0000E+00  0.0000E+00  0.0000E+00  0.0000E+00  0.0000E+00  0.0000E+00  0.0000E+00  0.0000E+00
     -1.244  0.0000E+00  0.0000E+00  0.0000E+00  0.0000E+00  0.0000E+00  0.0000E+00  0.0000E+00  0.0000E+00  0.0000E+00  0.0000E+00  0.0000E+00  0.0000E+00  0.0000E+00  0.0000E+00  0.0000E+00  0.0000E+00  0.0000E+00  0.0000E+00
     -1.084  0.0000E+00  0.0000E+00  0.0000E+00  0.0000E+00  0.0000E+00  0.0000E+00  0.0000E+00  0.0000E+00  0.0000E+00  0.0000E+00  0.0000E+00  0.0000E+00  0.0000E+00  0.0000E+00  0.0000E+00  0.0000E+00  0.0000E+00  0.0000E+00
     -0.924  0.0000E+00  0.0000E+00  0.0000E+00  0.0000E+00  0.0000E+00  0.0000E+00  0.0000E+00  0.0000E+00  0.0000E+00  0.0000E+00  0.0000E+00  0.0000E+00  0.0000E+00  0.0000E+00  0.0000E+00  0.0000E+00  0.0000E+00  0.0000E+00
     -0.764  0.0000E+00  0.0000E+00  0.0000E+00  0.0000E+00  0.0000E+00  0.0000E+00  0.0000E+00  0.0000E+00  0.0000E+00  0.0000E+00  0.0000E+00  0.0000E+00  0.0000E+00  0.0000E+00  0.0000E+00  0.0000E+00  0.0000E+00  0.0000E+00
     -0.604  0.0000E+00  0.0000E+00  0.0000E+00  0.0000E+00  0.0000E+00  0.0000E+00  0.0000E+00  0.0000E+00  0.0000E+00  0.0000E+00  0.0000E+00  0.0000E+00  0.0000E+00  0.0000E+00  0.0000E+00  0.0000E+00  0.0000E+00  0.0000E+00
     -0.444  0.0000E+00  0.0000E+00  0.0000E+00  0.0000E+00  0.0000E+00  0.0000E+00  0.0000E+00  0.0000E+00  0.0000E+00  0.0000E+00  0.0000E+00  0.0000E+00  0.0000E+00  0.0000E+00  0.0000E+00  0.0000E+00  0.0000E+00  0.0000E+00
     -0.284  0.0000E+00  0.0000E+00  0.0000E+00  0.0000E+00  0.0000E+00  0.0000E+00  0.0000E+00  0.0000E+00  0.0000E+00  0.0000E+00  0.0000E+00  0.0000E+00  0.0000E+00  0.0000E+00  0.0000E+00  0.0000E+00  0.0000E+00  0.0000E+00
     -0.124  0.0000E+00  0.0000E+00  0.0000E+00  0.0000E+00  0.0000E+00  0.0000E+00  0.0000E+00  0.0000E+00  0.0000E+00  0.0000E+00  0.0000E+00  0.0000E+00  0.0000E+00  0.0000E+00  0.0000E+00  0.0000E+00  0.0000E+00  0.0000E+00
      0.036  0.0000E+00  0.0000E+00  0.0000E+00  0.0000E+00  0.0000E+00  0.0000E+00  0.0000E+00  0.0000E+00  0.0000E+00  0.0000E+00  0.0000E+00  0.0000E+00  0.0000E+00  0.0000E+00  0.0000E+00  0.0000E+00  0.0000E+00  0.0000E+00
      0.196  0.4228E-17  0.1129E-15  0.1900E-32  0.1040E-30  0.5135E-30  0.1059E-29  0.1900E-32  0.1040E-30  0.6924E-32  0.9572E-29  0.1771E-35  0.6343E-35  0.3769E-22  0.1395E-20  0.1771E-35  0.6343E-35  0.6924E-32  0.9572E-29
      0.356  0.8256E-06  0.3425E-05  0.3710E-21  0.3156E-20  0.3141E-17  0.6279E-16  0.3710E-21  0.3156E-20  0.1352E-20  0.2904E-18  0.3459E-24  0.1924E-24  0.7360E-11  0.4233E-10  0.3459E-24  0.1924E-24  0.1352E-20  0.2904E-18
      0.516  0.1545E-02  0.1654E-02  0.2108E-10  0.1637E-09  0.9390E-07  0.3227E-06  0.2108E-10  0.1637E-09  0.4115E-12  0.2205E-11  0.6690E-21  0.1727E-20  0.1473E-07  0.2210E-07  0.6690E-21  0.1727E-20  0.4115E-12  0.2205E-11
      0.676  0.6388E-02  0.7855E-02  0.3176E-04  0.4837E-04  0.4531E-04  0.4673E-04  0.3176E-04  0.4837E-04  0.6200E-06  0.6517E-06  0.2040E-10  0.8394E-10  0.1155E-05  0.1093E-05  0.2040E-10  0.8394E-10  0.6200E-06  0.6517E-06
      0.836  0.1680E-01  0.1808E-01  0.1790E-03  0.1959E-03  0.1356E-03  0.1777E-03  0.1790E-03  0.1959E-03  0.3553E-05  0.2675E-05  0.4563E-05  0.4220E-05  0.1644E-05  0.1041E-05  0.4563E-05  0.4220E-05  0.3553E-05  0.2675E-05
      0.996  0.1091E-01  0.8041E-02  0.1148E-03  0.8243E-04  0.1660E-03  0.1356E-03  0.1148E-03  0.8243E-04  0.2308E-05  0.1134E-05  0.5152E-05  0.2577E-05  0.1122E-05  0.1241E-05  0.5152E-05  0.2577E-05  0.2308E-05  0.1134E-05
      1.156  0.1045E-01  0.1107E-01  0.2420E-03  0.2719E-03  0.1701E-03  0.1629E-03  0.2420E-03  0.2719E-03  0.1433E-04  0.1088E-04  0.9293E-07  0.1484E-06  0.2444E-04  0.1698E-04  0.9293E-07  0.1484E-06  0.1433E-04  0.1088E-04
      1.316  0.3995E-01  0.4069E-01  0.9370E-03  0.9748E-03  0.1280E-02  0.1325E-02  0.9370E-03  0.9748E-03  0.5295E-04  0.3718E-04  0.6834E-04  0.4772E-04  0.6884E-04  0.4618E-04  0.6834E-04  0.4772E-04  0.5295E-04  0.3718E-04
      1.476  0.1909E-01  0.1830E-01  0.7768E-03  0.7783E-03  0.2145E-03  0.1968E-03  0.7768E-03  0.7783E-03  0.7230E-04  0.4709E-04  0.2829E-04  0.1900E-04  0.4060E-04  0.2651E-04  0.2829E-04  0.1900E-04  0.7230E-04  0.4709E-04
      1.636  0.1214E-01  0.1119E-01  0.5031E-03  0.4671E-03  0.2816E-03  0.2837E-03  0.5031E-03  0.4671E-03  0.4769E-04  0.2776E-04  0.4310E-04  0.2751E-04  0.1806E-04  0.1084E-04  0.4310E-04  0.2751E-04  0.4769E-04  0.2776E-04
      1.796  0.1905E-01  0.1864E-01  0.5378E-03  0.5324E-03  0.1307E-02  0.1309E-02  0.5378E-03  0.5324E-03  0.3880E-04  0.2436E-04  0.1242E-03  0.7909E-04  0.9351E-04  0.5595E-04  0.1242E-03  0.7909E-04  0.3880E-04  0.2436E-04
      1.956  0.4080E-01  0.3871E-01  0.1628E-02  0.1557E-02  0.2861E-02  0.2819E-02  0.1628E-02  0.1557E-02  0.2199E-03  0.1262E-03  0.2751E-03  0.1738E-03  0.4502E-03  0.2520E-03  0.2751E-03  0.1738E-03  0.2199E-03  0.1262E-03
      2.116  0.4111E-01  0.4007E-01  0.2954E-02  0.2887E-02  0.8565E-03  0.9457E-03  0.2954E-02  0.2887E-02  0.5418E-03  0.3221E-03  0.1959E-03  0.1112E-03  0.4002E-03  0.2551E-03  0.1959E-03  0.1112E-03  0.5418E-03  0.3221E-03
      2.276  0.8128E-02  0.9474E-02  0.5509E-03  0.7190E-03  0.3532E-03  0.2341E-03  0.5509E-03  0.7190E-03  0.1045E-03  0.8134E-04  0.7507E-04  0.4113E-04  0.8708E-04  0.5136E-04  0.7507E-04  0.4113E-04  0.1045E-03  0.8134E-04
      2.436  0.4146E-01  0.2964E-01  0.2851E-02  0.1866E-02  0.2817E-02  0.2430E-02  0.2851E-02  0.1866E-02  0.7385E-03  0.2545E-03  0.7068E-03  0.2737E-03  0.5127E-03  0.2664E-03  0.7068E-03  0.2737E-03  0.7385E-03  0.2545E-03
      2.596  0.4784E-01  0.6010E-01  0.3233E-02  0.4550E-02  0.3895E-02  0.4314E-02  0.3233E-02  0.4550E-02  0.8133E-03  0.6525E-03  0.1122E-02  0.8267E-03  0.7080E-03  0.3440E-03  0.1122E-02  0.8267E-03  0.8133E-03  0.6525E-03
      2.756  0.1247E-01  0.3319E-02  0.4689E-03  0.4332E-04  0.2105E-02  0.6969E-03  0.4689E-03  0.4332E-04  0.1713E-03  0.4355E-05  0.2640E-03  0.1719E-04  0.1230E-02  0.2119E-03  0.2640E-03  0.1719E-04  0.1713E-03  0.4355E-05
      2.916  0.2459E-01  0.3159E-01  0.2021E-02  0.1969E-02  0.2219E-02  0.4365E-02  0.2021E-02  0.1969E-02  0.8074E-03  0.4033E-03  0.5975E-03  0.4717E-03  0.1328E-02  0.1175E-02  0.5975E-03  0.4717E-03  0.8074E-03  0.4033E-03
      3.076  0.6152E-01  0.2906E-01  0.6683E-02  0.3539E-02  0.4538E-02  0.1611E-02  0.6683E-02  0.3539E-02  0.2887E-02  0.7479E-03  0.2476E-02  0.5160E-03  0.1725E-02  0.4542E-03  0.2476E-02  0.5160E-03  0.2887E-02  0.7479E-03
      3.236  0.4406E-01  0.6841E-01  0.4638E-02  0.7451E-02  0.3952E-02  0.6327E-02  0.4638E-02  0.7451E-02  0.2658E-02  0.1892E-02  0.1551E-02  0.1402E-02  0.2897E-02  0.1755E-02  0.1551E-02  0.1402E-02  0.2658E-02  0.1892E-02
      3.396  0.5518E-01  0.3220E-01  0.5761E-02  0.3410E-02  0.6423E-02  0.4017E-02  0.5761E-02  0.3410E-02  0.3825E-02  0.8864E-03  0.5042E-02  0.1017E-02  0.3234E-02  0.1024E-02  0.5042E-02  0.1017E-02  0.3825E-02  0.8864E-03
      3.556  0.3207E-01  0.3897E-01  0.3781E-02  0.4874E-02  0.2579E-02  0.3997E-02  0.3781E-02  0.4874E-02  0.4621E-02  0.1575E-02  0.1575E-02  0.1949E-02  0.6446E-02  0.6429E-03  0.1575E-02  0.1949E-02  0.4621E-02  0.1575E-02
      3.716  0.3620E-01  0.2776E-01  0.3519E-02  0.4203E-02  0.6381E-02  0.1507E-02  0.3519E-02  0.4203E-02  0.4151E-02  0.2106E-02  0.6358E-02  0.6931E-03  0.4863E-02  0.1561E-02  0.6358E-02  0.6931E-03  0.4151E-02  0.2106E-02
      3.876  0.4648E-01  0.2995E-01  0.4910E-02  0.2147E-02  0.8469E-02  0.7615E-02  0.4910E-02  0.2147E-02  0.5493E-02  0.7521E-03  0.1061E-01  0.1419E-02  0.6658E-02  0.4366E-02  0.1061E-01  0.1419E-02  0.5493E-02  0.7521E-03
      4.036  0.9241E-01  0.4489E-01  0.1402E-01  0.5997E-02  0.7948E-02  0.7129E-02  0.1402E-01  0.5997E-02  0.2873E-01  0.2823E-02  0.1560E-01  0.4530E-02  0.3444E-01  0.9295E-03  0.1560E-01  0.4530E-02  0.2873E-01  0.2823E-02
      4.196  0.8419E-01  0.5395E-01  0.9726E-02  0.7958E-02  0.6691E-02  0.9032E-02  0.9726E-02  0.7958E-02  0.5315E-01  0.3752E-02  0.5966E-01  0.4096E-02  0.4919E-01  0.4961E-02  0.5966E-01  0.4096E-02  0.5315E-01  0.3752E-02
      4.356  0.7476E-01  0.3887E-01  0.7735E-02  0.6747E-02  0.1113E-01  0.5312E-02  0.7735E-02  0.6747E-02  0.5720E-01  0.3991E-02  0.7839E-01  0.1958E-02  0.4654E-01  0.5272E-02  0.7839E-01  0.1958E-02  0.5720E-01  0.3991E-02
      4.516  0.7891E-01  0.5641E-01  0.1025E-01  0.1185E-01  0.1287E-01  0.3205E-02  0.1025E-01  0.1185E-01  0.9019E-01  0.1019E-01  0.9051E-01  0.5104E-02  0.1065E+00  0.6174E-02  0.9051E-01  0.5104E-02  0.9019E-01  0.1019E-01
      4.676  0.5430E-01  0.5013E-01  0.9750E-02  0.7478E-02  0.1101E-01  0.1004E-01  0.9750E-02  0.7478E-02  0.1372E+00  0.7186E-02  0.8413E-01  0.9637E-02  0.7073E-01  0.1119E-01  0.8413E-01  0.9637E-02  0.1372E+00  0.7186E-02
      4.836  0.6709E-01  0.5098E-01  0.1708E-01  0.7880E-02  0.1684E-01  0.1212E-01  0.1708E-01  0.7880E-02  0.1585E+00  0.9931E-02  0.2003E+00  0.1021E-01  0.2241E+00  0.8149E-02  0.2003E+00  0.1021E-01  0.1585E+00  0.9931E-02
      4.996  0.2591E-01  0.5589E-01  0.1147E-01  0.8325E-02  0.1622E-01  0.1154E-01  0.1147E-01  0.8325E-02  0.1185E+00  0.1440E-01  0.1850E+00  0.1885E-01  0.1072E+00  0.1540E-01  0.1850E+00  0.1885E-01  0.1185E+00  0.1440E-01
      5.156  0.2475E-01  0.2297E-01  0.1735E-01  0.1808E-02  0.1528E-01  0.5259E-02  0.1735E-01  0.1808E-02  0.1199E+00  0.5366E-02  0.1655E+00  0.6069E-02  0.1873E+00  0.3006E-01  0.1655E+00  0.6069E-02  0.1199E+00  0.5366E-02
      5.316  0.1345E-01  0.1242E+00  0.1632E-01  0.2487E-01  0.1399E-01  0.1322E-01  0.1632E-01  0.2487E-01  0.1681E+00  0.7550E-01  0.1478E+00  0.6424E-01  0.2369E+00  0.4207E-01  0.1478E+00  0.6424E-01  0.1681E+00  0.7550E-01
      5.476  0.1012E-01  0.6016E-01  0.2071E-01  0.1083E-01  0.1423E-01  0.1281E-01  0.2071E-01  0.1083E-01  0.2475E+00  0.3142E-01  0.1389E+00  0.4206E-01  0.2354E+00  0.3784E-01  0.1389E+00  0.4206E-01  0.2475E+00  0.3142E-01
      5.635  0.1094E-01  0.5239E-01  0.2150E-01  0.8816E-02  0.1475E-01  0.1252E-01  0.2150E-01  0.8816E-02  0.2619E+00  0.3919E-01  0.1533E+00  0.5282E-01  0.2372E+00  0.5408E-01  0.1533E+00  0.5282E-01  0.2619E+00  0.3919E-01
      5.795  0.1111E-01  0.3548E-01  0.1999E-01  0.7598E-02  0.1640E-01  0.9545E-02  0.1999E-01  0.7598E-02  0.2381E+00  0.5054E-01  0.1234E+00  0.5255E-01  0.1843E+00  0.2075E-01  0.1234E+00  0.5255E-01  0.2381E+00  0.5054E-01
      5.955  0.4539E-02  0.5671E-01  0.8368E-02  0.1692E-01  0.1036E-01  0.2002E-01  0.8368E-02  0.1692E-01  0.1440E+00  0.1048E+00  0.9178E-01  0.7632E-01  0.1635E+00  0.1024E+00  0.9178E-01  0.7632E-01  0.1440E+00  0.1048E+00
      6.115  0.9859E-02  0.3112E-01  0.1680E-01  0.1237E-01  0.1885E-01  0.1385E-01  0.1680E-01  0.1237E-01  0.2039E+00  0.8664E-01  0.3557E+00  0.1080E+00  0.4244E+00  0.7495E-01  0.3557E+00  0.1080E+00  0.2039E+00  0.8664E-01
      6.275  0.1303E-01  0.1809E-01  0.1796E-01  0.1295E-01  0.2048E-01  0.1962E-01  0.1796E-01  0.1295E-01  0.2775E+00  0.7277E-01  0.3287E+00  0.1875E+00  0.2890E+00  0.8874E-01  0.3287E+00  0.1875E+00  0.2775E+00  0.7277E-01