    2    2  100    2
  0.1216287E+02  0.2591967E-09  0.2591967E-09  0.4180965E-09  0.5000000E-15
  1.000000000000000E-004
  CAR 
 Co-hcc                                  
     18     95     24
 
  0.0000000E+00  0.0000000E+00  0.0000000E+00  0.8680556E-03
      1          0.472608        0.457613   1.000000   1.000000
      2          4.073037        5.090940   1.000000   1.000000
      3          6.228764        7.971341   1.000000   1.000000
      4          6.238133        7.992907   1.000000   1.000000
      5          6.238134        7.992907   1.000000   1.000000
      6          6.495321        8.302932   1.000000   1.000000
      7          6.495322        8.302932   1.000000   1.000000
      8          6.770151        8.646328   1.000000   0.964242
      9          6.770151        8.646328   1.000000   0.964241
     10          7.696901        8.661620   1.000000   0.914604
     11          7.696901        9.690313   1.000000   0.000000
     12          8.755011        9.690314   0.101714   0.000000
     13         14.137566       15.184371   0.000000   0.000000
     14         29.696437       29.381728   0.000000   0.000000
     15         31.171964       31.527354   0.000000   0.000000
     16         31.171967       31.527358   0.000000   0.000000
     17         32.465686       32.287736   0.000000   0.000000
     18         32.644124       32.743933   0.000000   0.000000
     19         32.644128       32.933987   0.000000   0.000000
     20         32.994064       32.933987   0.000000   0.000000
     21         37.508780       37.410020   0.000000   0.000000
     22         37.508781       37.410021   0.000000   0.000000
     23         37.822371       38.040693   0.000000   0.000000
     24         38.782635       38.415580   0.000000   0.000000
 
  0.8333333E-01  0.6938894E-17  0.0000000E+00  0.5208333E-02
      1          0.695239        0.680954   1.000000   1.000000
      2          4.200111        5.240472   1.000000   1.000000
      3          6.046793        7.753108   1.000000   1.000000
      4          6.332572        8.063148   1.000000   1.000000
      5          6.390743        8.098778   1.000000   1.000000
      6          6.459506        8.163756   1.000000   1.000000
      7          6.578691        8.250647   1.000000   1.000000
      8          6.656564        8.396358   1.000000   1.000000
      9          6.712425        8.577105   1.000000   0.999915
     10          7.132268        8.597742   1.000000   0.999254
     11          7.721284        9.720079   1.000000   0.000000
     12          9.597017       10.486715   0.000000   0.000000
     13         14.188047       15.209273   0.000000   0.000000
     14         27.426496       27.570573   0.000000   0.000000
     15         29.282994       29.608845   0.000000   0.000000
     16         29.725101       29.731308   0.000000   0.000000
     17         33.007142       32.759452   0.000000   0.000000
     18         33.162832       33.067758   0.000000   0.000000
     19         34.505831       34.367632   0.000000   0.000000
     20         34.783607       35.083153   0.000000   0.000000
     21         35.514651       35.758472   0.000000   0.000000
     22         36.888888       36.883124   0.000000   0.000000
     23         37.390116       37.641276   0.000000   0.000000
     24         37.397103       37.709864   0.000000   0.000000
 
  0.1666667E+00  0.0000000E+00  0.0000000E+00  0.5208333E-02
      1          1.341813        1.333873   1.000000   1.000000
      2          4.514307        5.627170   1.000000   1.000000
      3          5.824979        7.322216   1.000000   1.000000
      4          6.108640        7.454653   1.000000   1.000000
      5          6.320200        8.060767   1.000000   1.000000
      6          6.569143        8.398884   1.000000   1.000000
      7          6.598614        8.406490   1.000000   1.000000
      8          6.644707        8.443350   1.000000   1.000000
      9          6.773297        8.463126   1.000000   1.000000
     10          6.811850        8.658315   1.000000   0.928284
     11          7.773556        9.783051   1.000000   0.000000
     12         11.002364       11.818786   0.000000   0.000000
     13         14.361450       15.302963   0.000000   0.000000
     14         23.664392       23.992534   0.000000   0.000000
     15         27.090479       27.390708   0.000000   0.000000
     16         28.853448       28.913191   0.000000   0.000000
     17         30.701384       30.698682   0.000000   0.000000
     18         33.073142       32.838467   0.000000   0.000000
     19         33.107001       33.351032   0.000000   0.000000
     20         35.197153       35.345225   0.000000   0.000000
     21         35.981209       36.070649   0.000000   0.000000
     22         36.192024       36.467596   0.000000   0.000000
     23         36.727869       37.077712   0.000000   0.000000
     24         37.836650       38.296596   0.000000   0.000000
 
  0.2500000E+00  0.1387779E-16  0.0000000E+00  0.5208333E-02
      1          2.329230        2.356111   1.000000   1.000000
      2          4.768165        6.020021   1.000000   1.000000
      3          5.500549        6.743550   1.000000   1.000000
      4          5.697418        7.183927   1.000000   1.000000
      5          6.247474        7.927347   1.000000   1.000000
      6          6.396117        8.202026   1.000000   1.000000
      7          6.601724        8.281041   1.000000   1.000000
      8          6.982632        8.814527   1.000000   0.001562
      9          7.001720        8.837942   1.000000   0.000149
     10          7.146126        9.035721   1.000000   0.000000
     11          7.823468        9.842224   1.000000   0.000000
     12         12.632019       13.363222   0.000000   0.000000
     13         14.698875       15.500755   0.000000   0.000000
     14         20.109923       20.568538   0.000000   0.000000
     15         25.197915       25.457521   0.000000   0.000000
     16         27.454570       27.578774   0.000000   0.000000
     17         27.633333       27.825403   0.000000   0.000000
     18         30.537539       31.022349   0.000000   0.000000
     19         32.048577       31.843299   0.000000   0.000000
     20         34.682683       35.095450   0.000000   0.000000
     21         35.260548       35.418755   0.000000   0.000000
     22         36.002839       36.048362   0.000000   0.000000
     23         36.871705       37.056152   0.000000   0.000000
     24         39.701104       39.913751   0.000000   0.000000
 
  0.3333333E+00  0.8326673E-16  0.0000000E+00  0.5208333E-02
      1          3.425704        3.606412   1.000000   1.000000
      2          4.717040        6.081906   1.000000   1.000000
      3          5.054704        6.342609   1.000000   1.000000
      4          5.807401        7.065316   1.000000   1.000000
      5          6.239589        8.005469   1.000000   1.000000
      6          6.354143        8.018046   1.000000   1.000000
      7          6.456263        8.100643   1.000000   1.000000
      8          7.388541        9.311454   1.000000   0.000000
      9          7.507056        9.362648   1.000000   0.000000
     10          7.583035        9.445879   1.000000   0.000000
     11          7.858009        9.882556   1.000000   0.000000
     12         14.435604       15.067893   0.000000   0.000000
     13         14.914791       15.536995   0.000000   0.000000
     14         17.313792       17.923506   0.000000   0.000000
     15         23.709289       23.914761   0.000000   0.000000
     16         24.497020       24.750234   0.000000   0.000000
     17         25.272524       25.640515   0.000000   0.000000
     18         29.255377       29.688500   0.000000   0.000000
     19         30.958303       30.766123   0.000000   0.000000
     20         33.057170       33.427531   0.000000   0.000000
     21         34.764501       34.972173   0.000000   0.000000
     22         36.607872       36.754615   0.000000   0.000000
     23         38.574900       38.738356   0.000000   0.000000
     24         40.883786       41.046473   0.000000   0.000000
 
  0.4166667E+00  0.0000000E+00  0.0000000E+00  0.5208333E-02
      1          4.162146        4.768753   1.000000   1.000000
      2          4.558849        5.908776   1.000000   1.000000
      3          4.788336        6.110173   1.000000   1.000000
      4          6.132448        7.056012   1.000000   1.000000
      5          6.140907        7.892553   1.000000   1.000000
      6          6.354148        7.969161   1.000000   1.000000
      7          6.525197        8.196896   1.000000   1.000000
      8          7.689563        9.666181   1.000000   0.000000
      9          7.804608        9.791812   1.000000   0.000000
     10          7.876678        9.904073   1.000000   0.000000
     11          8.584623       10.164679   0.999806   0.000000
     12         13.157812       13.924172   0.000000   0.000000
     13         16.323401       16.834335   0.000000   0.000000
     14         17.294923       17.795609   0.000000   0.000000
     15         21.926330       22.320782   0.000000   0.000000
     16         22.664304       22.892652   0.000000   0.000000
     17         22.739349       23.140201   0.000000   0.000000
     18         28.849895       29.279607   0.000000   0.000000
     19         30.240530       30.040520   0.000000   0.000000
     20         32.015627       32.347419   0.000000   0.000000
     21         34.478074       34.716038   0.000000   0.000000
     22         36.972029       37.192324   0.000000   0.000000
     23         40.821488       40.994993   0.000000   0.000000
     24         41.571770       41.671451   0.000000   0.000000
 
  0.5000000E+00  0.2775558E-16  0.0000000E+00  0.2604167E-02
      1          4.401875        5.318333   1.000000   1.000000
      2          4.443372        5.749931   1.000000   1.000000
      3          4.700185        6.034583   1.000000   1.000000
      4          6.094455        7.100725   1.000000   1.000000
      5          6.317247        7.848121   1.000000   1.000000
      6          6.365081        7.921006   1.000000   1.000000
      7          6.587965        8.272663   1.000000   1.000000
      8          7.798060        9.792955   1.000000   0.000000
      9          7.882396        9.910610   1.000000   0.000000
     10          7.924194        9.935038   1.000000   0.000000
     11          9.711673       10.971434   0.000000   0.000000
     12         11.456790       12.492083   0.000000   0.000000
     13         17.567565       17.956741   0.000000   0.000000
     14         18.073635       18.436507   0.000000   0.000000
     15         20.456559       20.979810   0.000000   0.000000
     16         21.239408       21.807274   0.000000   0.000000
     17         22.399589       22.530222   0.000000   0.000000
     18         28.746585       29.181372   0.000000   0.000000
     19         29.993994       29.789377   0.000000   0.000000
     20         31.655664       31.972097   0.000000   0.000000
     21         34.384591       34.632796   0.000000   0.000000
     22         37.106109       37.354527   0.000000   0.000000
     23         41.766881       41.809133   0.000000   0.000000
     24         43.324119       43.356454   0.000000   0.000000
 
  0.8333333E-01  0.8333333E-01  0.0000000E+00  0.5208333E-02
      1          1.130539        1.119459   1.000000   1.000000
      2          4.425634        5.512046   1.000000   1.000000
      3          5.871035        7.514759   1.000000   1.000000
      4          6.312887        7.528848   1.000000   1.000000
      5          6.374299        8.132010   1.000000   1.000000
      6          6.521573        8.311846   1.000000   1.000000
      7          6.525250        8.314431   1.000000   1.000000
      8          6.549256        8.374792   1.000000   1.000000
      9          6.763337        8.586774   1.000000   0.999755
     10          6.872331        8.599043   1.000000   0.999154
     11          7.751897        9.756790   1.000000   0.000000
     12         10.602179       11.441096   0.000000   0.000000
     13         14.301503       15.270186   0.000000   0.000000
     14         25.435069       25.654010   0.000000   0.000000
     15         25.870427       26.208664   0.000000   0.000000
     16         31.133332       31.157834   0.000000   0.000000
     17         32.262152       32.124225   0.000000   0.000000
     18         32.376673       32.318347   0.000000   0.000000
     19         32.430821       32.404248   0.000000   0.000000
     20         35.071455       35.238153   0.000000   0.000000
     21         35.407583       35.878556   0.000000   0.000000
     22         35.873815       36.388300   0.000000   0.000000
     23         38.554195       38.649165   0.000000   0.000000
     24         38.919588       39.024399   0.000000   0.000000
 
  0.1666667E+00  0.8333333E-01  0.0000000E+00  0.1041667E-01
      1          1.954611        1.960501   1.000000   1.000000
      2          4.747188        5.930742   1.000000   1.000000
      3          5.651614        6.946587   1.000000   1.000000
      4          5.726681        7.220386   1.000000   1.000000
      5          6.278811        7.983858   1.000000   1.000000
      6          6.368000        8.145735   1.000000   1.000000
      7          6.732200        8.467883   1.000000   1.000000
      8          6.732505        8.547477   1.000000   0.999998
      9          6.875858        8.706850   1.000000   0.535997
     10          7.108804        8.970367   1.000000   0.000000
     11          7.789866        9.801950   1.000000   0.000000
     12         12.039331       12.806043   0.000000   0.000000
     13         14.573458       15.433334   0.000000   0.000000
     14         21.936493       22.318266   0.000000   0.000000
     15         24.013380       24.332372   0.000000   0.000000
     16         29.131136       29.160402   0.000000   0.000000
     17         29.891511       30.040315   0.000000   0.000000
     18         31.068754       31.061883   0.000000   0.000000
     19         32.184046       32.402853   0.000000   0.000000
     20         33.095853       33.524965   0.000000   0.000000
     21         35.498650       35.501027   0.000000   0.000000
     22         36.587262       36.995091   0.000000   0.000000
     23         38.441415       38.593740   0.000000   0.000000
     24         38.870379       39.056230   0.000000   0.000000
 
  0.2500000E+00  0.8333333E-01  0.0000000E+00  0.1041667E-01
      1          3.029061        3.111563   1.000000   1.000000
      2          4.856389        6.184251   1.000000   1.000000
      3          5.237811        6.508205   1.000000   1.000000
      4          5.604454        7.004394   1.000000   1.000000
      5          6.214367        7.949870   1.000000   1.000000
      6          6.292683        7.952749   1.000000   1.000000
      7          6.570903        8.277274   1.000000   1.000000
      8          7.065039        8.909347   1.000000   0.000000
      9          7.289090        9.180812   1.000000   0.000000
     10          7.583483        9.448548   1.000000   0.000000
     11          7.822035        9.839823   1.000000   0.000000
     12         13.723097       14.403285   0.000000   0.000000
     13         15.007709       15.702708   0.000000   0.000000
     14         18.616920       19.135163   0.000000   0.000000
     15         22.596322       22.902248   0.000000   0.000000
     16         26.051360       26.227483   0.000000   0.000000
     17         27.118350       27.445487   0.000000   0.000000
     18         29.885109       29.875819   0.000000   0.000000
     19         31.299845       31.635770   0.000000   0.000000
     20         31.728099       32.080471   0.000000   0.000000
     21         36.178967       36.148525   0.000000   0.000000
     22         38.235303       38.415240   0.000000   0.000000
     23         38.455356       38.663309   0.000000   0.000000
     24         39.501922       39.730214   0.000000   0.000000
 
  0.3333333E+00  0.8333333E-01  0.0000000E+00  0.1041667E-01
      1          3.991890        4.358510   1.000000   1.000000
      2          4.712680        6.083978   1.000000   1.000000
      3          4.906824        6.222343   1.000000   1.000000
      4          5.817656        6.954709   1.000000   1.000000
      5          6.113427        7.832686   1.000000   1.000000
      6          6.414124        8.076311   1.000000   1.000000
      7          6.455539        8.119976   1.000000   1.000000
      8          7.478680        9.375811   1.000000   0.000000
      9          7.639664        9.588916   1.000000   0.000000
     10          7.842302        9.863344   1.000000   0.000000
     11          8.290278       10.031202   1.000000   0.000000
     12         14.454870       15.086061   0.000000   0.000000
     13         15.576334       16.153061   0.000000   0.000000
     14         17.028342       17.607080   0.000000   0.000000
     15         21.518047       21.791500   0.000000   0.000000
     16         23.272787       23.587300   0.000000   0.000000
     17         24.197538       24.613434   0.000000   0.000000
     18         29.048485       29.021577   0.000000   0.000000
     19         30.714094       31.045436   0.000000   0.000000
     20         30.740998       31.098385   0.000000   0.000000
     21         36.141838       36.180128   0.000000   0.000000
     22         38.582180       38.777406   0.000000   0.000000
     23         39.997897       40.184021   0.000000   0.000000
     24         41.254086       41.399178   0.000000   0.000000
 
  0.4166667E+00  0.8333333E-01  0.0000000E+00  0.1041667E-01
      1          4.428575        5.270838   1.000000   1.000000
      2          4.571901        5.891617   1.000000   1.000000
      3          4.741758        6.083531   1.000000   1.000000
      4          6.071658        6.988039   1.000000   1.000000
      5          6.148523        7.801348   1.000000   1.000000
      6          6.311096        7.925620   1.000000   1.000000
      7          6.585131        8.274062   1.000000   1.000000
      8          7.768800        9.743865   1.000000   0.000000
      9          7.827852        9.811499   1.000000   0.000000
     10          7.851258        9.873574   1.000000   0.000000
     11          9.511219       10.860989   0.000000   0.000000
     12         12.204378       13.118217   0.000000   0.000000
     13         17.370238       17.814505   0.000000   0.000000
     14         17.950212       18.358647   0.000000   0.000000
     15         20.807445       21.095888   0.000000   0.000000
     16         21.021367       21.485547   0.000000   0.000000
     17         21.995423       22.457045   0.000000   0.000000
     18         28.617395       28.578347   0.000000   0.000000
     19         30.172558       30.498171   0.000000   0.000000
     20         30.468672       30.828007   0.000000   0.000000
     21         35.989100       36.064732   0.000000   0.000000
     22         38.751993       38.984840   0.000000   0.000000
     23         41.789092       41.844809   0.000000   0.000000
     24         42.320346       42.486158   0.000000   0.000000
 
  0.1666667E+00  0.1666667E+00  0.0000000E+00  0.5208333E-02
      1          2.887999        2.940397   1.000000   1.000000
      2          5.005607        6.276286   1.000000   1.000000
      3          5.334534        6.594800   1.000000   1.000000
      4          5.412294        6.905894   1.000000   1.000000
      5          6.158416        7.888356   1.000000   1.000000
      6          6.289717        7.955764   1.000000   1.000000
      7          6.645441        8.370878   1.000000   1.000000
      8          6.870526        8.710104   1.000000   0.499327
      9          7.280786        9.159965   1.000000   0.000000
     10          7.601263        9.458927   1.000000   0.000000
     11          7.791305        9.803323   1.000000   0.000000
     12         13.481331       14.182063   0.000000   0.000000
     13         15.010638       15.739043   0.000000   0.000000
     14         20.375088       20.777316   0.000000   0.000000
     15         20.620073       21.038877   0.000000   0.000000
     16         27.701626       27.674014   0.000000   0.000000
     17         28.111240       28.357173   0.000000   0.000000
     18         29.006704       29.329451   0.000000   0.000000
     19         29.645164       29.959362   0.000000   0.000000
     20         34.128157       34.363070   0.000000   0.000000
     21         36.322475       36.489324   0.000000   0.000000
     22         36.559264       36.714208   0.000000   0.000000
     23         39.947026       40.133580   0.000000   0.000000
     24         41.155036       41.294096   0.000000   0.000000
 
  0.2500000E+00  0.1666667E+00  0.0000000E+00  0.1041667E-01
      1          3.918635        4.132675   1.000000   1.000000
      2          4.998369        6.340123   1.000000   1.000000
      3          5.025489        6.361103   1.000000   1.000000
      4          5.398389        6.729884   1.000000   1.000000
      5          6.031891        7.720911   1.000000   1.000000
      6          6.412809        8.072695   1.000000   1.000000
      7          6.488717        8.177890   1.000000   1.000000
      8          7.124568        8.994931   1.000000   0.000000
      9          7.642403        9.580703   1.000000   0.000000
     10          7.789496        9.801067   1.000000   0.000000
     11          8.298623       10.065782   1.000000   0.000000
     12         15.198044       15.817712   0.000000   0.000000
     13         15.492397       16.064841   0.000000   0.000000
     14         17.567414       18.110862   0.000000   0.000000
     15         19.379594       19.781368   0.000000   0.000000
     16         24.977277       25.197121   0.000000   0.000000
     17         26.052410       26.437647   0.000000   0.000000
     18         26.962036       27.097989   0.000000   0.000000
     19         28.387787       28.739057   0.000000   0.000000
     20         34.245099       34.509353   0.000000   0.000000
     21         37.882157       37.775769   0.000000   0.000000
     22         38.721033       39.004765   0.000000   0.000000
     23         40.561502       40.713045   0.000000   0.000000
     24         41.069408       41.226096   0.000000   0.000000
 
  0.3333333E+00  0.1666667E+00  0.0000000E+00  0.1041667E-01
      1          4.573382        5.220110   1.000000   1.000000
      2          4.831799        6.180560   1.000000   1.000000
      3          4.834993        6.193735   1.000000   1.000000
      4          5.675717        6.745457   1.000000   1.000000
      5          5.996418        7.670455   1.000000   1.000000
      6          6.319920        7.961359   1.000000   1.000000
      7          6.581594        8.274635   1.000000   1.000000
      8          7.459458        9.371938   1.000000   0.000000
      9          7.787266        9.796427   1.000000   0.000000
     10          7.820393        9.798183   1.000000   0.000000
     11          9.389911       10.857834   0.000000   0.000000
     12         13.796978       14.505538   0.000000   0.000000
     13         17.078827       17.597856   0.000000   0.000000
     14         17.587000       18.061552   0.000000   0.000000
     15         18.674463       19.049272   0.000000   0.000000
     16         22.384708       22.751064   0.000000   0.000000
     17         23.273638       23.713987   0.000000   0.000000
     18         26.381600       26.500338   0.000000   0.000000
     19         27.680227       28.029254   0.000000   0.000000
     20         33.905202       34.189262   0.000000   0.000000
     21         38.629618       38.527340   0.000000   0.000000
     22         40.984397       41.100153   0.000000   0.000000
     23         41.987468       42.202061   0.000000   0.000000
     24         42.039675       42.207995   0.000000   0.000000
 
  0.4166667E+00  0.1666667E+00  0.0000000E+00  0.5208333E-02
      1          4.728857        5.697204   1.000000   1.000000
      2          4.754559        6.064078   1.000000   1.000000
      3          4.771206        6.146790   1.000000   1.000000
      4          5.871475        6.776443   1.000000   1.000000
      5          6.009043        7.701848   1.000000   1.000000
      6          6.232985        7.831719   1.000000   1.000000
      7          6.653010        8.364486   1.000000   1.000000
      8          7.684147        9.635376   1.000000   0.000000
      9          7.786180        9.780655   1.000000   0.000000
     10          7.802417        9.796755   1.000000   0.000000
     11         10.654277       11.711013   0.000000   0.000000
     12         11.963374       12.977707   0.000000   0.000000
     13         18.146439       18.528016   0.000000   0.000000
     14         18.421280       18.833051   0.000000   0.000000
     15         18.736450       19.094811   0.000000   0.000000
     16         20.806157       21.292197   0.000000   0.000000
     17         21.790942       22.291639   0.000000   0.000000
     18         26.188066       26.303527   0.000000   0.000000
     19         27.433044       27.777926   0.000000   0.000000
     20         33.774816       34.063934   0.000000   0.000000
     21         38.744864       38.663881   0.000000   0.000000
     22         41.668552       41.872802   0.000000   0.000000
     23         41.987441       42.007679   0.000000   0.000000
     24         43.781732       43.798217   0.000000   0.000000
 
  0.2500000E+00  0.2500000E+00  0.0000000E+00  0.5208333E-02
      1          4.681640        5.205427   1.000000   1.000000
      2          4.888438        6.257175   1.000000   1.000000
      3          5.162512        6.476983   1.000000   1.000000
      4          5.226705        6.477229   1.000000   1.000000
      5          5.945576        7.594332   1.000000   1.000000
      6          6.331619        7.982406   1.000000   1.000000
      7          6.587027        8.278624   1.000000   1.000000
      8          7.271876        9.169876   1.000000   0.000000
      9          7.754337        9.759778   1.000000   0.000000
     10          7.825776        9.800118   1.000000   0.000000
     11          9.378943       10.884987   0.000000   0.000000
     12         15.507520       16.023680   0.000000   0.000000
     13         16.169457       16.732400   0.000000   0.000000
     14         16.963080       17.510882   0.000000   0.000000
     15         18.010936       18.478368   0.000000   0.000000
     16         23.995974       24.357134   0.000000   0.000000
     17         24.467766       24.606991   0.000000   0.000000
     18         24.881925       25.290255   0.000000   0.000000
     19         25.657198       26.024948   0.000000   0.000000
     20         37.227723       37.409738   0.000000   0.000000
     21         38.732819       39.062421   0.000000   0.000000
     22         39.760324       39.638074   0.000000   0.000000
     23         41.814740       41.931132   0.000000   0.000000
     24         43.715807       43.687587   0.000000   0.000000
 
  0.3333333E+00  0.2500000E+00  0.0000000E+00  0.1041667E-01
      1          4.823946        5.926894   1.000000   1.000000
      2          4.950304        6.232271   1.000000   1.000000
      3          5.053553        6.330182   1.000000   1.000000
      4          5.493338        6.533936   1.000000   1.000000
      5          5.962270        7.595537   1.000000   1.000000
      6          6.169070        7.780011   1.000000   1.000000
      7          6.726125        8.450022   1.000000   1.000000
      8          7.497566        9.425531   1.000000   0.000000
      9          7.733570        9.735371   1.000000   0.000000
     10          7.780772        9.752547   1.000000   0.000000
     11         10.960864       12.054737   0.000000   0.000000
     12         13.328952       14.095611   0.000000   0.000000
     13         15.560724       16.097397   0.000000   0.000000
     14         18.858345       19.317786   0.000000   0.000000
     15         19.141065       19.522986   0.000000   0.000000
     16         21.749459       22.154791   0.000000   0.000000
     17         22.747249       23.193489   0.000000   0.000000
     18         23.968838       24.188091   0.000000   0.000000
     19         24.926149       25.303533   0.000000   0.000000
     20         37.566238       37.791613   0.000000   0.000000
     21         41.299655       41.146434   0.000000   0.000000
     22         41.376237       41.526871   0.000000   0.000000
     23         43.230768       43.403039   0.000000   0.000000
     24         44.078557       44.081461   0.000000   0.000000
 
  0.3333333E+00  0.3333333E+00  0.0000000E+00  0.1736111E-02
      1          4.828786        6.261778   1.000000   1.000000
      2          5.124215        6.277010   1.000000   1.000000
      3          5.124215        6.277012   1.000000   1.000000
      4          5.401092        6.496558   1.000000   1.000000
      5          6.027954        7.633264   1.000000   1.000000
      6          6.027954        7.633264   1.000000   1.000000
      7          6.807670        8.542986   1.000000   0.999999
      8          7.616793        9.564891   1.000000   0.000000
      9          7.616793        9.564892   1.000000   0.000000
     10          7.712135        9.710392   1.000000   0.000000
     11         12.697383       13.465713   0.000000   0.000000
     12         13.286530       14.058458   0.000000   0.000000
     13         13.286532       14.058459   0.000000   0.000000
     14         20.039936       20.384493   0.000000   0.000000
     15         20.698548       21.114956   0.000000   0.000000