 vasp.6.3.2 27Jun22 (build Aug 12 2022 00:53:59) complex                        
  
 executed on               tv2STD date 2024.12.03  01:29:51
 running   24 mpi-ranks, with    1 threads/rank
 distrk:  each k-point on   24 cores,    1 groups
 distr:  one band on NCORE=   1 cores,   24 groups


--------------------------------------------------------------------------------------------------------


 INCAR:
   SYSTEM = Co-hcc
   NWRITE = 2    write-flag
   ISTART = 0    job   : 0-new, 1-cont, 2-samecut
   ICHARG = 2    charge: 0-wave, 1-file, 2-atom, >10-const
   INIWAV = 1    electr: 0-lowe 1-rand  2-diag
   ENCUT = 425.0     energy cutoff in eV
   PREC = Accurate      normal | accurate
   ADDGRID = .FALSE.  (use fine grid)
   NELM = 100     number of ELM steps
   EDIFF = 1E-06    energy stopping-criterion for ELM
   LREAL = .FALSE.      real-space projection (.FALSE., .TRUE., On, Auto)
   ALGO = Normal     Normal, Fast, Very_Fast
   LWAVE = .FALSE.
   LCHARG = .FALSE.
   NSW = 100       max number of geometry steps
   IBRION = 2     ionic relax: 0-MD, 1-quasi-Newton, 2-CG, 3-Damped MD
   EDIFFG = -0.02  force (eV/A) stopping-criterion for geometry steps
   ISIF = 2     (1:force\=y stress\=trace only ions\=y shape\=n volume\=n)
   ISYM = 1     (1-use symmetry, 0-no symmetry)
   ISMEAR = 0     (-1-Fermi, 1-Methfessel/Paxton)
   SIGMA = 0.05   broadening in eV
   LORBIT = 11
   ISPIN = 2
   MAGMOM = 2*3

 POTCAR:    PAW_PBE Co 02Aug2007                  
 POTCAR:    PAW_PBE Co 02Aug2007                  
   SHA256 =  0e690c60710354995174544f52f9f2c30879afabeffe3b3fbd4001cb294e56d4 Co/POTCAR             
   COPYR  = (c) Copyright 02Aug2007 Georg Kresse                                                    
   COPYR  = This file is part of the software VASP. Any use, copying, and all other rights are regul
   COPYR  = If you do not have a valid VASP license, you may not use, copy or distribute this file. 
   VRHFIN =Co: d8 s1                                                                                
   LEXCH  = PE                                                                                      
   EATOM  =   813.3670 eV,   59.7808 Ry                                                             
                                                                                                    
   TITEL  = PAW_PBE Co 02Aug2007                                                                    
   LULTRA =        F    use ultrasoft PP ?                                                          
   IUNSCR =        1    unscreen: 0-lin 1-nonlin 2-no                                               
   RPACOR =    2.000    partial core radius                                                         
   POMASS =   58.933; ZVAL   =    9.000    mass and valenz                                          
   RCORE  =    2.300    outmost cutoff radius                                                       
   RWIGS  =    2.460; RWIGS  =    1.302    wigner-seitz radius (au A)                               
   ENMAX  =  267.968; ENMIN  =  200.976 eV                                                          
   RCLOC  =    1.203    cutoff for local pot                                                        
   LCOR   =        T    correct aug charges                                                         
   LPAW   =        T    paw PP                                                                      
   EAUG   =  477.818                                                                                
   DEXC   =    0.000                                                                                
   RMAX   =    2.360    core radius for proj-oper                                                   
   RAUG   =    1.300    factor for augmentation sphere                                              
   RDEP   =    2.393    radius for radial grids                                                     
   RDEPT  =    1.864    core radius for aug-charge                                                  
                                                                                                    
   Atomic configuration                                                                             
    9 entries                                                                                       
     n  l   j            E        occ.                                                              
     1  0  0.50     -7587.6674   2.0000                                                             
     2  0  0.50      -893.6084   2.0000                                                             
     2  1  1.50      -764.5805   6.0000                                                             
     3  0  0.50       -97.5973   2.0000                                                             
     3  1  1.50       -60.9648   6.0000                                                             
     3  2  2.50        -4.2382   8.0000                                                             
     4  0  0.50        -4.3746   1.0000                                                             
     4  1  1.50        -4.0817   0.0000                                                             
     4  3  2.50        -1.3606   0.0000                                                             
   Description                                                                                      
     l       E           TYP  RCUT    TYP  RCUT                                                     
     2     -4.2382362     23  2.300                                                                 
     2     -5.5988188     23  2.300                                                                 
     0     -4.3745797     23  2.300                                                                 
     0      5.7660125     23  2.300                                                                 
     1     -2.7211652     23  2.300                                                                 
     1     16.9860234     23  2.300                                                                 
  local pseudopotential read in
  partial core-charges read in
  partial kinetic energy density read in
  atomic valenz-charges read in
  non local Contribution for L=           2  read in
    real space projection operators read in
  non local Contribution for L=           2  read in
    real space projection operators read in
  non local Contribution for L=           0  read in
    real space projection operators read in
  non local Contribution for L=           0  read in
    real space projection operators read in
  non local Contribution for L=           1  read in
    real space projection operators read in
  non local Contribution for L=           1  read in
    real space projection operators read in
    PAW grid and wavefunctions read in
 
   number of l-projection  operators is LMAX  =           6
   number of lm-projection operators is LMMAX =          18
 
  PAW_PBE Co 02Aug2007                  :
 energy of atom  1       EATOM= -813.3670
 kinetic energy error for atom=    0.0054 (will be added to EATOM!!)
 
 
 POSCAR: Co
  positions in cartesian coordinates
  No initial velocities read in
 exchange correlation table for  LEXCH =        8
   RHO(1)=    0.500       N(1)  =     2000
   RHO(2)=  100.500       N(2)  =     4000
 


--------------------------------------------------------------------------------------------------------


 ion  position               nearest neighbor table
   1  0.333  0.667  0.250-   2 2.57   2 2.57   2 2.57   2 2.57   2 2.57   2 2.57
   2  0.667  0.333  0.750-   1 2.57   1 2.57   1 2.57   1 2.57   1 2.57   1 2.57
 
  LATTYP: Found a hexagonal cell.
 ALAT       =     2.5919666343
 C/A-ratio  =     1.6130472937
  
  Lattice vectors:
  
 A1 = (   1.2959833171,  -2.2447089510,   0.0000000000)
 A2 = (   1.2959833171,   2.2447089510,   0.0000000000)
 A3 = (   0.0000000000,   0.0000000000,   4.1809647649)


Analysis of symmetry for initial positions (statically):
=====================================================================
 Subroutine PRICEL returns:
 Original cell was already a primitive cell.
 

 Routine SETGRP: Setting up the symmetry group for a 
 hexagonal supercell.


 Subroutine GETGRP returns: Found 24 space group operations
 (whereof 12 operations were pure point group operations)
 out of a pool of 24 trial point group operations.


The static configuration has the point symmetry D_3d.
 The point group associated with its full space group is D_6h.


Analysis of symmetry for dynamics (positions and initial velocities):
=====================================================================
 Subroutine PRICEL returns:
 Original cell was already a primitive cell.
 

 Routine SETGRP: Setting up the symmetry group for a 
 hexagonal supercell.


 Subroutine GETGRP returns: Found 24 space group operations
 (whereof 12 operations were pure point group operations)
 out of a pool of 24 trial point group operations.


The dynamic configuration has the point symmetry D_3d.
 The point group associated with its full space group is D_6h.


Analysis of structural, dynamic, and magnetic symmetry:
=====================================================================
 Subroutine PRICEL returns:
 Original cell was already a primitive cell.
 

 Routine SETGRP: Setting up the symmetry group for a 
 hexagonal supercell.


 Subroutine GETGRP returns: Found 24 space group operations
 (whereof 12 operations were pure point group operations)
 out of a pool of 24 trial point group operations.


The overall configuration has the point symmetry D_3d.
 The point group associated with its full space group is D_6h.


 Subroutine INISYM returns: Found 24 space group operations
 (whereof 12 operations are pure point group operations),
 and found     1 'primitive' translations


----------------------------------------------------------------------------------------

                                     Primitive cell                                     

  volume of cell :      24.3257

  direct lattice vectors                    reciprocal lattice vectors
     1.295983317 -2.244708951  0.000000000     0.385807435 -0.222746027  0.000000000
     1.295983317  2.244708951  0.000000000     0.385807435  0.222746027  0.000000000
     0.000000000  0.000000000  4.180964765     0.000000000  0.000000000  0.239179246

  length of vectors
     2.591966634  2.591966634  4.180964765     0.445492053  0.445492053  0.239179246

  position of ions in fractional coordinates (direct lattice)
     0.333333333  0.666666667  0.250000000
     0.666666667  0.333333333  0.750000000

  ion indices of the primitive-cell ions
   primitive index   ion index
                 1           1
                 2           2

----------------------------------------------------------------------------------------

 
 
 KPOINTS: Automatic mesh                          

Automatic generation of k-mesh.
 Grid dimensions read from file:
 generate k-points for:   12   12    8

 Generating k-lattice:

  Cartesian coordinates                     Fractional coordinates (reciprocal lattice)
     0.032150620 -0.018562169  0.000000000     0.083333333  0.000000000  0.000000000
     0.032150620  0.018562169  0.000000000     0.000000000  0.083333333  0.000000000
     0.000000000  0.000000000  0.029897406     0.000000000  0.000000000  0.125000000

  Length of vectors
     0.037124338  0.037124338  0.029897406

  Shift w.r.t. Gamma in fractional coordinates (k-lattice)
     0.000000000  0.000000000  0.000000000

 
 Subroutine IBZKPT returns following result:
 ===========================================
 
 Found     95 irreducible k-points:
 
 Following reciprocal coordinates:
            Coordinates               Weight
  0.000000  0.000000  0.000000      1.000000
  0.083333  0.000000  0.000000      6.000000
  0.166667  0.000000  0.000000      6.000000
  0.250000  0.000000  0.000000      6.000000
  0.333333  0.000000  0.000000      6.000000
  0.416667  0.000000  0.000000      6.000000
  0.500000  0.000000  0.000000      3.000000
  0.083333  0.083333  0.000000      6.000000
  0.166667  0.083333  0.000000     12.000000
  0.250000  0.083333  0.000000     12.000000
  0.333333  0.083333  0.000000     12.000000
  0.416667  0.083333  0.000000     12.000000
  0.166667  0.166667  0.000000      6.000000
  0.250000  0.166667  0.000000     12.000000
  0.333333  0.166667  0.000000     12.000000
  0.416667  0.166667  0.000000      6.000000
  0.250000  0.250000  0.000000      6.000000
  0.333333  0.250000  0.000000     12.000000
  0.333333  0.333333  0.000000      2.000000
  0.000000  0.000000  0.125000      2.000000
  0.083333  0.000000  0.125000     12.000000
  0.166667  0.000000  0.125000     12.000000
  0.250000  0.000000  0.125000     12.000000
  0.333333  0.000000  0.125000     12.000000
  0.416667  0.000000  0.125000     12.000000
  0.500000  0.000000  0.125000      6.000000
  0.083333  0.083333  0.125000     12.000000
  0.166667  0.083333  0.125000     24.000000
  0.250000  0.083333  0.125000     24.000000
  0.333333  0.083333  0.125000     24.000000
  0.416667  0.083333  0.125000     24.000000
  0.166667  0.166667  0.125000     12.000000
  0.250000  0.166667  0.125000     24.000000
  0.333333  0.166667  0.125000     24.000000
  0.416667  0.166667  0.125000     12.000000
  0.250000  0.250000  0.125000     12.000000
  0.333333  0.250000  0.125000     24.000000
  0.333333  0.333333  0.125000      4.000000
  0.000000  0.000000  0.250000      2.000000
  0.083333  0.000000  0.250000     12.000000
  0.166667  0.000000  0.250000     12.000000
  0.250000  0.000000  0.250000     12.000000
  0.333333  0.000000  0.250000     12.000000
  0.416667  0.000000  0.250000     12.000000
  0.500000  0.000000  0.250000      6.000000
  0.083333  0.083333  0.250000     12.000000
  0.166667  0.083333  0.250000     24.000000
  0.250000  0.083333  0.250000     24.000000
  0.333333  0.083333  0.250000     24.000000
  0.416667  0.083333  0.250000     24.000000
  0.166667  0.166667  0.250000     12.000000
  0.250000  0.166667  0.250000     24.000000
  0.333333  0.166667  0.250000     24.000000
  0.416667  0.166667  0.250000     12.000000
  0.250000  0.250000  0.250000     12.000000
  0.333333  0.250000  0.250000     24.000000
  0.333333  0.333333  0.250000      4.000000
  0.000000  0.000000  0.375000      2.000000
  0.083333  0.000000  0.375000     12.000000
  0.166667  0.000000  0.375000     12.000000
  0.250000  0.000000  0.375000     12.000000
  0.333333  0.000000  0.375000     12.000000
  0.416667  0.000000  0.375000     12.000000
  0.500000  0.000000  0.375000      6.000000
  0.083333  0.083333  0.375000     12.000000
  0.166667  0.083333  0.375000     24.000000
  0.250000  0.083333  0.375000     24.000000
  0.333333  0.083333  0.375000     24.000000
  0.416667  0.083333  0.375000     24.000000
  0.166667  0.166667  0.375000     12.000000
  0.250000  0.166667  0.375000     24.000000
  0.333333  0.166667  0.375000     24.000000
  0.416667  0.166667  0.375000     12.000000
  0.250000  0.250000  0.375000     12.000000
  0.333333  0.250000  0.375000     24.000000
  0.333333  0.333333  0.375000      4.000000
  0.000000  0.000000  0.500000      1.000000
  0.083333  0.000000  0.500000      6.000000
  0.166667  0.000000  0.500000      6.000000
  0.250000  0.000000  0.500000      6.000000
  0.333333  0.000000  0.500000      6.000000
  0.416667  0.000000  0.500000      6.000000
  0.500000  0.000000  0.500000      3.000000
  0.083333  0.083333  0.500000      6.000000
  0.166667  0.083333  0.500000     12.000000
  0.250000  0.083333  0.500000     12.000000
  0.333333  0.083333  0.500000     12.000000
  0.416667  0.083333  0.500000     12.000000
  0.166667  0.166667  0.500000      6.000000
  0.250000  0.166667  0.500000     12.000000
  0.333333  0.166667  0.500000     12.000000
  0.416667  0.166667  0.500000      6.000000
  0.250000  0.250000  0.500000      6.000000
  0.333333  0.250000  0.500000     12.000000
  0.333333  0.333333  0.500000      2.000000
 
 Following cartesian coordinates:
            Coordinates               Weight
  0.000000  0.000000  0.000000      1.000000
  0.032151 -0.018562  0.000000      6.000000
  0.064301 -0.037124  0.000000      6.000000
  0.096452 -0.055687  0.000000      6.000000
  0.128602 -0.074249  0.000000      6.000000
  0.160753 -0.092811  0.000000      6.000000
  0.192904 -0.111373  0.000000      3.000000
  0.064301  0.000000  0.000000      6.000000
  0.096452 -0.018562  0.000000     12.000000
  0.128602 -0.037124  0.000000     12.000000
  0.160753 -0.055687  0.000000     12.000000
  0.192904 -0.074249  0.000000     12.000000
  0.128602  0.000000  0.000000      6.000000
  0.160753 -0.018562  0.000000     12.000000
  0.192904 -0.037124  0.000000     12.000000
  0.225054 -0.055687  0.000000      6.000000
  0.192904  0.000000  0.000000      6.000000
  0.225054 -0.018562  0.000000     12.000000
  0.257205  0.000000  0.000000      2.000000
  0.000000  0.000000  0.029897      2.000000
  0.032151 -0.018562  0.029897     12.000000
  0.064301 -0.037124  0.029897     12.000000
  0.096452 -0.055687  0.029897     12.000000
  0.128602 -0.074249  0.029897     12.000000
  0.160753 -0.092811  0.029897     12.000000
  0.192904 -0.111373  0.029897      6.000000
  0.064301  0.000000  0.029897     12.000000
  0.096452 -0.018562  0.029897     24.000000
  0.128602 -0.037124  0.029897     24.000000
  0.160753 -0.055687  0.029897     24.000000
  0.192904 -0.074249  0.029897     24.000000
  0.128602  0.000000  0.029897     12.000000
  0.160753 -0.018562  0.029897     24.000000
  0.192904 -0.037124  0.029897     24.000000
  0.225054 -0.055687  0.029897     12.000000
  0.192904  0.000000  0.029897     12.000000
  0.225054 -0.018562  0.029897     24.000000
  0.257205  0.000000  0.029897      4.000000
  0.000000  0.000000  0.059795      2.000000
  0.032151 -0.018562  0.059795     12.000000
  0.064301 -0.037124  0.059795     12.000000
  0.096452 -0.055687  0.059795     12.000000
  0.128602 -0.074249  0.059795     12.000000
  0.160753 -0.092811  0.059795     12.000000
  0.192904 -0.111373  0.059795      6.000000
  0.064301  0.000000  0.059795     12.000000
  0.096452 -0.018562  0.059795     24.000000
  0.128602 -0.037124  0.059795     24.000000
  0.160753 -0.055687  0.059795     24.000000
  0.192904 -0.074249  0.059795     24.000000
  0.128602  0.000000  0.059795     12.000000
  0.160753 -0.018562  0.059795     24.000000
  0.192904 -0.037124  0.059795     24.000000
  0.225054 -0.055687  0.059795     12.000000
  0.192904  0.000000  0.059795     12.000000
  0.225054 -0.018562  0.059795     24.000000
  0.257205  0.000000  0.059795      4.000000
  0.000000  0.000000  0.089692      2.000000
  0.032151 -0.018562  0.089692     12.000000
  0.064301 -0.037124  0.089692     12.000000
  0.096452 -0.055687  0.089692     12.000000
  0.128602 -0.074249  0.089692     12.000000
  0.160753 -0.092811  0.089692     12.000000
  0.192904 -0.111373  0.089692      6.000000
  0.064301  0.000000  0.089692     12.000000
  0.096452 -0.018562  0.089692     24.000000
  0.128602 -0.037124  0.089692     24.000000
  0.160753 -0.055687  0.089692     24.000000
  0.192904 -0.074249  0.089692     24.000000
  0.128602  0.000000  0.089692     12.000000
  0.160753 -0.018562  0.089692     24.000000
  0.192904 -0.037124  0.089692     24.000000
  0.225054 -0.055687  0.089692     12.000000
  0.192904  0.000000  0.089692     12.000000
  0.225054 -0.018562  0.089692     24.000000
  0.257205  0.000000  0.089692      4.000000
  0.000000  0.000000  0.119590      1.000000
  0.032151 -0.018562  0.119590      6.000000
  0.064301 -0.037124  0.119590      6.000000
  0.096452 -0.055687  0.119590      6.000000
  0.128602 -0.074249  0.119590      6.000000
  0.160753 -0.092811  0.119590      6.000000
  0.192904 -0.111373  0.119590      3.000000
  0.064301  0.000000  0.119590      6.000000
  0.096452 -0.018562  0.119590     12.000000
  0.128602 -0.037124  0.119590     12.000000
  0.160753 -0.055687  0.119590     12.000000
  0.192904 -0.074249  0.119590     12.000000
  0.128602  0.000000  0.119590      6.000000
  0.160753 -0.018562  0.119590     12.000000
  0.192904 -0.037124  0.119590     12.000000
  0.225054 -0.055687  0.119590      6.000000
  0.192904  0.000000  0.119590      6.000000
  0.225054 -0.018562  0.119590     12.000000
  0.257205  0.000000  0.119590      2.000000
 


--------------------------------------------------------------------------------------------------------




 Dimension of arrays:
   k-points           NKPTS =     95   k-points in BZ     NKDIM =     95   number of bands    NBANDS=     24
   number of dos      NEDOS =    301   number of ions     NIONS =      2
   non local maximal  LDIM  =      6   non local SUM 2l+1 LMDIM =     18
   total plane-waves  NPLWV =   9072
   max r-space proj   IRMAX =      1   max aug-charges    IRDMAX=  14906
   dimension x,y,z NGX =    18 NGY =   18 NGZ =   28
   dimension x,y,z NGXF=    36 NGYF=   36 NGZF=   56
   support grid    NGXF=    36 NGYF=   36 NGZF=   56
   ions per type =               2
   NGX,Y,Z   is equivalent  to a cutoff of  11.55, 11.55, 11.13 a.u.
   NGXF,Y,Z  is equivalent  to a cutoff of  23.09, 23.09, 22.27 a.u.

 SYSTEM =  Co-hcc                                  
 POSCAR =  Co                                      

 Startparameter for this run:
   NWRITE =      2    write-flag & timer
   PREC   = accura    normal or accurate (medium, high low for compatibility)
   ISTART =      0    job   : 0-new  1-cont  2-samecut
   ICHARG =      2    charge: 1-file 2-atom 10-const
   ISPIN  =      2    spin polarized calculation?
   LNONCOLLINEAR =      F non collinear calculations
   LSORBIT =      F    spin-orbit coupling
   INIWAV =      1    electr: 0-lowe 1-rand  2-diag
   LASPH  =      F    aspherical Exc in radial PAW
 Electronic Relaxation 1
   ENCUT  =  425.0 eV  31.24 Ry    5.59 a.u.   4.36  4.36  7.03*2*pi/ulx,y,z
   ENINI  =  425.0     initial cutoff
   ENAUG  =  477.8 eV  augmentation charge cutoff
   NELM   =    100;   NELMIN=  2; NELMDL= -5     # of ELM steps 
   EDIFF  = 0.1E-05   stopping-criterion for ELM
   LREAL  =      F    real-space projection
   NLSPLINE    = F    spline interpolate recip. space projectors
   LCOMPAT=      F    compatible to vasp.4.4
   GGA_COMPAT  = T    GGA compatible to vasp.4.4-vasp.4.6
   LMAXPAW     = -100 max onsite density
   LMAXMIX     =    2 max onsite mixed and CHGCAR
   VOSKOWN=      0    Vosko Wilk Nusair interpolation
   ROPT   =    0.00000
 Ionic relaxation
   EDIFFG = -.2E-01   stopping-criterion for IOM
   NSW    =    100    number of steps for IOM
   NBLOCK =      1;   KBLOCK =    100    inner block; outer block 
   IBRION =      2    ionic relax: 0-MD 1-quasi-New 2-CG
   NFREE  =      1    steps in history (QN), initial steepest desc. (CG)
   ISIF   =      2    stress and relaxation
   IWAVPR =     11    prediction:  0-non 1-charg 2-wave 3-comb
   ISYM   =      1    0-nonsym 1-usesym 2-fastsym
   LCORR  =      T    Harris-Foulkes like correction to forces

   POTIM  = 0.5000    time-step for ionic-motion
   TEIN   =    0.0    initial temperature
   TEBEG  =    0.0;   TEEND  =   0.0 temperature during run
   SMASS  =  -3.00    Nose mass-parameter (am)
   estimated Nose-frequenzy (Omega)   =  0.10E-29 period in steps = 0.13E+47 mass=  -0.154E-27a.u.
   SCALEE = 1.0000    scale energy and forces
   NPACO  =    256;   APACO  = 10.0  distance and # of slots for P.C.
   PSTRESS=    0.0 pullay stress

  Mass of Ions in am
   POMASS =  58.93
  Ionic Valenz
   ZVAL   =   9.00
  Atomic Wigner-Seitz radii
   RWIGS  =  -1.00
  virtual crystal weights 
   VCA    =   1.00
   NELECT =      18.0000    total number of electrons
   NUPDOWN=      -1.0000    fix difference up-down

 DOS related values:
   EMIN   =  10.00;   EMAX   =-10.00  energy-range for DOS
   EFERMI =   0.00
   ISMEAR =     0;   SIGMA  =   0.05  broadening in eV -4-tet -1-fermi 0-gaus

 Electronic relaxation 2 (details)
   IALGO  =     38    algorithm
   LDIAG  =      T    sub-space diagonalisation (order eigenvalues)
   LSUBROT=      F    optimize rotation matrix (better conditioning)
   TURBO    =      0    0=normal 1=particle mesh
   IRESTART =      0    0=no restart 2=restart with 2 vectors
   NREBOOT  =      0    no. of reboots
   NMIN     =      0    reboot dimension
   EREF     =   0.00    reference energy to select bands
   IMIX   =      4    mixing-type and parameters
     AMIX     =   0.40;   BMIX     =  1.00
     AMIX_MAG =   1.60;   BMIX_MAG =  1.00
     AMIN     =   0.10
     WC   =   100.;   INIMIX=   1;  MIXPRE=   1;  MAXMIX= -45

 Intra band minimization:
   WEIMIN = 0.0010     energy-eigenvalue tresh-hold
   EBREAK =  0.10E-07  absolut break condition
   DEPER  =   0.30     relativ break condition  

   TIME   =   0.40     timestep for ELM

  volume/ion in A,a.u.               =      12.16        82.08
  Fermi-wavevector in a.u.,A,eV,Ry     =   1.480734  2.798181 29.831765  2.192573
  Thomas-Fermi vector in A             =   2.594731
 
 Write flags
   LWAVE        =      F    write WAVECAR
   LDOWNSAMPLE  =      F    k-point downsampling of WAVECAR
   LCHARG       =      F    write CHGCAR
   LVTOT        =      F    write LOCPOT, total local potential
   LVHAR        =      F    write LOCPOT, Hartree potential only
   LELF         =      F    write electronic localiz. function (ELF)
   LORBIT       =     11    0 simple, 1 ext, 2 COOP (PROOUT), +10 PAW based schemes


 Dipole corrections
   LMONO  =      F    monopole corrections only (constant potential shift)
   LDIPOL =      F    correct potential (dipole corrections)
   IDIPOL =      0    1-x, 2-y, 3-z, 4-all directions 
   EPSILON=  1.0000000 bulk dielectric constant

 Exchange correlation treatment:
   GGA     =    --    GGA type
   LEXCH   =     8    internal setting for exchange type
   LIBXC   =     F    Libxc                    
   VOSKOWN =     0    Vosko Wilk Nusair interpolation
   LHFCALC =     F    Hartree Fock is set to
   LHFONE  =     F    Hartree Fock one center treatment
   AEXX    =    0.0000 exact exchange contribution

 Linear response parameters
   LEPSILON=     F    determine dielectric tensor
   LRPA    =     F    only Hartree local field effects (RPA)
   LNABLA  =     F    use nabla operator in PAW spheres
   LVEL    =     F    velocity operator in full k-point grid
   CSHIFT  =0.1000    complex shift for real part using Kramers Kronig
   OMEGAMAX=  -1.0    maximum frequency
   DEG_THRESHOLD= 0.2000000E-02 threshold for treating states as degnerate
   RTIME   =   -0.100 relaxation time in fs
  (WPLASMAI=    0.000 imaginary part of plasma frequency in eV, 0.658/RTIME)
   DFIELD  = 0.0000000 0.0000000 0.0000000 field for delta impulse in time
 
  Optional k-point grid parameters
   LKPOINTS_OPT  =     F    use optional k-point grid
   KPOINTS_OPT_MODE=     1    mode for optional k-point grid
 
 Orbital magnetization related:
   ORBITALMAG=     F  switch on orbital magnetization
   LCHIMAG   =     F  perturbation theory with respect to B field
   DQ        =  0.001000  dq finite difference perturbation B field
   LLRAUG    =     F  two centre corrections for induced B field



--------------------------------------------------------------------------------------------------------


 conjugate gradient relaxation of ions
 charge density and potential will be updated during run
 spin polarized calculation
 Variant of blocked Davidson
 Davidson routine will perform the subspace rotation
 perform sub-space diagonalisation
    after iterative eigenvector-optimisation
 modified Broyden-mixing scheme, WC =      100.0
 initial mixing is a Kerker type mixing with AMIX =  0.4000 and BMIX =      1.0000
 Hartree-type preconditioning will be used
 using additional bands           15
 reciprocal scheme for non local part
 use partial core corrections
 calculate Harris-corrections to forces 
   (improved forces if not selfconsistent)
 use gradient corrections 
 use of overlap-Matrix (Vanderbilt PP)
 Gauss-broadening in eV      SIGMA  =   0.05


--------------------------------------------------------------------------------------------------------


  energy-cutoff  :      425.00
  volume of cell :       24.33
      direct lattice vectors                 reciprocal lattice vectors
     1.295983317 -2.244708951  0.000000000     0.385807435 -0.222746027  0.000000000
     1.295983317  2.244708951  0.000000000     0.385807435  0.222746027  0.000000000
     0.000000000  0.000000000  4.180964765     0.000000000  0.000000000  0.239179246

  length of vectors
     2.591966634  2.591966634  4.180964765     0.445492053  0.445492053  0.239179246


 
 k-points in units of 2pi/SCALE and weight: Automatic mesh                          
   0.00000000  0.00000000  0.00000000       0.001
   0.03215062 -0.01856217  0.00000000       0.005
   0.06430124 -0.03712434  0.00000000       0.005
   0.09645186 -0.05568651  0.00000000       0.005
   0.12860248 -0.07424868  0.00000000       0.005
   0.16075310 -0.09281084  0.00000000       0.005
   0.19290372 -0.11137301  0.00000000       0.003
   0.06430124  0.00000000  0.00000000       0.005
   0.09645186 -0.01856217  0.00000000       0.010
   0.12860248 -0.03712434  0.00000000       0.010
   0.16075310 -0.05568651  0.00000000       0.010
   0.19290372 -0.07424868  0.00000000       0.010
   0.12860248  0.00000000  0.00000000       0.005
   0.16075310 -0.01856217  0.00000000       0.010
   0.19290372 -0.03712434  0.00000000       0.010
   0.22505434 -0.05568651  0.00000000       0.005
   0.19290372  0.00000000  0.00000000       0.005
   0.22505434 -0.01856217  0.00000000       0.010
   0.25720496  0.00000000  0.00000000       0.002
   0.00000000  0.00000000  0.02989741       0.002
   0.03215062 -0.01856217  0.02989741       0.010
   0.06430124 -0.03712434  0.02989741       0.010
   0.09645186 -0.05568651  0.02989741       0.010
   0.12860248 -0.07424868  0.02989741       0.010
   0.16075310 -0.09281084  0.02989741       0.010
   0.19290372 -0.11137301  0.02989741       0.005
   0.06430124  0.00000000  0.02989741       0.010
   0.09645186 -0.01856217  0.02989741       0.021
   0.12860248 -0.03712434  0.02989741       0.021
   0.16075310 -0.05568651  0.02989741       0.021
   0.19290372 -0.07424868  0.02989741       0.021
   0.12860248  0.00000000  0.02989741       0.010
   0.16075310 -0.01856217  0.02989741       0.021
   0.19290372 -0.03712434  0.02989741       0.021
   0.22505434 -0.05568651  0.02989741       0.010
   0.19290372  0.00000000  0.02989741       0.010
   0.22505434 -0.01856217  0.02989741       0.021
   0.25720496  0.00000000  0.02989741       0.003
   0.00000000  0.00000000  0.05979481       0.002
   0.03215062 -0.01856217  0.05979481       0.010
   0.06430124 -0.03712434  0.05979481       0.010
   0.09645186 -0.05568651  0.05979481       0.010
   0.12860248 -0.07424868  0.05979481       0.010
   0.16075310 -0.09281084  0.05979481       0.010
   0.19290372 -0.11137301  0.05979481       0.005
   0.06430124  0.00000000  0.05979481       0.010
   0.09645186 -0.01856217  0.05979481       0.021
   0.12860248 -0.03712434  0.05979481       0.021
   0.16075310 -0.05568651  0.05979481       0.021
   0.19290372 -0.07424868  0.05979481       0.021
   0.12860248  0.00000000  0.05979481       0.010
   0.16075310 -0.01856217  0.05979481       0.021
   0.19290372 -0.03712434  0.05979481       0.021
   0.22505434 -0.05568651  0.05979481       0.010
   0.19290372  0.00000000  0.05979481       0.010
   0.22505434 -0.01856217  0.05979481       0.021
   0.25720496  0.00000000  0.05979481       0.003
   0.00000000  0.00000000  0.08969222       0.002
   0.03215062 -0.01856217  0.08969222       0.010
   0.06430124 -0.03712434  0.08969222       0.010
   0.09645186 -0.05568651  0.08969222       0.010
   0.12860248 -0.07424868  0.08969222       0.010
   0.16075310 -0.09281084  0.08969222       0.010
   0.19290372 -0.11137301  0.08969222       0.005
   0.06430124  0.00000000  0.08969222       0.010
   0.09645186 -0.01856217  0.08969222       0.021
   0.12860248 -0.03712434  0.08969222       0.021
   0.16075310 -0.05568651  0.08969222       0.021
   0.19290372 -0.07424868  0.08969222       0.021
   0.12860248  0.00000000  0.08969222       0.010
   0.16075310 -0.01856217  0.08969222       0.021
   0.19290372 -0.03712434  0.08969222       0.021
   0.22505434 -0.05568651  0.08969222       0.010
   0.19290372  0.00000000  0.08969222       0.010
   0.22505434 -0.01856217  0.08969222       0.021
   0.25720496  0.00000000  0.08969222       0.003
   0.00000000  0.00000000  0.11958962       0.001
   0.03215062 -0.01856217  0.11958962       0.005
   0.06430124 -0.03712434  0.11958962       0.005
   0.09645186 -0.05568651  0.11958962       0.005
   0.12860248 -0.07424868  0.11958962       0.005
   0.16075310 -0.09281084  0.11958962       0.005
   0.19290372 -0.11137301  0.11958962       0.003
   0.06430124  0.00000000  0.11958962       0.005
   0.09645186 -0.01856217  0.11958962       0.010
   0.12860248 -0.03712434  0.11958962       0.010
   0.16075310 -0.05568651  0.11958962       0.010
   0.19290372 -0.07424868  0.11958962       0.010
   0.12860248  0.00000000  0.11958962       0.005
   0.16075310 -0.01856217  0.11958962       0.010
   0.19290372 -0.03712434  0.11958962       0.010
   0.22505434 -0.05568651  0.11958962       0.005
   0.19290372  0.00000000  0.11958962       0.005
   0.22505434 -0.01856217  0.11958962       0.010
   0.25720496  0.00000000  0.11958962       0.002
 
 k-points in reciprocal lattice and weights: Automatic mesh                          
   0.00000000  0.00000000  0.00000000       0.001
   0.08333333  0.00000000  0.00000000       0.005
   0.16666667  0.00000000  0.00000000       0.005
   0.25000000  0.00000000  0.00000000       0.005
   0.33333333  0.00000000  0.00000000       0.005
   0.41666667  0.00000000  0.00000000       0.005
   0.50000000  0.00000000  0.00000000       0.003
   0.08333333  0.08333333  0.00000000       0.005
   0.16666667  0.08333333  0.00000000       0.010
   0.25000000  0.08333333  0.00000000       0.010
   0.33333333  0.08333333  0.00000000       0.010
   0.41666667  0.08333333  0.00000000       0.010
   0.16666667  0.16666667  0.00000000       0.005
   0.25000000  0.16666667  0.00000000       0.010
   0.33333333  0.16666667  0.00000000       0.010
   0.41666667  0.16666667  0.00000000       0.005
   0.25000000  0.25000000  0.00000000       0.005
   0.33333333  0.25000000  0.00000000       0.010
   0.33333333  0.33333333  0.00000000       0.002
   0.00000000  0.00000000  0.12500000       0.002
   0.08333333  0.00000000  0.12500000       0.010
   0.16666667  0.00000000  0.12500000       0.010
   0.25000000  0.00000000  0.12500000       0.010
   0.33333333  0.00000000  0.12500000       0.010
   0.41666667  0.00000000  0.12500000       0.010
   0.50000000  0.00000000  0.12500000       0.005
   0.08333333  0.08333333  0.12500000       0.010
   0.16666667  0.08333333  0.12500000       0.021
   0.25000000  0.08333333  0.12500000       0.021
   0.33333333  0.08333333  0.12500000       0.021
   0.41666667  0.08333333  0.12500000       0.021
   0.16666667  0.16666667  0.12500000       0.010
   0.25000000  0.16666667  0.12500000       0.021
   0.33333333  0.16666667  0.12500000       0.021
   0.41666667  0.16666667  0.12500000       0.010
   0.25000000  0.25000000  0.12500000       0.010
   0.33333333  0.25000000  0.12500000       0.021
   0.33333333  0.33333333  0.12500000       0.003
   0.00000000  0.00000000  0.25000000       0.002
   0.08333333  0.00000000  0.25000000       0.010
   0.16666667  0.00000000  0.25000000       0.010
   0.25000000  0.00000000  0.25000000       0.010
   0.33333333  0.00000000  0.25000000       0.010
   0.41666667  0.00000000  0.25000000       0.010
   0.50000000  0.00000000  0.25000000       0.005
   0.08333333  0.08333333  0.25000000       0.010
   0.16666667  0.08333333  0.25000000       0.021
   0.25000000  0.08333333  0.25000000       0.021
   0.33333333  0.08333333  0.25000000       0.021
   0.41666667  0.08333333  0.25000000       0.021
   0.16666667  0.16666667  0.25000000       0.010
   0.25000000  0.16666667  0.25000000       0.021
   0.33333333  0.16666667  0.25000000       0.021
   0.41666667  0.16666667  0.25000000       0.010
   0.25000000  0.25000000  0.25000000       0.010
   0.33333333  0.25000000  0.25000000       0.021
   0.33333333  0.33333333  0.25000000       0.003
   0.00000000  0.00000000  0.37500000       0.002
   0.08333333  0.00000000  0.37500000       0.010
   0.16666667  0.00000000  0.37500000       0.010
   0.25000000  0.00000000  0.37500000       0.010
   0.33333333  0.00000000  0.37500000       0.010
   0.41666667  0.00000000  0.37500000       0.010
   0.50000000  0.00000000  0.37500000       0.005
   0.08333333  0.08333333  0.37500000       0.010
   0.16666667  0.08333333  0.37500000       0.021
   0.25000000  0.08333333  0.37500000       0.021
   0.33333333  0.08333333  0.37500000       0.021
   0.41666667  0.08333333  0.37500000       0.021
   0.16666667  0.16666667  0.37500000       0.010
   0.25000000  0.16666667  0.37500000       0.021
   0.33333333  0.16666667  0.37500000       0.021
   0.41666667  0.16666667  0.37500000       0.010
   0.25000000  0.25000000  0.37500000       0.010
   0.33333333  0.25000000  0.37500000       0.021
   0.33333333  0.33333333  0.37500000       0.003
   0.00000000  0.00000000  0.50000000       0.001
   0.08333333  0.00000000  0.50000000       0.005
   0.16666667  0.00000000  0.50000000       0.005
   0.25000000  0.00000000  0.50000000       0.005
   0.33333333  0.00000000  0.50000000       0.005
   0.41666667  0.00000000  0.50000000       0.005
   0.50000000  0.00000000  0.50000000       0.003
   0.08333333  0.08333333  0.50000000       0.005
   0.16666667  0.08333333  0.50000000       0.010
   0.25000000  0.08333333  0.50000000       0.010
   0.33333333  0.08333333  0.50000000       0.010
   0.41666667  0.08333333  0.50000000       0.010
   0.16666667  0.16666667  0.50000000       0.005
   0.25000000  0.16666667  0.50000000       0.010
   0.33333333  0.16666667  0.50000000       0.010
   0.41666667  0.16666667  0.50000000       0.005
   0.25000000  0.25000000  0.50000000       0.005
   0.33333333  0.25000000  0.50000000       0.010
   0.33333333  0.33333333  0.50000000       0.002
 
 position of ions in fractional coordinates (direct lattice) 
   0.33333333  0.66666667  0.25000000
   0.66666667  0.33333333  0.75000000
 
 position of ions in cartesian coordinates  (Angst):
   1.29598332  0.74823632  1.04524119
   1.29598332 -0.74823632  3.13572357
 


--------------------------------------------------------------------------------------------------------


 k-point   1 :   0.0000 0.0000 0.0000  plane waves:     513
 k-point   2 :   0.0833 0.0000 0.0000  plane waves:     499
 k-point   3 :   0.1667 0.0000 0.0000  plane waves:     493
 k-point   4 :   0.2500 0.0000 0.0000  plane waves:     482
 k-point   5 :   0.3333 0.0000 0.0000  plane waves:     480
 k-point   6 :   0.4167 0.0000 0.0000  plane waves:     474
 k-point   7 :   0.5000 0.0000 0.0000  plane waves:     472
 k-point   8 :   0.0833 0.0833 0.0000  plane waves:     491
 k-point   9 :   0.1667 0.0833 0.0000  plane waves:     486
 k-point  10 :   0.2500 0.0833 0.0000  plane waves:     485
 k-point  11 :   0.3333 0.0833 0.0000  plane waves:     473
 k-point  12 :   0.4167 0.0833 0.0000  plane waves:     476
 k-point  13 :   0.1667 0.1667 0.0000  plane waves:     487
 k-point  14 :   0.2500 0.1667 0.0000  plane waves:     480
 k-point  15 :   0.3333 0.1667 0.0000  plane waves:     479
 k-point  16 :   0.4167 0.1667 0.0000  plane waves:     480
 k-point  17 :   0.2500 0.2500 0.0000  plane waves:     486
 k-point  18 :   0.3333 0.2500 0.0000  plane waves:     476
 k-point  19 :   0.3333 0.3333 0.0000  plane waves:     474
 k-point  20 :   0.0000 0.0000 0.1250  plane waves:     494
 k-point  21 :   0.0833 0.0000 0.1250  plane waves:     496
 k-point  22 :   0.1667 0.0000 0.1250  plane waves:     484
 k-point  23 :   0.2500 0.0000 0.1250  plane waves:     482
 k-point  24 :   0.3333 0.0000 0.1250  plane waves:     477
 k-point  25 :   0.4167 0.0000 0.1250  plane waves:     478
 k-point  26 :   0.5000 0.0000 0.1250  plane waves:     476
 k-point  27 :   0.0833 0.0833 0.1250  plane waves:     488
 k-point  28 :   0.1667 0.0833 0.1250  plane waves:     483
 k-point  29 :   0.2500 0.0833 0.1250  plane waves:     483
 k-point  30 :   0.3333 0.0833 0.1250  plane waves:     481
 k-point  31 :   0.4167 0.0833 0.1250  plane waves:     481
 k-point  32 :   0.1667 0.1667 0.1250  plane waves:     485
 k-point  33 :   0.2500 0.1667 0.1250  plane waves:     485
 k-point  34 :   0.3333 0.1667 0.1250  plane waves:     482
 k-point  35 :   0.4167 0.1667 0.1250  plane waves:     477
 k-point  36 :   0.2500 0.2500 0.1250  plane waves:     487
 k-point  37 :   0.3333 0.2500 0.1250  plane waves:     484
 k-point  38 :   0.3333 0.3333 0.1250  plane waves:     471
 k-point  39 :   0.0000 0.0000 0.2500  plane waves:     500
 k-point  40 :   0.0833 0.0000 0.2500  plane waves:     496
 k-point  41 :   0.1667 0.0000 0.2500  plane waves:     490
 k-point  42 :   0.2500 0.0000 0.2500  plane waves:     483
 k-point  43 :   0.3333 0.0000 0.2500  plane waves:     483
 k-point  44 :   0.4167 0.0000 0.2500  plane waves:     477
 k-point  45 :   0.5000 0.0000 0.2500  plane waves:     470
 k-point  46 :   0.0833 0.0833 0.2500  plane waves:     498
 k-point  47 :   0.1667 0.0833 0.2500  plane waves:     483
 k-point  48 :   0.2500 0.0833 0.2500  plane waves:     485
 k-point  49 :   0.3333 0.0833 0.2500  plane waves:     482
 k-point  50 :   0.4167 0.0833 0.2500  plane waves:     480
 k-point  51 :   0.1667 0.1667 0.2500  plane waves:     486
 k-point  52 :   0.2500 0.1667 0.2500  plane waves:     486
 k-point  53 :   0.3333 0.1667 0.2500  plane waves:     483
 k-point  54 :   0.4167 0.1667 0.2500  plane waves:     487
 k-point  55 :   0.2500 0.2500 0.2500  plane waves:     483
 k-point  56 :   0.3333 0.2500 0.2500  plane waves:     484
 k-point  57 :   0.3333 0.3333 0.2500  plane waves:     471
 k-point  58 :   0.0000 0.0000 0.3750  plane waves:     494
 k-point  59 :   0.0833 0.0000 0.3750  plane waves:     495
 k-point  60 :   0.1667 0.0000 0.3750  plane waves:     492
 k-point  61 :   0.2500 0.0000 0.3750  plane waves:     489
 k-point  62 :   0.3333 0.0000 0.3750  plane waves:     486
 k-point  63 :   0.4167 0.0000 0.3750  plane waves:     485
 k-point  64 :   0.5000 0.0000 0.3750  plane waves:     482
 k-point  65 :   0.0833 0.0833 0.3750  plane waves:     491
 k-point  66 :   0.1667 0.0833 0.3750  plane waves:     486
 k-point  67 :   0.2500 0.0833 0.3750  plane waves:     488
 k-point  68 :   0.3333 0.0833 0.3750  plane waves:     481
 k-point  69 :   0.4167 0.0833 0.3750  plane waves:     482
 k-point  70 :   0.1667 0.1667 0.3750  plane waves:     485
 k-point  71 :   0.2500 0.1667 0.3750  plane waves:     482
 k-point  72 :   0.3333 0.1667 0.3750  plane waves:     483
 k-point  73 :   0.4167 0.1667 0.3750  plane waves:     486
 k-point  74 :   0.2500 0.2500 0.3750  plane waves:     489
 k-point  75 :   0.3333 0.2500 0.3750  plane waves:     483
 k-point  76 :   0.3333 0.3333 0.3750  plane waves:     480
 k-point  77 :   0.0000 0.0000 0.5000  plane waves:     494
 k-point  78 :   0.0833 0.0000 0.5000  plane waves:     490
 k-point  79 :   0.1667 0.0000 0.5000  plane waves:     488
 k-point  80 :   0.2500 0.0000 0.5000  plane waves:     494
 k-point  81 :   0.3333 0.0000 0.5000  plane waves:     482
 k-point  82 :   0.4167 0.0000 0.5000  plane waves:     492
 k-point  83 :   0.5000 0.0000 0.5000  plane waves:     484
 k-point  84 :   0.0833 0.0833 0.5000  plane waves:     492
 k-point  85 :   0.1667 0.0833 0.5000  plane waves:     488
 k-point  86 :   0.2500 0.0833 0.5000  plane waves:     478
 k-point  87 :   0.3333 0.0833 0.5000  plane waves:     490
 k-point  88 :   0.4167 0.0833 0.5000  plane waves:     484
 k-point  89 :   0.1667 0.1667 0.5000  plane waves:     484
 k-point  90 :   0.2500 0.1667 0.5000  plane waves:     486
 k-point  91 :   0.3333 0.1667 0.5000  plane waves:     486
 k-point  92 :   0.4167 0.1667 0.5000  plane waves:     484
 k-point  93 :   0.2500 0.2500 0.5000  plane waves:     480
 k-point  94 :   0.3333 0.2500 0.5000  plane waves:     476
 k-point  95 :   0.3333 0.3333 0.5000  plane waves:     486

 maximum and minimum number of plane-waves per node :       513      470

 maximum number of plane-waves:       513
 maximum index in each direction: 
   IXMAX=    4   IYMAX=    4   IZMAX=    7
   IXMIN=   -4   IYMIN=   -4   IZMIN=   -7


 serial   3D FFT for wavefunctions
 parallel 3D FFT for charge:
    minimum data exchange during FFTs selected (reduces bandwidth)


 total amount of memory used by VASP MPI-rank0    40258. kBytes
=======================================================================

   base      :      30000. kBytes
   nonl-proj :       7239. kBytes
   fftplans  :        172. kBytes
   grid      :       1034. kBytes
   one-center:         62. kBytes
   wavefun   :       1751. kBytes
 
     INWAV:  cpu time      0.0000: real time      0.0001
 Broyden mixing: mesh for mixing (old mesh)
   NGX =  9   NGY =  9   NGZ = 15
  (NGX  = 36   NGY  = 36   NGZ  = 56)
  gives a total of   1215 points

 initial charge density was supplied:
 charge density of overlapping atoms calculated
 number of electron      18.0000000 magnetization       6.0000000
 keeping initial charge density in first step


--------------------------------------------------------------------------------------------------------


 Maximum index for augmentation-charges          946 (set IRDMAX)


--------------------------------------------------------------------------------------------------------


 First call to EWALD:  gamma=   0.612
 Maximum number of real-space cells 3x 3x 2
 Maximum number of reciprocal cells 3x 3x 4

    FEWALD:  cpu time      0.0015: real time      0.0015


--------------------------------------- Iteration      1(   1)  ---------------------------------------


    POTLOK:  cpu time      0.0069: real time      0.0069
    SETDIJ:  cpu time      0.0053: real time      0.0053
     EDDAV:  cpu time      0.7582: real time      0.7625
       DOS:  cpu time      0.0014: real time      0.0014
    --------------------------------------------
      LOOP:  cpu time      0.7717: real time      0.7762

 eigenvalue-minimisations  :  9144
 total energy-change (2. order) : 0.4857542E+01  (-0.8424601E+03)
 number of electron      18.0000000 magnetization       6.0000000
 augmentation part       18.0000000 magnetization       6.0000000

 Free energy of the ion-electron system (eV)
  ---------------------------------------------------
  alpha Z        PSCENC =        69.65083312
  Ewald energy   TEWEN  =     -1464.78321638
  -Hartree energ DENC   =      -324.58180631
  -exchange      EXHF   =         0.00000000
  -V(xc)+E(xc)   XCENC  =        34.92638340
  PAW double counting   =      1439.98163886    -1545.88690193
  entropy T*S    EENTRO =        -0.00269527
  eigenvalues    EBANDS =       168.83007615
  atomic energy  EATOM  =      1626.72322989
  Solvation  Ediel_sol  =         0.00000000
  ---------------------------------------------------
  free energy    TOTEN  =         4.85754154 eV

  energy without entropy =        4.86023680  energy(sigma->0) =        4.85888917


--------------------------------------------------------------------------------------------------------




--------------------------------------- Iteration      1(   2)  ---------------------------------------


     EDDAV:  cpu time      0.9994: real time      1.0057
       DOS:  cpu time      0.0008: real time      0.0008
    --------------------------------------------
      LOOP:  cpu time      1.0002: real time      1.0065

 eigenvalue-minimisations  : 10848
 total energy-change (2. order) :-0.2035841E+02  (-0.1998530E+02)
 number of electron      18.0000000 magnetization       6.0000000
 augmentation part       18.0000000 magnetization       6.0000000

 Free energy of the ion-electron system (eV)
  ---------------------------------------------------
  alpha Z        PSCENC =        69.65083312
  Ewald energy   TEWEN  =     -1464.78321638
  -Hartree energ DENC   =      -324.58180631
  -exchange      EXHF   =         0.00000000
  -V(xc)+E(xc)   XCENC  =        34.92638340
  PAW double counting   =      1439.98163886    -1545.88690193
  entropy T*S    EENTRO =        -0.00244040
  eigenvalues    EBANDS =       148.47141590
  atomic energy  EATOM  =      1626.72322989
  Solvation  Ediel_sol  =         0.00000000
  ---------------------------------------------------
  free energy    TOTEN  =       -15.50086385 eV

  energy without entropy =      -15.49842345  energy(sigma->0) =      -15.49964365


--------------------------------------------------------------------------------------------------------




--------------------------------------- Iteration      1(   3)  ---------------------------------------


     EDDAV:  cpu time      1.2130: real time      1.2197
       DOS:  cpu time      0.0008: real time      0.0008
    --------------------------------------------
      LOOP:  cpu time      1.2139: real time      1.2206

 eigenvalue-minimisations  : 12000
 total energy-change (2. order) :-0.1417862E+00  (-0.1417269E+00)
 number of electron      18.0000000 magnetization       6.0000000
 augmentation part       18.0000000 magnetization       6.0000000

 Free energy of the ion-electron system (eV)
  ---------------------------------------------------
  alpha Z        PSCENC =        69.65083312
  Ewald energy   TEWEN  =     -1464.78321638
  -Hartree energ DENC   =      -324.58180631
  -exchange      EXHF   =         0.00000000
  -V(xc)+E(xc)   XCENC  =        34.92638340
  PAW double counting   =      1439.98163886    -1545.88690193
  entropy T*S    EENTRO =        -0.00240315
  eigenvalues    EBANDS =       148.32959241
  atomic energy  EATOM  =      1626.72322989
  Solvation  Ediel_sol  =         0.00000000
  ---------------------------------------------------
  free energy    TOTEN  =       -15.64265009 eV

  energy without entropy =      -15.64024694  energy(sigma->0) =      -15.64144851


--------------------------------------------------------------------------------------------------------




--------------------------------------- Iteration      1(   4)  ---------------------------------------


     EDDAV:  cpu time      1.3319: real time      1.3387
       DOS:  cpu time      0.0008: real time      0.0008
    --------------------------------------------
      LOOP:  cpu time      1.3327: real time      1.3395

 eigenvalue-minimisations  : 12744
 total energy-change (2. order) :-0.8820087E-03  (-0.8820023E-03)
 number of electron      18.0000000 magnetization       6.0000000
 augmentation part       18.0000000 magnetization       6.0000000

 Free energy of the ion-electron system (eV)
  ---------------------------------------------------
  alpha Z        PSCENC =        69.65083312
  Ewald energy   TEWEN  =     -1464.78321638
  -Hartree energ DENC   =      -324.58180631
  -exchange      EXHF   =         0.00000000
  -V(xc)+E(xc)   XCENC  =        34.92638340
  PAW double counting   =      1439.98163886    -1545.88690193
  entropy T*S    EENTRO =        -0.00240216
  eigenvalues    EBANDS =       148.32870940
  atomic energy  EATOM  =      1626.72322989
  Solvation  Ediel_sol  =         0.00000000
  ---------------------------------------------------
  free energy    TOTEN  =       -15.64353210 eV

  energy without entropy =      -15.64112994  energy(sigma->0) =      -15.64233102


--------------------------------------------------------------------------------------------------------




--------------------------------------- Iteration      1(   5)  ---------------------------------------


     EDDAV:  cpu time      1.3353: real time      1.3426
       DOS:  cpu time      0.0008: real time      0.0008
    CHARGE:  cpu time      0.0333: real time      0.0335
    MIXING:  cpu time      0.0003: real time      0.0003
    --------------------------------------------
      LOOP:  cpu time      1.3698: real time      1.3771

 eigenvalue-minimisations  : 12528
 total energy-change (2. order) :-0.2129180E-05  (-0.2129572E-05)
 number of electron      17.9999978 magnetization       3.7551720
 augmentation part        9.1204958 magnetization       2.9229755

 Broyden mixing:
  rms(total) = 0.14435E+01    rms(broyden)= 0.14435E+01
  rms(prec ) = 0.26152E+01
  weight for this iteration     100.00

 Free energy of the ion-electron system (eV)
  ---------------------------------------------------
  alpha Z        PSCENC =        69.65083312
  Ewald energy   TEWEN  =     -1464.78321638
  -Hartree energ DENC   =      -324.58180631
  -exchange      EXHF   =         0.00000000
  -V(xc)+E(xc)   XCENC  =        34.92638340
  PAW double counting   =      1439.98163886    -1545.88690193
  entropy T*S    EENTRO =        -0.00240216
  eigenvalues    EBANDS =       148.32870727
  atomic energy  EATOM  =      1626.72322989
  Solvation  Ediel_sol  =         0.00000000
  ---------------------------------------------------
  free energy    TOTEN  =       -15.64353423 eV

  energy without entropy =      -15.64113207  energy(sigma->0) =      -15.64233315


--------------------------------------------------------------------------------------------------------




--------------------------------------- Iteration      1(   6)  ---------------------------------------


    POTLOK:  cpu time      0.0059: real time      0.0060
    SETDIJ:  cpu time      0.0050: real time      0.0050
     EDDAV:  cpu time      1.4242: real time      1.4317
       DOS:  cpu time      0.0008: real time      0.0008
    CHARGE:  cpu time      0.0325: real time      0.0326
    MIXING:  cpu time      0.0003: real time      0.0003
    --------------------------------------------
      LOOP:  cpu time      1.4687: real time      1.4764

 eigenvalue-minimisations  : 13224
 total energy-change (2. order) : 0.1127881E+01  (-0.3690419E+01)
 number of electron      17.9999974 magnetization       3.4352467
 augmentation part       10.8680500 magnetization       3.0335090

 Broyden mixing:
  rms(total) = 0.79248E+00    rms(broyden)= 0.79245E+00
  rms(prec ) = 0.11476E+01
  weight for this iteration     100.00

 eigenvalues of (default mixing * dielectric matrix)
  average eigenvalue GAMMA=   0.7417
  0.7417

 Free energy of the ion-electron system (eV)
  ---------------------------------------------------
  alpha Z        PSCENC =        69.65083312
  Ewald energy   TEWEN  =     -1464.78321638
  -Hartree energ DENC   =      -284.41430593
  -exchange      EXHF   =         0.00000000
  -V(xc)+E(xc)   XCENC  =        31.96651901
  PAW double counting   =      1527.50308134    -1622.05465517
  entropy T*S    EENTRO =        -0.00284808
  eigenvalues    EBANDS =       100.89570897
  atomic energy  EATOM  =      1626.72322989
  Solvation  Ediel_sol  =         0.00000000
  ---------------------------------------------------
  free energy    TOTEN  =       -14.51565324 eV

  energy without entropy =      -14.51280515  energy(sigma->0) =      -14.51422919


--------------------------------------------------------------------------------------------------------




--------------------------------------- Iteration      1(   7)  ---------------------------------------


    POTLOK:  cpu time      0.0056: real time      0.0058
    SETDIJ:  cpu time      0.0050: real time      0.0050
     EDDAV:  cpu time      1.4478: real time      1.4552
       DOS:  cpu time      0.0008: real time      0.0008
    CHARGE:  cpu time      0.0318: real time      0.0319
    MIXING:  cpu time      0.0003: real time      0.0003
    --------------------------------------------
      LOOP:  cpu time      1.4914: real time      1.4991

 eigenvalue-minimisations  : 13344
 total energy-change (2. order) : 0.5893581E+00  (-0.5361116E+00)
 number of electron      17.9999976 magnetization       3.4140432
 augmentation part       10.2112057 magnetization       3.0194552

 Broyden mixing:
  rms(total) = 0.35394E+00    rms(broyden)= 0.35394E+00
  rms(prec ) = 0.42125E+00
  weight for this iteration     100.00

 eigenvalues of (default mixing * dielectric matrix)
  average eigenvalue GAMMA=   0.7201
  0.9479  0.4923

 Free energy of the ion-electron system (eV)
  ---------------------------------------------------
  alpha Z        PSCENC =        69.65083312
  Ewald energy   TEWEN  =     -1464.78321638
  -Hartree energ DENC   =      -295.29314335
  -exchange      EXHF   =         0.00000000
  -V(xc)+E(xc)   XCENC  =        32.49194871
  PAW double counting   =      1583.80962701    -1685.71995898
  entropy T*S    EENTRO =        -0.00323589
  eigenvalues    EBANDS =       119.19762075
  atomic energy  EATOM  =      1626.72322989
  Solvation  Ediel_sol  =         0.00000000
  ---------------------------------------------------
  free energy    TOTEN  =       -13.92629512 eV

  energy without entropy =      -13.92305923  energy(sigma->0) =      -13.92467717


--------------------------------------------------------------------------------------------------------




--------------------------------------- Iteration      1(   8)  ---------------------------------------


    POTLOK:  cpu time      0.0054: real time      0.0056
    SETDIJ:  cpu time      0.0050: real time      0.0050
     EDDAV:  cpu time      1.3806: real time      1.3879
       DOS:  cpu time      0.0008: real time      0.0008
    CHARGE:  cpu time      0.0322: real time      0.0323
    MIXING:  cpu time      0.0004: real time      0.0004
    --------------------------------------------
      LOOP:  cpu time      1.4244: real time      1.4320

 eigenvalue-minimisations  : 12720
 total energy-change (2. order) : 0.1376445E-01  (-0.3939764E-02)
 number of electron      17.9999976 magnetization       3.4291102
 augmentation part       10.2438742 magnetization       3.0690207

 Broyden mixing:
  rms(total) = 0.14563E+00    rms(broyden)= 0.14563E+00
  rms(prec ) = 0.20121E+00
  weight for this iteration     100.00

 eigenvalues of (default mixing * dielectric matrix)
  average eigenvalue GAMMA=   0.9443
  1.5296  0.7332  0.5702

 Free energy of the ion-electron system (eV)
  ---------------------------------------------------
  alpha Z        PSCENC =        69.65083312
  Ewald energy   TEWEN  =     -1464.78321638
  -Hartree energ DENC   =      -292.94266875
  -exchange      EXHF   =         0.00000000
  -V(xc)+E(xc)   XCENC  =        32.46658643
  PAW double counting   =      1621.89883100    -1724.96507734
  entropy T*S    EENTRO =        -0.00316508
  eigenvalues    EBANDS =       118.04211644
  atomic energy  EATOM  =      1626.72322989
  Solvation  Ediel_sol  =         0.00000000
  ---------------------------------------------------
  free energy    TOTEN  =       -13.91253067 eV

  energy without entropy =      -13.90936559  energy(sigma->0) =      -13.91094813


--------------------------------------------------------------------------------------------------------




--------------------------------------- Iteration      1(   9)  ---------------------------------------


    POTLOK:  cpu time      0.0055: real time      0.0057
    SETDIJ:  cpu time      0.0050: real time      0.0050
     EDDAV:  cpu time      1.8468: real time      1.8562
       DOS:  cpu time      0.0008: real time      0.0008
    CHARGE:  cpu time      0.0322: real time      0.0323
    MIXING:  cpu time      0.0003: real time      0.0003
    --------------------------------------------
      LOOP:  cpu time      1.8907: real time      1.9003

 eigenvalue-minimisations  : 15576
 total energy-change (2. order) : 0.1235417E-01  (-0.2197084E-02)
 number of electron      17.9999976 magnetization       3.4506404
 augmentation part       10.2796066 magnetization       3.1069052

 Broyden mixing:
  rms(total) = 0.49614E-01    rms(broyden)= 0.49614E-01
  rms(prec ) = 0.64523E-01
  weight for this iteration     100.00

 eigenvalues of (default mixing * dielectric matrix)
  average eigenvalue GAMMA=   1.0634
  2.1074  0.8508  0.6677  0.6278

 Free energy of the ion-electron system (eV)
  ---------------------------------------------------
  alpha Z        PSCENC =        69.65083312
  Ewald energy   TEWEN  =     -1464.78321638
  -Hartree energ DENC   =      -290.41764343
  -exchange      EXHF   =         0.00000000
  -V(xc)+E(xc)   XCENC  =        32.40498392
  PAW double counting   =      1665.55930221    -1769.92090736
  entropy T*S    EENTRO =        -0.00308428
  eigenvalues    EBANDS =       116.88632582
  atomic energy  EATOM  =      1626.72322989
  Solvation  Ediel_sol  =         0.00000000
  ---------------------------------------------------
  free energy    TOTEN  =       -13.90017649 eV

  energy without entropy =      -13.89709221  energy(sigma->0) =      -13.89863435


--------------------------------------------------------------------------------------------------------




--------------------------------------- Iteration      1(  10)  ---------------------------------------


    POTLOK:  cpu time      0.0055: real time      0.0057
    SETDIJ:  cpu time      0.0051: real time      0.0051
     EDDAV:  cpu time      1.9305: real time      1.9402
       DOS:  cpu time      0.0008: real time      0.0008
    CHARGE:  cpu time      0.0319: real time      0.0320
    MIXING:  cpu time      0.0004: real time      0.0004
    --------------------------------------------
      LOOP:  cpu time      1.9742: real time      1.9842

 eigenvalue-minimisations  : 15840
 total energy-change (2. order) : 0.1152414E-02  (-0.2315501E-03)
 number of electron      17.9999976 magnetization       3.4464010
 augmentation part       10.2884449 magnetization       3.0921971

 Broyden mixing:
  rms(total) = 0.89035E-02    rms(broyden)= 0.89033E-02
  rms(prec ) = 0.11372E-01
  weight for this iteration     100.00

 eigenvalues of (default mixing * dielectric matrix)
  average eigenvalue GAMMA=   1.1475
  2.2398  1.1085  1.1085  0.6402  0.6402

 Free energy of the ion-electron system (eV)
  ---------------------------------------------------
  alpha Z        PSCENC =        69.65083312
  Ewald energy   TEWEN  =     -1464.78321638
  -Hartree energ DENC   =      -289.37254616
  -exchange      EXHF   =         0.00000000
  -V(xc)+E(xc)   XCENC  =        32.34821222
  PAW double counting   =      1689.04979287    -1794.15316886
  entropy T*S    EENTRO =        -0.00308497
  eigenvalues    EBANDS =       116.64092419
  atomic energy  EATOM  =      1626.72322989
  Solvation  Ediel_sol  =         0.00000000
  ---------------------------------------------------
  free energy    TOTEN  =       -13.89902408 eV

  energy without entropy =      -13.89593911  energy(sigma->0) =      -13.89748159


--------------------------------------------------------------------------------------------------------




--------------------------------------- Iteration      1(  11)  ---------------------------------------


    POTLOK:  cpu time      0.0053: real time      0.0054
    SETDIJ:  cpu time      0.0049: real time      0.0049
     EDDAV:  cpu time      1.6374: real time      1.6459
       DOS:  cpu time      0.0009: real time      0.0009
    CHARGE:  cpu time      0.0327: real time      0.0328
    MIXING:  cpu time      0.0004: real time      0.0004
    --------------------------------------------
      LOOP:  cpu time      1.6816: real time      1.6903

 eigenvalue-minimisations  : 14184
 total energy-change (2. order) :-0.3436798E-04  (-0.5031598E-04)
 number of electron      17.9999976 magnetization       3.4482601
 augmentation part       10.2889249 magnetization       3.0883549

 Broyden mixing:
  rms(total) = 0.30696E-02    rms(broyden)= 0.30694E-02
  rms(prec ) = 0.48033E-02
  weight for this iteration     100.00

 eigenvalues of (default mixing * dielectric matrix)
  average eigenvalue GAMMA=   1.0838
  2.2819  1.0797  1.0797  0.6139  0.7239  0.7239

 Free energy of the ion-electron system (eV)
  ---------------------------------------------------
  alpha Z        PSCENC =        69.65083312
  Ewald energy   TEWEN  =     -1464.78321638
  -Hartree energ DENC   =      -289.26990065
  -exchange      EXHF   =         0.00000000
  -V(xc)+E(xc)   XCENC  =        32.32770718
  PAW double counting   =      1693.22487879    -1798.42700914
  entropy T*S    EENTRO =        -0.00311055
  eigenvalues    EBANDS =       116.65752930
  atomic energy  EATOM  =      1626.72322989
  Solvation  Ediel_sol  =         0.00000000
  ---------------------------------------------------
  free energy    TOTEN  =       -13.89905845 eV

  energy without entropy =      -13.89594790  energy(sigma->0) =      -13.89750317


--------------------------------------------------------------------------------------------------------




--------------------------------------- Iteration      1(  12)  ---------------------------------------


    POTLOK:  cpu time      0.0054: real time      0.0056
    SETDIJ:  cpu time      0.0050: real time      0.0051
     EDDAV:  cpu time      1.1466: real time      1.1527
       DOS:  cpu time      0.0009: real time      0.0009
    CHARGE:  cpu time      0.0319: real time      0.0320
    MIXING:  cpu time      0.0003: real time      0.0003
    --------------------------------------------
      LOOP:  cpu time      1.1902: real time      1.1965

 eigenvalue-minimisations  : 11496
 total energy-change (2. order) : 0.6290192E-05  (-0.1172988E-05)
 number of electron      17.9999976 magnetization       3.4483414
 augmentation part       10.2896089 magnetization       3.0884987

 Broyden mixing:
  rms(total) = 0.17450E-02    rms(broyden)= 0.17449E-02
  rms(prec ) = 0.22357E-02
  weight for this iteration     100.00

 eigenvalues of (default mixing * dielectric matrix)
  average eigenvalue GAMMA=   1.2727
  2.5437  2.2410  1.0744  1.0744  0.6945  0.6404  0.6404

 Free energy of the ion-electron system (eV)
  ---------------------------------------------------
  alpha Z        PSCENC =        69.65083312
  Ewald energy   TEWEN  =     -1464.78321638
  -Hartree energ DENC   =      -289.20714975
  -exchange      EXHF   =         0.00000000
  -V(xc)+E(xc)   XCENC  =        32.32716323
  PAW double counting   =      1695.21792308    -1800.45808212
  entropy T*S    EENTRO =        -0.00310372
  eigenvalues    EBANDS =       116.63335049
  atomic energy  EATOM  =      1626.72322989
  Solvation  Ediel_sol  =         0.00000000
  ---------------------------------------------------
  free energy    TOTEN  =       -13.89905216 eV

  energy without entropy =      -13.89594844  energy(sigma->0) =      -13.89750030


--------------------------------------------------------------------------------------------------------




--------------------------------------- Iteration      1(  13)  ---------------------------------------


    POTLOK:  cpu time      0.0052: real time      0.0054
    SETDIJ:  cpu time      0.0048: real time      0.0048
     EDDAV:  cpu time      1.4032: real time      1.4107
       DOS:  cpu time      0.0008: real time      0.0009
    --------------------------------------------
      LOOP:  cpu time      1.4141: real time      1.4218

 eigenvalue-minimisations  : 12960
 total energy-change (2. order) :-0.7228948E-06  (-0.4247890E-06)
 number of electron      17.9999976 magnetization       3.4483414
 augmentation part       10.2896089 magnetization       3.0884987

 Free energy of the ion-electron system (eV)
  ---------------------------------------------------
  alpha Z        PSCENC =        69.65083312
  Ewald energy   TEWEN  =     -1464.78321638
  -Hartree energ DENC   =      -289.17122335
  -exchange      EXHF   =         0.00000000
  -V(xc)+E(xc)   XCENC  =        32.32539517
  PAW double counting   =      1696.87144230    -1802.13222624
  entropy T*S    EENTRO =        -0.00310225
  eigenvalues    EBANDS =       116.61981485
  atomic energy  EATOM  =      1626.72322989
  Solvation  Ediel_sol  =         0.00000000
  ---------------------------------------------------
  free energy    TOTEN  =       -13.89905288 eV

  energy without entropy =      -13.89595063  energy(sigma->0) =      -13.89750176


--------------------------------------------------------------------------------------------------------




 average (electrostatic) potential at core
  the test charge radii are     1.0452
  (the norm of the test charge is              1.0000)
       1 -79.7755       2 -79.7755
 
 
 
 E-fermi :   8.7100     XC(G=0): -12.7478     alpha+bet :-15.8140

 Fermi energy:         8.7100446538

 spin component 1

 k-point     1 :       0.0000    0.0000    0.0000
  band No.  band energies     occupation 
      1       0.4726      1.00000
      2       4.0730      1.00000
      3       6.2288      1.00000
      4       6.2381      1.00000
      5       6.2381      1.00000
      6       6.4953      1.00000
      7       6.4953      1.00000
      8       6.7702      1.00000
      9       6.7702      1.00000
     10       7.6969      1.00000
     11       7.6969      1.00000
     12       8.7550      0.10171
     13      14.1376      0.00000
     14      29.6964      0.00000
     15      31.1720      0.00000
     16      31.1720      0.00000
     17      32.4657      0.00000
     18      32.6441      0.00000
     19      32.6441      0.00000
     20      32.9941      0.00000
     21      37.5088      0.00000
     22      37.5088      0.00000
     23      37.8224      0.00000
     24      38.7826      0.00000

 k-point     2 :       0.0833    0.0000    0.0000
  band No.  band energies     occupation 
      1       0.6952      1.00000
      2       4.2001      1.00000
      3       6.0468      1.00000
      4       6.3326      1.00000
      5       6.3907      1.00000
      6       6.4595      1.00000
      7       6.5787      1.00000
      8       6.6566      1.00000
      9       6.7124      1.00000
     10       7.1323      1.00000
     11       7.7213      1.00000
     12       9.5970      0.00000
     13      14.1880      0.00000
     14      27.4265      0.00000
     15      29.2830      0.00000
     16      29.7251      0.00000
     17      33.0071      0.00000
     18      33.1628      0.00000
     19      34.5058      0.00000
     20      34.7836      0.00000
     21      35.5147      0.00000
     22      36.8889      0.00000
     23      37.3901      0.00000
     24      37.3971      0.00000

 k-point     3 :       0.1667    0.0000    0.0000
  band No.  band energies     occupation 
      1       1.3418      1.00000
      2       4.5143      1.00000
      3       5.8250      1.00000
      4       6.1086      1.00000
      5       6.3202      1.00000
      6       6.5691      1.00000
      7       6.5986      1.00000
      8       6.6447      1.00000
      9       6.7733      1.00000
     10       6.8118      1.00000
     11       7.7736      1.00000
     12      11.0024      0.00000
     13      14.3614      0.00000
     14      23.6644      0.00000
     15      27.0905      0.00000
     16      28.8534      0.00000
     17      30.7014      0.00000
     18      33.0731      0.00000
     19      33.1070      0.00000
     20      35.1972      0.00000
     21      35.9812      0.00000
     22      36.1920      0.00000
     23      36.7279      0.00000
     24      37.8367      0.00000

 k-point     4 :       0.2500    0.0000    0.0000
  band No.  band energies     occupation 
      1       2.3292      1.00000
      2       4.7682      1.00000
      3       5.5005      1.00000
      4       5.6974      1.00000
      5       6.2475      1.00000
      6       6.3961      1.00000
      7       6.6017      1.00000
      8       6.9826      1.00000
      9       7.0017      1.00000
     10       7.1461      1.00000
     11       7.8235      1.00000
     12      12.6320      0.00000
     13      14.6989      0.00000
     14      20.1099      0.00000
     15      25.1979      0.00000
     16      27.4546      0.00000
     17      27.6333      0.00000
     18      30.5375      0.00000
     19      32.0486      0.00000
     20      34.6827      0.00000
     21      35.2605      0.00000
     22      36.0028      0.00000
     23      36.8717      0.00000
     24      39.7011      0.00000

 k-point     5 :       0.3333    0.0000    0.0000
  band No.  band energies     occupation 
      1       3.4257      1.00000
      2       4.7170      1.00000
      3       5.0547      1.00000
      4       5.8074      1.00000
      5       6.2396      1.00000
      6       6.3541      1.00000
      7       6.4563      1.00000
      8       7.3885      1.00000
      9       7.5071      1.00000
     10       7.5830      1.00000
     11       7.8580      1.00000
     12      14.4356      0.00000
     13      14.9148      0.00000
     14      17.3138      0.00000
     15      23.7093      0.00000
     16      24.4970      0.00000
     17      25.2725      0.00000
     18      29.2554      0.00000
     19      30.9583      0.00000
     20      33.0572      0.00000
     21      34.7645      0.00000
     22      36.6079      0.00000
     23      38.5749      0.00000
     24      40.8838      0.00000

 k-point     6 :       0.4167    0.0000    0.0000
  band No.  band energies     occupation 
      1       4.1621      1.00000
      2       4.5588      1.00000
      3       4.7883      1.00000
      4       6.1324      1.00000
      5       6.1409      1.00000
      6       6.3541      1.00000
      7       6.5252      1.00000
      8       7.6896      1.00000
      9       7.8046      1.00000
     10       7.8767      1.00000
     11       8.5846      0.99981
     12      13.1578      0.00000
     13      16.3234      0.00000
     14      17.2949      0.00000
     15      21.9263      0.00000
     16      22.6643      0.00000
     17      22.7393      0.00000
     18      28.8499      0.00000
     19      30.2405      0.00000
     20      32.0156      0.00000
     21      34.4781      0.00000
     22      36.9720      0.00000
     23      40.8215      0.00000
     24      41.5718      0.00000

 k-point     7 :       0.5000    0.0000    0.0000
  band No.  band energies     occupation 
      1       4.4019      1.00000
      2       4.4434      1.00000
      3       4.7002      1.00000
      4       6.0945      1.00000
      5       6.3172      1.00000
      6       6.3651      1.00000
      7       6.5880      1.00000
      8       7.7981      1.00000
      9       7.8824      1.00000
     10       7.9242      1.00000
     11       9.7117      0.00000
     12      11.4568      0.00000
     13      17.5676      0.00000
     14      18.0736      0.00000
     15      20.4566      0.00000
     16      21.2394      0.00000
     17      22.3996      0.00000
     18      28.7466      0.00000
     19      29.9940      0.00000
     20      31.6557      0.00000
     21      34.3846      0.00000
     22      37.1061      0.00000
     23      41.7669      0.00000
     24      43.3241      0.00000

 k-point     8 :       0.0833    0.0833    0.0000
  band No.  band energies     occupation 
      1       1.1305      1.00000
      2       4.4256      1.00000
      3       5.8710      1.00000
      4       6.3129      1.00000
      5       6.3743      1.00000
      6       6.5216      1.00000
      7       6.5252      1.00000
      8       6.5493      1.00000
      9       6.7633      1.00000
     10       6.8723      1.00000
     11       7.7519      1.00000
     12      10.6022      0.00000
     13      14.3015      0.00000
     14      25.4351      0.00000
     15      25.8704      0.00000
     16      31.1333      0.00000
     17      32.2622      0.00000
     18      32.3767      0.00000
     19      32.4308      0.00000
     20      35.0715      0.00000
     21      35.4076      0.00000
     22      35.8738      0.00000
     23      38.5542      0.00000
     24      38.9196      0.00000

 k-point     9 :       0.1667    0.0833    0.0000
  band No.  band energies     occupation 
      1       1.9546      1.00000
      2       4.7472      1.00000
      3       5.6516      1.00000
      4       5.7267      1.00000
      5       6.2788      1.00000
      6       6.3680      1.00000
      7       6.7322      1.00000
      8       6.7325      1.00000
      9       6.8759      1.00000
     10       7.1088      1.00000
     11       7.7899      1.00000
     12      12.0393      0.00000
     13      14.5735      0.00000
     14      21.9365      0.00000
     15      24.0134      0.00000
     16      29.1311      0.00000
     17      29.8915      0.00000
     18      31.0688      0.00000
     19      32.1840      0.00000
     20      33.0959      0.00000
     21      35.4987      0.00000
     22      36.5873      0.00000
     23      38.4414      0.00000
     24      38.8704      0.00000

 k-point    10 :       0.2500    0.0833    0.0000
  band No.  band energies     occupation 
      1       3.0291      1.00000
      2       4.8564      1.00000
      3       5.2378      1.00000
      4       5.6045      1.00000
      5       6.2144      1.00000
      6       6.2927      1.00000
      7       6.5709      1.00000
      8       7.0650      1.00000
      9       7.2891      1.00000
     10       7.5835      1.00000
     11       7.8220      1.00000
     12      13.7231      0.00000
     13      15.0077      0.00000
     14      18.6169      0.00000
     15      22.5963      0.00000
     16      26.0514      0.00000
     17      27.1184      0.00000
     18      29.8851      0.00000
     19      31.2998      0.00000
     20      31.7281      0.00000
     21      36.1790      0.00000
     22      38.2353      0.00000
     23      38.4554      0.00000
     24      39.5019      0.00000

 k-point    11 :       0.3333    0.0833    0.0000
  band No.  band energies     occupation 
      1       3.9919      1.00000
      2       4.7127      1.00000
      3       4.9068      1.00000
      4       5.8177      1.00000
      5       6.1134      1.00000
      6       6.4141      1.00000
      7       6.4555      1.00000
      8       7.4787      1.00000
      9       7.6397      1.00000
     10       7.8423      1.00000
     11       8.2903      1.00000
     12      14.4549      0.00000
     13      15.5763      0.00000
     14      17.0283      0.00000
     15      21.5180      0.00000
     16      23.2728      0.00000
     17      24.1975      0.00000
     18      29.0485      0.00000
     19      30.7141      0.00000
     20      30.7410      0.00000
     21      36.1418      0.00000
     22      38.5822      0.00000
     23      39.9979      0.00000
     24      41.2541      0.00000

 k-point    12 :       0.4167    0.0833    0.0000
  band No.  band energies     occupation 
      1       4.4286      1.00000
      2       4.5719      1.00000
      3       4.7418      1.00000
      4       6.0717      1.00000
      5       6.1485      1.00000
      6       6.3111      1.00000
      7       6.5851      1.00000
      8       7.7688      1.00000
      9       7.8279      1.00000
     10       7.8513      1.00000
     11       9.5112      0.00000
     12      12.2044      0.00000
     13      17.3702      0.00000
     14      17.9502      0.00000
     15      20.8074      0.00000
     16      21.0214      0.00000
     17      21.9954      0.00000
     18      28.6174      0.00000
     19      30.1726      0.00000
     20      30.4687      0.00000
     21      35.9891      0.00000
     22      38.7520      0.00000
     23      41.7891      0.00000
     24      42.3203      0.00000

 k-point    13 :       0.1667    0.1667    0.0000
  band No.  band energies     occupation 
      1       2.8880      1.00000
      2       5.0056      1.00000
      3       5.3345      1.00000
[...]
     22      36.0839      0.00000
     23      38.9685      0.00000
     24      38.9685      0.00000

 k-point    90 :       0.2500    0.1667    0.5000
  band No.  band energies     occupation 
      1       5.2760      1.00000
      2       5.2760      1.00000
      3       6.9904      1.00000
      4       6.9904      1.00000
      5       7.5680      1.00000
      6       7.5680      1.00000
      7       8.6040      0.99864
      8       8.6040      0.99864
      9       9.8194      0.00000
     10       9.8194      0.00000
     11      10.5727      0.00000
     12      10.5727      0.00000
     13      19.8600      0.00000
     14      19.8600      0.00000
     15      22.0490      0.00000
     16      22.0490      0.00000
     17      26.1759      0.00000
     18      26.1759      0.00000
     19      34.3380      0.00000
     20      34.3380      0.00000
     21      36.5243      0.00000
     22      36.5243      0.00000
     23      37.8565      0.00000
     24      37.8565      0.00000

 k-point    91 :       0.3333    0.1667    0.5000
  band No.  band energies     occupation 
      1       5.6512      1.00000
      2       5.6512      1.00000
      3       6.9623      1.00000
      4       6.9623      1.00000
      5       7.6954      1.00000
      6       7.6954      1.00000
      7       8.7248      0.33797
      8       8.7248      0.33797
      9       9.8146      0.00000
     10       9.8146      0.00000
     11      11.5752      0.00000
     12      11.5752      0.00000
     13      17.3273      0.00000
     14      17.3273      0.00000
     15      21.4051      0.00000
     16      21.4051      0.00000
     17      27.4163      0.00000
     18      27.4163      0.00000
     19      32.8753      0.00000
     20      32.8753      0.00000
     21      35.0957      0.00000
     22      35.0957      0.00000
     23      38.7428      0.00000
     24      38.7428      0.00000

 k-point    92 :       0.4167    0.1667    0.5000
  band No.  band energies     occupation 
      1       5.7440      1.00000
      2       5.7440      1.00000
      3       6.9583      1.00000
      4       6.9583      1.00000
      5       7.7421      1.00000
      6       7.7421      1.00000
      7       8.8670      0.00000
      8       8.8670      0.00000
      9       9.7602      0.00000
     10       9.7602      0.00000
     11      12.2814      0.00000
     12      12.2814      0.00000
     13      16.0874      0.00000
     14      16.0874      0.00000
     15      21.1816      0.00000
     16      21.1816      0.00000
     17      28.1623      0.00000
     18      28.1623      0.00000
     19      31.9901      0.00000
     20      31.9901      0.00000
     21      34.6437      0.00000
     22      34.6437      0.00000
     23      38.9421      0.00000
     24      38.9421      0.00000

 k-point    93 :       0.2500    0.2500    0.5000
  band No.  band energies     occupation 
      1       5.8096      1.00000
      2       5.8096      1.00000
      3       7.0054      1.00000
      4       7.0054      1.00000
      5       7.4178      1.00000
      6       7.4178      1.00000
      7       8.5863      0.99977
      8       8.5863      0.99977
      9       9.8339      0.00000
     10       9.8339      0.00000
     11      11.7503      0.00000
     12      11.7503      0.00000
     13      18.7015      0.00000
     14      18.7015      0.00000
     15      19.5236      0.00000
     16      19.5236      0.00000
     17      27.4551      0.00000
     18      27.4551      0.00000
     19      33.9512      0.00000
     20      33.9512      0.00000
     21      35.3002      0.00000
     22      35.3002      0.00000
     23      39.1288      0.00000
     24      39.1288      0.00000

 k-point    94 :       0.3333    0.2500    0.5000
  band No.  band energies     occupation 
      1       6.1213      1.00000
      2       6.1213      1.00000
      3       6.9855      1.00000
      4       6.9855      1.00000
      5       7.3258      1.00000
      6       7.3258      1.00000
      7       8.6771      0.82465
      8       8.6771      0.82465
      9       9.7495      0.00000
     10       9.7495      0.00000
     11      13.1593      0.00000
     12      13.1593      0.00000
     13      16.6729      0.00000
     14      16.6729      0.00000
     15      18.8661      0.00000
     16      18.8661      0.00000
     17      28.8562      0.00000
     18      28.8562      0.00000
     19      32.2026      0.00000
     20      32.2026      0.00000
     21      34.7849      0.00000
     22      34.7849      0.00000
     23      40.4378      0.00000
     24      40.4378      0.00000

 k-point    95 :       0.3333    0.3333    0.5000
  band No.  band energies     occupation 
      1       6.5821      1.00000
      2       6.5821      1.00000
      3       6.6233      1.00000
      4       6.6233      1.00000
      5       7.2869      1.00000
      6       7.2869      1.00000
      7       8.6546      0.94158
      8       8.6546      0.94158
      9       9.7039      0.00000
     10       9.7039      0.00000
     11      14.4159      0.00000
     12      14.4159      0.00000
     13      16.0007      0.00000
     14      16.0007      0.00000
     15      17.7502      0.00000
     16      17.7502      0.00000
     17      30.2694      0.00000
     18      30.2694      0.00000
     19      30.9050      0.00000
     20      30.9050      0.00000
     21      34.4301      0.00000
     22      34.4301      0.00000
     23      43.6383      0.00000
     24      43.6383      0.00000


--------------------------------------------------------------------------------------------------------


 soft charge-density along one line, spin component           1
         0         1         2         3         4         5         6         7         8         9
 total charge-density along one line
 
 soft charge-density along one line, spin component           2
         0         1         2         3         4         5         6         7         8         9
 total charge-density along one line
 
 pseudopotential strength for first ion, spin component:           1
 -1.677  -0.000  -0.000   0.000   0.000  -2.273  -0.000  -0.000
 -0.000  -1.685   0.000   0.000  -0.000  -0.000  -2.280   0.000
 -0.000   0.000  -1.677  -0.000   0.000  -0.000   0.000  -2.272
  0.000   0.000  -0.000  -1.685  -0.000   0.000  -0.000  -0.000
  0.000  -0.000   0.000  -0.000  -1.677   0.000  -0.000   0.000
 -2.273  -0.000  -0.000   0.000   0.000  -2.810  -0.000  -0.000
 -0.000  -2.280   0.000  -0.000  -0.000  -0.000  -2.817   0.000
 -0.000   0.000  -2.272  -0.000   0.000  -0.000   0.000  -2.809
  0.000  -0.000  -0.000  -2.280  -0.000   0.000   0.000  -0.000
  0.000  -0.000   0.000  -0.000  -2.273   0.000  -0.000   0.000
 -0.000  -0.000   0.000   0.000   0.000  -0.000  -0.000   0.000
 -0.000  -0.000   0.001   0.000   0.000  -0.000  -0.000   0.001
 -0.000  -0.000  -0.000  -0.000   0.001  -0.000  -0.000  -0.000
 -0.000   0.000  -0.000  -0.000   0.000  -0.000   0.000  -0.000
  0.001  -0.000   0.000   0.000  -0.000   0.001  -0.000   0.000
 -0.000  -0.000  -0.000  -0.000   0.001  -0.000  -0.000  -0.000
 -0.000   0.000  -0.000  -0.000   0.000  -0.000   0.000  -0.000
  0.001  -0.000   0.000   0.000  -0.000   0.001  -0.000   0.000
 pseudopotential strength for first ion, spin component:           2
 -0.258  -0.000  -0.000   0.000   0.000  -0.913  -0.000  -0.000
 -0.000  -0.252   0.000  -0.000  -0.000  -0.000  -0.907   0.000
 -0.000   0.000  -0.272  -0.000   0.000  -0.000   0.000  -0.927
  0.000  -0.000  -0.000  -0.252  -0.000   0.000  -0.000  -0.000
  0.000  -0.000   0.000  -0.000  -0.258   0.000  -0.000   0.000
 -0.913  -0.000  -0.000   0.000   0.000  -1.508  -0.000  -0.000
 -0.000  -0.907   0.000  -0.000  -0.000  -0.000  -1.503   0.000
 -0.000   0.000  -0.927  -0.000   0.000  -0.000   0.000  -1.522
  0.000  -0.000  -0.000  -0.907  -0.000   0.000   0.000  -0.000
  0.000  -0.000   0.000  -0.000  -0.913   0.000  -0.000   0.000
 -0.000  -0.000   0.000   0.000   0.000  -0.000  -0.000   0.000
 -0.000  -0.000   0.001   0.000   0.000  -0.000  -0.000   0.001
 -0.000  -0.000   0.000  -0.000   0.000  -0.000  -0.000   0.000
 -0.000   0.000  -0.000  -0.000   0.000  -0.000   0.000  -0.000
  0.000  -0.000   0.000   0.000  -0.000   0.000  -0.000   0.000
 -0.000  -0.000   0.000  -0.000   0.000  -0.000  -0.000   0.000
 -0.000  -0.000  -0.000  -0.000   0.000  -0.000  -0.000  -0.000
  0.000  -0.000   0.000   0.000  -0.000   0.000  -0.000   0.000
 total augmentation occupancy for first ion, spin component:           1
  2.811   0.000   0.000   0.000  -0.000  -1.314  -0.000  -0.000   0.000   0.000   0.000   0.000   0.000  -0.000  -0.035   0.000
  0.000   2.896   0.000  -0.000   0.000  -0.000  -1.353   0.000   0.000   0.000   0.000   0.000  -0.000   0.000  -0.000   0.000
 -0.000   0.000   2.674   0.000   0.000   0.000  -0.000  -1.256   0.000  -0.000  -0.022   0.001  -0.000  -0.000   0.000   0.000
  0.000   0.000  -0.000   2.896   0.000  -0.000   0.000   0.000  -1.353   0.000  -0.000   0.000  -0.000   0.000  -0.000  -0.000
  0.000  -0.000   0.000  -0.000   2.811   0.000  -0.000  -0.000  -0.000  -1.314  -0.000   0.000  -0.035   0.000  -0.000   0.002
 -1.314  -0.000   0.000   0.000   0.000   1.359  -0.000   0.000  -0.000  -0.000   0.000  -0.000   0.000  -0.000   0.050  -0.000
 -0.000  -1.353   0.000   0.000   0.000  -0.000   1.351  -0.000  -0.000   0.000  -0.000   0.000   0.000  -0.000   0.000   0.000
  0.000   0.000  -1.256  -0.000  -0.000  -0.000  -0.000   1.381   0.000   0.000   0.024  -0.001   0.000   0.000   0.000  -0.000
  0.000   0.000   0.000  -1.353  -0.000   0.000  -0.000   0.000   1.351   0.000   0.000   0.000  -0.000   0.000   0.000  -0.000
  0.000  -0.000  -0.000   0.000  -1.314   0.000   0.000   0.000   0.000   1.359   0.000   0.000   0.050   0.000   0.000  -0.004
  0.000   0.000  -0.022   0.000  -0.000   0.000  -0.000   0.024   0.000   0.000   2.000  -0.212   0.000  -0.000   0.000  -0.000
  0.000   0.000   0.001   0.000   0.000   0.000   0.000  -0.001   0.000  -0.000  -0.212   0.030   0.000   0.000   0.000  -0.000
  0.000   0.000  -0.000   0.000  -0.035   0.000   0.000   0.000   0.000   0.050  -0.000   0.000   0.257  -0.000   0.000  -0.024
 -0.000   0.000  -0.000   0.000  -0.000  -0.000   0.000   0.000   0.000   0.000   0.000   0.000   0.000   0.263   0.000   0.000
 -0.035   0.000  -0.000   0.000  -0.000   0.050   0.000  -0.000  -0.000   0.000  -0.000   0.000  -0.000   0.000   0.257   0.000
  0.000   0.000   0.000  -0.000   0.002   0.000  -0.000  -0.000  -0.000  -0.004   0.000   0.000  -0.024  -0.000   0.000   0.003
 -0.000  -0.000   0.000   0.000   0.000  -0.000  -0.000   0.000   0.000   0.000  -0.000   0.000   0.000  -0.024  -0.000  -0.000
  0.002   0.000  -0.000   0.000  -0.000  -0.004   0.000   0.000  -0.000  -0.000   0.000   0.000   0.000  -0.000  -0.024  -0.000
 total augmentation occupancy for first ion, spin component:           2
  2.097  -0.000  -0.000   0.000   0.000  -0.989  -0.000   0.000   0.000  -0.000   0.000  -0.000  -0.000   0.000   0.003   0.000
 -0.000   2.124   0.000   0.000   0.000   0.000  -1.004   0.000  -0.000   0.000   0.000   0.000   0.000  -0.000  -0.000  -0.000
 -0.000   0.000   2.084  -0.000   0.000   0.000   0.000  -0.980   0.000  -0.000  -0.000  -0.001  -0.000  -0.000   0.000  -0.000
  0.000   0.000   0.000   2.124   0.000   0.000  -0.000  -0.000  -1.004  -0.000   0.000   0.000  -0.000  -0.000  -0.000   0.000
  0.000   0.000   0.000   0.000   2.097   0.000   0.000  -0.000  -0.000  -0.989   0.000  -0.000   0.003   0.000   0.000  -0.000
 -0.989   0.000   0.000  -0.000   0.000   0.281  -0.000   0.000   0.000   0.000   0.000   0.000   0.000   0.000  -0.007  -0.000
  0.000  -1.004   0.000   0.000   0.000  -0.000   0.296   0.000   0.000   0.000   0.000   0.000  -0.000   0.000  -0.000  -0.000
  0.000  -0.000  -0.980   0.000  -0.000   0.000   0.000   0.263   0.000   0.000  -0.002   0.001  -0.000  -0.000   0.000   0.000
  0.000  -0.000   0.000  -1.004   0.000   0.000   0.000  -0.000   0.296  -0.000  -0.000   0.000   0.000  -0.000   0.000  -0.000
  0.000   0.000  -0.000  -0.000  -0.989   0.000  -0.000   0.000   0.000   0.281  -0.000   0.000  -0.007   0.000   0.000   0.001
  0.000   0.000  -0.000  -0.000   0.000   0.000   0.000  -0.002  -0.000  -0.000  -0.278   0.084  -0.000   0.000   0.000   0.000
 -0.000  -0.000  -0.001   0.000  -0.000   0.000  -0.000   0.001   0.000   0.000   0.084  -0.013   0.000  -0.000  -0.000   0.000
  0.000  -0.000   0.000   0.000   0.003  -0.000  -0.000  -0.000   0.000  -0.007   0.000   0.000  -0.031  -0.000   0.000   0.004
  0.000  -0.000  -0.000   0.000  -0.000  -0.000  -0.000  -0.000  -0.000   0.000  -0.000  -0.000   0.000  -0.037   0.000   0.000
  0.003  -0.000  -0.000  -0.000  -0.000  -0.007  -0.000   0.000   0.000  -0.000   0.000   0.000   0.000  -0.000  -0.031  -0.000
  0.000  -0.000   0.000  -0.000  -0.000   0.000  -0.000   0.000   0.000   0.001   0.000  -0.000   0.004  -0.000   0.000  -0.001
  0.000   0.000   0.000  -0.000   0.000   0.000   0.000  -0.000   0.000   0.000   0.000   0.000   0.000   0.005   0.000   0.000
 -0.000  -0.000   0.000   0.000   0.000   0.001   0.000  -0.000  -0.000  -0.000   0.000  -0.000  -0.000   0.000   0.004  -0.000


------------------------ aborting loop because EDIFF is reached ----------------------------------------





 total charge

# of ion       s       p       d       tot
------------------------------------------
    1        0.446   0.432   7.192   8.071
    2        0.446   0.432   7.192   8.071
--------------------------------------------------
tot          0.893   0.865  14.385  16.142



 magnetization (x)

# of ion       s       p       d       tot
------------------------------------------
    1       -0.012  -0.049   1.825   1.764
    2       -0.012  -0.049   1.825   1.764
--------------------------------------------------
tot         -0.023  -0.098   3.650   3.528
 
    CHARGE:  cpu time      0.0316: real time      0.0317
    FORLOC:  cpu time      0.0001: real time      0.0001
    FORNL :  cpu time      0.0306: real time      0.0307
    STRESS:  cpu time      0.1973: real time      0.1980
    FORCOR:  cpu time      0.0048: real time      0.0048
    FORHAR:  cpu time      0.0005: real time      0.0005
    MIXING:  cpu time      0.0003: real time      0.0003
    OFIELD:  cpu time      0.0000: real time      0.0000

  FORCE on cell =-STRESS in cart. coord.  units (eV):
  Direction    XX          YY          ZZ          XY          YZ          ZX
  --------------------------------------------------------------------------------------
  Alpha Z    69.65083    69.65083    69.65083
  Ewald    -491.06519  -491.06519  -482.65385    -0.00000    -0.00000     0.00000
  Hartree    95.06928    95.06928    99.03247     0.00000     0.00000    -0.00000
  E(xc)     -91.82007   -91.82008   -91.82160    -0.00000     0.00000    -0.00000
  Local     -33.39651   -33.39637   -45.36259    -0.00000     0.00000    -0.00000
  n-local   -17.73845    -8.20110   -12.88666     3.09379    -0.59222     2.26167
  augment   312.27831   312.27818   312.05478    -0.00000    -0.00000     0.00000
  Kinetic   152.40656   146.44479   149.19746    -3.19542    -0.62284     0.56171
  Fock        0.00000     0.00000     0.00000     0.00000     0.00000     0.00000
  -------------------------------------------------------------------------------------
  Total      -2.82746    -2.82746    -2.78916     0.00000     0.00000     0.00000
  in kB    -186.22613  -186.22613  -183.70369     0.00000     0.00000     0.00000
  external pressure =     -185.39 kB  Pullay stress =        0.00 kB


 VOLUME and BASIS-vectors are now :
 -----------------------------------------------------------------------------
  energy-cutoff  :      425.00
  volume of cell :       24.33
      direct lattice vectors                 reciprocal lattice vectors
     1.295983317 -2.244708951  0.000000000     0.385807435 -0.222746027  0.000000000
     1.295983317  2.244708951  0.000000000     0.385807435  0.222746027  0.000000000
     0.000000000  0.000000000  4.180964765     0.000000000  0.000000000  0.239179246

  length of vectors
     2.591966634  2.591966634  4.180964765     0.445492053  0.445492053  0.239179246


 FORCES acting on ions
    electron-ion (+dipol)            ewald-force                    non-local-force                 convergence-correction
 -----------------------------------------------------------------------------------------------
   -.575E-13 -.156E-06 -.902E-12   0.650E-14 0.230E-11 -.201E-13   -.121E-16 0.000E+00 0.260E-17   -.121E-13 -.331E-08 -.683E-13
   0.104E-11 0.156E-06 -.544E-11   -.867E-14 -.229E-11 0.201E-13   -.173E-17 0.000E+00 0.000E+00   -.220E-13 0.331E-08 0.368E-13
 -----------------------------------------------------------------------------------------------
   0.978E-12 0.364E-10 -.634E-11   -.217E-14 0.591E-14 0.000E+00   -.139E-16 0.000E+00 0.260E-17   -.341E-13 -.183E-13 -.315E-13
 
 
 POSITION                                       TOTAL-FORCE (eV/Angst)
 -----------------------------------------------------------------------------------
      1.29598      0.74824      1.04524        -0.000000     -0.000000      0.000000
      1.29598     -0.74824      3.13572         0.000000      0.000000     -0.000000
 -----------------------------------------------------------------------------------
    total drift:                                0.000000      0.000000     -0.000000


--------------------------------------------------------------------------------------------------------



  FREE ENERGIE OF THE ION-ELECTRON SYSTEM (eV)
  ---------------------------------------------------
  free  energy   TOTEN  =       -13.89905288 eV

  energy  without entropy=      -13.89595063  energy(sigma->0) =      -13.89750176
 


--------------------------------------------------------------------------------------------------------


    POTLOK:  cpu time      0.0102: real time      0.0103


--------------------------------------------------------------------------------------------------------




--------------------------------------------------------------------------------------------------------


  
 reached required accuracy - stopping structural energy minimisation
     LOOP+:  cpu time     18.5167: real time     18.6188
    4ORBIT:  cpu time      0.0000: real time      0.0000



 total charge

# of ion       s       p       d       tot
------------------------------------------
    1        0.446   0.432   7.192   8.071
    2        0.446   0.432   7.192   8.071
--------------------------------------------------
tot          0.893   0.865  14.385  16.142



 magnetization (x)

# of ion       s       p       d       tot
------------------------------------------
    1       -0.012  -0.049   1.825   1.764
    2       -0.012  -0.049   1.825   1.764
--------------------------------------------------
tot         -0.023  -0.098   3.650   3.528
 

 total amount of memory used by VASP MPI-rank0    40258. kBytes
=======================================================================

   base      :      30000. kBytes
   nonl-proj :       7239. kBytes
   fftplans  :        172. kBytes
   grid      :       1034. kBytes
   one-center:         62. kBytes
   wavefun   :       1751. kBytes
 
  
  
 General timing and accounting informations for this job:
 ========================================================
  
                  Total CPU time used (sec):       19.553
                            User time (sec):       19.041
                          System time (sec):        0.512
                         Elapsed time (sec):       21.414
  
                   Maximum memory used (kb):      236240.
                   Average memory used (kb):          N/A
  
                          Minor page faults:        37563
                          Major page faults:           54
                 Voluntary context switches:         2167
