<?xml version="1.0" encoding="ISO-8859-1"?>
<modeling>
 <generator>
  <i name="program" type="string">vasp </i>
  <i name="version" type="string">6.3.2  </i>
  <i name="subversion" type="string">27Jun22 (build Aug 12 2022 00:53:59) complex                          parallel </i>
  <i name="platform" type="string">tv2STD </i>
  <i name="date" type="string">2024 12 03 </i>
  <i name="time" type="string">01:29:51 </i>
 </generator>
 <incar>
  <i type="string" name="SYSTEM">Co-hcc</i>
  <i type="int" name="ISTART">     0</i>
  <i type="string" name="PREC">Accurate      normal | accurate</i>
  <i type="string" name="ALGO">Normal     Normal, Fast, Very_Fast</i>
  <i type="logical" name="ADDGRID"> F  </i>
  <i type="int" name="ISPIN">     2</i>
  <i type="int" name="ICHARG">     2</i>
  <i type="int" name="INIWAV">     1</i>
  <i type="int" name="NELM">   100</i>
  <i type="int" name="IBRION">     2</i>
  <i name="EDIFF">      0.00000100</i>
  <i name="EDIFFG">     -0.02000000</i>
  <i type="int" name="NSW">   100</i>
  <i type="int" name="ISIF">     2</i>
  <i type="int" name="ISYM">     1</i>
  <i name="ENCUT">    425.00000000</i>
  <v name="MAGMOM">      3.00000000      3.00000000</v>
  <i type="logical" name="LREAL"> F  </i>
  <i type="int" name="ISMEAR">     0</i>
  <i name="SIGMA">      0.05000000</i>
  <i type="int" name="NWRITE">     2</i>
  <i type="logical" name="LWAVE"> F  </i>
  <i type="logical" name="LCHARG"> F  </i>
  <i type="int" name="LORBIT">    11</i>
 </incar>
 <primitive_cell>
  <structure name="primitive_cell" >
   <crystal>
    <varray name="basis" >
     <v>       1.29598332      -2.24470895       0.00000000 </v>
     <v>       1.29598332       2.24470895       0.00000000 </v>
     <v>       0.00000000       0.00000000       4.18096476 </v>
    </varray>
    <i name="volume">     24.32573395 </i>
    <varray name="rec_basis" >
     <v>       0.38580744      -0.22274603       0.00000000 </v>
     <v>       0.38580744       0.22274603       0.00000000 </v>
     <v>       0.00000000       0.00000000       0.23917925 </v>
    </varray>
   </crystal>
   <varray name="positions" >
    <v>       0.33333333       0.66666667       0.25000000 </v>
    <v>       0.66666667       0.33333333       0.75000000 </v>
   </varray>
  </structure>
  <varray name="primitive_index" >
   <v type="int" >        1 </v>
   <v type="int" >        2 </v>
  </varray>
 </primitive_cell>
 <kpoints>
  <generation param="Gamma">
   <v type="int" name="divisions">      12       12        8 </v>
   <v name="usershift">      0.00000000       0.00000000       0.00000000 </v>
   <v name="genvec1">      0.08333333       0.00000000       0.00000000 </v>
   <v name="genvec2">      0.00000000       0.08333333       0.00000000 </v>
   <v name="genvec3">      0.00000000       0.00000000       0.12500000 </v>
   <v name="shift">      0.00000000       0.00000000       0.00000000 </v>
  </generation>
  <varray name="kpointlist" >
   <v>       0.00000000       0.00000000       0.00000000 </v>
   <v>       0.08333333       0.00000000       0.00000000 </v>
   <v>       0.16666667       0.00000000       0.00000000 </v>
   <v>       0.25000000       0.00000000       0.00000000 </v>
   <v>       0.33333333       0.00000000       0.00000000 </v>
   <v>       0.41666667       0.00000000       0.00000000 </v>
   <v>       0.50000000       0.00000000       0.00000000 </v>
   <v>       0.08333333       0.08333333       0.00000000 </v>
   <v>       0.16666667       0.08333333       0.00000000 </v>
   <v>       0.25000000       0.08333333       0.00000000 </v>
   <v>       0.33333333       0.08333333       0.00000000 </v>
   <v>       0.41666667       0.08333333       0.00000000 </v>
   <v>       0.16666667       0.16666667       0.00000000 </v>
   <v>       0.25000000       0.16666667       0.00000000 </v>
   <v>       0.33333333       0.16666667       0.00000000 </v>
   <v>       0.41666667       0.16666667       0.00000000 </v>
   <v>       0.25000000       0.25000000       0.00000000 </v>
   <v>       0.33333333       0.25000000       0.00000000 </v>
   <v>       0.33333333       0.33333333       0.00000000 </v>
   <v>       0.00000000       0.00000000       0.12500000 </v>
   <v>       0.08333333       0.00000000       0.12500000 </v>
   <v>       0.16666667       0.00000000       0.12500000 </v>
   <v>       0.25000000       0.00000000       0.12500000 </v>
   <v>       0.33333333       0.00000000       0.12500000 </v>
   <v>       0.41666667       0.00000000       0.12500000 </v>
   <v>       0.50000000       0.00000000       0.12500000 </v>
   <v>       0.08333333       0.08333333       0.12500000 </v>
   <v>       0.16666667       0.08333333       0.12500000 </v>
   <v>       0.25000000       0.08333333       0.12500000 </v>
   <v>       0.33333333       0.08333333       0.12500000 </v>
   <v>       0.41666667       0.08333333       0.12500000 </v>
   <v>       0.16666667       0.16666667       0.12500000 </v>
   <v>       0.25000000       0.16666667       0.12500000 </v>
   <v>       0.33333333       0.16666667       0.12500000 </v>
   <v>       0.41666667       0.16666667       0.12500000 </v>
   <v>       0.25000000       0.25000000       0.12500000 </v>
   <v>       0.33333333       0.25000000       0.12500000 </v>
   <v>       0.33333333       0.33333333       0.12500000 </v>
   <v>       0.00000000       0.00000000       0.25000000 </v>
   <v>       0.08333333       0.00000000       0.25000000 </v>
   <v>       0.16666667       0.00000000       0.25000000 </v>
   <v>       0.25000000       0.00000000       0.25000000 </v>
   <v>       0.33333333       0.00000000       0.25000000 </v>
   <v>       0.41666667       0.00000000       0.25000000 </v>
   <v>       0.50000000       0.00000000       0.25000000 </v>
   <v>       0.08333333       0.08333333       0.25000000 </v>
   <v>       0.16666667       0.08333333       0.25000000 </v>
   <v>       0.25000000       0.08333333       0.25000000 </v>
   <v>       0.33333333       0.08333333       0.25000000 </v>
   <v>       0.41666667       0.08333333       0.25000000 </v>
   <v>       0.16666667       0.16666667       0.25000000 </v>
   <v>       0.25000000       0.16666667       0.25000000 </v>
   <v>       0.33333333       0.16666667       0.25000000 </v>
   <v>       0.41666667       0.16666667       0.25000000 </v>
   <v>       0.25000000       0.25000000       0.25000000 </v>
   <v>       0.33333333       0.25000000       0.25000000 </v>
   <v>       0.33333333       0.33333333       0.25000000 </v>
   <v>       0.00000000       0.00000000       0.37500000 </v>
   <v>       0.08333333       0.00000000       0.37500000 </v>
   <v>       0.16666667       0.00000000       0.37500000 </v>
   <v>       0.25000000       0.00000000       0.37500000 </v>
   <v>       0.33333333       0.00000000       0.37500000 </v>
   <v>       0.41666667       0.00000000       0.37500000 </v>
   <v>       0.50000000       0.00000000       0.37500000 </v>
   <v>       0.08333333       0.08333333       0.37500000 </v>
   <v>       0.16666667       0.08333333       0.37500000 </v>
   <v>       0.25000000       0.08333333       0.37500000 </v>
   <v>       0.33333333       0.08333333       0.37500000 </v>
   <v>       0.41666667       0.08333333       0.37500000 </v>
   <v>       0.16666667       0.16666667       0.37500000 </v>
   <v>       0.25000000       0.16666667       0.37500000 </v>
   <v>       0.33333333       0.16666667       0.37500000 </v>
   <v>       0.41666667       0.16666667       0.37500000 </v>
   <v>       0.25000000       0.25000000       0.37500000 </v>
   <v>       0.33333333       0.25000000       0.37500000 </v>
   <v>       0.33333333       0.33333333       0.37500000 </v>
   <v>       0.00000000       0.00000000       0.50000000 </v>
   <v>       0.08333333       0.00000000       0.50000000 </v>
   <v>       0.16666667       0.00000000       0.50000000 </v>
   <v>       0.25000000       0.00000000       0.50000000 </v>
   <v>       0.33333333       0.00000000       0.50000000 </v>
   <v>       0.41666667       0.00000000       0.50000000 </v>
   <v>       0.50000000       0.00000000       0.50000000 </v>
   <v>       0.08333333       0.08333333       0.50000000 </v>
   <v>       0.16666667       0.08333333       0.50000000 </v>
   <v>       0.25000000       0.08333333       0.50000000 </v>
   <v>       0.33333333       0.08333333       0.50000000 </v>
   <v>       0.41666667       0.08333333       0.50000000 </v>
   <v>       0.16666667       0.16666667       0.50000000 </v>
   <v>       0.25000000       0.16666667       0.50000000 </v>
   <v>       0.33333333       0.16666667       0.50000000 </v>
   <v>       0.41666667       0.16666667       0.50000000 </v>
   <v>       0.25000000       0.25000000       0.50000000 </v>
   <v>       0.33333333       0.25000000       0.50000000 </v>
   <v>       0.33333333       0.33333333       0.50000000 </v>
  </varray>
  <varray name="weights" >
   <v>       0.00086806 </v>
   <v>       0.00520833 </v>
   <v>       0.00520833 </v>
   <v>       0.00520833 </v>
   <v>       0.00520833 </v>
   <v>       0.00520833 </v>
   <v>       0.00260417 </v>
   <v>       0.00520833 </v>
   <v>       0.01041667 </v>
   <v>       0.01041667 </v>
   <v>       0.01041667 </v>
   <v>       0.01041667 </v>
   <v>       0.00520833 </v>
   <v>       0.01041667 </v>
   <v>       0.01041667 </v>
   <v>       0.00520833 </v>
   <v>       0.00520833 </v>
   <v>       0.01041667 </v>
   <v>       0.00173611 </v>
   <v>       0.00173611 </v>
   <v>       0.01041667 </v>
   <v>       0.01041667 </v>
   <v>       0.01041667 </v>
   <v>       0.01041667 </v>
   <v>       0.01041667 </v>
   <v>       0.00520833 </v>
   <v>       0.01041667 </v>
   <v>       0.02083333 </v>
   <v>       0.02083333 </v>
   <v>       0.02083333 </v>
   <v>       0.02083333 </v>
   <v>       0.01041667 </v>
   <v>       0.02083333 </v>
   <v>       0.02083333 </v>
   <v>       0.01041667 </v>
   <v>       0.01041667 </v>
   <v>       0.02083333 </v>
   <v>       0.00347222 </v>
   <v>       0.00173611 </v>
   <v>       0.01041667 </v>
   <v>       0.01041667 </v>
   <v>       0.01041667 </v>
   <v>       0.01041667 </v>
   <v>       0.01041667 </v>
   <v>       0.00520833 </v>
   <v>       0.01041667 </v>
   <v>       0.02083333 </v>
   <v>       0.02083333 </v>
   <v>       0.02083333 </v>
   <v>       0.02083333 </v>
   <v>       0.01041667 </v>
   <v>       0.02083333 </v>
   <v>       0.02083333 </v>
   <v>       0.01041667 </v>
   <v>       0.01041667 </v>
   <v>       0.02083333 </v>
   <v>       0.00347222 </v>
   <v>       0.00173611 </v>
   <v>       0.01041667 </v>
   <v>       0.01041667 </v>
   <v>       0.01041667 </v>
   <v>       0.01041667 </v>
   <v>       0.01041667 </v>
   <v>       0.00520833 </v>
   <v>       0.01041667 </v>
   <v>       0.02083333 </v>
   <v>       0.02083333 </v>
   <v>       0.02083333 </v>
   <v>       0.02083333 </v>
   <v>       0.01041667 </v>
   <v>       0.02083333 </v>
   <v>       0.02083333 </v>
   <v>       0.01041667 </v>
   <v>       0.01041667 </v>
   <v>       0.02083333 </v>
   <v>       0.00347222 </v>
   <v>       0.00086806 </v>
   <v>       0.00520833 </v>
   <v>       0.00520833 </v>
   <v>       0.00520833 </v>
   <v>       0.00520833 </v>
   <v>       0.00520833 </v>
   <v>       0.00260417 </v>
   <v>       0.00520833 </v>
   <v>       0.01041667 </v>
   <v>       0.01041667 </v>
   <v>       0.01041667 </v>
   <v>       0.01041667 </v>
   <v>       0.00520833 </v>
   <v>       0.01041667 </v>
   <v>       0.01041667 </v>
   <v>       0.00520833 </v>
   <v>       0.00520833 </v>
   <v>       0.01041667 </v>
   <v>       0.00173611 </v>
  </varray>
 </kpoints>
 <parameters>
  <separator name="general" >
   <i type="string" name="SYSTEM">Co-hcc</i>
   <i type="logical" name="LCOMPAT"> F  </i>
  </separator>
  <separator name="electronic" >
   <i type="string" name="PREC">accura</i>
   <i name="ENMAX">    425.00000000</i>
   <i name="ENAUG">    477.81800000</i>
   <i name="EDIFF">      0.00000100</i>
   <i type="int" name="IALGO">    38</i>
   <i type="int" name="IWAVPR">    11</i>
   <i type="int" name="NBANDS">    24</i>
   <i type="int" name="NBANDSLOW">    -1</i>
   <i type="int" name="NBANDSHIGH">    -1</i>
   <i name="NELECT">     18.00000000</i>
   <i type="int" name="TURBO">     0</i>
   <i type="int" name="IRESTART">     0</i>
   <i type="int" name="NREBOOT">     0</i>
   <i type="int" name="NMIN">     0</i>
   <i name="EREF">      0.00000000</i>
   <separator name="electronic smearing" >
    <i type="int" name="ISMEAR">     0</i>
    <i name="SIGMA">      0.05000000</i>
    <i name="KSPACING">      0.50000000</i>
    <i type="logical" name="KGAMMA"> T  </i>
    <i type="logical" name="KBLOWUP"> T  </i>
   </separator>
   <separator name="electronic projectors" >
    <i type="logical" name="LREAL"> F  </i>
    <v name="ROPT">      0.00000000</v>
    <i type="int" name="LMAXPAW">  -100</i>
    <i type="int" name="LMAXMIX">     2</i>
    <i type="logical" name="NLSPLINE"> F  </i>
   </separator>
   <separator name="electronic startup" >
    <i type="int" name="ISTART">     0</i>
    <i type="int" name="ICHARG">     2</i>
    <i type="int" name="INIWAV">     1</i>
   </separator>
   <separator name="electronic spin" >
    <i type="int" name="ISPIN">     2</i>
    <i type="logical" name="LNONCOLLINEAR"> F  </i>
    <v name="MAGMOM">      3.00000000      3.00000000</v>
    <i name="NUPDOWN">     -1.00000000</i>
    <i type="logical" name="LSORBIT"> F  </i>
    <v name="SAXIS">      0.00000000      0.00000000      1.00000000</v>
    <i type="logical" name="LSPIRAL"> F  </i>
    <v name="QSPIRAL">      0.00000000      0.00000000      0.00000000</v>
    <i type="logical" name="LZEROZ"> F  </i>
   </separator>
   <separator name="electronic exchange-correlation" >
    <i type="logical" name="LASPH"> F  </i>
    <i type="logical" name="LMETAGGA"> F  </i>
   </separator>
   <separator name="electronic convergence" >
    <i type="int" name="NELM">   100</i>
    <i type="int" name="NELMDL">    -5</i>
    <i type="int" name="NELMIN">     2</i>
    <i name="ENINI">    425.00000000</i>
    <separator name="electronic convergence detail" >
     <i type="logical" name="LDIAG"> T  </i>
     <i type="logical" name="LSUBROT"> F  </i>
     <i name="WEIMIN">      0.00100000</i>
     <i name="EBREAK">      0.00000001</i>
     <i name="DEPER">      0.30000000</i>
     <i type="int" name="NRMM">     4</i>
     <i name="TIME">      0.40000000</i>
    </separator>
   </separator>
   <separator name="electronic mixer" >
    <i name="AMIX">      0.40000000</i>
    <i name="BMIX">      1.00000000</i>
    <i name="AMIN">      0.10000000</i>
    <i name="AMIX_MAG">      1.60000000</i>
    <i name="BMIX_MAG">      1.00000000</i>
    <separator name="electronic mixer details" >
     <i type="int" name="IMIX">     4</i>
     <i type="logical" name="MIXFIRST"> F  </i>
     <i type="int" name="MAXMIX">   -45</i>
     <i name="WC">    100.00000000</i>
     <i type="int" name="INIMIX">     1</i>
     <i type="int" name="MIXPRE">     1</i>
     <i type="int" name="MREMOVE">     5</i>
    </separator>
   </separator>
   <separator name="electronic dipolcorrection" >
    <i type="logical" name="LDIPOL"> F  </i>
    <i type="logical" name="LMONO"> F  </i>
    <i type="int" name="IDIPOL">     0</i>
    <i name="EPSILON">      1.00000000</i>
    <v name="DIPOL">   -100.00000000   -100.00000000   -100.00000000</v>
    <i name="EFIELD">      0.00000000</i>
   </separator>
  </separator>
  <separator name="grids" >
   <i type="int" name="NGX">    18</i>
   <i type="int" name="NGY">    18</i>
   <i type="int" name="NGZ">    28</i>
   <i type="int" name="NGXF">    36</i>
   <i type="int" name="NGYF">    36</i>
   <i type="int" name="NGZF">    56</i>
   <i type="logical" name="ADDGRID"> F  </i>
  </separator>
  <separator name="ionic" >
   <i type="int" name="NSW">   100</i>
   <i type="int" name="IBRION">     2</i>
   <i type="int" name="MDALGO">     0</i>
   <i type="int" name="ISIF">     2</i>
   <i name="PSTRESS">      0.00000000</i>
   <i name="EDIFFG">     -0.02000000</i>
   <i type="int" name="NFREE">     1</i>
   <i name="POTIM">      0.50000000</i>
   <i name="SMASS">     -3.00000000</i>
   <i name="SCALEE">      1.00000000</i>
  </separator>
  <separator name="ionic md" >
   <i name="TEBEG">      0.00010000</i>
   <i name="TEEND">      0.00010000</i>
   <i type="int" name="NBLOCK">     1</i>
   <i type="int" name="KBLOCK">   100</i>
   <i type="int" name="NPACO">   256</i>
   <i name="APACO">     10.00000000</i>
  </separator>
  <separator name="symmetry" >
   <i type="int" name="ISYM">     1</i>
   <i name="SYMPREC">      0.00001000</i>
  </separator>
  <separator name="dos" >
   <i type="int" name="LORBIT">    11</i>
   <v name="RWIGS">     -1.00000000</v>
   <i type="int" name="NEDOS">   301</i>
   <i name="EMIN">     10.00000000</i>
   <i name="EMAX">    -10.00000000</i>
   <i name="EFERMI">      0.00000000</i>
  </separator>
  <separator name="writing" >
   <i type="int" name="NWRITE">     2</i>
   <i type="logical" name="LWAVE"> F  </i>
   <i type="logical" name="LDOWNSAMPLE"> F  </i>
   <i type="logical" name="LCHARG"> F  </i>
   <i type="logical" name="LPARD"> F  </i>
   <i type="logical" name="LVTOT"> F  </i>
   <i type="logical" name="LVHAR"> F  </i>
   <i type="logical" name="LELF"> F  </i>
   <i type="logical" name="LOPTICS"> F  </i>
   <v name="STM">      0.00000000      0.00000000      0.00000000      0.00000000      0.00000000      0.00000000      0.00000000</v>
  </separator>
  <separator name="performance" >
   <i type="int" name="NPAR">    24</i>
   <i type="int" name="NSIM">     4</i>
   <i type="int" name="NBLK">    -1</i>
   <i type="logical" name="LPLANE"> T  </i>
   <i type="logical" name="LSCALAPACK"> T  </i>
   <i type="logical" name="LSCAAWARE"> F  </i>
   <i type="logical" name="LSCALU"> F  </i>
   <i type="logical" name="LASYNC"> F  </i>
   <i type="logical" name="LORBITALREAL"> F  </i>
  </separator>
  <separator name="miscellaneous" >
   <i type="int" name="IDIOT">     3</i>
   <i type="int" name="PHON_NSTRUCT">    -1</i>
   <i type="logical" name="LMUSIC"> F  </i>
   <v name="POMASS">     58.93300000</v>
   <v name="DARWINR">      0.00000000</v>
   <v name="DARWINV">      1.00000000</v>
   <i type="logical" name="LCORR"> T  </i>
  </separator>
  <i type="logical" name="GGA_COMPAT"> T  </i>
  <i type="logical" name="LBERRY"> F  </i>
  <i type="int" name="ICORELEVEL">     0</i>
  <i type="logical" name="LDAU"> F  </i>
  <i type="int" name="I_CONSTRAINED_M">     0</i>
  <separator name="electronic exchange-correlation" >
   <i type="string" name="GGA">--</i>
   <i type="int" name="VOSKOWN">     0</i>
   <i type="logical" name="LHFCALC"> F  </i>
   <i type="string" name="PRECFOCK"></i>
   <i type="logical" name="LSYMGRAD"> F  </i>
   <i type="logical" name="LHFONE"> F  </i>
   <i type="logical" name="LRHFCALC"> F  </i>
   <i type="logical" name="LTHOMAS"> F  </i>
   <i type="logical" name="LMODELHF"> F  </i>
   <i type="logical" name="LFOCKACE"> F  </i>
   <i name="ENCUT4O">     -1.00000000</i>
   <i type="int" name="EXXOEP">     0</i>
   <i type="int" name="FOURORBIT">     0</i>
   <i name="AEXX">      0.00000000</i>
   <i name="HFALPHA">      0.00000000</i>
   <i name="MCALPHA">      0.00000000</i>
   <i name="ALDAX">      1.00000000</i>
   <i name="AGGAX">      1.00000000</i>
   <i name="ALDAC">      1.00000000</i>
   <i name="AGGAC">      1.00000000</i>
   <i type="int" name="NKREDX">     1</i>
   <i type="int" name="NKREDY">     1</i>
   <i type="int" name="NKREDZ">     1</i>
   <i type="logical" name="SHIFTRED"> F  </i>
   <i type="logical" name="ODDONLY"> F  </i>
   <i type="logical" name="EVENONLY"> F  </i>
   <i type="int" name="LMAXFOCK">     0</i>
   <i type="int" name="NMAXFOCKAE">     0</i>
   <i type="logical" name="LFOCKAEDFT"> F  </i>
   <i name="HFSCREEN">      0.00000000</i>
   <i name="HFSCREENC">      0.00000000</i>
   <i type="int" name="NBANDSGWLOW">     0</i>
  </separator>
  <separator name="vdW DFT" >
   <i type="logical" name="LUSE_VDW"> F  </i>
   <i name="Zab_VDW">     -0.84910000</i>
   <i name="PARAM1">      0.12340000</i>
   <i name="PARAM2">      1.00000000</i>
   <i name="PARAM3">      0.00000000</i>
  </separator>
  <separator name="model GW" >
   <i type="int" name="MODEL_GW">     0</i>
   <i name="MODEL_EPS0">      7.29772019</i>
   <i name="MODEL_ALPHA">      1.00000000</i>
  </separator>
  <separator name="linear response parameters" >
   <i type="logical" name="LEPSILON"> F  </i>
   <i type="logical" name="LRPA"> F  </i>
   <i type="logical" name="LNABLA"> F  </i>
   <i type="logical" name="LVEL"> F  </i>
   <i name="CSHIFT">      0.10000000</i>
   <i name="OMEGAMAX">     -1.00000000</i>
   <i name="DEG_THRESHOLD">      0.00200000</i>
   <i name="RTIME">     -0.10000000</i>
   <i name="WPLASMAI">      0.00000000</i>
   <v name="DFIELD">      0.00000000      0.00000000      0.00000000</v>
   <v name="WPLASMA">      0.00000000      0.00000000      0.00000000      0.00000000      0.00000000      0.00000000      0.00000000      0.00000000      0.00000000</v>
  </separator>
  <separator name="orbital magnetization" >
   <i type="logical" name="NUCIND"> F  </i>
   <v name="MAGPOS">      0.00000000      0.00000000      0.00000000</v>
   <i type="logical" name="LNICSALL"> T  </i>
   <i type="logical" name="ORBITALMAG"> F  </i>
   <i type="logical" name="LMAGBLOCH"> F  </i>
   <i type="logical" name="LCHIMAG"> F  </i>
   <i type="logical" name="LGAUGE"> T  </i>
   <i type="int" name="MAGATOM">     0</i>
   <v name="MAGDIPOL">      0.00000000      0.00000000      0.00000000</v>
   <v name="AVECCONST">      0.00000000      0.00000000      0.00000000</v>
  </separator>
  <separator name="response functions" >
   <i type="logical" name="LFINITE_TEMPERATURE"> F  </i>
   <i type="logical" name="LADDER"> F  </i>
   <i type="logical" name="LRPAFORCE"> F  </i>
   <i type="logical" name="LFXC"> F  </i>
   <i type="logical" name="LHARTREE"> T  </i>
   <i type="int" name="IBSE">     0</i>
   <v type="int" name="KPOINT">    -1     0     0     0</v>
   <i type="logical" name="LTCTC"> F  </i>
   <i type="logical" name="LTCTE"> F  </i>
   <i type="logical" name="LTETE"> F  </i>
   <i type="logical" name="LTRIPLET"> F  </i>
   <i type="logical" name="LFXCEPS"> F  </i>
   <i type="logical" name="LFXHEG"> F  </i>
   <i type="int" name="NATURALO">     2</i>
   <i type="logical" name="LHOLEGF"> F  </i>
   <i type="logical" name="L2ORDER"> F  </i>
   <i type="logical" name="LDMP1"> F  </i>
   <i type="logical" name="LMP2LT"> F  </i>
   <i type="logical" name="LSMP2LT"> F  </i>
   <i type="logical" name="LGWLF"> F  </i>
   <i name="ENCUTGW">     -2.00000000</i>
   <i name="ENCUTGWSOFT">     -2.00000000</i>
   <i name="ENCUTLF">     -1.00000000</i>
   <i type="logical" name="LESF_SPLINES"> F  </i>
   <i type="int" name="LMAXMP2">    -1</i>
   <i name="SCISSOR">      0.00000000</i>
   <i type="int" name="NOMEGA">     0</i>
   <i type="int" name="NOMEGAR">     0</i>
   <i type="int" name="NBANDSGW">    -1</i>
   <i type="int" name="NBANDSO">    -1</i>
   <i type="int" name="NBANDSV">    -1</i>
   <i type="int" name="NELMGW">     1</i>
   <i type="int" name="NELMHF">     1</i>
   <i type="int" name="DIM">     3</i>
   <i type="int" name="IESPILON">     4</i>
   <i type="int" name="ANTIRES">     0</i>
   <i name="OMEGAMAX">    -30.00000000</i>
   <i name="OMEGAMIN">    -30.00000000</i>
   <i name="OMEGATL">   -200.00000000</i>
   <i type="int" name="OMEGAGRID">     0</i>
   <i name="CSHIFT">     -0.10000000</i>
   <i type="logical" name="LSELFENERGY"> F  </i>
   <i type="logical" name="LSPECTRAL"> F  </i>
   <i type="logical" name="LSPECTRALGW"> F  </i>
   <i type="logical" name="LSINGLES"> F  </i>
   <i type="logical" name="LFERMIGW"> F  </i>
   <i type="logical" name="ODDONLYGW"> F  </i>
   <i type="logical" name="EVENONLYGW"> F  </i>
   <i type="int" name="NKREDLFX">     1</i>
   <i type="int" name="NKREDLFY">     1</i>
   <i type="int" name="NKREDLFZ">     1</i>
   <i type="int" name="MAXMEM">  2800</i>
   <i type="int" name="TELESCOPE">     0</i>
   <i type="int" name="NTAUPAR">    -1</i>
   <i type="int" name="NOMEGAPAR">    -1</i>
   <i name="DAMP_NEWTON">      0.80000001</i>
   <i name="LAMBDA">      1.00000000</i>
  </separator>
  <separator name="External order field" >
   <i name="OFIELD_KAPPA">      0.00000000</i>
   <v name="OFIELD_K">      0.00000000      0.00000000      0.00000000</v>
   <i name="OFIELD_Q6_NEAR">      0.00000000</i>
   <i name="OFIELD_Q6_FAR">      0.00000000</i>
   <i name="OFIELD_A">      0.00000000</i>
  </separator>
  <separator name="optional k-points parameters" >
   <i type="int" name="KPOINTS_OPT_MODE">     1</i>
   <i type="logical" name="LKPOINTS_OPT"> F  </i>
  </separator>
 </parameters>
 <atominfo>
  <atoms>       2 </atoms>
  <types>       1 </types>
  <array name="atoms" >
   <dimension dim="1">ion</dimension>
   <field type="string">element</field>
   <field type="int">atomtype</field>
   <set>
    <rc><c>Co</c><c>   1</c></rc>
    <rc><c>Co</c><c>   1</c></rc>
   </set>
  </array>
  <array name="atomtypes" >
   <dimension dim="1">type</dimension>
   <field type="int">atomspertype</field>
   <field type="string">element</field>
   <field>mass</field>
   <field>valence</field>
   <field type="string">pseudopotential</field>
   <set>
    <rc><c>   2</c><c>Co</c><c>     58.93300000</c><c>      9.00000000</c><c>  PAW_PBE Co 02Aug2007                  </c></rc>
   </set>
  </array>
 </atominfo>
 <structure name="initialpos" >
  <crystal>
   <varray name="basis" >
    <v>       1.29598332      -2.24470895       0.00000000 </v>
    <v>       1.29598332       2.24470895       0.00000000 </v>
    <v>       0.00000000       0.00000000       4.18096476 </v>
   </varray>
   <i name="volume">     24.32573395 </i>
   <varray name="rec_basis" >
    <v>       0.38580744      -0.22274603       0.00000000 </v>
    <v>       0.38580744       0.22274603       0.00000000 </v>
    <v>       0.00000000       0.00000000       0.23917925 </v>
   </varray>
  </crystal>
  <varray name="positions" >
   <v>       0.33333333       0.66666667       0.25000000 </v>
   <v>       0.66666667       0.33333333       0.75000000 </v>
  </varray>
 </structure>
 <calculation>
  <scstep>
   <time name="dav">    0.76    0.76</time>
   <time name="total">    0.77    0.78</time>
   <energy>
    <i name="alphaZ">     69.65083312 </i>
    <i name="ewald">  -1464.78321638 </i>
    <i name="hartreedc">   -324.58180631 </i>
    <i name="XCdc">     34.92638340 </i>
    <i name="pawpsdc">   1439.98163886 </i>
    <i name="pawaedc">  -1545.88690193 </i>
    <i name="eentropy">     -0.00269527 </i>
    <i name="bandstr">    168.83007615 </i>
    <i name="atom">   1626.72322989 </i>
    <i name="e_fr_energy">      4.85754154 </i>
    <i name="e_wo_entrp">      4.86023680 </i>
    <i name="e_0_energy">      4.85888917 </i>
   </energy>
  </scstep>
  <scstep>
   <time name="dav">    1.00    1.01</time>
   <time name="total">    1.00    1.01</time>
   <energy>
    <i name="e_fr_energy">    -15.50086385 </i>
    <i name="e_wo_entrp">    -15.49842345 </i>
    <i name="e_0_energy">    -15.49964365 </i>
   </energy>
  </scstep>
  <scstep>
   <time name="dav">    1.21    1.22</time>
   <time name="total">    1.21    1.22</time>
   <energy>
    <i name="e_fr_energy">    -15.64265009 </i>
    <i name="e_wo_entrp">    -15.64024694 </i>
    <i name="e_0_energy">    -15.64144851 </i>
   </energy>
  </scstep>
  <scstep>
   <time name="dav">    1.33    1.34</time>
   <time name="total">    1.33    1.34</time>
   <energy>
    <i name="e_fr_energy">    -15.64353210 </i>
    <i name="e_wo_entrp">    -15.64112994 </i>
    <i name="e_0_energy">    -15.64233102 </i>
   </energy>
  </scstep>
  <scstep>
   <time name="dav">    1.34    1.34</time>
   <time name="total">    1.37    1.38</time>
   <energy>
    <i name="e_fr_energy">    -15.64353423 </i>
    <i name="e_wo_entrp">    -15.64113207 </i>
    <i name="e_0_energy">    -15.64233315 </i>
   </energy>
  </scstep>
  <scstep>
   <time name="dav">    1.42    1.43</time>
   <time name="total">    1.47    1.48</time>
   <energy>
    <i name="e_fr_energy">    -14.51565324 </i>
    <i name="e_wo_entrp">    -14.51280515 </i>
    <i name="e_0_energy">    -14.51422919 </i>
   </energy>
  </scstep>
  <scstep>
   <time name="dav">    1.45    1.46</time>
   <time name="total">    1.49    1.50</time>
   <energy>
    <i name="e_fr_energy">    -13.92629512 </i>
    <i name="e_wo_entrp">    -13.92305923 </i>
    <i name="e_0_energy">    -13.92467717 </i>
   </energy>
  </scstep>
  <scstep>
   <time name="dav">    1.38    1.39</time>
   <time name="total">    1.42    1.43</time>
   <energy>
    <i name="e_fr_energy">    -13.91253067 </i>
    <i name="e_wo_entrp">    -13.90936559 </i>
    <i name="e_0_energy">    -13.91094813 </i>
   </energy>
  </scstep>
  <scstep>
   <time name="dav">    1.85    1.86</time>
   <time name="total">    1.89    1.90</time>
   <energy>
    <i name="e_fr_energy">    -13.90017649 </i>
    <i name="e_wo_entrp">    -13.89709221 </i>
    <i name="e_0_energy">    -13.89863435 </i>
   </energy>
  </scstep>
  <scstep>
   <time name="dav">    1.93    1.94</time>
   <time name="total">    1.97    1.98</time>
   <energy>
    <i name="e_fr_energy">    -13.89902408 </i>
    <i name="e_wo_entrp">    -13.89593911 </i>
    <i name="e_0_energy">    -13.89748159 </i>
   </energy>
  </scstep>
  <scstep>
   <time name="dav">    1.64    1.65</time>
   <time name="total">    1.68    1.69</time>
   <energy>
    <i name="e_fr_energy">    -13.89905845 </i>
    <i name="e_wo_entrp">    -13.89594790 </i>
    <i name="e_0_energy">    -13.89750317 </i>
   </energy>
  </scstep>
  <scstep>
   <time name="dav">    1.15    1.15</time>
   <time name="total">    1.19    1.20</time>
   <energy>
    <i name="e_fr_energy">    -13.89905216 </i>
    <i name="e_wo_entrp">    -13.89594844 </i>
    <i name="e_0_energy">    -13.89750030 </i>
   </energy>
  </scstep>
  <scstep>
   <time name="dav">    1.40    1.41</time>
   <time name="total">    1.41    1.42</time>
   <energy>
    <i name="alphaZ">     69.65083312 </i>
    <i name="ewald">  -1464.78321638 </i>
    <i name="hartreedc">   -289.17122335 </i>
    <i name="XCdc">     32.32539517 </i>
    <i name="pawpsdc">   1696.87144230 </i>
    <i name="pawaedc">  -1802.13222624 </i>
    <i name="eentropy">     -0.00310225 </i>
    <i name="bandstr">    116.61981485 </i>
    <i name="atom">   1626.72322989 </i>
    <i name="e_fr_energy">    -13.89905288 </i>
    <i name="e_wo_entrp">    -13.89595063 </i>
    <i name="e_0_energy">    -13.89750176 </i>
   </energy>
  </scstep>
  <structure>
   <crystal>
    <varray name="basis" >
     <v>       1.29598332      -2.24470895       0.00000000 </v>
     <v>       1.29598332       2.24470895       0.00000000 </v>
     <v>       0.00000000       0.00000000       4.18096476 </v>
    </varray>
    <i name="volume">     24.32573395 </i>
    <varray name="rec_basis" >
     <v>       0.38580744      -0.22274603       0.00000000 </v>
     <v>       0.38580744       0.22274603       0.00000000 </v>
     <v>       0.00000000       0.00000000       0.23917925 </v>
    </varray>
   </crystal>
   <varray name="positions" >
    <v>       0.33333333       0.66666667       0.25000000 </v>
    <v>       0.66666667       0.33333333       0.75000000 </v>
   </varray>
  </structure>
  <varray name="forces" >
   <v>      -0.00000000      -0.00000000       0.00000000 </v>
   <v>       0.00000000       0.00000000      -0.00000000 </v>
  </varray>
  <varray name="stress" >
   <v>    -186.22612602       0.00000000       0.00000000 </v>
   <v>       0.00000000    -186.22612602       0.00000000 </v>
   <v>       0.00000000       0.00000000    -183.70369104 </v>
  </varray>
  <energy>
   <i name="e_fr_energy">    -13.89905288 </i>
   <i name="e_wo_entrp">    -13.89595063 </i>
   <i name="e_0_energy">    -13.89750176 </i>
  </energy>
  <time name="totalsc">   18.52   18.62</time>
  <eigenvalues>
   <array>
    <dimension dim="1">band</dimension>
    <dimension dim="2">kpoint</dimension>
    <dimension dim="3">spin</dimension>
    <field>eigene</field>
    <field>occ</field>
    <set>
     <set comment="spin 1">
      <set comment="kpoint 1">
       <r>    0.4726    1.0000 </r>
       <r>    4.0730    1.0000 </r>
       <r>    6.2288    1.0000 </r>
       <r>    6.2381    1.0000 </r>
       <r>    6.2381    1.0000 </r>
       <r>    6.4953    1.0000 </r>
       <r>    6.4953    1.0000 </r>
       <r>    6.7702    1.0000 </r>
       <r>    6.7702    1.0000 </r>
       <r>    7.6969    1.0000 </r>
       <r>    7.6969    1.0000 </r>
       <r>    8.7550    0.1017 </r>
       <r>   14.1376    0.0000 </r>
       <r>   29.6964    0.0000 </r>
       <r>   31.1720    0.0000 </r>
       <r>   31.1720    0.0000 </r>
       <r>   32.4657    0.0000 </r>
       <r>   32.6441    0.0000 </r>
       <r>   32.6441    0.0000 </r>
       <r>   32.9941    0.0000 </r>
       <r>   37.5088    0.0000 </r>
       <r>   37.5088    0.0000 </r>
       <r>   37.8224    0.0000 </r>
       <r>   38.7826    0.0000 </r>
      </set>
      <set comment="kpoint 2">
       <r>    0.6952    1.0000 </r>
       <r>    4.2001    1.0000 </r>
       <r>    6.0468    1.0000 </r>
       <r>    6.3326    1.0000 </r>
       <r>    6.3907    1.0000 </r>
       <r>    6.4595    1.0000 </r>
       <r>    6.5787    1.0000 </r>
       <r>    6.6566    1.0000 </r>
       <r>    6.7124    1.0000 </r>
       <r>    7.1323    1.0000 </r>
       <r>    7.7213    1.0000 </r>
       <r>    9.5970    0.0000 </r>
       <r>   14.1880    0.0000 </r>
       <r>   27.4265    0.0000 </r>
       <r>   29.2830    0.0000 </r>
       <r>   29.7251    0.0000 </r>
       <r>   33.0071    0.0000 </r>
       <r>   33.1628    0.0000 </r>
       <r>   34.5058    0.0000 </r>
       <r>   34.7836    0.0000 </r>
       <r>   35.5147    0.0000 </r>
       <r>   36.8889    0.0000 </r>
       <r>   37.3901    0.0000 </r>
       <r>   37.3971    0.0000 </r>
      </set>
      <set comment="kpoint 3">
       <r>    1.3418    1.0000 </r>
       <r>    4.5143    1.0000 </r>
       <r>    5.8250    1.0000 </r>
       <r>    6.1086    1.0000 </r>
       <r>    6.3202    1.0000 </r>
       <r>    6.5691    1.0000 </r>
       <r>    6.5986    1.0000 </r>
       <r>    6.6447    1.0000 </r>
       <r>    6.7733    1.0000 </r>
       <r>    6.8118    1.0000 </r>
       <r>    7.7736    1.0000 </r>
       <r>   11.0024    0.0000 </r>
       <r>   14.3614    0.0000 </r>
       <r>   23.6644    0.0000 </r>
       <r>   27.0905    0.0000 </r>
       <r>   28.8534    0.0000 </r>
       <r>   30.7014    0.0000 </r>
       <r>   33.0731    0.0000 </r>
       <r>   33.1070    0.0000 </r>
       <r>   35.1972    0.0000 </r>
       <r>   35.9812    0.0000 </r>
       <r>   36.1920    0.0000 </r>
       <r>   36.7279    0.0000 </r>
       <r>   37.8367    0.0000 </r>
      </set>
      <set comment="kpoint 4">
       <r>    2.3292    1.0000 </r>
       <r>    4.7682    1.0000 </r>
       <r>    5.5005    1.0000 </r>
       <r>    5.6974    1.0000 </r>
       <r>    6.2475    1.0000 </r>
       <r>    6.3961    1.0000 </r>
       <r>    6.6017    1.0000 </r>
       <r>    6.9826    1.0000 </r>
       <r>    7.0017    1.0000 </r>
       <r>    7.1461    1.0000 </r>
       <r>    7.8235    1.0000 </r>
       <r>   12.6320    0.0000 </r>
       <r>   14.6989    0.0000 </r>
       <r>   20.1099    0.0000 </r>
       <r>   25.1979    0.0000 </r>
       <r>   27.4546    0.0000 </r>
       <r>   27.6333    0.0000 </r>
       <r>   30.5375    0.0000 </r>
       <r>   32.0486    0.0000 </r>
       <r>   34.6827    0.0000 </r>
       <r>   35.2605    0.0000 </r>
       <r>   36.0028    0.0000 </r>
       <r>   36.8717    0.0000 </r>
       <r>   39.7011    0.0000 </r>
      </set>
      <set comment="kpoint 5">
       <r>    3.4257    1.0000 </r>
       <r>    4.7170    1.0000 </r>
       <r>    5.0547    1.0000 </r>
       <r>    5.8074    1.0000 </r>
       <r>    6.2396    1.0000 </r>
       <r>    6.3541    1.0000 </r>
       <r>    6.4563    1.0000 </r>
       <r>    7.3885    1.0000 </r>
       <r>    7.5071    1.0000 </r>
       <r>    7.5830    1.0000 </r>
       <r>    7.8580    1.0000 </r>
       <r>   14.4356    0.0000 </r>
       <r>   14.9148    0.0000 </r>
       <r>   17.3138    0.0000 </r>
       <r>   23.7093    0.0000 </r>
       <r>   24.4970    0.0000 </r>
       <r>   25.2725    0.0000 </r>
       <r>   29.2554    0.0000 </r>
       <r>   30.9583    0.0000 </r>
       <r>   33.0572    0.0000 </r>
       <r>   34.7645    0.0000 </r>
       <r>   36.6079    0.0000 </r>
       <r>   38.5749    0.0000 </r>
       <r>   40.8838    0.0000 </r>
      </set>
      <set comment="kpoint 6">
       <r>    4.1621    1.0000 </r>
       <r>    4.5588    1.0000 </r>
       <r>    4.7883    1.0000 </r>
       <r>    6.1324    1.0000 </r>
       <r>    6.1409    1.0000 </r>
       <r>    6.3541    1.0000 </r>
       <r>    6.5252    1.0000 </r>
       <r>    7.6896    1.0000 </r>
       <r>    7.8046    1.0000 </r>
       <r>    7.8767    1.0000 </r>
       <r>    8.5846    0.9998 </r>
       <r>   13.1578    0.0000 </r>
       <r>   16.3234    0.0000 </r>
       <r>   17.2949    0.0000 </r>
       <r>   21.9263    0.0000 </r>
       <r>   22.6643    0.0000 </r>
       <r>   22.7393    0.0000 </r>
       <r>   28.8499    0.0000 </r>
       <r>   30.2405    0.0000 </r>
       <r>   32.0156    0.0000 </r>
       <r>   34.4781    0.0000 </r>
       <r>   36.9720    0.0000 </r>
       <r>   40.8215    0.0000 </r>
       <r>   41.5718    0.0000 </r>
      </set>
      <set comment="kpoint 7">
       <r>    4.4019    1.0000 </r>
       <r>    4.4434    1.0000 </r>
       <r>    4.7002    1.0000 </r>
       <r>    6.0945    1.0000 </r>
       <r>    6.3172    1.0000 </r>
       <r>    6.3651    1.0000 </r>
       <r>    6.5880    1.0000 </r>
       <r>    7.7981    1.0000 </r>
       <r>    7.8824    1.0000 </r>
       <r>    7.9242    1.0000 </r>
       <r>    9.7117    0.0000 </r>
       <r>   11.4568    0.0000 </r>
       <r>   17.5676    0.0000 </r>
       <r>   18.0736    0.0000 </r>
       <r>   20.4566    0.0000 </r>
       <r>   21.2394    0.0000 </r>
       <r>   22.3996    0.0000 </r>
       <r>   28.7466    0.0000 </r>
       <r>   29.9940    0.0000 </r>
       <r>   31.6557    0.0000 </r>
       <r>   34.3846    0.0000 </r>
       <r>   37.1061    0.0000 </r>
       <r>   41.7669    0.0000 </r>
       <r>   43.3241    0.0000 </r>
      </set>
      <set comment="kpoint 8">
       <r>    1.1305    1.0000 </r>
       <r>    4.4256    1.0000 </r>
       <r>    5.8710    1.0000 </r>
       <r>    6.3129    1.0000 </r>
       <r>    6.3743    1.0000 </r>
       <r>    6.5216    1.0000 </r>
       <r>    6.5252    1.0000 </r>
       <r>    6.5493    1.0000 </r>
       <r>    6.7633    1.0000 </r>
       <r>    6.8723    1.0000 </r>
       <r>    7.7519    1.0000 </r>
       <r>   10.6022    0.0000 </r>
       <r>   14.3015    0.0000 </r>
       <r>   25.4351    0.0000 </r>
       <r>   25.8704    0.0000 </r>
       <r>   31.1333    0.0000 </r>
       <r>   32.2622    0.0000 </r>
       <r>   32.3767    0.0000 </r>
       <r>   32.4308    0.0000 </r>
       <r>   35.0715    0.0000 </r>
       <r>   35.4076    0.0000 </r>
       <r>   35.8738    0.0000 </r>
       <r>   38.5542    0.0000 </r>
       <r>   38.9196    0.0000 </r>
      </set>
      <set comment="kpoint 9">
       <r>    1.9546    1.0000 </r>
       <r>    4.7472    1.0000 </r>
       <r>    5.6516    1.0000 </r>
       <r>    5.7267    1.0000 </r>
       <r>    6.2788    1.0000 </r>
       <r>    6.3680    1.0000 </r>
       <r>    6.7322    1.0000 </r>
       <r>    6.7325    1.0000 </r>
       <r>    6.8759    1.0000 </r>
       <r>    7.1088    1.0000 </r>
       <r>    7.7899    1.0000 </r>
       <r>   12.0393    0.0000 </r>
       <r>   14.5735    0.0000 </r>
       <r>   21.9365    0.0000 </r>
       <r>   24.0134    0.0000 </r>
       <r>   29.1311    0.0000 </r>
       <r>   29.8915    0.0000 </r>
       <r>   31.0688    0.0000 </r>
       <r>   32.1840    0.0000 </r>
       <r>   33.0959    0.0000 </r>
       <r>   35.4987    0.0000 </r>
       <r>   36.5873    0.0000 </r>
       <r>   38.4414    0.0000 </r>
       <r>   38.8704    0.0000 </r>
      </set>
      <set comment="kpoint 10">
       <r>    3.0291    1.0000 </r>
       <r>    4.8564    1.0000 </r>
       <r>    5.2378    1.0000 </r>
       <r>    5.6045    1.0000 </r>
       <r>    6.2144    1.0000 </r>
       <r>    6.2927    1.0000 </r>
       <r>    6.5709    1.0000 </r>
       <r>    7.0650    1.0000 </r>
       <r>    7.2891    1.0000 </r>
       <r>    7.5835    1.0000 </r>
       <r>    7.8220    1.0000 </r>
       <r>   13.7231    0.0000 </r>
       <r>   15.0077    0.0000 </r>
       <r>   18.6169    0.0000 </r>
       <r>   22.5963    0.0000 </r>
       <r>   26.0514    0.0000 </r>
       <r>   27.1184    0.0000 </r>
       <r>   29.8851    0.0000 </r>
       <r>   31.2998    0.0000 </r>
       <r>   31.7281    0.0000 </r>
       <r>   36.1790    0.0000 </r>
       <r>   38.2353    0.0000 </r>
       <r>   38.4554    0.0000 </r>
       <r>   39.5019    0.0000 </r>
      </set>
      <set comment="kpoint 11">
       <r>    3.9919    1.0000 </r>
       <r>    4.7127    1.0000 </r>
       <r>    4.9068    1.0000 </r>
       <r>    5.8177    1.0000 </r>
       <r>    6.1134    1.0000 </r>
       <r>    6.4141    1.0000 </r>
       <r>    6.4555    1.0000 </r>
       <r>    7.4787    1.0000 </r>
       <r>    7.6397    1.0000 </r>
       <r>    7.8423    1.0000 </r>
       <r>    8.2903    1.0000 </r>
       <r>   14.4549    0.0000 </r>
       <r>   15.5763    0.0000 </r>
       <r>   17.0283    0.0000 </r>
       <r>   21.5180    0.0000 </r>
       <r>   23.2728    0.0000 </r>
       <r>   24.1975    0.0000 </r>
       <r>   29.0485    0.0000 </r>
       <r>   30.7141    0.0000 </r>
       <r>   30.7410    0.0000 </r>
       <r>   36.1418    0.0000 </r>
       <r>   38.5822    0.0000 </r>
       <r>   39.9979    0.0000 </r>
       <r>   41.2541    0.0000 </r>
      </set>
      <set comment="kpoint 12">
       <r>    4.4286    1.0000 </r>
       <r>    4.5719    1.0000 </r>
       <r>    4.7418    1.0000 </r>
       <r>    6.0717    1.0000 </r>
       <r>    6.1485    1.0000 </r>
       <r>    6.3111    1.0000 </r>
       <r>    6.5851    1.0000 </r>
       <r>    7.7688    1.0000 </r>
       <r>    7.8279    1.0000 </r>
       <r>    7.8513    1.0000 </r>
       <r>    9.5112    0.0000 </r>
       <r>   12.2044    0.0000 </r>
       <r>   17.3702    0.0000 </r>
       <r>   17.9502    0.0000 </r>
       <r>   20.8074    0.0000 </r>
       <r>   21.0214    0.0000 </r>
       <r>   21.9954    0.0000 </r>
       <r>   28.6174    0.0000 </r>
       <r>   30.1726    0.0000 </r>
       <r>   30.4687    0.0000 </r>
       <r>   35.9891    0.0000 </r>
       <r>   38.7520    0.0000 </r>
       <r>   41.7891    0.0000 </r>
       <r>   42.3203    0.0000 </r>
      </set>
      <set comment="kpoint 13">
       <r>    2.8880    1.0000 </r>
       <r>    5.0056    1.0000 </r>
       <r>    5.3345    1.0000 </r>
       <r>    5.4123    1.0000 </r>
       <r>    6.1584    1.0000 </r>
       <r>    6.2897    1.0000 </r>
       <r>    6.6454    1.0000 </r>
       <r>    6.8705    1.0000 </r>
       <r>    7.2808    1.0000 </r>
       <r>    7.6013    1.0000 </r>
       <r>    7.7913    1.0000 </r>
       <r>   13.4813    0.0000 </r>
       <r>   15.0106    0.0000 </r>
       <r>   20.3751    0.0000 </r>
       <r>   20.6201    0.0000 </r>
       <r>   27.7016    0.0000 </r>
       <r>   28.1112    0.0000 </r>
       <r>   29.0067    0.0000 </r>
       <r>   29.6452    0.0000 </r>
       <r>   34.1282    0.0000 </r>
       <r>   36.3225    0.0000 </r>
       <r>   36.5593    0.0000 </r>
       <r>   39.9470    0.0000 </r>
       <r>   41.1550    0.0000 </r>
      </set>
      <set comment="kpoint 14">
       <r>    3.9186    1.0000 </r>
       <r>    4.9984    1.0000 </r>
       <r>    5.0255    1.0000 </r>
       <r>    5.3984    1.0000 </r>
       <r>    6.0319    1.0000 </r>
       <r>    6.4128    1.0000 </r>
       <r>    6.4887    1.0000 </r>
       <r>    7.1246    1.0000 </r>
       <r>    7.6424    1.0000 </r>
       <r>    7.7895    1.0000 </r>
       <r>    8.2986    1.0000 </r>
       <r>   15.1980    0.0000 </r>
       <r>   15.4924    0.0000 </r>
       <r>   17.5674    0.0000 </r>
       <r>   19.3796    0.0000 </r>
       <r>   24.9773    0.0000 </r>
       <r>   26.0524    0.0000 </r>
       <r>   26.9620    0.0000 </r>
       <r>   28.3878    0.0000 </r>
       <r>   34.2451    0.0000 </r>
       <r>   37.8822    0.0000 </r>
       <r>   38.7210    0.0000 </r>
       <r>   40.5615    0.0000 </r>
       <r>   41.0694    0.0000 </r>
      </set>
      <set comment="kpoint 15">
       <r>    4.5734    1.0000 </r>
       <r>    4.8318    1.0000 </r>
       <r>    4.8350    1.0000 </r>
       <r>    5.6757    1.0000 </r>
       <r>    5.9964    1.0000 </r>
       <r>    6.3199    1.0000 </r>
       <r>    6.5816    1.0000 </r>
       <r>    7.4595    1.0000 </r>
       <r>    7.7873    1.0000 </r>
       <r>    7.8204    1.0000 </r>
       <r>    9.3899    0.0000 </r>
       <r>   13.7970    0.0000 </r>
       <r>   17.0788    0.0000 </r>
       <r>   17.5870    0.0000 </r>
       <r>   18.6745    0.0000 </r>
       <r>   22.3847    0.0000 </r>
       <r>   23.2736    0.0000 </r>
       <r>   26.3816    0.0000 </r>
       <r>   27.6802    0.0000 </r>
       <r>   33.9052    0.0000 </r>
       <r>   38.6296    0.0000 </r>
       <r>   40.9844    0.0000 </r>
       <r>   41.9875    0.0000 </r>
       <r>   42.0397    0.0000 </r>
      </set>
      <set comment="kpoint 16">
       <r>    4.7289    1.0000 </r>
       <r>    4.7546    1.0000 </r>
       <r>    4.7712    1.0000 </r>
       <r>    5.8715    1.0000 </r>
       <r>    6.0090    1.0000 </r>
       <r>    6.2330    1.0000 </r>
       <r>    6.6530    1.0000 </r>
       <r>    7.6841    1.0000 </r>
       <r>    7.7862    1.0000 </r>
       <r>    7.8024    1.0000 </r>
       <r>   10.6543    0.0000 </r>
       <r>   11.9634    0.0000 </r>
       <r>   18.1464    0.0000 </r>
       <r>   18.4213    0.0000 </r>
       <r>   18.7365    0.0000 </r>
       <r>   20.8062    0.0000 </r>
       <r>   21.7909    0.0000 </r>
       <r>   26.1881    0.0000 </r>
       <r>   27.4330    0.0000 </r>
       <r>   33.7748    0.0000 </r>
       <r>   38.7449    0.0000 </r>
       <r>   41.6686    0.0000 </r>
       <r>   41.9874    0.0000 </r>
       <r>   43.7817    0.0000 </r>
      </set>
      <set comment="kpoint 17">
       <r>    4.6816    1.0000 </r>
       <r>    4.8884    1.0000 </r>
       <r>    5.1625    1.0000 </r>
       <r>    5.2267    1.0000 </r>
       <r>    5.9456    1.0000 </r>
       <r>    6.3316    1.0000 </r>
       <r>    6.5870    1.0000 </r>
       <r>    7.2719    1.0000 </r>
       <r>    7.7543    1.0000 </r>
       <r>    7.8258    1.0000 </r>
       <r>    9.3789    0.0000 </r>
       <r>   15.5075    0.0000 </r>
       <r>   16.1695    0.0000 </r>
       <r>   16.9631    0.0000 </r>
       <r>   18.0109    0.0000 </r>
       <r>   23.9960    0.0000 </r>
       <r>   24.4678    0.0000 </r>
       <r>   24.8819    0.0000 </r>
       <r>   25.6572    0.0000 </r>
       <r>   37.2277    0.0000 </r>
       <r>   38.7328    0.0000 </r>
       <r>   39.7603    0.0000 </r>
       <r>   41.8147    0.0000 </r>
       <r>   43.7158    0.0000 </r>
      </set>
      <set comment="kpoint 18">
       <r>    4.8239    1.0000 </r>
       <r>    4.9503    1.0000 </r>
       <r>    5.0536    1.0000 </r>
       <r>    5.4933    1.0000 </r>
       <r>    5.9623    1.0000 </r>
       <r>    6.1691    1.0000 </r>
       <r>    6.7261    1.0000 </r>
       <r>    7.4976    1.0000 </r>
       <r>    7.7336    1.0000 </r>
       <r>    7.7808    1.0000 </r>
       <r>   10.9609    0.0000 </r>
       <r>   13.3290    0.0000 </r>
       <r>   15.5607    0.0000 </r>
       <r>   18.8583    0.0000 </r>
       <r>   19.1411    0.0000 </r>
       <r>   21.7495    0.0000 </r>
       <r>   22.7472    0.0000 </r>
       <r>   23.9688    0.0000 </r>
       <r>   24.9261    0.0000 </r>
       <r>   37.5662    0.0000 </r>
       <r>   41.2997    0.0000 </r>
       <r>   41.3762    0.0000 </r>
       <r>   43.2308    0.0000 </r>
       <r>   44.0786    0.0000 </r>
      </set>
      <set comment="kpoint 19">
       <r>    4.8288    1.0000 </r>
       <r>    5.1242    1.0000 </r>
       <r>    5.1242    1.0000 </r>
       <r>    5.4011    1.0000 </r>
       <r>    6.0280    1.0000 </r>
       <r>    6.0280    1.0000 </r>
       <r>    6.8077    1.0000 </r>
       <r>    7.6168    1.0000 </r>
       <r>    7.6168    1.0000 </r>
       <r>    7.7121    1.0000 </r>
       <r>   12.6974    0.0000 </r>
       <r>   13.2865    0.0000 </r>
       <r>   13.2865    0.0000 </r>
       <r>   20.0399    0.0000 </r>
       <r>   20.6985    0.0000 </r>
       <r>   20.6985    0.0000 </r>
       <r>   22.7574    0.0000 </r>
       <r>   23.0440    0.0000 </r>
       <r>   23.0440    0.0000 </r>
       <r>   40.3070    0.0000 </r>
       <r>   42.0041    0.0000 </r>
       <r>   42.0041    0.0000 </r>
       <r>   43.8109    0.0000 </r>
       <r>   43.8109    0.0000 </r>
      </set>
      <set comment="kpoint 20">
       <r>    0.6178    1.0000 </r>
       <r>    4.0392    1.0000 </r>
       <r>    6.1956    1.0000 </r>
       <r>    6.2014    1.0000 </r>
       <r>    6.2014    1.0000 </r>
       <r>    6.4595    1.0000 </r>
       <r>    6.4595    1.0000 </r>
       <r>    6.8536    1.0000 </r>
       <r>    6.8536    1.0000 </r>
       <r>    7.6896    1.0000 </r>
       <r>    7.6896    1.0000 </r>
       <r>    8.1242    1.0000 </r>
       <r>   15.0699    0.0000 </r>
       <r>   29.6723    0.0000 </r>
       <r>   31.3108    0.0000 </r>
       <r>   31.3108    0.0000 </r>
       <r>   31.5106    0.0000 </r>
       <r>   32.1950    0.0000 </r>
       <r>   32.6986    0.0000 </r>
       <r>   32.6987    0.0000 </r>
       <r>   37.0449    0.0000 </r>
       <r>   37.0450    0.0000 </r>
       <r>   38.2859    0.0000 </r>
       <r>   38.8436    0.0000 </r>
      </set>
      <set comment="kpoint 21">
       <r>    0.8385    1.0000 </r>
       <r>    4.1743    1.0000 </r>
       <r>    6.0439    1.0000 </r>
       <r>    6.2850    1.0000 </r>
       <r>    6.2990    1.0000 </r>
       <r>    6.3769    1.0000 </r>
       <r>    6.5387    1.0000 </r>
       <r>    6.7738    1.0000 </r>
       <r>    6.8126    1.0000 </r>
       <r>    7.0559    1.0000 </r>
       <r>    7.7105    1.0000 </r>
       <r>    9.0158    0.0000 </r>
       <r>   15.1696    0.0000 </r>
       <r>   27.5271    0.0000 </r>
       <r>   29.4284    0.0000 </r>
       <r>   29.7362    0.0000 </r>
       <r>   31.5547    0.0000 </r>
       <r>   32.5289    0.0000 </r>
       <r>   34.1026    0.0000 </r>
       <r>   34.7279    0.0000 </r>
       <r>   36.0893    0.0000 </r>
       <r>   36.2977    0.0000 </r>
       <r>   36.7032    0.0000 </r>
       <r>   38.3515    0.0000 </r>
      </set>
      <set comment="kpoint 22">
       <r>    1.4777    1.0000 </r>
       <r>    4.5124    1.0000 </r>
       <r>    5.8383    1.0000 </r>
       <r>    5.9707    1.0000 </r>
       <r>    6.2734    1.0000 </r>
       <r>    6.4593    1.0000 </r>
       <r>    6.5875    1.0000 </r>
       <r>    6.7194    1.0000 </r>
       <r>    6.8175    1.0000 </r>
       <r>    6.8922    1.0000 </r>
       <r>    7.7550    1.0000 </r>
       <r>   10.2158    0.0000 </r>
       <r>   15.4993    0.0000 </r>
       <r>   23.7909    0.0000 </r>
       <r>   27.2580    0.0000 </r>
       <r>   28.6267    0.0000 </r>
       <r>   30.1195    0.0000 </r>
       <r>   31.8567    0.0000 </r>
       <r>   33.5494    0.0000 </r>
       <r>   34.4012    0.0000 </r>
       <r>   35.1161    0.0000 </r>
       <r>   36.1569    0.0000 </r>
       <r>   37.5137    0.0000 </r>
       <r>   38.9129    0.0000 </r>
      </set>
      <set comment="kpoint 23">
       <r>    2.4450    1.0000 </r>
       <r>    4.7936    1.0000 </r>
       <r>    5.4279    1.0000 </r>
       <r>    5.7214    1.0000 </r>
       <r>    6.1671    1.0000 </r>
       <r>    6.4138    1.0000 </r>
       <r>    6.6144    1.0000 </r>
       <r>    7.0109    1.0000 </r>
       <r>    7.0540    1.0000 </r>
       <r>    7.1176    1.0000 </r>
       <r>    7.7975    1.0000 </r>
       <r>   11.4960    0.0000 </r>
       <r>   16.1165    0.0000 </r>
       <r>   20.2455    0.0000 </r>
       <r>   25.3853    0.0000 </r>
       <r>   26.1113    0.0000 </r>
       <r>   28.4994    0.0000 </r>
       <r>   31.0562    0.0000 </r>
       <r>   31.5617    0.0000 </r>
       <r>   32.9650    0.0000 </r>
       <r>   34.7114    0.0000 </r>
       <r>   37.0140    0.0000 </r>
       <r>   37.0315    0.0000 </r>
       <r>   41.2393    0.0000 </r>
      </set>
      <set comment="kpoint 24">
       <r>    3.4856    1.0000 </r>
       <r>    4.7403    1.0000 </r>
       <r>    5.0702    1.0000 </r>
       <r>    5.7128    1.0000 </r>
       <r>    6.2834    1.0000 </r>
       <r>    6.3035    1.0000 </r>
       <r>    6.6600    1.0000 </r>
       <r>    7.4029    1.0000 </r>
       <r>    7.4605    1.0000 </r>
       <r>    7.5466    1.0000 </r>
       <r>    7.8308    1.0000 </r>
       <r>   12.7603    0.0000 </r>
       <r>   16.4819    0.0000 </r>
       <r>   17.7419    0.0000 </r>
       <r>   23.1967    0.0000 </r>
       <r>   23.9135    0.0000 </r>
       <r>   26.6353    0.0000 </r>
       <r>   29.4183    0.0000 </r>
       <r>   30.6683    0.0000 </r>
       <r>   31.7120    0.0000 </r>
       <r>   35.6381    0.0000 </r>
       <r>   36.2145    0.0000 </r>
       <r>   37.9163    0.0000 </r>
       <r>   42.9718    0.0000 </r>
      </set>
      <set comment="kpoint 25">
       <r>    4.1073    1.0000 </r>
       <r>    4.5593    1.0000 </r>
       <r>    4.9542    1.0000 </r>
       <r>    5.7236    1.0000 </r>
       <r>    6.1860    1.0000 </r>
       <r>    6.5233    1.0000 </r>
       <r>    6.8713    1.0000 </r>
       <r>    7.6817    1.0000 </r>
       <r>    7.7414    1.0000 </r>
       <r>    7.8719    1.0000 </r>
       <r>    8.5185    1.0000 </r>
       <r>   12.8071    0.0000 </r>
       <r>   15.5752    0.0000 </r>
       <r>   18.2444    0.0000 </r>
       <r>   21.0933    0.0000 </r>
       <r>   22.9555    0.0000 </r>
       <r>   24.1253    0.0000 </r>
       <r>   28.9154    0.0000 </r>
       <r>   30.0408    0.0000 </r>
       <r>   30.8554    0.0000 </r>
       <r>   35.7550    0.0000 </r>
       <r>   36.7818    0.0000 </r>
       <r>   38.5930    0.0000 </r>
       <r>   42.6031    0.0000 </r>
      </set>
      <set comment="kpoint 26">
       <r>    4.2439    1.0000 </r>
       <r>    4.4698    1.0000 </r>
       <r>    4.9488    1.0000 </r>
       <r>    5.7415    1.0000 </r>
       <r>    6.1509    1.0000 </r>
       <r>    6.5912    1.0000 </r>
       <r>    7.0237    1.0000 </r>
       <r>    7.7546    1.0000 </r>
       <r>    7.8483    1.0000 </r>
       <r>    7.9205    1.0000 </r>
       <r>    9.6417    0.0000 </r>
       <r>   11.3951    0.0000 </r>
       <r>   16.9292    0.0000 </r>
       <r>   17.2273    0.0000 </r>
       <r>   21.5663    0.0000 </r>
       <r>   22.1840    0.0000 </r>
       <r>   22.6203    0.0000 </r>
       <r>   28.7972    0.0000 </r>
       <r>   29.8197    0.0000 </r>
       <r>   30.5509    0.0000 </r>
       <r>   35.6086    0.0000 </r>
       <r>   37.3380    0.0000 </r>
       <r>   38.9733    0.0000 </r>
       <r>   41.7822    0.0000 </r>
      </set>
      <set comment="kpoint 27">
       <r>    1.2692    1.0000 </r>
       <r>    4.4161    1.0000 </r>
       <r>    5.8817    1.0000 </r>
       <r>    6.1197    1.0000 </r>
       <r>    6.3325    1.0000 </r>
       <r>    6.4178    1.0000 </r>
       <r>    6.5417    1.0000 </r>
       <r>    6.6596    1.0000 </r>
       <r>    6.8208    1.0000 </r>
       <r>    6.9103    1.0000 </r>
       <r>    7.7372    1.0000 </r>
       <r>    9.8859    0.0000 </r>
       <r>   15.3858    0.0000 </r>
       <r>   25.5484    0.0000 </r>
       <r>   26.0085    0.0000 </r>
       <r>   30.7757    0.0000 </r>
       <r>   30.9233    0.0000 </r>
       <r>   31.8024    0.0000 </r>
       <r>   33.3243    0.0000 </r>
       <r>   33.3901    0.0000 </r>
       <r>   36.2188    0.0000 </r>
       <r>   36.4220    0.0000 </r>
       <r>   38.2685    0.0000 </r>
       <r>   38.4278    0.0000 </r>
      </set>
      <set comment="kpoint 28">
       <r>    2.0805    1.0000 </r>
       <r>    4.7679    1.0000 </r>
       <r>    5.6142    1.0000 </r>
       <r>    5.6788    1.0000 </r>
       <r>    6.2216    1.0000 </r>
       <r>    6.3869    1.0000 </r>
       <r>    6.6131    1.0000 </r>
       <r>    6.7998    1.0000 </r>
       <r>    6.9884    1.0000 </r>
       <r>    7.0940    1.0000 </r>
       <r>    7.7725    1.0000 </r>
       <r>   11.0474    0.0000 </r>
       <r>   15.8755    0.0000 </r>
       <r>   22.0703    0.0000 </r>
       <r>   24.1570    0.0000 </r>
       <r>   27.9266    0.0000 </r>
       <r>   29.9914    0.0000 </r>
       <r>   30.8071    0.0000 </r>
       <r>   32.6751    0.0000 </r>
       <r>   33.5125    0.0000 </r>
       <r>   34.3152    0.0000 </r>
       <r>   36.0485    0.0000 </r>
       <r>   38.6460    0.0000 </r>
       <r>   39.9486    0.0000 </r>
      </set>
      <set comment="kpoint 29">
       <r>    3.1210    1.0000 </r>
       <r>    4.8934    1.0000 </r>
       <r>    5.1897    1.0000 </r>
       <r>    5.6242    1.0000 </r>
       <r>    6.1451    1.0000 </r>
       <r>    6.3672    1.0000 </r>
       <r>    6.5654    1.0000 </r>
       <r>    7.0722    1.0000 </r>
       <r>    7.3338    1.0000 </r>
       <r>    7.5134    1.0000 </r>
       <r>    7.8291    1.0000 </r>
       <r>   12.3198    0.0000 </r>
       <r>   16.6351    0.0000 </r>
       <r>   18.7707    0.0000 </r>
       <r>   22.7494    0.0000 </r>
       <r>   24.8168    0.0000 </r>
       <r>   28.4277    0.0000 </r>
       <r>   28.9140    0.0000 </r>
       <r>   31.4456    0.0000 </r>
       <r>   32.6581    0.0000 </r>
       <r>   34.5301    0.0000 </r>
       <r>   36.9455    0.0000 </r>
       <r>   39.4806    0.0000 </r>
       <r>   40.7756    0.0000 </r>
      </set>
      <set comment="kpoint 30">
       <r>    3.9959    1.0000 </r>
       <r>    4.7318    1.0000 </r>
       <r>    4.9832    1.0000 </r>
       <r>    5.6537    1.0000 </r>
       <r>    6.1706    1.0000 </r>
       <r>    6.4503    1.0000 </r>
       <r>    6.6184    1.0000 </r>
       <r>    7.4545    1.0000 </r>
       <r>    7.6689    1.0000 </r>
       <r>    7.7545    1.0000 </r>
       <r>    8.2919    1.0000 </r>
       <r>   13.3562    0.0000 </r>
       <r>   15.8095    0.0000 </r>
       <r>   18.1078    0.0000 </r>
       <r>   21.5848    0.0000 </r>
       <r>   22.2139    0.0000 </r>
       <r>   25.6549    0.0000 </r>
       <r>   28.0908    0.0000 </r>
       <r>   30.8080    0.0000 </r>
       <r>   31.5991    0.0000 </r>
       <r>   35.2226    0.0000 </r>
       <r>   37.5883    0.0000 </r>
       <r>   39.8977    0.0000 </r>
       <r>   43.1153    0.0000 </r>
      </set>
      <set comment="kpoint 31">
       <r>    4.3038    1.0000 </r>
       <r>    4.5808    1.0000 </r>
       <r>    4.9794    1.0000 </r>
       <r>    5.6990    1.0000 </r>
       <r>    6.1037    1.0000 </r>
       <r>    6.6062    1.0000 </r>
       <r>    6.7903    1.0000 </r>
       <r>    7.7202    1.0000 </r>
       <r>    7.8086    1.0000 </r>
       <r>    7.8422    1.0000 </r>
       <r>    9.4968    0.0000 </r>
       <r>   12.1116    0.0000 </r>
       <r>   16.3373    0.0000 </r>
       <r>   18.0856    0.0000 </r>
       <r>   20.9073    0.0000 </r>
       <r>   21.4256    0.0000 </r>
       <r>   23.1851    0.0000 </r>
       <r>   27.6552    0.0000 </r>
       <r>   30.5368    0.0000 </r>
       <r>   31.0241    0.0000 </r>
       <r>   35.4716    0.0000 </r>
       <r>   38.6610    0.0000 </r>
       <r>   39.7228    0.0000 </r>
       <r>   42.3214    0.0000 </r>
      </set>
      <set comment="kpoint 32">
       <r>    2.9903    1.0000 </r>
       <r>    5.0518    1.0000 </r>
       <r>    5.2682    1.0000 </r>
       <r>    5.4359    1.0000 </r>
       <r>    6.1516    1.0000 </r>
       <r>    6.2960    1.0000 </r>
       <r>    6.5777    1.0000 </r>
       <r>    6.9061    1.0000 </r>
       <r>    7.3418    1.0000 </r>
       <r>    7.5112    1.0000 </r>
       <r>    7.8282    1.0000 </r>
       <r>   12.1667    0.0000 </r>
       <r>   16.5825    0.0000 </r>
       <r>   20.5117    0.0000 </r>
       <r>   20.7747    0.0000 </r>
       <r>   26.5140    0.0000 </r>
       <r>   26.9614    0.0000 </r>
       <r>   30.4025    0.0000 </r>
       <r>   30.7932    0.0000 </r>
       <r>   33.9710    0.0000 </r>
       <r>   34.9110    0.0000 </r>
       <r>   36.3166    0.0000 </r>
       <r>   40.4560    0.0000 </r>
       <r>   40.4700    0.0000 </r>
      </set>
      <set comment="kpoint 33">
       <r>    3.9665    1.0000 </r>
       <r>    4.9830    1.0000 </r>
       <r>    5.0581    1.0000 </r>
       <r>    5.4329    1.0000 </r>
       <r>    6.0707    1.0000 </r>
       <r>    6.4227    1.0000 </r>
       <r>    6.4424    1.0000 </r>
       <r>    7.1368    1.0000 </r>
       <r>    7.6812    1.0000 </r>
       <r>    7.6865    1.0000 </r>
       <r>    8.3465    1.0000 </r>
       <r>   13.4429    0.0000 </r>
       <r>   17.0738    0.0000 </r>
       <r>   18.0636    0.0000 </r>
       <r>   19.5407    0.0000 </r>
       <r>   23.7211    0.0000 </r>
       <r>   25.7671    0.0000 </r>
       <r>   27.5370    0.0000 </r>
       <r>   29.7236    0.0000 </r>
       <r>   34.2647    0.0000 </r>
       <r>   35.9510    0.0000 </r>
       <r>   38.4713    0.0000 </r>
       <r>   40.2411    0.0000 </r>
       <r>   42.3662    0.0000 </r>
      </set>
      <set comment="kpoint 34">
       <r>    4.4883    1.0000 </r>
       <r>    4.8676    1.0000 </r>
       <r>    4.9818    1.0000 </r>
       <r>    5.5438    1.0000 </r>
       <r>    6.0473    1.0000 </r>
       <r>    6.3989    1.0000 </r>
       <r>    6.6111    1.0000 </r>
       <r>    7.4531    1.0000 </r>
       <r>    7.6902    1.0000 </r>
       <r>    7.8518    1.0000 </r>
       <r>    9.4390    0.0000 </r>
       <r>   13.5799    0.0000 </r>
       <r>   15.9919    0.0000 </r>
       <r>   18.6502    0.0000 </r>
       <r>   18.9716    0.0000 </r>
       <r>   21.5375    0.0000 </r>
       <r>   24.6738    0.0000 </r>
       <r>   25.2628    0.0000 </r>
       <r>   29.0824    0.0000 </r>
       <r>   33.9647    0.0000 </r>
       <r>   37.0956    0.0000 </r>
       <r>   39.3082    0.0000 </r>
       <r>   42.5510    0.0000 </r>
       <r>   42.8182    0.0000 </r>
      </set>
      <set comment="kpoint 35">
       <r>    4.5371    1.0000 </r>
       <r>    4.7931    1.0000 </r>
       <r>    5.0600    1.0000 </r>
       <r>    5.6093    1.0000 </r>
       <r>    5.9919    1.0000 </r>
       <r>    6.4665    1.0000 </r>
       <r>    6.6859    1.0000 </r>
       <r>    7.6768    1.0000 </r>
       <r>    7.6823    1.0000 </r>
       <r>    7.8324    1.0000 </r>
       <r>   10.7224    0.0000 </r>
       <r>   11.9597    0.0000 </r>
       <r>   17.4738    0.0000 </r>
       <r>   17.7864    0.0000 </r>
       <r>   18.5496    0.0000 </r>
       <r>   21.9637    0.0000 </r>
       <r>   22.7978    0.0000 </r>
       <r>   24.9945    0.0000 </r>
       <r>   28.8582    0.0000 </r>
       <r>   33.8389    0.0000 </r>
       <r>   37.6447    0.0000 </r>
       <r>   39.3923    0.0000 </r>
       <r>   42.0895    0.0000 </r>
       <r>   43.5633    0.0000 </r>
      </set>
      <set comment="kpoint 36">
       <r>    4.6888    1.0000 </r>
       <r>    4.8592    1.0000 </r>
       <r>    5.2232    1.0000 </r>
       <r>    5.2565    1.0000 </r>
       <r>    6.0337    1.0000 </r>
       <r>    6.2611    1.0000 </r>
       <r>    6.5817    1.0000 </r>
       <r>    7.2875    1.0000 </r>
       <r>    7.6521    1.0000 </r>
       <r>    7.8582    1.0000 </r>
       <r>    9.4472    0.0000 </r>
       <r>   14.6073    0.0000 </r>
       <r>   16.3201    0.0000 </r>
       <r>   16.8703    0.0000 </r>
       <r>   19.2082    0.0000 </r>
       <r>   22.8276    0.0000 </r>
       <r>   23.1090    0.0000 </r>
       <r>   26.6279    0.0000 </r>
       <r>   26.9991    0.0000 </r>
       <r>   36.8132    0.0000 </r>
       <r>   38.0618    0.0000 </r>
       <r>   38.7421    0.0000 </r>
       <r>   41.8113    0.0000 </r>
       <r>   42.4218    0.0000 </r>
      </set>
      <set comment="kpoint 37">
       <r>    4.7786    1.0000 </r>
       <r>    5.0302    1.0000 </r>
       <r>    5.1189    1.0000 </r>
       <r>    5.4270    1.0000 </r>
       <r>    5.9912    1.0000 </r>
       <r>    6.1709    1.0000 </r>
       <r>    6.7276    1.0000 </r>
       <r>    7.5079    1.0000 </r>
       <r>    7.6263    1.0000 </r>
       <r>    7.8036    1.0000 </r>
       <r>   11.0633    0.0000 </r>
       <r>   13.3683    0.0000 </r>
       <r>   15.6136    0.0000 </r>
       <r>   17.6280    0.0000 </r>
       <r>   19.4284    0.0000 </r>
       <r>   21.5207    0.0000 </r>
       <r>   22.9037    0.0000 </r>
       <r>   24.3189    0.0000 </r>
       <r>   26.4384    0.0000 </r>
       <r>   37.4883    0.0000 </r>
       <r>   39.1975    0.0000 </r>
       <r>   40.6297    0.0000 </r>
       <r>   41.9442    0.0000 </r>
       <r>   43.4761    0.0000 </r>
      </set>
      <set comment="kpoint 38">
       <r>    4.8754    1.0000 </r>
       <r>    5.1346    1.0000 </r>
       <r>    5.1346    1.0000 </r>
       <r>    5.4115    1.0000 </r>
       <r>    6.0178    1.0000 </r>
       <r>    6.0178    1.0000 </r>
       <r>    6.7934    1.0000 </r>
       <r>    7.5990    1.0000 </r>
       <r>    7.6363    1.0000 </r>
       <r>    7.6363    1.0000 </r>
       <r>   12.9034    0.0000 </r>
       <r>   13.3420    0.0000 </r>
       <r>   13.3420    0.0000 </r>
       <r>   19.1826    0.0000 </r>
       <r>   19.7312    0.0000 </r>
       <r>   19.7312    0.0000 </r>
       <r>   23.8290    0.0000 </r>
       <r>   24.2825    0.0000 </r>
       <r>   24.2826    0.0000 </r>
       <r>   39.4800    0.0000 </r>
       <r>   41.0049    0.0000 </r>
       <r>   41.0049    0.0000 </r>
       <r>   42.2636    0.0000 </r>
       <r>   42.8647    0.0000 </r>
      </set>
      <set comment="kpoint 39">
       <r>    1.0442    1.0000 </r>
       <r>    3.8669    1.0000 </r>
       <r>    6.1087    1.0000 </r>
       <r>    6.1478    1.0000 </r>
       <r>    6.1478    1.0000 </r>
       <r>    6.3693    1.0000 </r>
       <r>    6.3693    1.0000 </r>
       <r>    7.0136    1.0000 </r>
       <r>    7.0389    1.0000 </r>
       <r>    7.0389    1.0000 </r>
       <r>    7.6557    1.0000 </r>
       <r>    7.6557    1.0000 </r>
       <r>   17.1479    0.0000 </r>
       <r>   28.5041    0.0000 </r>
       <r>   29.8974    0.0000 </r>
       <r>   31.5739    0.0000 </r>
       <r>   31.7142    0.0000 </r>
       <r>   31.7142    0.0000 </r>
       <r>   32.8465    0.0000 </r>
       <r>   32.8465    0.0000 </r>
       <r>   36.1813    0.0000 </r>
       <r>   36.1813    0.0000 </r>
       <r>   37.1946    0.0000 </r>
       <r>   37.1946    0.0000 </r>
      </set>
      <set comment="kpoint 40">
       <r>    1.2590    1.0000 </r>
       <r>    4.0234    1.0000 </r>
       <r>    6.0506    1.0000 </r>
       <r>    6.1296    1.0000 </r>
       <r>    6.1783    1.0000 </r>
       <r>    6.2235    1.0000 </r>
       <r>    6.4473    1.0000 </r>
       <r>    6.6973    1.0000 </r>
       <r>    7.0126    1.0000 </r>
       <r>    7.0512    1.0000 </r>
       <r>    7.6679    1.0000 </r>
       <r>    8.2072    1.0000 </r>
       <r>   17.2895    0.0000 </r>
       <r>   27.8187    0.0000 </r>
       <r>   28.6778    0.0000 </r>
       <r>   29.8611    0.0000 </r>
       <r>   29.8894    0.0000 </r>
       <r>   31.5371    0.0000 </r>
       <r>   33.1654    0.0000 </r>
       <r>   33.9710    0.0000 </r>
       <r>   35.6646    0.0000 </r>
       <r>   36.7368    0.0000 </r>
       <r>   37.0484    0.0000 </r>
       <r>   38.8649    0.0000 </r>
      </set>
      <set comment="kpoint 41">
       <r>    1.8754    1.0000 </r>
       <r>    4.4262    1.0000 </r>
       <r>    5.6951    1.0000 </r>
       <r>    5.8857    1.0000 </r>
       <r>    6.1005    1.0000 </r>
       <r>    6.3956    1.0000 </r>
       <r>    6.5090    1.0000 </r>
       <r>    6.6630    1.0000 </r>
       <r>    6.9938    1.0000 </r>
       <r>    7.1037    1.0000 </r>
       <r>    7.6934    1.0000 </r>
       <r>    9.0695    0.0000 </r>
       <r>   17.7248    0.0000 </r>
       <r>   24.1660    0.0000 </r>
       <r>   27.6921    0.0000 </r>
       <r>   27.7550    0.0000 </r>
       <r>   29.3188    0.0000 </r>
       <r>   29.8484    0.0000 </r>
       <r>   32.3949    0.0000 </r>
       <r>   32.6185    0.0000 </r>
       <r>   36.5125    0.0000 </r>
       <r>   37.6507    0.0000 </r>
       <r>   37.9114    0.0000 </r>
       <r>   40.2136    0.0000 </r>
      </set>
      <set comment="kpoint 42">
       <r>    2.7793    1.0000 </r>
       <r>    4.7836    1.0000 </r>
       <r>    5.2771    1.0000 </r>
       <r>    5.7751    1.0000 </r>
       <r>    6.0394    1.0000 </r>
       <r>    6.4695    1.0000 </r>
       <r>    6.5635    1.0000 </r>
       <r>    6.9802    1.0000 </r>
       <r>    7.1488    1.0000 </r>
       <r>    7.2296    1.0000 </r>
       <r>    7.7210    1.0000 </r>
       <r>   10.0229    0.0000 </r>
       <r>   18.4319    0.0000 </r>
       <r>   20.6516    0.0000 </r>
       <r>   24.6705    0.0000 </r>
       <r>   25.9373    0.0000 </r>
       <r>   28.9381    0.0000 </r>
       <r>   29.7179    0.0000 </r>
       <r>   31.1251    0.0000 </r>
       <r>   31.4919    0.0000 </r>
       <r>   34.0356    0.0000 </r>
       <r>   38.5100    0.0000 </r>
       <r>   38.9163    0.0000 </r>
       <r>   42.0560    0.0000 </r>
      </set>
      <set comment="kpoint 43">
       <r>    3.6541    1.0000 </r>
       <r>    4.7233    1.0000 </r>
       <r>    5.1011    1.0000 </r>
       <r>    5.6302    1.0000 </r>
       <r>    6.3054    1.0000 </r>
       <r>    6.4100    1.0000 </r>
       <r>    6.9779    1.0000 </r>
       <r>    7.3157    1.0000 </r>
       <r>    7.4495    1.0000 </r>
       <r>    7.4894    1.0000 </r>
       <r>    7.7645    1.0000 </r>
       <r>   11.0691    0.0000 </r>
       <r>   17.3499    0.0000 </r>
       <r>   19.3589    0.0000 </r>
       <r>   21.9723    0.0000 </r>
       <r>   24.5105    0.0000 </r>
       <r>   27.9141    0.0000 </r>
       <r>   29.5826    0.0000 </r>
       <r>   29.9005    0.0000 </r>
       <r>   30.2328    0.0000 </r>
       <r>   33.3963    0.0000 </r>
       <r>   38.3301    0.0000 </r>
       <r>   39.1189    0.0000 </r>
       <r>   42.0497    0.0000 </r>
      </set>
      <set comment="kpoint 44">
       <r>    4.0552    1.0000 </r>
       <r>    4.5667    1.0000 </r>
       <r>    5.1524    1.0000 </r>
       <r>    5.4455    1.0000 </r>
       <r>    6.3418    1.0000 </r>
       <r>    6.5883    1.0000 </r>
       <r>    7.5045    1.0000 </r>
       <r>    7.5235    1.0000 </r>
       <r>    7.7283    1.0000 </r>
       <r>    7.8537    1.0000 </r>
       <r>    8.3494    1.0000 </r>
       <r>   11.7921    0.0000 </r>
       <r>   15.3077    0.0000 </r>
       <r>   18.0856    0.0000 </r>
       <r>   21.9962    0.0000 </r>
       <r>   23.5841    0.0000 </r>
       <r>   25.9902    0.0000 </r>
       <r>   29.0895    0.0000 </r>
       <r>   29.1023    0.0000 </r>
       <r>   29.5740    0.0000 </r>
       <r>   34.5082    0.0000 </r>
       <r>   37.8730    0.0000 </r>
       <r>   38.3346    0.0000 </r>
       <r>   40.7222    0.0000 </r>
      </set>
      <set comment="kpoint 45">
       <r>    4.1147    1.0000 </r>
       <r>    4.5060    1.0000 </r>
       <r>    5.2692    1.0000 </r>
       <r>    5.3106    1.0000 </r>
       <r>    6.3151    1.0000 </r>
       <r>    6.6787    1.0000 </r>
       <r>    7.5467    1.0000 </r>
       <r>    7.6648    1.0000 </r>
       <r>    7.8439    1.0000 </r>
       <r>    7.9100    1.0000 </r>
       <r>    9.4954    0.0000 </r>
       <r>   11.1835    0.0000 </r>
       <r>   15.9263    0.0000 </r>
       <r>   16.0598    0.0000 </r>
       <r>   23.2606    0.0000 </r>
       <r>   23.5427    0.0000 </r>
       <r>   24.0663    0.0000 </r>
       <r>   28.8043    0.0000 </r>
       <r>   28.9527    0.0000 </r>
       <r>   29.3959    0.0000 </r>
       <r>   35.8311    0.0000 </r>
       <r>   36.8621    0.0000 </r>
       <r>   37.7170    0.0000 </r>
       <r>   40.5847    0.0000 </r>
      </set>
      <set comment="kpoint 46">
       <r>    1.6757    1.0000 </r>
       <r>    4.3087    1.0000 </r>
       <r>    5.8273    1.0000 </r>
       <r>    5.9202    1.0000 </r>
       <r>    6.1209    1.0000 </r>
       <r>    6.3630    1.0000 </r>
       <r>    6.5111    1.0000 </r>
       <r>    6.5932    1.0000 </r>
       <r>    7.0394    1.0000 </r>
       <r>    7.0492    1.0000 </r>
       <r>    7.6852    1.0000 </r>
       <r>    8.8314    0.0003 </r>
       <r>   17.5797    0.0000 </r>
       <r>   25.8829    0.0000 </r>
       <r>   26.4116    0.0000 </r>
       <r>   28.8210    0.0000 </r>
       <r>   29.5739    0.0000 </r>
       <r>   30.8689    0.0000 </r>
       <r>   32.0559    0.0000 </r>
       <r>   33.5810    0.0000 </r>
       <r>   36.7440    0.0000 </r>
       <r>   37.0035    0.0000 </r>
       <r>   38.2701    0.0000 </r>
       <r>   39.1973    0.0000 </r>
      </set>
      <set comment="kpoint 47">
       <r>    2.4470    1.0000 </r>
       <r>    4.7442    1.0000 </r>
       <r>    5.3965    1.0000 </r>
       <r>    5.7355    1.0000 </r>
       <r>    6.0735    1.0000 </r>
       <r>    6.4032    1.0000 </r>
       <r>    6.4962    1.0000 </r>
       <r>    6.8422    1.0000 </r>
       <r>    7.1309    1.0000 </r>
       <r>    7.1783    1.0000 </r>
       <r>    7.7167    1.0000 </r>
       <r>    9.6890    0.0000 </r>
       <r>   18.1740    0.0000 </r>
       <r>   22.4654    0.0000 </r>
       <r>   24.5661    0.0000 </r>
       <r>   26.4952    0.0000 </r>
       <r>   28.4826    0.0000 </r>
       <r>   30.2539    0.0000 </r>
       <r>   31.4803    0.0000 </r>
       <r>   34.2968    0.0000 </r>
       <r>   35.0910    0.0000 </r>
       <r>   35.9673    0.0000 </r>
       <r>   39.3065    0.0000 </r>
       <r>   40.2479    0.0000 </r>
      </set>
      <set comment="kpoint 48">
       <r>    3.3808    1.0000 </r>
       <r>    4.8937    1.0000 </r>
       <r>    5.1254    1.0000 </r>
       <r>    5.6872    1.0000 </r>
       <r>    6.0594    1.0000 </r>
       <r>    6.4616    1.0000 </r>
       <r>    6.5487    1.0000 </r>
       <r>    7.1121    1.0000 </r>
       <r>    7.3896    1.0000 </r>
       <r>    7.4509    1.0000 </r>
       <r>    7.8198    1.0000 </r>
       <r>   10.6985    0.0000 </r>
       <r>   18.7090    0.0000 </r>
       <r>   19.4190    0.0000 </r>
       <r>   23.0059    0.0000 </r>
       <r>   23.6006    0.0000 </r>
       <r>   27.4867    0.0000 </r>
       <r>   29.6569    0.0000 </r>
       <r>   31.0593    0.0000 </r>
       <r>   33.0362    0.0000 </r>
       <r>   33.5190    0.0000 </r>
       <r>   36.5374    0.0000 </r>
       <r>   40.8434    0.0000 </r>
       <r>   41.7385    0.0000 </r>
      </set>
      <set comment="kpoint 49">
       <r>    4.0360    1.0000 </r>
       <r>    4.7285    1.0000 </r>
       <r>    5.0897    1.0000 </r>
       <r>    5.5591    1.0000 </r>
       <r>    6.2091    1.0000 </r>
       <r>    6.5355    1.0000 </r>
       <r>    6.9513    1.0000 </r>
       <r>    7.3683    1.0000 </r>
       <r>    7.5787    1.0000 </r>
       <r>    7.7571    1.0000 </r>
       <r>    8.3055    1.0000 </r>
       <r>   11.7748    0.0000 </r>
       <r>   16.1926    0.0000 </r>
       <r>   19.2283    0.0000 </r>
       <r>   21.5226    0.0000 </r>
       <r>   22.3912    0.0000 </r>
       <r>   26.6840    0.0000 </r>
       <r>   27.4926    0.0000 </r>
       <r>   30.9508    0.0000 </r>
       <r>   32.1945    0.0000 </r>
       <r>   33.5191    0.0000 </r>
       <r>   36.6152    0.0000 </r>
       <r>   40.7189    0.0000 </r>
       <r>   42.0328    0.0000 </r>
      </set>
      <set comment="kpoint 50">
       <r>    4.1945    1.0000 </r>
       <r>    4.6191    1.0000 </r>
       <r>    5.2344    1.0000 </r>
       <r>    5.3966    1.0000 </r>
       <r>    6.1620    1.0000 </r>
       <r>    6.7315    1.0000 </r>
       <r>    7.2456    1.0000 </r>
       <r>    7.4981    1.0000 </r>
       <r>    7.7779    1.0000 </r>
       <r>    7.8951    1.0000 </r>
       <r>    9.5128    0.0000 </r>
       <r>   11.7626    0.0000 </r>
       <r>   15.4055    0.0000 </r>
       <r>   17.1184    0.0000 </r>
       <r>   21.6693    0.0000 </r>
       <r>   22.9806    0.0000 </r>
       <r>   25.1533    0.0000 </r>
       <r>   26.2582    0.0000 </r>
       <r>   30.7214    0.0000 </r>
       <r>   31.6611    0.0000 </r>
       <r>   34.7168    0.0000 </r>
       <r>   36.1813    0.0000 </r>
       <r>   39.1410    0.0000 </r>
       <r>   42.1114    0.0000 </r>
      </set>
      <set comment="kpoint 51">
       <r>    3.2825    1.0000 </r>
       <r>    5.0543    1.0000 </r>
       <r>    5.1831    1.0000 </r>
       <r>    5.5090    1.0000 </r>
       <r>    6.0878    1.0000 </r>
       <r>    6.2824    1.0000 </r>
       <r>    6.4858    1.0000 </r>
       <r>    7.0231    1.0000 </r>
       <r>    7.3763    1.0000 </r>
       <r>    7.4642    1.0000 </r>
       <r>    7.8608    1.0000 </r>
       <r>   10.5877    0.0000 </r>
       <r>   18.9213    0.0000 </r>
       <r>   20.9102    0.0000 </r>
       <r>   21.2330    0.0000 </r>
       <r>   25.0810    0.0000 </r>
       <r>   25.4334    0.0000 </r>
       <r>   30.5461    0.0000 </r>
       <r>   32.4324    0.0000 </r>
       <r>   33.3813    0.0000 </r>
       <r>   34.8198    0.0000 </r>
       <r>   36.2601    0.0000 </r>
       <r>   39.2150    0.0000 </r>
       <r>   39.8706    0.0000 </r>
      </set>
      <set comment="kpoint 52">
       <r>    4.0991    1.0000 </r>
       <r>    4.8935    1.0000 </r>
       <r>    5.1710    1.0000 </r>
       <r>    5.5581    1.0000 </r>
       <r>    6.0766    1.0000 </r>
       <r>    6.3374    1.0000 </r>
       <r>    6.4921    1.0000 </r>
       <r>    7.1966    1.0000 </r>
       <r>    7.4826    1.0000 </r>
       <r>    7.7820    1.0000 </r>
       <r>    8.4471    1.0000 </r>
       <r>   11.7515    0.0000 </r>
       <r>   17.7957    0.0000 </r>
       <r>   19.7574    0.0000 </r>
       <r>   20.0818    0.0000 </r>
       <r>   22.4597    0.0000 </r>
       <r>   24.2979    0.0000 </r>
       <r>   29.3305    0.0000 </r>
       <r>   31.3931    0.0000 </r>
       <r>   33.2642    0.0000 </r>
       <r>   34.8923    0.0000 </r>
       <r>   37.6425    0.0000 </r>
       <r>   39.6872    0.0000 </r>
       <r>   41.3336    0.0000 </r>
      </set>
      <set comment="kpoint 53">
       <r>    4.4239    1.0000 </r>
       <r>    4.9135    1.0000 </r>
       <r>    5.1091    1.0000 </r>
       <r>    5.5451    1.0000 </r>
       <r>    5.9945    1.0000 </r>
       <r>    6.5284    1.0000 </r>
[...]
       </set>
       <set comment="band 12">
        <r>  0.0018  0.0136  0.0671  0.0397  0.0199  0.0279  0.0027  0.0305  0.0460 </r>
        <r>  0.0075  0.0568  0.0161  0.1651  0.0827  0.0067  0.0111  0.0073  0.1914 </r>
       </set>
       <set comment="band 13">
        <r>  0.3195  0.0371  0.0000  0.0259  0.1503  0.0000  0.0147  0.0001  0.0530 </r>
        <r>  0.0002  0.0000  0.0226  0.0000  0.0001  0.0513  0.0000  0.1510  0.0000 </r>
       </set>
       <set comment="band 14">
        <r>  0.0002  0.0000  0.0226  0.0000  0.0001  0.0513  0.0000  0.1510  0.0000 </r>
        <r>  0.3195  0.0371  0.0000  0.0259  0.1503  0.0000  0.0147  0.0001  0.0530 </r>
       </set>
       <set comment="band 15">
        <r>  0.1458  0.2081  0.0006  0.0696  0.0682  0.0027  0.0305  0.0010  0.0228 </r>
        <r>  0.0041  0.0059  0.0214  0.0020  0.0019  0.0936  0.0009  0.0357  0.0006 </r>
       </set>
       <set comment="band 16">
        <r>  0.0041  0.0059  0.0214  0.0020  0.0019  0.0936  0.0009  0.0357  0.0006 </r>
        <r>  0.1458  0.2081  0.0006  0.0696  0.0682  0.0027  0.0305  0.0010  0.0228 </r>
       </set>
       <set comment="band 17">
        <r>  0.0026  0.0188  0.0985  0.0562  0.0055  0.0100  0.0044  0.0187  0.0075 </r>
        <r>  0.0014  0.0105  0.1770  0.0313  0.0031  0.0180  0.0025  0.0336  0.0042 </r>
       </set>
       <set comment="band 18">
        <r>  0.0014  0.0105  0.1770  0.0313  0.0031  0.0180  0.0025  0.0336  0.0042 </r>
        <r>  0.0026  0.0188  0.0985  0.0562  0.0055  0.0100  0.0044  0.0187  0.0075 </r>
       </set>
       <set comment="band 19">
        <r>  0.0155  0.0002  0.0261  0.0005  0.0302  0.0580  0.0673  0.1472  0.0101 </r>
        <r>  0.0380  0.0004  0.0107  0.0012  0.0740  0.0237  0.1649  0.0601  0.0247 </r>
       </set>
       <set comment="band 20">
        <r>  0.0380  0.0004  0.0107  0.0012  0.0740  0.0237  0.1649  0.0601  0.0247 </r>
        <r>  0.0155  0.0002  0.0261  0.0005  0.0302  0.0580  0.0673  0.1472  0.0101 </r>
       </set>
       <set comment="band 21">
        <r>  0.0155  0.1167  0.0477  0.0393  0.0141  0.0023  0.0328  0.0022  0.0050 </r>
        <r>  0.0065  0.0489  0.1139  0.0165  0.0059  0.0055  0.0138  0.0053  0.0021 </r>
       </set>
       <set comment="band 22">
        <r>  0.0065  0.0489  0.1139  0.0165  0.0059  0.0055  0.0138  0.0053  0.0021 </r>
        <r>  0.0155  0.1167  0.0477  0.0393  0.0141  0.0023  0.0328  0.0022  0.0050 </r>
       </set>
       <set comment="band 23">
        <r>  0.0988  0.0024  0.0000  0.0009  0.0798  0.1014  0.0327  0.0390  0.0266 </r>
        <r>  0.0709  0.0017  0.0000  0.0007  0.0573  0.1413  0.0235  0.0544  0.0191 </r>
       </set>
       <set comment="band 24">
        <r>  0.0709  0.0017  0.0000  0.0007  0.0573  0.1413  0.0235  0.0544  0.0191 </r>
        <r>  0.0988  0.0024  0.0000  0.0009  0.0798  0.1014  0.0327  0.0390  0.0266 </r>
       </set>
      </set>
      <set comment="kpoint 93">
       <set comment="band 1">
        <r>  0.0642  0.0040  0.0097  0.0355  0.0184  0.0002  0.0265  0.1850  0.0412 </r>
        <r>  0.0468  0.0029  0.0133  0.0259  0.0134  0.0003  0.0193  0.2538  0.0300 </r>
       </set>
       <set comment="band 2">
        <r>  0.0468  0.0029  0.0133  0.0259  0.0134  0.0003  0.0193  0.2538  0.0300 </r>
        <r>  0.0642  0.0040  0.0097  0.0355  0.0184  0.0002  0.0265  0.1850  0.0412 </r>
       </set>
       <set comment="band 3">
        <r>  0.0073  0.0191  0.0171  0.0048  0.2499  0.0372  0.0008  0.0007  0.0161 </r>
        <r>  0.0119  0.0312  0.0105  0.0078  0.4087  0.0227  0.0012  0.0004  0.0263 </r>
       </set>
       <set comment="band 4">
        <r>  0.0119  0.0312  0.0105  0.0078  0.4087  0.0227  0.0012  0.0004  0.0263 </r>
        <r>  0.0073  0.0191  0.0171  0.0048  0.2499  0.0372  0.0008  0.0007  0.0161 </r>
       </set>
       <set comment="band 5">
        <r>  0.0003  0.0001  0.0044  0.0261  0.0000  0.1714  0.1210  0.0206  0.0532 </r>
        <r>  0.0005  0.0001  0.0023  0.0504  0.0000  0.0888  0.2334  0.0107  0.1027 </r>
       </set>
       <set comment="band 6">
        <r>  0.0005  0.0001  0.0023  0.0504  0.0000  0.0888  0.2334  0.0107  0.1027 </r>
        <r>  0.0003  0.0001  0.0044  0.0261  0.0000  0.1714  0.1210  0.0206  0.0532 </r>
       </set>
       <set comment="band 7">
        <r>  0.0035  0.0000  0.0000  0.0004  0.0561  0.2740  0.0181  0.0512  0.0870 </r>
        <r>  0.0044  0.0000  0.0000  0.0005  0.0695  0.2212  0.0224  0.0413  0.1077 </r>
       </set>
       <set comment="band 8">
        <r>  0.0044  0.0000  0.0000  0.0005  0.0695  0.2212  0.0224  0.0413  0.1077 </r>
        <r>  0.0035  0.0000  0.0000  0.0004  0.0561  0.2740  0.0181  0.0512  0.0870 </r>
       </set>
       <set comment="band 9">
        <r>  0.0000  0.0000  0.0023  0.0003  0.0011  0.0807  0.0578  0.1874  0.0188 </r>
        <r>  0.0000  0.0000  0.0003  0.0022  0.0083  0.0104  0.4474  0.0242  0.1458 </r>
       </set>
       <set comment="band 10">
        <r>  0.0000  0.0000  0.0003  0.0022  0.0083  0.0104  0.4474  0.0242  0.1458 </r>
        <r>  0.0000  0.0000  0.0023  0.0003  0.0011  0.0807  0.0578  0.1874  0.0188 </r>
       </set>
       <set comment="band 11">
        <r>  0.0180  0.0007  0.0481  0.0361  0.0047  0.0046  0.0003  0.1168  0.0878 </r>
        <r>  0.0589  0.0022  0.0147  0.1182  0.0155  0.0014  0.0009  0.0356  0.2877 </r>
       </set>
       <set comment="band 12">
        <r>  0.0589  0.0022  0.0147  0.1182  0.0155  0.0014  0.0009  0.0356  0.2877 </r>
        <r>  0.0180  0.0007  0.0481  0.0361  0.0047  0.0046  0.0003  0.1168  0.0878 </r>
       </set>
       <set comment="band 13">
        <r>  0.0012  0.1669  0.0261  0.0029  0.1644  0.0133  0.0007  0.0274  0.0007 </r>
        <r>  0.0009  0.1220  0.0357  0.0021  0.1201  0.0181  0.0005  0.0375  0.0005 </r>
       </set>
       <set comment="band 14">
        <r>  0.0009  0.1220  0.0357  0.0021  0.1201  0.0181  0.0005  0.0375  0.0005 </r>
        <r>  0.0012  0.1669  0.0261  0.0029  0.1644  0.0133  0.0007  0.0274  0.0007 </r>
       </set>
       <set comment="band 15">
        <r>  0.1962  0.0001  0.0019  0.0869  0.0000  0.0508  0.0286  0.0308  0.0000 </r>
        <r>  0.1677  0.0001  0.0022  0.0743  0.0000  0.0595  0.0245  0.0360  0.0000 </r>
       </set>
       <set comment="band 16">
        <r>  0.1677  0.0001  0.0022  0.0743  0.0000  0.0595  0.0245  0.0360  0.0000 </r>
        <r>  0.1962  0.0001  0.0019  0.0869  0.0000  0.0508  0.0286  0.0308  0.0000 </r>
       </set>
       <set comment="band 17">
        <r>  0.0083  0.0001  0.2142  0.0127  0.0006  0.0169  0.0149  0.0666  0.0037 </r>
        <r>  0.0366  0.0005  0.0489  0.0559  0.0024  0.0039  0.0651  0.0152  0.0161 </r>
       </set>
       <set comment="band 18">
        <r>  0.0366  0.0005  0.0489  0.0559  0.0024  0.0039  0.0651  0.0152  0.0161 </r>
        <r>  0.0083  0.0001  0.2142  0.0127  0.0006  0.0169  0.0149  0.0666  0.0037 </r>
       </set>
       <set comment="band 19">
        <r>  0.0015  0.0199  0.0706  0.0030  0.0250  0.0785  0.0087  0.0761  0.0019 </r>
        <r>  0.0040  0.0534  0.0263  0.0080  0.0669  0.0293  0.0232  0.0284  0.0051 </r>
       </set>
       <set comment="band 20">
        <r>  0.0040  0.0534  0.0263  0.0080  0.0669  0.0293  0.0232  0.0284  0.0051 </r>
        <r>  0.0015  0.0199  0.0706  0.0030  0.0250  0.0785  0.0087  0.0761  0.0019 </r>
       </set>
       <set comment="band 21">
        <r>  0.0323  0.0068  0.0053  0.0510  0.0195  0.0011  0.2255  0.0121  0.0303 </r>
        <r>  0.0027  0.0006  0.0634  0.0043  0.0016  0.0125  0.0190  0.1436  0.0026 </r>
       </set>
       <set comment="band 22">
        <r>  0.0027  0.0006  0.0634  0.0043  0.0016  0.0125  0.0190  0.1436  0.0026 </r>
        <r>  0.0323  0.0068  0.0053  0.0510  0.0195  0.0011  0.2255  0.0121  0.0303 </r>
       </set>
       <set comment="band 23">
        <r>  0.0001  0.0260  0.0419  0.0001  0.0203  0.0222  0.0000  0.0130  0.0000 </r>
        <r>  0.0008  0.2311  0.0047  0.0009  0.1805  0.0025  0.0000  0.0015  0.0000 </r>
       </set>
       <set comment="band 24">
        <r>  0.0008  0.2311  0.0047  0.0009  0.1805  0.0025  0.0000  0.0015  0.0000 </r>
        <r>  0.0001  0.0260  0.0419  0.0001  0.0203  0.0222  0.0000  0.0130  0.0000 </r>
       </set>
      </set>
      <set comment="kpoint 94">
       <set comment="band 1">
        <r>  0.0554  0.0177  0.0003  0.0294  0.0958  0.0033  0.0661  0.0363  0.0602 </r>
        <r>  0.0051  0.0016  0.0033  0.0027  0.0088  0.0364  0.0060  0.3973  0.0055 </r>
       </set>
       <set comment="band 2">
        <r>  0.0051  0.0016  0.0033  0.0027  0.0088  0.0364  0.0060  0.3973  0.0055 </r>
        <r>  0.0554  0.0177  0.0003  0.0294  0.0958  0.0033  0.0661  0.0363  0.0602 </r>
       </set>
       <set comment="band 3">
        <r>  0.0076  0.0238  0.0034  0.0005  0.1878  0.1038  0.0878  0.0327  0.0085 </r>
        <r>  0.0063  0.0197  0.0041  0.0004  0.1558  0.1251  0.0729  0.0394  0.0070 </r>
       </set>
       <set comment="band 4">
        <r>  0.0063  0.0197  0.0041  0.0004  0.1558  0.1251  0.0729  0.0394  0.0070 </r>
        <r>  0.0076  0.0238  0.0034  0.0005  0.1878  0.1038  0.0878  0.0327  0.0085 </r>
       </set>
       <set comment="band 5">
        <r>  0.0001  0.0002  0.0325  0.0012  0.0020  0.1808  0.0008  0.0038  0.0033 </r>
        <r>  0.0060  0.0176  0.0004  0.0965  0.1643  0.0022  0.0656  0.0000  0.2748 </r>
       </set>
       <set comment="band 6">
        <r>  0.0060  0.0176  0.0004  0.0965  0.1643  0.0022  0.0656  0.0000  0.2748 </r>
        <r>  0.0001  0.0002  0.0325  0.0012  0.0020  0.1808  0.0008  0.0038  0.0033 </r>
       </set>
       <set comment="band 7">
        <r>  0.0026  0.0019  0.0001  0.0081  0.1574  0.0165  0.0207  0.0068  0.2817 </r>
        <r>  0.0001  0.0001  0.0010  0.0004  0.0084  0.3077  0.0011  0.1265  0.0151 </r>
       </set>
       <set comment="band 8">
        <r>  0.0001  0.0001  0.0010  0.0004  0.0084  0.3077  0.0011  0.1265  0.0151 </r>
        <r>  0.0026  0.0019  0.0001  0.0081  0.1574  0.0165  0.0207  0.0068  0.2817 </r>
       </set>
       <set comment="band 9">
        <r>  0.0004  0.0000  0.0006  0.0004  0.0032  0.0731  0.1939  0.1270  0.0154 </r>
        <r>  0.0008  0.0001  0.0003  0.0009  0.0071  0.0323  0.4388  0.0561  0.0348 </r>
       </set>
       <set comment="band 10">
        <r>  0.0008  0.0001  0.0003  0.0009  0.0071  0.0323  0.4388  0.0561  0.0348 </r>
        <r>  0.0004  0.0000  0.0006  0.0004  0.0032  0.0731  0.1939  0.1270  0.0154 </r>
       </set>
       <set comment="band 11">
        <r>  0.0032  0.0021  0.0851  0.0199  0.0035  0.0080  0.0001  0.0607  0.0264 </r>
        <r>  0.0334  0.0221  0.0081  0.2078  0.0364  0.0008  0.0015  0.0058  0.2766 </r>
       </set>
       <set comment="band 12">
        <r>  0.0334  0.0221  0.0081  0.2078  0.0364  0.0008  0.0015  0.0058  0.2766 </r>
        <r>  0.0032  0.0021  0.0851  0.0199  0.0035  0.0080  0.0001  0.0607  0.0264 </r>
       </set>
       <set comment="band 13">
        <r>  0.1295  0.1591  0.0051  0.0133  0.1805  0.0080  0.0070  0.0159  0.0108 </r>
        <r>  0.0235  0.0289  0.0283  0.0024  0.0327  0.0442  0.0013  0.0877  0.0020 </r>
       </set>
       <set comment="band 14">
        <r>  0.0235  0.0289  0.0283  0.0024  0.0327  0.0442  0.0013  0.0877  0.0020 </r>
        <r>  0.1295  0.1591  0.0051  0.0133  0.1805  0.0080  0.0070  0.0159  0.0108 </r>
       </set>
       <set comment="band 15">
        <r>  0.2393  0.0709  0.0037  0.0509  0.0360  0.0283  0.0265  0.0146  0.0053 </r>
        <r>  0.0798  0.0236  0.0110  0.0170  0.0120  0.0850  0.0088  0.0438  0.0018 </r>
       </set>
       <set comment="band 16">
        <r>  0.0798  0.0236  0.0110  0.0170  0.0120  0.0850  0.0088  0.0438  0.0018 </r>
        <r>  0.2393  0.0709  0.0037  0.0509  0.0360  0.0283  0.0265  0.0146  0.0053 </r>
       </set>
       <set comment="band 17">
        <r>  0.0008  0.0005  0.2598  0.0059  0.0003  0.0289  0.0014  0.0688  0.0018 </r>
        <r>  0.0114  0.0078  0.0172  0.0893  0.0044  0.0019  0.0219  0.0045  0.0265 </r>
       </set>
       <set comment="band 18">
        <r>  0.0114  0.0078  0.0172  0.0893  0.0044  0.0019  0.0219  0.0045  0.0265 </r>
        <r>  0.0008  0.0005  0.2598  0.0059  0.0003  0.0289  0.0014  0.0688  0.0018 </r>
       </set>
       <set comment="band 19">
        <r>  0.0113  0.0400  0.0558  0.0012  0.0412  0.0429  0.0293  0.0685  0.0035 </r>
        <r>  0.0089  0.0317  0.0704  0.0009  0.0327  0.0541  0.0232  0.0865  0.0027 </r>
       </set>
       <set comment="band 20">
        <r>  0.0089  0.0317  0.0704  0.0009  0.0327  0.0541  0.0232  0.0865  0.0027 </r>
        <r>  0.0113  0.0400  0.0558  0.0012  0.0412  0.0429  0.0293  0.0685  0.0035 </r>
       </set>
       <set comment="band 21">
        <r>  0.0045  0.0030  0.0373  0.0025  0.0001  0.0608  0.0236  0.0697  0.0005 </r>
        <r>  0.0494  0.0329  0.0034  0.0272  0.0011  0.0055  0.2587  0.0064  0.0050 </r>
       </set>
       <set comment="band 22">
        <r>  0.0494  0.0329  0.0034  0.0272  0.0011  0.0055  0.2587  0.0064  0.0050 </r>
        <r>  0.0045  0.0030  0.0373  0.0025  0.0001  0.0608  0.0236  0.0697  0.0005 </r>
       </set>
       <set comment="band 23">
        <r>  0.0836  0.1350  0.0015  0.0086  0.2129  0.0056  0.0022  0.0024  0.0363 </r>
        <r>  0.0048  0.0077  0.0262  0.0005  0.0121  0.0987  0.0001  0.0414  0.0021 </r>
       </set>
       <set comment="band 24">
        <r>  0.0048  0.0077  0.0262  0.0005  0.0121  0.0987  0.0001  0.0414  0.0021 </r>
        <r>  0.0836  0.1350  0.0015  0.0086  0.2129  0.0056  0.0022  0.0024  0.0363 </r>
       </set>
      </set>
      <set comment="kpoint 95">
       <set comment="band 1">
        <r>  0.0000  0.0045  0.0000  0.0045  0.0125  0.1882  0.0000  0.1882  0.0125 </r>
        <r>  0.0000  0.0486  0.0000  0.0486  0.1363  0.0173  0.0000  0.0173  0.1363 </r>
       </set>
       <set comment="band 2">
        <r>  0.0000  0.0486  0.0000  0.0486  0.1363  0.0173  0.0000  0.0173  0.1363 </r>
        <r>  0.0000  0.0045  0.0000  0.0045  0.0125  0.1882  0.0000  0.1882  0.0125 </r>
       </set>
       <set comment="band 3">
        <r>  0.0579  0.0000  0.0000  0.0000  0.0000  0.0225  0.2396  0.0225  0.0000 </r>
        <r>  0.0049  0.0000  0.0000  0.0000  0.0000  0.2649  0.0203  0.2649  0.0000 </r>
       </set>
       <set comment="band 4">
        <r>  0.0049  0.0000  0.0000  0.0000  0.0000  0.2649  0.0203  0.2649  0.0000 </r>
        <r>  0.0579  0.0000  0.0000  0.0000  0.0000  0.0225  0.2396  0.0225  0.0000 </r>
       </set>
       <set comment="band 5">
        <r>  0.0000  0.0464  0.0078  0.0464  0.2846  0.0000  0.0000  0.0000  0.2846 </r>
        <r>  0.0000  0.0112  0.0324  0.0112  0.0683  0.0000  0.0000  0.0000  0.0683 </r>
       </set>
       <set comment="band 6">
        <r>  0.0000  0.0112  0.0324  0.0112  0.0683  0.0000  0.0000  0.0000  0.0683 </r>
        <r>  0.0000  0.0464  0.0078  0.0464  0.2846  0.0000  0.0000  0.0000  0.2846 </r>
       </set>
       <set comment="band 7">
        <r>  0.0000  0.0027  0.0000  0.0027  0.2380  0.0157  0.0000  0.0157  0.2380 </r>
        <r>  0.0000  0.0002  0.0000  0.0002  0.0183  0.2046  0.0000  0.2046  0.0183 </r>
       </set>
       <set comment="band 8">
        <r>  0.0000  0.0002  0.0000  0.0002  0.0183  0.2046  0.0000  0.2046  0.0183 </r>
        <r>  0.0000  0.0027  0.0000  0.0027  0.2380  0.0157  0.0000  0.0157  0.2380 </r>
       </set>
       <set comment="band 9">
        <r>  0.0003  0.0000  0.0000  0.0000  0.0000  0.1287  0.0664  0.1287  0.0000 </r>
        <r>  0.0030  0.0000  0.0000  0.0000  0.0000  0.0136  0.6298  0.0136  0.0000 </r>
       </set>
       <set comment="band 10">
        <r>  0.0030  0.0000  0.0000  0.0000  0.0000  0.0136  0.6298  0.0136  0.0000 </r>
        <r>  0.0003  0.0000  0.0000  0.0000  0.0000  0.1287  0.0664  0.1287  0.0000 </r>
       </set>
       <set comment="band 11">
        <r>  0.0000  0.0182  0.1296  0.0182  0.0216  0.0000  0.0000  0.0000  0.0216 </r>
        <r>  0.0000  0.1276  0.0185  0.1276  0.1518  0.0000  0.0000  0.0000  0.1518 </r>
       </set>
       <set comment="band 12">
        <r>  0.0000  0.1276  0.0185  0.1276  0.1518  0.0000  0.0000  0.0000  0.1518 </r>
        <r>  0.0000  0.0182  0.1296  0.0182  0.0216  0.0000  0.0000  0.0000  0.0216 </r>
       </set>
       <set comment="band 13">
        <r>  0.0000  0.0993  0.0000  0.0993  0.0769  0.0330  0.0000  0.0330  0.0769 </r>
        <r>  0.0000  0.0640  0.0000  0.0640  0.0496  0.0511  0.0000  0.0511  0.0496 </r>
       </set>
       <set comment="band 14">
        <r>  0.0000  0.0640  0.0000  0.0640  0.0496  0.0511  0.0000  0.0511  0.0496 </r>
        <r>  0.0000  0.0993  0.0000  0.0993  0.0769  0.0330  0.0000  0.0330  0.0769 </r>
       </set>
       <set comment="band 15">
        <r>  0.1467  0.0000  0.0000  0.0000  0.0000  0.0829  0.0112  0.0829  0.0000 </r>
        <r>  0.3866  0.0000  0.0000  0.0000  0.0000  0.0315  0.0296  0.0315  0.0000 </r>
       </set>
       <set comment="band 16">
        <r>  0.3866  0.0000  0.0000  0.0000  0.0000  0.0315  0.0296  0.0315  0.0000 </r>
        <r>  0.1467  0.0000  0.0000  0.0000  0.0000  0.0829  0.0112  0.0829  0.0000 </r>
       </set>
       <set comment="band 17">
        <r>  0.0000  0.0551  0.0153  0.0551  0.0313  0.0000  0.0000  0.0000  0.0313 </r>
        <r>  0.0000  0.0020  0.4254  0.0020  0.0011  0.0000  0.0000  0.0000  0.0011 </r>
       </set>
       <set comment="band 18">
        <r>  0.0000  0.0020  0.4254  0.0020  0.0011  0.0000  0.0000  0.0000  0.0011 </r>
        <r>  0.0000  0.0551  0.0153  0.0551  0.0313  0.0000  0.0000  0.0000  0.0313 </r>
       </set>
       <set comment="band 19">
        <r>  0.0000  0.0189  0.0000  0.0189  0.0066  0.1103  0.0000  0.1103  0.0066 </r>
        <r>  0.0000  0.0349  0.0000  0.0349  0.0121  0.0598  0.0000  0.0598  0.0121 </r>
       </set>
       <set comment="band 20">
        <r>  0.0000  0.0349  0.0000  0.0349  0.0121  0.0598  0.0000  0.0598  0.0121 </r>
        <r>  0.0000  0.0189  0.0000  0.0189  0.0066  0.1103  0.0000  0.1103  0.0066 </r>
       </set>
       <set comment="band 21">
        <r>  0.0998  0.0000  0.0000  0.0000  0.0000  0.0050  0.3486  0.0050  0.0000 </r>
        <r>  0.0054  0.0000  0.0000  0.0000  0.0000  0.0924  0.0190  0.0924  0.0000 </r>
       </set>
       <set comment="band 22">
        <r>  0.0054  0.0000  0.0000  0.0000  0.0000  0.0924  0.0190  0.0924  0.0000 </r>
        <r>  0.0998  0.0000  0.0000  0.0000  0.0000  0.0050  0.3486  0.0050  0.0000 </r>
       </set>
       <set comment="band 23">
        <r>  0.0000  0.0149  0.0000  0.0147  0.0341  0.0482  0.0000  0.0482  0.0337 </r>
        <r>  0.0000  0.0655  0.0000  0.0652  0.1500  0.0109  0.0000  0.0109  0.1495 </r>
       </set>
       <set comment="band 24">
        <r>  0.0000  0.0655  0.0000  0.0652  0.1501  0.0109  0.0000  0.0109  0.1494 </r>
        <r>  0.0000  0.0148  0.0000  0.0148  0.0339  0.0482  0.0000  0.0482  0.0338 </r>
       </set>
      </set>
     </set>
    </set>
   </array>
  </projected>
 </calculation>
 <structure name="finalpos" >
  <crystal>
   <varray name="basis" >
    <v>       1.29598332      -2.24470895       0.00000000 </v>
    <v>       1.29598332       2.24470895       0.00000000 </v>
    <v>       0.00000000       0.00000000       4.18096476 </v>
   </varray>
   <i name="volume">     24.32573395 </i>
   <varray name="rec_basis" >
    <v>       0.38580744      -0.22274603       0.00000000 </v>
    <v>       0.38580744       0.22274603       0.00000000 </v>
    <v>       0.00000000       0.00000000       0.23917925 </v>
   </varray>
  </crystal>
  <varray name="positions" >
   <v>       0.33333333       0.66666667       0.25000000 </v>
   <v>       0.66666667       0.33333333       0.75000000 </v>
  </varray>
 </structure>
</modeling>
