   2   2   0   0
  0.2137190E+02  0.2470000E-09  0.2470000E-09  0.8090000E-09  0.5000000E-15
  1.000000000000000E-004
  CAR 
 Co fcc                                  
     21.97530590     -5.00501477  301      3.01907089      1.00000000
     -5.005  0.0000E+00  0.0000E+00  0.0000E+00  0.0000E+00
     -4.915  0.0000E+00  0.0000E+00  0.0000E+00  0.0000E+00
     -4.825  0.0000E+00  0.0000E+00  0.0000E+00  0.0000E+00
     -4.735  0.0000E+00  0.0000E+00  0.0000E+00  0.0000E+00
     -4.645 -0.1098E-29  0.0000E+00 -0.9877E-31  0.0000E+00
     -4.555 -0.1370E-26  0.0000E+00 -0.1233E-27  0.0000E+00
     -4.465 -0.1128E-23  0.0000E+00 -0.1015E-24  0.0000E+00
     -4.375 -0.6179E-21 -0.2547E-28 -0.5567E-22 -0.2290E-29
     -4.286 -0.2253E-18 -0.2631E-25 -0.2032E-19 -0.2369E-26
     -4.196 -0.5468E-16 -0.1810E-22 -0.4938E-17 -0.1630E-23
     -4.106 -0.8536E-14 -0.8277E-20 -0.7726E-15 -0.7460E-21
     -4.016 -0.9116E-12 -0.2517E-17 -0.8276E-13 -0.2271E-18
     -3.926 -0.6456E-10 -0.4958E-15 -0.5889E-11 -0.4481E-16
     -3.836 -0.3029E-08 -0.6589E-13 -0.2783E-09 -0.5971E-14
     -3.746 -0.9391E-07 -0.5833E-11 -0.8724E-08 -0.5305E-12
     -3.656 -0.1915E-05 -0.3418E-09 -0.1809E-06 -0.3127E-10
     -3.566 -0.2546E-04 -0.1324E-07 -0.2470E-05 -0.1222E-08
     -3.476 -0.2170E-03 -0.3377E-06 -0.2198E-04 -0.3159E-07
     -3.386 -0.1143E-02 -0.5645E-05 -0.1248E-03 -0.5392E-06
     -3.296 -0.3368E-02 -0.6121E-04 -0.4276E-03 -0.6044E-05
     -3.206 -0.3287E-02 -0.4215E-03 -0.7233E-03 -0.4395E-04
     -3.116  0.1140E-01 -0.1748E-02  0.3023E-03 -0.2011E-03
     -3.026  0.4794E-01 -0.3645E-02  0.4614E-02 -0.5289E-03
     -2.937  0.8594E-01  0.4960E-03  0.1234E-01 -0.4843E-03
     -2.847  0.9926E-01  0.2282E-01  0.2127E-01  0.1568E-02
     -2.757  0.9550E-01  0.5973E-01  0.2986E-01  0.6940E-02
     -2.667  0.9585E-01  0.8268E-01  0.3848E-01  0.1438E-01
     -2.577  0.9419E-01  0.7884E-01  0.4695E-01  0.2147E-01
     -2.487  0.6783E-01  0.6670E-01  0.5305E-01  0.2747E-01
     -2.397  0.1942E-01  0.5860E-01  0.5480E-01  0.3274E-01
     -2.307 -0.2280E-01  0.6032E-01  0.5275E-01  0.3816E-01
     -2.217 -0.1424E-01  0.7040E-01  0.5147E-01  0.4449E-01
     -2.127  0.1178E+00  0.6070E-01  0.6206E-01  0.4995E-01
     -2.037  0.3758E+00  0.2116E-01  0.9585E-01  0.5185E-01
     -1.947  0.6034E+00  0.1205E-01  0.1501E+00  0.5294E-01
     -1.857  0.6881E+00  0.1263E+00  0.2120E+00  0.6430E-01
     -1.767  0.6977E+00  0.3465E+00  0.2748E+00  0.9546E-01
     -1.677  0.6515E+00  0.4952E+00  0.3334E+00  0.1400E+00
     -1.588  0.4616E+00  0.4803E+00  0.3749E+00  0.1832E+00
     -1.498  0.1845E+00  0.4067E+00  0.3915E+00  0.2198E+00
     -1.408 -0.9268E-02  0.3563E+00  0.3906E+00  0.2518E+00
     -1.318 -0.7694E-01  0.3682E+00  0.3837E+00  0.2849E+00
     -1.228 -0.2957E-01  0.4391E+00  0.3810E+00  0.3244E+00
     -1.138  0.2308E+00  0.4235E+00  0.4018E+00  0.3625E+00
     -1.048  0.7609E+00  0.2550E+00  0.4702E+00  0.3854E+00
     -0.958  0.1356E+01  0.7268E-01  0.5922E+00  0.3920E+00
     -0.868  0.1552E+01 -0.9607E-02  0.7318E+00  0.3911E+00
     -0.778  0.1032E+01 -0.1650E-01  0.8246E+00  0.3896E+00
     -0.688  0.4220E+00 -0.6556E-02  0.8626E+00  0.3890E+00
     -0.598  0.1066E+01 -0.1557E-02  0.9585E+00  0.3889E+00
     -0.508  0.3073E+01 -0.1379E-02  0.1235E+01  0.3888E+00
     -0.418  0.4495E+01 -0.6457E-02  0.1639E+01  0.3882E+00
     -0.328  0.4244E+01 -0.2005E-01  0.2021E+01  0.3864E+00
     -0.238  0.3729E+01 -0.2568E-01  0.2356E+01  0.3841E+00
     -0.149  0.3708E+01  0.3951E-01  0.2690E+01  0.3876E+00
     -0.059  0.3516E+01  0.2247E+00  0.3006E+01  0.4078E+00
      0.031  0.3402E+01  0.4845E+00  0.3312E+01  0.4514E+00
      0.121  0.3628E+01  0.8179E+00  0.3638E+01  0.5250E+00
      0.211  0.3313E+01  0.1342E+01  0.3936E+01  0.6457E+00
      0.301  0.2377E+01  0.1956E+01  0.4150E+01  0.8216E+00
      0.391  0.2073E+01  0.2165E+01  0.4336E+01  0.1016E+01
      0.481  0.2577E+01  0.1613E+01  0.4568E+01  0.1161E+01
      0.571  0.2748E+01  0.6577E+00  0.4815E+01  0.1221E+01
      0.661  0.2979E+01 -0.3558E-01  0.5083E+01  0.1217E+01
      0.751  0.4873E+01 -0.9788E-01  0.5521E+01  0.1209E+01
      0.841  0.7489E+01  0.7137E+00  0.6195E+01  0.1273E+01
      0.931  0.7919E+01  0.2104E+01  0.6907E+01  0.1462E+01
      1.021  0.6348E+01  0.2709E+01  0.7478E+01  0.1706E+01
      1.111  0.5447E+01  0.1786E+01  0.7968E+01  0.1866E+01
      1.200  0.5318E+01  0.4553E+00  0.8446E+01  0.1907E+01
      1.290  0.4796E+01 -0.1573E+00  0.8877E+01  0.1893E+01
      1.380  0.4281E+01 -0.1176E+00  0.9262E+01  0.1882E+01
      1.470  0.3736E+01  0.2376E+00  0.9598E+01  0.1904E+01
      1.560  0.2455E+01  0.9773E+00  0.9819E+01  0.1992E+01
      1.650  0.9465E+00  0.2487E+01  0.9904E+01  0.2215E+01
      1.740  0.1917E+00  0.4682E+01  0.9921E+01  0.2636E+01
      1.830  0.2907E+00  0.6269E+01  0.9948E+01  0.3200E+01
      1.920  0.8465E+00  0.5885E+01  0.1002E+02  0.3729E+01
      2.010  0.1506E+01  0.3839E+01  0.1016E+02  0.4075E+01
      2.100  0.1834E+01  0.1929E+01  0.1032E+02  0.4248E+01
      2.190  0.1607E+01  0.1552E+01  0.1047E+02  0.4388E+01
      2.280  0.1135E+01  0.2166E+01  0.1057E+02  0.4583E+01
      2.370  0.9307E+00  0.2265E+01  0.1065E+02  0.4786E+01
      2.460  0.1203E+01  0.1728E+01  0.1076E+02  0.4942E+01
      2.549  0.1483E+01  0.1791E+01  0.1090E+02  0.5103E+01
      2.639  0.1208E+01  0.2922E+01  0.1100E+02  0.5366E+01
      2.729  0.6051E+00  0.4034E+01  0.1106E+02  0.5728E+01
      2.819  0.1899E+00  0.4109E+01  0.1108E+02  0.6098E+01
      2.909  0.3440E-01  0.3789E+01  0.1108E+02  0.6439E+01
      2.999 -0.8397E-02  0.4274E+01  0.1108E+02  0.6823E+01
      3.089 -0.1388E-01  0.5359E+01  0.1108E+02  0.7305E+01
      3.179 -0.7698E-02  0.5718E+01  0.1108E+02  0.7819E+01
      3.269 -0.3459E-02  0.4933E+01  0.1108E+02  0.8263E+01
      3.359 -0.5149E-02  0.4187E+01  0.1108E+02  0.8639E+01
      3.449 -0.8941E-02  0.4267E+01  0.1108E+02  0.9023E+01
      3.539  0.6686E-02  0.4300E+01  0.1108E+02  0.9410E+01
      3.629  0.7069E-01  0.3440E+01  0.1108E+02  0.9719E+01
      3.719  0.1513E+00  0.2318E+01  0.1110E+02  0.9928E+01
      3.809  0.1552E+00  0.1720E+01  0.1111E+02  0.1008E+02
      3.898  0.7163E-01  0.1699E+01  0.1112E+02  0.1024E+02
      3.988  0.1474E-01  0.2221E+01  0.1112E+02  0.1043E+02
      4.078  0.8866E-01  0.2638E+01  0.1113E+02  0.1067E+02
      4.168  0.2684E+00  0.2013E+01  0.1115E+02  0.1085E+02
      4.258  0.3779E+00  0.7646E+00  0.1118E+02  0.1092E+02
      4.348  0.2846E+00 -0.1958E-01  0.1121E+02  0.1092E+02
      4.438  0.1001E+00 -0.7479E-01  0.1122E+02  0.1091E+02
      4.528 -0.4176E-02  0.3239E+00  0.1122E+02  0.1094E+02
      4.618 -0.1833E-01  0.7842E+00  0.1122E+02  0.1101E+02
      4.708 -0.1095E-01  0.8348E+00  0.1122E+02  0.1109E+02
      4.798 -0.1929E-01  0.4462E+00  0.1121E+02  0.1113E+02
      4.888 -0.4726E-01  0.1068E+00  0.1121E+02  0.1114E+02
      4.978 -0.3376E-01  0.1105E+00  0.1121E+02  0.1115E+02
      5.068  0.1875E+00  0.2785E+00  0.1122E+02  0.1117E+02
      5.158  0.6885E+00  0.3544E+00  0.1128E+02  0.1120E+02
      5.248  0.1188E+01  0.3443E+00  0.1139E+02  0.1124E+02
      5.337  0.1409E+01  0.3525E+00  0.1152E+02  0.1127E+02
      5.427  0.1466E+01  0.3573E+00  0.1165E+02  0.1130E+02
      5.517  0.1369E+01  0.3330E+00  0.1177E+02  0.1133E+02
      5.607  0.9910E+00  0.2895E+00  0.1186E+02  0.1136E+02
      5.697  0.6846E+00  0.1931E+00  0.1192E+02  0.1137E+02
      5.787  0.7730E+00  0.5362E-01  0.1199E+02  0.1138E+02
      5.877  0.9033E+00 -0.1191E-01  0.1207E+02  0.1138E+02
      5.967  0.7256E+00  0.1774E+00  0.1214E+02  0.1139E+02
      6.057  0.3992E+00  0.7069E+00  0.1218E+02  0.1146E+02
      6.147  0.2089E+00  0.1264E+01  0.1219E+02  0.1157E+02
      6.237  0.2440E+00  0.1406E+01  0.1222E+02  0.1170E+02
      6.327  0.3268E+00  0.1195E+01  0.1225E+02  0.1180E+02
      6.417  0.2541E+00  0.9035E+00  0.1227E+02  0.1189E+02
      6.507  0.1024E+00  0.6758E+00  0.1228E+02  0.1195E+02
      6.597  0.5523E-01  0.6744E+00  0.1228E+02  0.1201E+02
      6.686  0.1250E+00  0.8309E+00  0.1229E+02  0.1208E+02
      6.776  0.2249E+00  0.8868E+00  0.1231E+02  0.1216E+02
      6.866  0.3158E+00  0.7446E+00  0.1234E+02  0.1223E+02
      6.956  0.3561E+00  0.4521E+00  0.1238E+02  0.1227E+02
      7.046  0.3359E+00  0.1901E+00  0.1241E+02  0.1229E+02
      7.136  0.3314E+00  0.1096E+00  0.1244E+02  0.1230E+02
      7.226  0.3142E+00  0.1180E+00  0.1246E+02  0.1231E+02
      7.316  0.2396E+00  0.1178E+00  0.1248E+02  0.1232E+02
      7.406  0.2363E+00  0.2001E+00  0.1251E+02  0.1233E+02
      7.496  0.3106E+00  0.3913E+00  0.1253E+02  0.1237E+02
      7.586  0.2744E+00  0.5251E+00  0.1256E+02  0.1242E+02
      7.676  0.1398E+00  0.4611E+00  0.1257E+02  0.1246E+02
      7.766  0.9535E-01  0.2472E+00  0.1258E+02  0.1248E+02
      7.856  0.1440E+00  0.9225E-01  0.1259E+02  0.1249E+02
      7.946  0.1376E+00  0.1498E+00  0.1261E+02  0.1250E+02
      8.035  0.5176E-01  0.2977E+00  0.1261E+02  0.1253E+02
      8.125 -0.1373E-02  0.2956E+00  0.1261E+02  0.1256E+02
      8.215  0.7352E-01  0.1588E+00  0.1262E+02  0.1257E+02
      8.305  0.2479E+00  0.9651E-01  0.1264E+02  0.1258E+02
      8.395  0.3416E+00  0.1369E+00  0.1267E+02  0.1259E+02
      8.485  0.2391E+00  0.1324E+00  0.1269E+02  0.1260E+02
      8.575  0.6943E-01  0.6179E-01  0.1270E+02  0.1261E+02
      8.665 -0.1919E-01  0.6997E-01  0.1270E+02  0.1262E+02
      8.755 -0.3462E-01  0.2170E+00  0.1269E+02  0.1263E+02
      8.845 -0.2472E-02  0.3363E+00  0.1269E+02  0.1266E+02
      8.935  0.1147E+00  0.2641E+00  0.1270E+02  0.1269E+02
      9.025  0.2894E+00  0.9374E-01  0.1273E+02  0.1270E+02
      9.115  0.4059E+00 -0.5825E-02  0.1276E+02  0.1270E+02
      9.205  0.4619E+00 -0.2495E-01  0.1281E+02  0.1269E+02
      9.295  0.5390E+00 -0.2612E-01  0.1285E+02  0.1269E+02
      9.384  0.5714E+00 -0.5548E-02  0.1291E+02  0.1269E+02
      9.474  0.4449E+00  0.1014E+00  0.1295E+02  0.1270E+02
      9.564  0.2604E+00  0.2962E+00  0.1297E+02  0.1273E+02
      9.654  0.2659E+00  0.4588E+00  0.1299E+02  0.1277E+02
      9.744  0.6045E+00  0.4767E+00  0.1305E+02  0.1281E+02
      9.834  0.1137E+01  0.3320E+00  0.1315E+02  0.1284E+02
      9.924  0.1435E+01  0.1519E+00  0.1328E+02  0.1285E+02
     10.014  0.1237E+01  0.2125E+00  0.1339E+02  0.1287E+02
     10.104  0.7655E+00  0.6238E+00  0.1346E+02  0.1293E+02
     10.194  0.3575E+00  0.1074E+01  0.1349E+02  0.1303E+02
     10.284  0.1495E+00  0.1198E+01  0.1350E+02  0.1313E+02
     10.374  0.1301E+00  0.1057E+01  0.1352E+02  0.1323E+02
     10.464  0.1720E+00  0.8904E+00  0.1353E+02  0.1331E+02
     10.554  0.1447E+00  0.7365E+00  0.1355E+02  0.1338E+02
     10.644  0.1259E+00  0.5511E+00  0.1356E+02  0.1343E+02
     10.734  0.3077E+00  0.3862E+00  0.1358E+02  0.1346E+02
     10.823  0.6150E+00  0.2847E+00  0.1364E+02  0.1349E+02
     10.913  0.7083E+00  0.2197E+00  0.1370E+02  0.1351E+02
     11.003  0.5313E+00  0.2010E+00  0.1375E+02  0.1352E+02
     11.093  0.3481E+00  0.3179E+00  0.1378E+02  0.1355E+02
     11.183  0.3465E+00  0.5944E+00  0.1381E+02  0.1361E+02
     11.273  0.6313E+00  0.7578E+00  0.1387E+02  0.1367E+02
     11.363  0.1018E+01  0.5536E+00  0.1396E+02  0.1372E+02
     11.453  0.1037E+01  0.2349E+00  0.1405E+02  0.1374E+02
     11.543  0.6681E+00  0.1519E+00  0.1412E+02  0.1376E+02
     11.633  0.3834E+00  0.2565E+00  0.1415E+02  0.1378E+02
     11.723  0.4268E+00  0.3773E+00  0.1419E+02  0.1382E+02
     11.813  0.6652E+00  0.5739E+00  0.1425E+02  0.1387E+02
     11.903  0.9443E+00  0.9495E+00  0.1433E+02  0.1395E+02
     11.993  0.1198E+01  0.1220E+01  0.1444E+02  0.1406E+02
     12.083  0.1249E+01  0.1032E+01  0.1455E+02  0.1415E+02
     12.172  0.9635E+00  0.5856E+00  0.1464E+02  0.1421E+02
     12.262  0.5620E+00  0.2647E+00  0.1469E+02  0.1423E+02
     12.352  0.3210E+00  0.1599E+00  0.1472E+02  0.1425E+02
     12.442  0.2229E+00  0.3093E+00  0.1474E+02  0.1427E+02
     12.532  0.3156E+00  0.7528E+00  0.1477E+02  0.1434E+02
     12.622  0.7304E+00  0.1215E+01  0.1483E+02  0.1445E+02
     12.712  0.1099E+01  0.1274E+01  0.1493E+02  0.1456E+02
     12.802  0.9299E+00  0.9726E+00  0.1502E+02  0.1465E+02
     12.892  0.4520E+00  0.7736E+00  0.1506E+02  0.1472E+02
     12.982  0.1709E+00  0.8009E+00  0.1507E+02  0.1479E+02
     13.072  0.1080E+00  0.8298E+00  0.1508E+02  0.1487E+02
     13.162  0.6652E-01  0.8657E+00  0.1509E+02  0.1495E+02
     13.252  0.7143E-01  0.8702E+00  0.1509E+02  0.1502E+02
     13.342  0.2044E+00  0.6057E+00  0.1511E+02  0.1508E+02
     13.432  0.3305E+00  0.2014E+00  0.1514E+02  0.1510E+02
     13.521  0.2684E+00 -0.2043E-01  0.1517E+02  0.1510E+02
     13.611  0.8875E-01 -0.5153E-01  0.1517E+02  0.1509E+02
     13.701 -0.8802E-02 -0.3360E-01  0.1517E+02  0.1509E+02
     13.791  0.5876E-01  0.1574E-01  0.1518E+02  0.1509E+02
     13.881  0.2229E+00  0.1526E+00  0.1520E+02  0.1510E+02
     13.971  0.3320E+00  0.3053E+00  0.1523E+02  0.1513E+02
     14.061  0.3717E+00  0.2889E+00  0.1526E+02  0.1516E+02
     14.151  0.4805E+00  0.1304E+00  0.1530E+02  0.1517E+02
     14.241  0.6558E+00  0.1291E+00  0.1536E+02  0.1518E+02
     14.331  0.7911E+00  0.4279E+00  0.1543E+02  0.1522E+02
     14.421  0.7798E+00  0.7041E+00  0.1551E+02  0.1528E+02
     14.511  0.5251E+00  0.5905E+00  0.1555E+02  0.1533E+02
     14.601  0.1747E+00  0.2674E+00  0.1557E+02  0.1536E+02
     14.691 -0.2285E-01  0.1496E+00  0.1557E+02  0.1537E+02
     14.781 -0.5268E-01  0.3230E+00  0.1556E+02  0.1540E+02
     14.870  0.9856E-02  0.5886E+00  0.1556E+02  0.1545E+02
     14.960  0.1617E+00  0.6583E+00  0.1558E+02  0.1551E+02
     15.050  0.3198E+00  0.4355E+00  0.1561E+02  0.1555E+02
     15.140  0.3119E+00  0.2082E+00  0.1563E+02  0.1557E+02
     15.230  0.1506E+00  0.2247E+00  0.1565E+02  0.1559E+02
     15.320  0.1727E-01  0.3141E+00  0.1565E+02  0.1562E+02
     15.410 -0.1771E-01  0.2414E+00  0.1565E+02  0.1564E+02
     15.500 -0.9930E-02  0.8000E-01  0.1565E+02  0.1565E+02
     15.590 -0.2471E-02 -0.7626E-02  0.1565E+02  0.1565E+02
     15.680 -0.3543E-03 -0.1599E-01  0.1565E+02  0.1565E+02
     15.770 -0.3202E-04 -0.5947E-02  0.1565E+02  0.1565E+02
     15.860 -0.1400E-04 -0.1156E-02  0.1565E+02  0.1565E+02
     15.950 -0.1614E-03 -0.1345E-03  0.1565E+02  0.1565E+02
     16.040 -0.1336E-02 -0.1019E-04  0.1565E+02  0.1565E+02
     16.130 -0.6584E-02 -0.8190E-05  0.1565E+02  0.1565E+02
     16.220 -0.1659E-01 -0.1098E-03  0.1564E+02  0.1565E+02
     16.309 -0.4233E-02 -0.9829E-03  0.1564E+02  0.1565E+02
     16.399  0.9312E-01 -0.5310E-02  0.1565E+02  0.1565E+02
     16.489  0.2631E+00 -0.1535E-01  0.1568E+02  0.1564E+02
     16.579  0.3385E+00 -0.1117E-01  0.1571E+02  0.1564E+02
     16.669  0.2296E+00  0.6785E-01  0.1573E+02  0.1565E+02
     16.759  0.8706E-01  0.2364E+00  0.1573E+02  0.1567E+02
     16.849  0.4001E-01  0.3546E+00  0.1574E+02  0.1570E+02
     16.939  0.3865E-01  0.2939E+00  0.1574E+02  0.1573E+02
     17.029  0.2230E-01  0.1408E+00  0.1574E+02  0.1574E+02
     17.119  0.2952E-02  0.3513E-01  0.1574E+02  0.1574E+02
     17.209 -0.3281E-02 -0.2325E-02  0.1574E+02  0.1574E+02
     17.299 -0.3832E-02 -0.7274E-02  0.1574E+02  0.1574E+02
     17.389 -0.9262E-02 -0.4154E-02  0.1574E+02  0.1574E+02
     17.479 -0.1780E-01 -0.3376E-02  0.1574E+02  0.1574E+02
     17.569  0.9152E-02 -0.9545E-02  0.1574E+02  0.1574E+02
     17.658  0.1317E+00 -0.1779E-01  0.1575E+02  0.1574E+02
     17.748  0.2985E+00  0.1294E-01  0.1578E+02  0.1574E+02
     17.838  0.3271E+00  0.1408E+00  0.1581E+02  0.1575E+02
     17.928  0.1745E+00  0.3054E+00  0.1583E+02  0.1578E+02
     18.018  0.1469E-01  0.3252E+00  0.1583E+02  0.1581E+02
     18.108 -0.1207E-01  0.1740E+00  0.1583E+02  0.1583E+02
     18.198  0.1206E+00  0.2513E-01  0.1584E+02  0.1583E+02
     18.288  0.3473E+00 -0.3042E-01  0.1587E+02  0.1583E+02
     18.378  0.4731E+00 -0.3008E-01  0.1591E+02  0.1582E+02
     18.468  0.3580E+00  0.2823E-01  0.1594E+02  0.1583E+02
     18.558  0.1334E+00  0.1964E+00  0.1595E+02  0.1584E+02
     18.648  0.4958E-02  0.4139E+00  0.1595E+02  0.1588E+02
     18.738 -0.4077E-02  0.4802E+00  0.1595E+02  0.1592E+02
     18.828  0.1849E-01  0.3180E+00  0.1596E+02  0.1595E+02
     18.918  0.2090E-01  0.1004E+00  0.1596E+02  0.1596E+02
     19.007  0.8531E-02 -0.7418E-02  0.1596E+02  0.1596E+02
     19.097 -0.5003E-04 -0.1935E-01  0.1596E+02  0.1596E+02
     19.187 -0.1428E-02 -0.7894E-02  0.1596E+02  0.1596E+02
     19.277 -0.6133E-03 -0.1740E-02  0.1596E+02  0.1596E+02
     19.367 -0.2078E-03 -0.2708E-03  0.1596E+02  0.1596E+02
     19.457 -0.6725E-03 -0.3412E-03  0.1596E+02  0.1596E+02
     19.547 -0.3253E-02 -0.1934E-02  0.1596E+02  0.1596E+02
     19.637 -0.8257E-02 -0.6479E-02  0.1596E+02  0.1596E+02
     19.727 -0.2292E-02 -0.7641E-02  0.1596E+02  0.1596E+02
     19.817  0.4607E-01  0.2196E-01  0.1596E+02  0.1596E+02
     19.907  0.1316E+00  0.1002E+00  0.1597E+02  0.1597E+02
     19.997  0.1709E+00  0.1677E+00  0.1599E+02  0.1598E+02
     20.087  0.1141E+00  0.1434E+00  0.1600E+02  0.1600E+02
     20.177  0.3141E-01  0.5841E-01  0.1600E+02  0.1600E+02
     20.267 -0.5969E-02  0.1741E-02  0.1600E+02  0.1600E+02
     20.356 -0.7311E-02 -0.8731E-02  0.1600E+02  0.1600E+02
     20.446 -0.2439E-02 -0.3962E-02  0.1600E+02  0.1600E+02
     20.536 -0.4387E-03 -0.8748E-03  0.1600E+02  0.1600E+02
     20.626 -0.4772E-04 -0.1136E-03  0.1600E+02  0.1600E+02
     20.716 -0.3274E-05 -0.9201E-05  0.1600E+02  0.1600E+02
     20.806 -0.1446E-06 -0.4768E-06  0.1600E+02  0.1600E+02
     20.896 -0.4160E-08 -0.1603E-07  0.1600E+02  0.1600E+02
     20.986 -0.7841E-10 -0.3525E-09  0.1600E+02  0.1600E+02
     21.076 -0.9731E-12 -0.5096E-11  0.1600E+02  0.1600E+02
     21.166 -0.8024E-14 -0.4856E-13  0.1600E+02  0.1600E+02
     21.256  0.0000E+00 -0.3086E-15  0.1600E+02  0.1600E+02
     21.346  0.0000E+00  0.0000E+00  0.1600E+02  0.1600E+02
     21.436  0.0000E+00  0.0000E+00  0.1600E+02  0.1600E+02
     21.526  0.0000E+00  0.0000E+00  0.1600E+02  0.1600E+02
     21.616  0.0000E+00  0.0000E+00  0.1600E+02  0.1600E+02
     21.706  0.0000E+00  0.0000E+00  0.1600E+02  0.1600E+02
     21.795  0.0000E+00  0.0000E+00  0.1600E+02  0.1600E+02
     21.885  0.0000E+00  0.0000E+00  0.1600E+02  0.1600E+02
     21.975  0.0000E+00  0.0000E+00  0.1600E+02  0.1600E+02
