Pt-hcc                                  
   1.00000000000000     
     2.615324    0.000000    0.000000
    -1.307662    2.264937    0.000000
     0.000000    0.000000    4.530987
   Pt
     2
Direct
  0.000000  0.000000  0.000000
  0.333333  0.666667  0.500000
 
   36   36   64
  235.12      234.80      233.20      228.69      219.28      203.58      181.43      154.24      124.69      95.965    
  70.845      51.035      36.876      27.546      21.543      17.606      15.198      13.923      13.526      13.923    
  15.198      17.606      21.543      27.546      36.876      51.035      70.845      95.965      124.69      154.24    
  181.43      203.58      219.28      228.69      233.20      234.80      234.80      234.80      233.83      230.73    
  223.67      210.92      191.71      166.72      138.07      108.76      81.825      59.520      42.819      31.410    
  24.056      19.234      16.153      14.373      13.568      13.568      14.373      16.153      19.234      24.056    
  31.410      42.819      59.520      81.825      108.76      138.07      166.72      191.71      210.92      223.67    
  230.73      233.83      233.20      233.84      233.20      230.73      225.01      214.36      197.70      175.09    
  148.04      119.16      91.463      67.494      48.746      35.420      26.642      20.939      17.184      14.889    
  13.672      13.294      13.672      14.889      17.184      20.939      26.642      35.420      48.746      67.494    
  91.463      119.16      148.04      175.09      197.70      214.36      225.01      230.73      228.69      230.76    
  230.76      228.69      223.67      214.36      199.65      179.25      154.15      126.46      98.942      74.223    
  54.117      39.266      29.185      22.619      18.238      15.443      13.827      13.095      13.095      13.827    
  15.443      18.238      22.619      29.185      39.266      54.117      74.223      98.942      126.46      154.15    
  179.25      199.65      214.36      223.67      219.28      223.70      225.06      223.70      219.28      210.92    
  197.70      179.25      156.20      130.20      103.66      79.080      58.402      42.584      31.497      24.161    
  19.246      15.999      14.013      12.960      12.631      12.960      14.013      15.999      19.246      24.161    
  31.497      42.584      58.402      79.080      103.66      130.20      156.20      179.25      197.70      210.92    
  203.58      210.96      214.43      214.43      210.96      203.58      191.71      175.09      154.15      130.20    
  105.28      81.622      61.163      45.025      33.358      25.459      20.132      16.516      14.210      12.873    
  12.266      12.266      12.873      14.210      16.516      20.132      25.459      33.358      45.025      61.163    
  81.622      105.28      130.20      154.15      175.09      191.71      181.43      191.75      197.77      199.73    
  197.77      191.75      181.43      166.72      148.04      126.46      103.66      81.622      62.116      46.319    
  34.569      26.405      20.826      16.950      14.392      12.822      11.985      11.723      11.985      12.822    
  14.392      16.950      20.826      26.405      34.569      46.319      62.116      81.622      103.66      126.46    
  148.04      166.72      154.24      166.75      175.14      179.33      179.33      175.14      166.75      154.24    
  138.07      119.16      98.942      79.080      61.163      46.319      34.989      26.906      21.268      17.264    
  14.540      12.794      11.774      11.308      11.308      11.774      12.794      14.540      17.264      21.268    
  26.906      34.989      46.319      61.163      79.080      98.942      119.16      138.07      124.69      138.07    
  148.06      154.18      156.24      154.18      148.06      138.07      124.69      108.76      91.463      74.223    
  58.402      45.025      34.569      26.906      21.420      17.429      14.636      12.780      11.628      11.006    
  10.810      11.006      11.628      12.780      14.636      17.429      21.420      26.906      34.569      45.025    
  58.402      74.223      91.463      108.76      95.965      108.74      119.14      126.44      130.19      130.19    
  126.44      119.14      108.74      95.965      81.825      67.494      54.117      42.584      33.358      26.405    
  21.268      17.429      14.669      12.774      11.540      10.807      10.467      10.467      10.807      11.540    
  12.774      14.669      17.429      21.268      26.405      33.358      42.584      54.117      67.494      81.825    
  70.845      81.789      91.405      98.873      103.59      105.20      103.59      98.873      91.405      81.789    
  70.845      59.520      48.746      39.266      31.497      25.459      20.826      17.265      14.636      12.774    
  11.512      10.709      10.266      10.125      10.266      10.709      11.512      12.774      14.636      17.264    
  20.826      25.459      31.497      39.266      48.746      59.520      51.035      59.474      67.411      74.113    
  78.954      81.488      81.488      78.954      74.113      67.411      59.474      51.035      42.819      35.420    
  29.185      24.161      20.132      16.951      14.540      12.780      11.540      10.709      10.199      9.9580    
  9.9580      10.199      10.709      11.540      12.780      14.540      16.950      20.132      24.161      29.185    
  35.420      42.819      36.876      42.771      48.652      53.985      58.242      60.986      61.933      60.986    
  58.242      53.985      48.652      42.771      36.876      31.410      26.642      22.619      19.246      16.516    
  14.392      12.794      11.628      10.807      10.266      9.9580      9.8580      9.9580      10.266      10.807    
  11.628      12.794      14.392      16.516      19.246      22.619      26.642      31.410      27.546      31.366    
  35.330      39.133      42.415      44.830      46.110      46.110      44.830      42.415      39.133      35.330    
  31.366      27.546      24.056      20.939      18.238      15.999      14.210      12.822      11.774      11.006    
  10.467      10.125      9.9580      9.9580      10.125      10.467      11.006      11.774      12.822      14.210    
  15.999      18.238      20.939      24.056      21.543      24.019      26.564      29.065      31.338      33.170    
  34.361      34.774      34.361      33.170      31.338      29.065      26.564      24.019      21.543      19.234    
  17.184      15.443      14.013      12.873      11.985      11.308      10.810      10.467      10.266      10.199    
  10.266      10.467      10.810      11.308      11.985      12.873      14.013      15.443      17.184      19.234    
  17.606      19.204      20.875      22.519      24.026      25.295      26.219      26.708      26.708      26.219    
  25.295      24.026      22.519      20.875      19.204      17.606      16.153      14.889      13.827      12.960    
  12.266      11.723      11.308      11.006      10.807      10.709      10.709      10.807      11.006      11.308    
  11.723      12.266      12.960      13.827      14.889      16.153      15.198      16.130      17.134      18.159    
  19.138      19.999      20.672      21.101      21.248      21.101      20.672      19.999      19.138      18.159    
  17.134      16.130      15.198      14.373      13.672      13.095      12.631      12.266      11.985      11.774    
  11.628      11.540      11.512      11.540      11.628      11.774      11.985      12.266      12.631      13.095    
  13.672      14.373      13.923      14.355      14.849      15.381      15.915      16.412      16.829      17.131    
  17.289      17.289      17.131      16.829      16.412      15.915      15.381      14.849      14.355      13.923    
  13.568      13.294      13.095      12.960      12.873      12.822      12.794      12.780      12.774      12.774    
  12.780      12.794      12.822      12.873      12.960      13.095      13.294      13.568      13.526      13.552    
  13.639      13.777      13.948      14.130      14.300      14.438      14.528      14.559      14.528      14.438    
  14.300      14.130      13.948      13.777      13.639      13.552      13.526      13.568      13.672      13.827    
  14.013      14.210      14.392      14.540      14.636      14.669      14.636      14.540      14.392      14.210    
  14.013      13.827      13.672      13.568      13.923      13.552      13.263      13.052      12.906      12.810    
  12.752      12.718      12.700      12.692      12.692      12.700      12.718      12.752      12.810      12.906    
  13.052      13.263      13.552      13.923      14.373      14.889      15.443      15.999      16.516      16.951    
  17.265      17.429      17.429      17.264      16.950      16.516      15.999      15.443      14.889      14.373    
  15.198      14.355      13.639      13.052      12.581      12.212      11.927      11.715      11.568      11.480    
  11.451      11.480      11.568      11.715      11.927      12.212      12.581      13.052      13.639      14.355    
  15.198      16.153      17.184      18.238      19.246      20.132      20.826      21.268      21.420      21.268    
  20.826      20.132      19.246      18.238      17.184      16.153      17.606      16.130      14.849      13.777    
  12.906      12.212      11.670      11.258      10.958      10.762      10.664      10.664      10.762      10.958    
  11.258      11.670      12.212      12.906      13.777      14.849      16.130      17.606      19.234      20.939    
  22.619      24.161      25.459      26.405      26.906      26.906      26.405      25.459      24.161      22.619    
  20.939      19.234      21.543      19.204      17.134      15.381      13.948      12.810      11.927      11.258    
  10.766      10.429      10.231      10.166      10.232      10.429      10.766      11.258      11.927      12.810    
  13.948      15.381      17.134      19.204      21.543      24.056      26.642      29.185      31.497      33.358    
  34.569      34.989      34.569      33.358      31.497      29.185      26.642      24.056      27.546      24.019    
  20.875      18.159      15.915      14.130      12.752      11.715      10.958      10.429      10.094      9.9303    
  9.9303      10.094      10.429      10.958      11.715      12.752      14.130      15.915      18.159      20.875    
  24.019      27.546      31.410      35.420      39.266      42.584      45.025      46.319      46.319      45.025    
  42.584      39.266      35.420      31.410      36.876      31.366      26.564      22.519      19.138      16.412    
  14.300      12.718      11.568      10.762      10.232      9.9303      9.8327      9.9303      10.232      10.762    
  11.568      12.718      14.300      16.412      19.138      22.519      26.564      31.366      36.876      42.819    
  48.746      54.117      58.402      61.163      62.116      61.163      58.402      54.117      48.746      42.819    
  51.035      42.771      35.330      29.065      24.026      19.999      16.829      14.438      12.700      11.480    
  10.664      10.166      9.9303      9.9303      10.166      10.664      11.480      12.700      14.438      16.829    
  19.999      24.026      29.065      35.330      42.771      51.035      59.520      67.494      74.223      79.080    
  81.622      81.622      79.080      74.223      67.494      59.520      70.845      59.474      48.652      39.133    
  31.338      25.295      20.672      17.131      14.528      12.692      11.451      10.664      10.232      10.094    
  10.231      10.664      11.451      12.692      14.528      17.131      20.672      25.295      31.338      39.133    
  48.652      59.474      70.845      81.825      91.463      98.942      103.66      105.28      103.66      98.942    
  91.463      81.825      95.965      81.789      67.411      53.985      42.415      33.170      26.219      21.101    
  17.289      14.559      12.692      11.480      10.762      10.429      10.429      10.762      11.480      12.692    
  14.559      17.289      21.101      26.219      33.170      42.415      53.985      67.411      81.789      95.965    
  108.76      119.16      126.46      130.20      130.20      126.46      119.16      108.76      124.69      108.74    
  91.405      74.113      58.242      44.830      34.361      26.708      21.248      17.289      14.528      12.700    
  11.568      10.958      10.766      10.958      11.568      12.700      14.528      17.289      21.248      26.708    
  34.361      44.830      58.242      74.113      91.405      108.74      124.69      138.07      148.04      154.15    
  156.20      154.15      148.04      138.07      154.24      138.07      119.14      98.873      78.954      60.986    
  46.110      34.774      26.708      21.101      17.131      14.438      12.718      11.715      11.258      11.258    
  11.715      12.718      14.438      17.131      21.101      26.708      34.774      46.110      60.986      78.954    
  98.873      119.14      138.07      154.24      166.72      175.09      179.25      179.25      175.09      166.72    
  181.43      166.75      148.06      126.44      103.59      81.488      61.933      46.110      34.361      26.219    
  20.672      16.829      14.300      12.752      11.927      11.670      11.927      12.752      14.300      16.829    
  20.672      26.219      34.361      46.110      61.933      81.488      103.59      126.44      148.06      166.75    
  181.43      191.71      197.70      199.65      197.70      191.71      203.58      191.75      175.14      154.18    
  130.19      105.20      81.488      60.986      44.830      33.170      25.295      19.999      16.412      14.130    
  12.810      12.212      12.212      12.810      14.130      16.412      19.999      25.295      33.170      44.830    
  60.986      81.488      105.20      130.19      154.18      175.14      191.75      203.58      210.92      214.36    
  214.36      210.92      219.28      210.96      197.77      179.33      156.24      130.19      103.59      78.954    
  58.242      42.415      31.338      24.026      19.138      15.915      13.948      12.906      12.581      12.906    
  13.948      15.915      19.138      24.026      31.338      42.415      58.242      78.954      103.59      130.19    
  156.24      179.33      197.77      210.96      219.28      223.67      225.01      223.67      228.69      223.70    
  214.43      199.73      179.33      154.18      126.44      98.873      74.113      53.985      39.133      29.065    
  22.519      18.159      15.381      13.777      13.052      13.052      13.777      15.381      18.159      22.519    
  29.065      39.133      53.985      74.113      98.873      126.44      154.18      179.33      199.73      214.43    
  223.70      228.69      230.73      230.73      233.20      230.76      225.06      214.43      197.77      175.14    
  148.06      119.14      91.405      67.411      48.652      35.330      26.564      20.875      17.134      14.849    
  13.639      13.263      13.639      14.849      17.134      20.875      26.564      35.330      48.652      67.411    
  91.405      119.14      148.06      175.14      197.77      214.43      225.06      230.76      233.20      233.83    
  234.80      233.84      230.76      223.70      210.96      191.75      166.75      138.07      108.74      81.789    
  59.474      42.771      31.366      24.019      19.204      16.130      14.355      13.552      13.552      14.355    
  16.130      19.204      24.019      31.366      42.771      59.474      81.789      108.74      138.07      166.75    
  191.75      210.96      223.70      230.76      233.84      234.80      234.98      234.58      232.77      227.95    
  218.21      202.22      179.90      152.69      123.25      94.744      69.902      50.367      36.435      27.263    
  21.346      17.461      15.087      13.829      13.438      13.829      15.087      17.461      21.346      27.263    
  36.435      50.367      69.902      94.744      123.25      152.69      179.90      202.22      218.21      227.95    
  232.77      234.58      234.58      234.58      233.47      230.11      222.72      209.67      190.24      165.16    
  136.56      107.42      80.749      58.726      42.278      31.061      23.824      19.066      16.027      14.272    
  13.477      13.477      14.272      16.027      19.066      23.824      31.061      42.278      58.726      80.749    
  107.42      136.56      165.16      190.24      209.67      222.72      230.11      233.47      232.77      233.48    
  232.77      230.11      224.11      213.18      196.27      173.53      146.49      117.75      90.282      66.590    
  48.109      35.000      26.370      20.746      17.042      14.778      13.578      13.205      13.578      14.778    
  17.042      20.746      26.370      35.000      48.109      66.590      90.282      117.75      146.49      173.53    
  196.27      213.18      224.11      230.11      227.95      230.13      230.13      227.95      222.72      213.18    
  198.25      177.71      152.58      125.00      97.687      73.232      53.397      38.780      28.869      22.403    
  18.080      15.323      13.729      13.007      13.007      13.729      15.323      18.080      22.403      28.869    
  38.780      53.397      73.232      97.687      125.00      152.58      177.71      198.25      213.18      222.72    
  218.21      222.76      224.17      222.76      218.21      209.67      196.27      177.71      154.63      128.72    
  102.37      78.030      57.618      42.042      31.140      23.923      19.073      15.870      13.911      12.871    
  12.547      12.871      13.911      15.870      19.073      23.923      31.140      42.042      57.618      78.030    
  102.37      128.72      154.63      177.71      196.27      209.67      202.22      209.72      213.26      213.26    
  209.72      202.22      190.24      173.53      152.58      128.72      103.96      80.543      60.340      44.442    
  32.968      25.200      19.946      16.378      14.103      12.784      12.185      12.185      12.784      14.103    
  16.378      19.946      25.200      32.968      44.442      60.340      80.543      103.96      128.72      152.58    
  173.53      190.24      179.90      190.28      196.35      198.34      196.35      190.28      179.90      165.16    
  146.49      125.00      102.37      80.543      61.279      45.715      34.158      26.131      20.630      16.806    
  14.282      12.732      11.905      11.647      11.905      12.732      14.282      16.806      20.630      26.131    
  34.158      45.715      61.279      80.543      102.37      125.00      146.49      165.16      152.69      165.19    
  173.60      177.80      177.80      173.60      165.19      152.69      136.56      117.75      97.687      78.030    
  60.340      45.715      34.570      26.623      21.066      17.115      14.426      12.703      11.696      11.235    
  11.235      11.696      12.703      14.426      17.115      21.066      26.623      34.570      45.715      60.340    
  78.030      97.687      117.75      136.56      123.25      136.57      146.52      152.64      154.69      152.64    
  146.52      136.57      123.25      107.42      90.282      73.232      57.618      44.442      34.158      26.623    
  21.216      17.277      14.520      12.688      11.550      10.935      10.742      10.935      11.550      12.688    
  14.520      17.277      21.216      26.623      34.158      44.442      57.618      73.232      90.282      107.42    
  94.744      107.41      117.74      125.00      128.73      128.73      125.00      117.74      107.41      94.744    
  80.749      66.590      53.397      42.042      32.968      26.131      21.066      17.277      14.553      12.682    
  11.463      10.738      10.402      10.402      10.738      11.463      12.682      14.553      17.277      21.066    
  26.131      32.968      42.042      53.397      66.590      80.749      69.902      80.719      90.235      97.635    
  102.31      103.91      102.31      97.635      90.235      80.719      69.902      58.726      48.108      38.780    
  31.140      25.200      20.630      17.115      14.520      12.682      11.434      10.640      10.202      10.062    
  10.202      10.640      11.434      12.682      14.520      17.115      20.630      25.200      31.140      38.780    
  48.109      58.726      50.367      58.685      66.518      73.138      77.924      80.431      80.431      77.924    
  73.138      66.518      58.685      50.367      42.278      35.000      28.869      23.923      19.946      16.806    
  14.426      12.688      11.463      10.640      10.136      9.8966      9.8966      10.136      10.640      11.463    
  12.688      14.426      16.806      19.946      23.923      28.869      35.000      42.278      36.435      42.235    
  48.025      53.280      57.477      60.185      61.120      60.185      57.477      53.280      48.025      42.235    
  36.435      31.061      26.370      22.403      19.073      16.378      14.282      12.703      11.550      10.738    
  10.202      9.8966      9.7975      9.8966      10.202      10.738      11.550      12.703      14.282      16.378    
  19.073      22.403      26.370      31.061      27.263      31.021      34.919      38.661      41.891      44.268    
  45.529      45.529      44.268      41.891      38.661      34.919      31.021      27.263      23.824      20.746    
  18.080      15.870      14.103      12.732      11.696      10.935      10.402      10.062      9.8966      9.8966    
  10.062      10.402      10.935      11.696      12.732      14.103      15.870      18.080      20.746      23.824    
  21.346      23.791      26.300      28.762      30.999      32.800      33.972      34.379      33.972      32.800    
  30.999      28.762      26.300      23.791      21.346      19.066      17.042      15.323      13.911      12.784    
  11.905      11.235      10.742      10.402      10.202      10.136      10.202      10.402      10.742      11.235    
  11.905      12.784      13.911      15.323      17.042      19.066      17.461      19.040      20.690      22.315    
  23.804      25.055      25.966      26.447      26.447      25.966      25.055      23.804      22.315      20.690    
  19.040      17.461      16.027      14.778      13.729      12.871      12.185      11.647      11.235      10.935    
  10.738      10.640      10.640      10.738      10.935      11.235      11.647      12.185      12.871      13.729    
  14.778      16.027      15.087      16.007      17.000      18.012      18.979      19.830      20.496      20.920    
  21.065      20.920      20.496      19.830      18.979      18.012      17.000      16.007      15.087      14.272    
  13.578      13.007      12.547      12.185      11.905      11.696      11.550      11.463      11.434      11.463    
  11.550      11.696      11.905      12.185      12.547      13.007      13.578      14.272      13.829      14.256    
  14.745      15.271      15.799      16.290      16.703      17.001      17.158      17.158      17.001      16.703    
  16.290      15.799      15.271      14.745      14.256      13.829      13.477      13.205      13.007      12.871    
  12.784      12.732      12.703      12.688      12.682      12.682      12.688      12.703      12.732      12.784    
  12.871      13.007      13.205      13.477      13.438      13.464      13.552      13.689      13.858      14.038    
  14.207      14.343      14.433      14.463      14.433      14.343      14.207      14.038      13.858      13.689    
  13.552      13.464      13.438      13.477      13.578      13.729      13.911      14.103      14.282      14.426    
  14.520      14.553      14.520      14.426      14.282      14.103      13.911      13.729      13.578      13.477    
  13.829      13.464      13.181      12.973      12.829      12.736      12.678      12.645      12.627      12.619    
  12.619      12.627      12.645      12.678      12.736      12.829      12.973      13.181      13.464      13.829    
  14.272      14.778      15.323      15.870      16.378      16.806      17.115      17.277      17.277      17.115    
  16.806      16.378      15.870      15.323      14.778      14.272      15.087      14.256      13.552      12.973    
  12.509      12.145      11.864      11.655      11.509      11.422      11.394      11.422      11.509      11.655    
  11.864      12.145      12.509      12.973      13.552      14.256      15.087      16.027      17.042      18.080    
  19.073      19.946      20.630      21.066      21.216      21.066      20.630      19.946      19.073      18.080    
  17.042      16.027      17.461      16.007      14.745      13.689      12.829      12.145      11.610      11.202    
  10.906      10.712      10.616      10.616      10.712      10.906      11.202      11.610      12.145      12.829    
  13.689      14.745      16.007      17.461      19.066      20.746      22.403      23.923      25.200      26.131    
  26.623      26.623      26.131      25.200      23.923      22.403      20.746      19.066      21.346      19.040    
  17.000      15.271      13.858      12.736      11.864      11.202      10.717      10.383      10.187      10.122    
  10.187      10.383      10.717      11.202      11.864      12.736      13.858      15.271      17.000      19.040    
  21.346      23.824      26.370      28.869      31.140      32.968      34.158      34.570      34.158      32.968    
  31.140      28.869      26.370      23.824      27.263      23.791      20.690      18.012      15.799      14.038    
  12.678      11.655      10.906      10.383      10.051      9.8888      9.8888      10.051      10.383      10.906    
  11.655      12.678      14.038      15.799      18.012      20.690      23.791      27.263      31.061      35.000    
  38.780      42.042      44.442      45.715      45.715      44.442      42.042      38.780      35.000      31.061    
  36.435      31.021      26.300      22.315      18.979      16.290      14.207      12.645      11.509      10.712    
  10.187      9.8888      9.7921      9.8888      10.187      10.712      11.509      12.645      14.207      16.290    
  18.979      22.315      26.300      31.021      36.435      42.278      48.108      53.397      57.618      60.340    
  61.279      60.340      57.618      53.397      48.109      42.278      50.367      42.235      34.919      28.762    
  23.804      19.830      16.703      14.343      12.627      11.422      10.616      10.122      9.8888      9.8888    
  10.122      10.616      11.422      12.627      14.343      16.703      19.830      23.804      28.762      34.919    
  42.235      50.367      58.726      66.590      73.232      78.030      80.543      80.543      78.030      73.232    
  66.590      58.726      69.902      58.685      48.025      38.661      30.999      25.055      20.496      17.001    
  14.433      12.620      11.394      10.616      10.187      10.051      10.187      10.616      11.394      12.619    
  14.433      17.001      20.496      25.055      30.999      38.661      48.025      58.685      69.902      80.749    
  90.282      97.687      102.37      103.96      102.37      97.687      90.282      80.749      94.744      80.719    
  66.518      53.280      41.891      32.800      25.966      20.920      17.158      14.463      12.620      11.422    
  10.712      10.383      10.383      10.712      11.422      12.619      14.463      17.158      20.920      25.966    
  32.800      41.891      53.280      66.518      80.719      94.744      107.42      117.75      125.00      128.72    
  128.72      125.00      117.75      107.42      123.25      107.41      90.235      73.138      57.477      44.268    
  33.972      26.447      21.065      17.158      14.433      12.627      11.509      10.906      10.717      10.906    
  11.509      12.627      14.433      17.158      21.065      26.447      33.972      44.268      57.477      73.138    
  90.235      107.41      123.25      136.56      146.49      152.58      154.63      152.58      146.49      136.56    
  152.69      136.57      117.74      97.635      77.924      60.185      45.529      34.379      26.447      20.920    
  17.001      14.343      12.645      11.655      11.202      11.202      11.655      12.645      14.343      17.001    
  20.920      26.447      34.379      45.529      60.185      77.924      97.635      117.74      136.57      152.69    
  165.16      173.53      177.71      177.71      173.53      165.16      179.90      165.19      146.52      125.00    
  102.31      80.431      61.120      45.529      33.972      25.966      20.496      16.703      14.207      12.678    
  11.864      11.610      11.864      12.678      14.207      16.703      20.496      25.966      33.972      45.529    
  61.120      80.431      102.31      125.00      146.52      165.19      179.90      190.24      196.27      198.25    
  196.27      190.24      202.22      190.28      173.60      152.64      128.73      103.91      80.431      60.185    
  44.268      32.800      25.055      19.830      16.290      14.038      12.736      12.145      12.145      12.736    
  14.038      16.290      19.830      25.055      32.800      44.268      60.185      80.431      103.91      128.73    
  152.64      173.60      190.28      202.22      209.67      213.18      213.18      209.67      218.21      209.72    