Pt-hcc                                  
   1.00000000000000     
     2.615324    0.000000    0.000000
    -1.307662    2.264937    0.000000
     0.000000    0.000000    4.530987
   Pt
     2
Direct
  0.000000  0.000000  0.000000
  0.333333  0.666667  0.500000
 
   36   36   64
 0.23512354963E+03 0.23480241653E+03 0.23320436725E+03 0.22868529348E+03 0.21928057096E+03
 0.20357544632E+03 0.18142676209E+03 0.15424296434E+03 0.12469464135E+03 0.95964823578E+02
 0.70845134194E+02 0.51034586958E+02 0.36875837408E+02 0.27546312698E+02 0.21543048377E+02
 0.17605720591E+02 0.15197940745E+02 0.13922773242E+02 0.13526395970E+02 0.13922773688E+02
 0.15197941386E+02 0.17605721062E+02 0.21543048407E+02 0.27546312283E+02 0.36875836847E+02
 0.51034586743E+02 0.70845134794E+02 0.95964825202E+02 0.12469464381E+03 0.15424296713E+03
 0.18142676453E+03 0.20357544786E+03 0.21928057138E+03 0.22868529301E+03 0.23320436641E+03
 0.23480241592E+03 0.23480241592E+03 0.23480240377E+03 0.23383380101E+03 0.23073446002E+03
 0.22366649425E+03 0.21091601346E+03 0.19170919590E+03 0.16672273874E+03 0.13807055889E+03
 0.10875838409E+03 0.81825295987E+02 0.59520038479E+02 0.42818961885E+02 0.31410096711E+02
 0.24055984133E+02 0.19233657161E+02 0.16153027960E+02 0.14373400010E+02 0.13568044492E+02
 0.13568042616E+02 0.14373395524E+02 0.16153023640E+02 0.19233655830E+02 0.24055986992E+02
 0.31410102525E+02 0.42818967561E+02 0.59520040813E+02 0.81825293773E+02 0.10875837950E+03
 0.13807055721E+03 0.16672274649E+03 0.19170921779E+03 0.21091604982E+03 0.22366653983E+03
 0.23073450497E+03 0.23383383404E+03 0.23320436641E+03 0.23384267533E+03 0.23320432980E+03
 0.23073444236E+03 0.22500827607E+03 0.21436433005E+03 0.19769518810E+03 0.17508702132E+03
 0.14804031967E+03 0.11916484468E+03 0.91463224176E+02 0.67494461974E+02 0.48745768143E+02
 0.35419944478E+02 0.26642311272E+02 0.20938670314E+02 0.17184469467E+02 0.14888741113E+02
 0.13672258965E+02 0.13293945087E+02 0.13672252709E+02 0.14888732400E+02 0.17184463754E+02
 0.20938671573E+02 0.26642319559E+02 0.35419955584E+02 0.48745775717E+02 0.67494461185E+02
 0.91463215062E+02 0.11916483344E+03 0.14804031686E+03 0.17508703755E+03 0.19769522889E+03
 0.21436439218E+03 0.22500834734E+03 0.23073450497E+03 0.22868529301E+03 0.23075731051E+03
 0.23075729300E+03 0.22868524604E+03 0.22366647789E+03 0.21436433321E+03 0.19964812007E+03
 0.17925171135E+03 0.15414682043E+03 0.12645876112E+03 0.98941821149E+02 0.74222886170E+02
 0.54117108287E+02 0.39266367277E+02 0.29185071158E+02 0.22619084379E+02 0.18238128025E+02
 0.15442577167E+02 0.13826863734E+02 0.13094978621E+02 0.13094974711E+02 0.13826854337E+02
 0.15442567982E+02 0.18238124932E+02 0.22619090016E+02 0.29185083139E+02 0.39266379090E+02
 0.54117112609E+02 0.74222879066E+02 0.98941804991E+02 0.12645874469E+03 0.15414681566E+03
 0.17925172816E+03 0.19964816131E+03 0.21436439218E+03 0.22366653983E+03 0.21928057138E+03
 0.22370237728E+03 0.22505814323E+03 0.22370236049E+03 0.21928054435E+03 0.21091602284E+03
 0.19769521182E+03 0.17925172651E+03 0.15619798219E+03 0.13020356256E+03 0.10366365509E+03
 0.79079892233E+02 0.58402020110E+02 0.42584466332E+02 0.31496623120E+02 0.24160824025E+02
 0.19245619102E+02 0.15998944723E+02 0.14013390520E+02 0.12959572810E+02 0.12631403678E+02
 0.12959566567E+02 0.14013381642E+02 0.15998938490E+02 0.19245619563E+02 0.24160831626E+02
 0.31496634105E+02 0.42584474341E+02 0.58402019245E+02 0.79079880234E+02 0.10366363490E+03
 0.13020354160E+03 0.15619796934E+03 0.17925172816E+03 0.19769522889E+03 0.21091604982E+03
 0.20357544786E+03 0.21095806923E+03 0.21443345691E+03 0.21443345942E+03 0.21095807706E+03
 0.20357546163E+03 0.19170923766E+03 0.17508706238E+03 0.15414684271E+03 0.13020356700E+03
 0.10527600587E+03 0.81621976451E+02 0.61163055928E+02 0.45025287174E+02 0.33358014356E+02
 0.25459089696E+02 0.20132131188E+02 0.16515880796E+02 0.14209571860E+02 0.12873386492E+02
 0.12266408488E+02 0.12266406456E+02 0.12873381430E+02 0.14209566378E+02 0.16515877800E+02
 0.20132132423E+02 0.25459094749E+02 0.33358020592E+02 0.45025290667E+02 0.61163052929E+02
 0.81621964887E+02 0.10527598606E+03 0.13020354160E+03 0.15414681566E+03 0.17508703755E+03
 0.19170921779E+03 0.18142676453E+03 0.19174709646E+03 0.19776652666E+03 0.19973264881E+03
 0.19776654864E+03 0.19174713552E+03 0.18142681242E+03 0.16672279396E+03 0.14804035626E+03
 0.12645877178E+03 0.10366364926E+03 0.81621969275E+02 0.62116083217E+02 0.46318844968E+02
 0.34568524664E+02 0.26405470746E+02 0.20826018556E+02 0.16950498548E+02 0.14392222451E+02
 0.12822220128E+02 0.11984779668E+02 0.11723086764E+02 0.11984779081E+02 0.12822218814E+02
 0.14392220390E+02 0.16950496147E+02 0.20826016713E+02 0.26405470511E+02 0.34568526467E+02
 0.46318847888E+02 0.62116084515E+02 0.81621964887E+02 0.10366363490E+03 0.12645874469E+03
 0.14804031686E+03 0.16672274649E+03 0.15424296713E+03 0.16674640382E+03 0.17514044948E+03
 0.17932511582E+03 0.17932513004E+03 0.17514048805E+03 0.16674645589E+03 0.15424301903E+03
 0.13807059709E+03 0.11916485496E+03 0.98941808611E+02 0.79079872000E+02 0.61163041142E+02
 0.46318839560E+02 0.34988630364E+02 0.26905788082E+02 0.21268260881E+02 0.17264496674E+02
 0.14540051251E+02 0.12794033451E+02 0.11774436936E+02 0.11308022403E+02 0.11308023876E+02
 0.11774440236E+02 0.12794035923E+02 0.14540050414E+02 0.17264491977E+02 0.21268254421E+02
 0.26905783817E+02 0.34988631921E+02 0.46318847888E+02 0.61163052929E+02 0.79079880234E+02
 0.98941804991E+02 0.11916483344E+03 0.13807055721E+03 0.12469464381E+03 0.13807358644E+03
 0.14805979410E+03 0.15418362429E+03 0.15624200526E+03 0.15418364533E+03 0.14805982854E+03
 0.13807362209E+03 0.12469466869E+03 0.10875838640E+03 0.91463203931E+02 0.74222856450E+02
 0.58401994895E+02 0.45025273388E+02 0.34568520654E+02 0.26905788210E+02 0.21420161570E+02
 0.17429171637E+02 0.14636057719E+02 0.12779913399E+02 0.11627632980E+02 0.11005728783E+02
 0.10809941293E+02 0.11005734021E+02 0.11627640144E+02 0.12779917767E+02 0.14636055945E+02
 0.17429164009E+02 0.21420152323E+02 0.26905783817E+02 0.34568526467E+02 0.45025290667E+02
 0.58402019245E+02 0.74222879066E+02 0.91463215062E+02 0.10875837950E+03 0.95964825202E+02
 0.10873985959E+03 0.11914356373E+03 0.12644338060E+03 0.13019403402E+03 0.13019403838E+03
 0.12644339099E+03 0.11914357340E+03 0.10873986083E+03 0.95964812998E+02 0.81825268260E+02
 0.67494427823E+02 0.54117079881E+02 0.42584450446E+02 0.33358009945E+02 0.26405472266E+02
 0.21268263307E+02 0.17429172867E+02 0.14669315368E+02 0.12774200863E+02 0.11540469743E+02
 0.10807261880E+02 0.10467170616E+02 0.10467174145E+02 0.10807270527E+02 0.11540478663E+02
 0.12774204971E+02 0.14669312109E+02 0.17429164009E+02 0.21268254421E+02 0.26405470511E+02
 0.33358020592E+02 0.42584474341E+02 0.54117112609E+02 0.67494461185E+02 0.81825293773E+02
 0.70845134794E+02 0.81789460295E+02 0.91404953975E+02 0.98873036733E+02 0.10359169966E+03
 0.10520362424E+03 0.10359169491E+03 0.98873025851E+02 0.91404935216E+02 0.81789433182E+02
 0.70845101246E+02 0.59520005309E+02 0.48745744126E+02 0.39266356811E+02 0.31496623757E+02
 0.25459095413E+02 0.20826024088E+02 0.17264500156E+02 0.14636059887E+02 0.12774202350E+02
 0.11511516119E+02 0.10708644059E+02 0.10265870787E+02 0.10124668036E+02 0.10265876975E+02
 0.10708653420E+02 0.11511524054E+02 0.12774204971E+02 0.14636055945E+02 0.17264491977E+02
 0.20826016713E+02 0.25459094749E+02 0.31496634105E+02 0.39266379090E+02 0.48745775717E+02
 0.59520040813E+02 0.51034586743E+02 0.59474256217E+02 0.67411010855E+02 0.74112668736E+02
 0.78953557740E+02 0.81488350376E+02 0.81488344242E+02 0.78953540249E+02 0.74112642474E+02
 0.67410979714E+02 0.59474224759E+02 0.51034559382E+02 0.42818947783E+02 0.35419945133E+02
 0.29185081566E+02 0.24160836738E+02 0.20132140573E+02 0.16950503573E+02 0.14540054248E+02
 0.12779916784E+02 0.11540473671E+02 0.10708646663E+02 0.10199398651E+02 0.99579646775E+01
 0.99579668558E+01 0.10199404263E+02 0.10708653420E+02 0.11540478663E+02 0.12779917767E+02
 0.14540050414E+02 0.16950496147E+02 0.20132132423E+02 0.24160831626E+02 0.29185083139E+02
 0.35419955584E+02 0.42818967561E+02 0.36875836847E+02 0.42771047181E+02 0.48652189505E+02
 0.53985069637E+02 0.58241670424E+02 0.60985668068E+02 0.61933041892E+02 0.60985655489E+02
 0.58241648881E+02 0.53985045200E+02 0.48652168658E+02 0.42771034871E+02 0.36875835109E+02
 0.31410110117E+02 0.26642333006E+02 0.22619105019E+02 0.19245632228E+02 0.16515886133E+02
 0.14392224033E+02 0.12794036005E+02 0.11627638318E+02 0.10807268270E+02 0.10265875204E+02
 0.99579659297E+01 0.98580342235E+01 0.99579668558E+01 0.10265876975E+02 0.10807270527E+02
 0.11627640144E+02 0.12794035923E+02 0.14392220390E+02 0.16515877800E+02 0.19245619563E+02
 0.22619090016E+02 0.26642319559E+02 0.31410102525E+02 0.27546312283E+02 0.31366086334E+02
 0.35329661862E+02 0.39132686338E+02 0.42414692418E+02 0.44829905985E+02 0.46110238263E+02
 0.46110233711E+02 0.44829894475E+02 0.42414679489E+02 0.39132678639E+02 0.35329664469E+02
 0.31366100743E+02 0.27546335968E+02 0.24056014631E+02 0.20938696891E+02 0.18238143403E+02
 0.15998948641E+02 0.14209569624E+02 0.12822218563E+02 0.11774439827E+02 0.11005735358E+02
 0.10467177101E+02 0.10124671030E+02 0.99579659297E+01 0.99579646775E+01 0.10124668036E+02
 0.10467174145E+02 0.11005734021E+02 0.11774440236E+02 0.12822218814E+02 0.14209566378E+02
 0.15998938490E+02 0.18238124932E+02 0.20938671573E+02 0.24055986992E+02 0.21543048407E+02
 0.24019018574E+02 0.26563901558E+02 0.29064771655E+02 0.31338340845E+02 0.33169578120E+02
 0.34360763883E+02 0.34774221649E+02 0.34360760372E+02 0.33169574503E+02 0.31338342270E+02
 0.29064782585E+02 0.26563923462E+02 0.24019049013E+02 0.21543081631E+02 0.19233685140E+02
 0.17184484130E+02 0.15442577649E+02 0.14013382637E+02 0.12873378360E+02 0.11984776744E+02
 0.11308025270E+02 0.10809946471E+02 0.10467177101E+02 0.10265875204E+02 0.10199398651E+02
 0.10265870787E+02 0.10467170616E+02 0.10809941293E+02 0.11308023876E+02 0.11984779081E+02
 0.12873381430E+02 0.14013381642E+02 0.15442567982E+02 0.17184463754E+02 0.19233655830E+02
 0.17605721062E+02 0.19204125305E+02 0.20875006617E+02 0.22519349025E+02 0.24026364707E+02
 0.25294753063E+02 0.26219251274E+02 0.26708011142E+02 0.26708010883E+02 0.26219251725E+02
 0.25294757274E+02 0.24026375797E+02 0.22519368220E+02 0.20875032106E+02 0.19204152570E+02
 0.17605744409E+02 0.16153038280E+02 0.14888736450E+02 0.13826849598E+02 0.12959557587E+02
 0.12266398520E+02 0.11723083775E+02 0.11308025270E+02 0.11005735358E+02 0.10807268270E+02
 0.10708646663E+02 0.10708644059E+02 0.10807261880E+02 0.11005728783E+02 0.11308022403E+02
 0.11723086764E+02 0.12266406456E+02 0.12959566567E+02 0.13826854337E+02 0.14888732400E+02
 0.16153023640E+02 0.15197941386E+02 0.16129797258E+02 0.17134386743E+02 0.18159173157E+02
 0.19137989645E+02 0.19998565532E+02 0.20671756691E+02 0.21100644358E+02 0.21247929595E+02
 0.21100645146E+02 0.20671759422E+02 0.19998571717E+02 0.19137999932E+02 0.18159186527E+02
 0.17134400274E+02 0.16129806965E+02 0.15197943840E+02 0.14373389354E+02 0.13672239327E+02
 0.13094957903E+02 0.12631388268E+02 0.12266398520E+02 0.11984776744E+02 0.11774439827E+02
 0.11627638318E+02 0.11540473671E+02 0.11511516119E+02 0.11540469743E+02 0.11627632980E+02
 0.11774436936E+02 0.11984779668E+02 0.12266408488E+02 0.12631403678E+02 0.13094974711E+02
 0.13672252709E+02 0.14373395524E+02 0.13922773688E+02 0.14354618306E+02 0.14849175444E+02
 0.15380992446E+02 0.15915353270E+02 0.16411872958E+02 0.16829334981E+02 0.17130944596E+02
 0.17289124961E+02 0.17289125206E+02 0.17130945452E+02 0.16829336594E+02 0.16411875113E+02
 0.15915355008E+02 0.15380991981E+02 0.14849170719E+02 0.14354607755E+02 0.13922757020E+02
 0.13568021294E+02 0.13293922155E+02 0.13094957903E+02 0.12959557587E+02 0.12873378360E+02
 0.12822218563E+02 0.12794036005E+02 0.12779916784E+02 0.12774202350E+02 0.12774200863E+02
 0.12779913399E+02 0.12794033451E+02 0.12822220128E+02 0.12873386492E+02 0.12959572810E+02
 0.13094978621E+02 0.13293945087E+02 0.13568042616E+02 0.13526395970E+02 0.13551538020E+02
 0.13639224689E+02 0.13777437163E+02 0.13948140966E+02 0.14129760040E+02 0.14299939075E+02
 0.14438196526E+02 0.14528184136E+02 0.14559388264E+02 0.14528184809E+02 0.14438197136E+02
 0.14299938314E+02 0.14129756358E+02 0.13948132933E+02 0.13777423967E+02 0.13639206398E+02
 0.13551515764E+02 0.13526371879E+02 0.13568021294E+02 0.13672239327E+02 0.13826849598E+02
 0.14013382637E+02 0.14209569624E+02 0.14392224033E+02 0.14540054248E+02 0.14636059887E+02
 0.14669315368E+02 0.14636057719E+02 0.14540051251E+02 0.14392222451E+02 0.14209571860E+02
 0.14013390520E+02 0.13826863734E+02 0.13672258965E+02 0.13568044492E+02 0.13922773242E+02
 0.13551535716E+02 0.13263112464E+02 0.13051739123E+02 0.12905608933E+02 0.12810280544E+02
 0.12751596700E+02 0.12717636441E+02 0.12699605807E+02 0.12691921910E+02 0.12691923009E+02
 0.12699608265E+02 0.12717638114E+02 0.12751594946E+02 0.12810273304E+02 0.12905595604E+02
 0.13051720788E+02 0.13263091692E+02 0.13551515764E+02 0.13922757020E+02 0.14373389354E+02
 0.14888736450E+02 0.15442577649E+02 0.15998948641E+02 0.16515886133E+02 0.16950503573E+02
 0.17264500156E+02 0.17429172867E+02 0.17429171637E+02 0.17264496674E+02 0.16950498548E+02
 0.16515880796E+02 0.15998944723E+02 0.15442577167E+02 0.14888741113E+02 0.14373400010E+02
 0.15197940745E+02 0.14354612774E+02 0.13639217912E+02 0.13051735153E+02 0.12581226983E+02
 0.12211735183E+02 0.11927333954E+02 0.11715388612E+02 0.11567741435E+02 0.11480198218E+02
 0.11451139872E+02 0.11480202275E+02 0.11567747212E+02 0.11715392501E+02 0.11927332734E+02
 0.12211727542E+02 0.12581214192E+02 0.13051720788E+02 0.13639206398E+02 0.14354607755E+02
 0.15197943840E+02 0.16153038280E+02 0.17184484130E+02 0.18238143403E+02 0.19245632228E+02
 0.20132140573E+02 0.20826024088E+02 0.21268263307E+02 0.21420161570E+02 0.21268260881E+02
 0.20826018556E+02 0.20132131188E+02 0.19245619102E+02 0.18238128025E+02 0.17184469467E+02
 0.16153027960E+02 0.17605720591E+02 0.16129791866E+02 0.14849165981E+02 0.13777427613E+02
 0.12905603031E+02 0.12211733547E+02 0.11670037915E+02 0.11257660950E+02 0.10958152777E+02
 0.10761895495E+02 0.10664486221E+02 0.10664489216E+02 0.10761903004E+02 0.10958161046E+02
 0.11257665857E+02 0.11670037043E+02 0.12211727542E+02 0.12905595604E+02 0.13777423967E+02
 0.14849170719E+02 0.16129806965E+02 0.17605744409E+02 0.19233685140E+02 0.20938696891E+02
 0.22619105019E+02 0.24160836738E+02 0.25459095413E+02 0.26405472266E+02 0.26905788210E+02
 0.26905788082E+02 0.26405470746E+02 0.25459089696E+02 0.24160824025E+02 0.22619084379E+02
 0.20938670314E+02 0.19233657161E+02 0.21543048377E+02 0.19204123497E+02 0.17134380488E+02
 0.15380983097E+02 0.13948132562E+02 0.12810276432E+02 0.11927334311E+02 0.11257662918E+02
 0.10766456135E+02 0.10429239108E+02 0.10231498986E+02 0.10166248545E+02 0.10231504491E+02
 0.10429247411E+02 0.10766463281E+02 0.11257665857E+02 0.11927332734E+02 0.12810273304E+02
 0.13948132933E+02 0.15380991981E+02 0.17134400274E+02 0.19204152570E+02 0.21543081631E+02
 0.24056014631E+02 0.26642333006E+02 0.29185081566E+02 0.31496623757E+02 0.33358009945E+02
 0.34568520654E+02 0.34988630364E+02 0.34568524664E+02 0.33358014356E+02 0.31496623120E+02
 0.29185071158E+02 0.26642311272E+02 0.24055984133E+02 0.27546312698E+02 0.24019021848E+02
 0.20875007902E+02 0.18159170007E+02 0.15915347351E+02 0.14129755477E+02 0.12751596703E+02
 0.11715393113E+02 0.10958158687E+02 0.10429242781E+02 0.10093547562E+02 0.99303381932E+01
 0.99303400370E+01 0.10093552048E+02 0.10429247411E+02 0.10958161046E+02 0.11715392501E+02
 0.12751594946E+02 0.14129756358E+02 0.15915355008E+02 0.18159186527E+02 0.20875032106E+02
 0.24019049013E+02 0.27546335968E+02 0.31410110117E+02 0.35419945133E+02 0.39266356811E+02
 0.42584450446E+02 0.45025273388E+02 0.46318839560E+02 0.46318844968E+02 0.45025287174E+02
 0.42584466332E+02 0.39266367277E+02 0.35419944478E+02 0.31410096711E+02 0.36875837408E+02
 0.31366093220E+02 0.26563910526E+02 0.22519354843E+02 0.19137990088E+02 0.16411870244E+02
 0.14299937861E+02 0.12717640098E+02 0.11567749590E+02 0.10761904540E+02 0.10231505009E+02
 0.99303400482E+01 0.98326697837E+01 0.99303400370E+01 0.10231504491E+02 0.10761903004E+02
 0.11567747212E+02 0.12717638114E+02 0.14299938314E+02 0.16411875113E+02 0.19137999932E+02
 0.22519368220E+02 0.26563923462E+02 0.31366100743E+02 0.36875835109E+02 0.42818947783E+02
 0.48745744126E+02 0.54117079881E+02 0.58401994895E+02 0.61163041142E+02 0.62116083217E+02
 0.61163055928E+02 0.58402020110E+02 0.54117108287E+02 0.48745768143E+02 0.42818961885E+02
 0.51034586958E+02 0.42771053864E+02 0.35329674068E+02 0.29064784165E+02 0.24026372048E+02
 0.19998566146E+02 0.16829332280E+02 0.14438196048E+02 0.12699610935E+02 0.11480207697E+02
 0.10664495493E+02 0.10166253442E+02 0.99303400482E+01 0.99303381932E+01 0.10166248545E+02
 0.10664489216E+02 0.11480202275E+02 0.12699608265E+02 0.14438197136E+02 0.16829336594E+02
 0.19998571717E+02 0.24026375797E+02 0.29064782585E+02 0.35329664469E+02 0.42771034871E+02
 0.51034559382E+02 0.59520005309E+02 0.67494427823E+02 0.74222856450E+02 0.79079872000E+02
 0.81621969275E+02 0.81621976451E+02 0.79079892233E+02 0.74222886170E+02 0.67494461974E+02
 0.59520038479E+02 0.70845134194E+02 0.59474258608E+02 0.48652198126E+02 0.39132699094E+02
 0.31338351713E+02 0.25294756868E+02 0.20671753265E+02 0.17130938929E+02 0.14528182372E+02
 0.12691926584E+02 0.11451148132E+02 0.10664495493E+02 0.10231505009E+02 0.10093547562E+02
 0.10231498986E+02 0.10664486221E+02 0.11451139872E+02 0.12691923009E+02 0.14528184809E+02
 0.17130945452E+02 0.20671759422E+02 0.25294757274E+02 0.31338342270E+02 0.39132678639E+02
 0.48652168658E+02 0.59474224759E+02 0.70845101246E+02 0.81825268260E+02 0.91463203931E+02
 0.98941808611E+02 0.10366364926E+03 0.10527600587E+03 0.10366365509E+03 0.98941821149E+02
 0.91463224176E+02 0.81825295987E+02 0.95964823578E+02 0.81789456546E+02 0.67411010567E+02
 0.53985075326E+02 0.42414700992E+02 0.33169583235E+02 0.26219248695E+02 0.21100635655E+02
 0.17289116322E+02 0.14559385381E+02 0.12691926584E+02 0.11480207697E+02 0.10761904540E+02
 0.10429242781E+02 0.10429239108E+02 0.10761895495E+02 0.11480198218E+02 0.12691921910E+02
 0.14559388264E+02 0.17289125206E+02 0.21100645146E+02 0.26219251725E+02 0.33169574503E+02
 0.42414679489E+02 0.53985045200E+02 0.67410979714E+02 0.81789433182E+02 0.95964812998E+02
 0.10875838640E+03 0.11916485496E+03 0.12645877178E+03 0.13020356700E+03 0.13020356256E+03
 0.12645876112E+03 0.11916484468E+03 0.10875838409E+03 0.12469464135E+03 0.10873985182E+03
 0.91404944548E+02 0.74112663360E+02 0.58241671265E+02 0.44829909400E+02 0.34360763557E+02
 0.26708003961E+02 0.21247918394E+02 0.17289116322E+02 0.14528182372E+02 0.12699610935E+02
 0.11567749590E+02 0.10958158687E+02 0.10766456135E+02 0.10958152777E+02 0.11567741435E+02
 0.12699605807E+02 0.14528184136E+02 0.17289124961E+02 0.21247929595E+02 0.26708010883E+02
 0.34360760372E+02 0.44829894475E+02 0.58241648881E+02 0.74112642474E+02 0.91404935216E+02
 0.10873986083E+03 0.12469466869E+03 0.13807059709E+03 0.14804035626E+03 0.15414684271E+03
 0.15619798219E+03 0.15414682043E+03 0.14804031967E+03 0.13807055889E+03 0.15424296434E+03
 0.13807358053E+03 0.11914355144E+03 0.98873022549E+02 0.78953548736E+02 0.60985666682E+02
 0.46110240254E+02 0.34774220487E+02 0.26708003961E+02 0.21100635655E+02 0.17130938929E+02
 0.14438196048E+02 0.12717640098E+02 0.11715393113E+02 0.11257662918E+02 0.11257660950E+02
 0.11715388612E+02 0.12717636441E+02 0.14438196526E+02 0.17130944596E+02 0.21100644358E+02
 0.26708011142E+02 0.34774221649E+02 0.46110233711E+02 0.60985655489E+02 0.78953540249E+02
 0.98873025851E+02 0.11914357340E+03 0.13807362209E+03 0.15424301903E+03 0.16672279396E+03
 0.17508706238E+03 0.17925172651E+03 0.17925171135E+03 0.17508702132E+03 0.16672273874E+03
 0.18142676209E+03 0.16674640734E+03 0.14805978993E+03 0.12644336624E+03 0.10359168347E+03
 0.81488342161E+02 0.61933043985E+02 0.46110240254E+02 0.34360763557E+02 0.26219248695E+02
 0.20671753265E+02 0.16829332280E+02 0.14299937861E+02 0.12751596703E+02 0.11927334311E+02
 0.11670037915E+02 0.11927333954E+02 0.12751596700E+02 0.14299939075E+02 0.16829334981E+02
 0.20671756691E+02 0.26219251274E+02 0.34360763883E+02 0.46110238263E+02 0.61933041892E+02
 0.81488344242E+02 0.10359169491E+03 0.12644339099E+03 0.14805982854E+03 0.16674645589E+03
 0.18142681242E+03 0.19170923766E+03 0.19769521182E+03 0.19964812007E+03 0.19769518810E+03
 0.19170919590E+03 0.20357544632E+03 0.19174711522E+03 0.17514046461E+03 0.15418362153E+03
 0.13019401740E+03 0.10520360887E+03 0.81488342161E+02 0.60985666682E+02 0.44829909400E+02
 0.33169583235E+02 0.25294756868E+02 0.19998566146E+02 0.16411870244E+02 0.14129755477E+02
 0.12810276432E+02 0.12211733547E+02 0.12211735183E+02 0.12810280544E+02 0.14129760040E+02
 0.16411872958E+02 0.19998565532E+02 0.25294753063E+02 0.33169578120E+02 0.44829905985E+02
 0.60985668068E+02 0.81488350376E+02 0.10520362424E+03 0.13019403838E+03 0.15418364533E+03
 0.17514048805E+03 0.19174713552E+03 0.20357546163E+03 0.21091602284E+03 0.21436433321E+03
 0.21436433005E+03 0.21091601346E+03 0.21928057096E+03 0.21095810424E+03 0.19776656708E+03
 0.17932513445E+03 0.15624199628E+03 0.13019401740E+03 0.10359168347E+03 0.78953548736E+02
 0.58241671265E+02 0.42414700992E+02 0.31338351713E+02 0.24026372048E+02 0.19137990088E+02
 0.15915347351E+02 0.13948132562E+02 0.12905603031E+02 0.12581226983E+02 0.12905608933E+02
 0.13948140966E+02 0.15915353270E+02 0.19137989645E+02 0.24026364707E+02 0.31338340845E+02
 0.42414692418E+02 0.58241670424E+02 0.78953557740E+02 0.10359169966E+03 0.13019403402E+03
 0.15624200526E+03 0.17932513004E+03 0.19776654864E+03 0.21095807706E+03 0.21928054435E+03
 0.22366647789E+03 0.22500827607E+03 0.22366649425E+03 0.22868529348E+03 0.22370242324E+03
 0.21443351956E+03 0.19973269156E+03 0.17932513445E+03 0.15418362153E+03 0.12644336624E+03
 0.98873022549E+02 0.74112663360E+02 0.53985075326E+02 0.39132699094E+02 0.29064784165E+02
 0.22519354843E+02 0.18159170007E+02 0.15380983097E+02 0.13777427613E+02 0.13051735153E+02
 0.13051739123E+02 0.13777437163E+02 0.15380992446E+02 0.18159173157E+02 0.22519349025E+02
 0.29064771655E+02 0.39132686338E+02 0.53985069637E+02 0.74112668736E+02 0.98873036733E+02
 0.12644338060E+03 0.15418362429E+03 0.17932511582E+03 0.19973264881E+03 0.21443345942E+03
 0.22370236049E+03 0.22868524604E+03 0.23073444236E+03 0.23073446002E+03 0.23320436725E+03
 0.23075735691E+03 0.22505821567E+03 0.21443351956E+03 0.19776656708E+03 0.17514046461E+03
 0.14805978993E+03 0.11914355144E+03 0.91404944548E+02 0.67411010567E+02 0.48652198126E+02
 0.35329674068E+02 0.26563910526E+02 0.20875007902E+02 0.17134380488E+02 0.14849165981E+02
 0.13639217912E+02 0.13263112464E+02 0.13639224689E+02 0.14849175444E+02 0.17134386743E+02
 0.20875006617E+02 0.26563901558E+02 0.35329661862E+02 0.48652189505E+02 0.67411010855E+02
 0.91404953975E+02 0.11914356373E+03 0.14805979410E+03 0.17514044948E+03 0.19776652666E+03
 0.21443345691E+03 0.22505814323E+03 0.23075729300E+03 0.23320432980E+03 0.23383380101E+03
 0.23480241653E+03 0.23384270984E+03 0.23075735691E+03 0.22370242324E+03 0.21095810424E+03
 0.19174711522E+03 0.16674640734E+03 0.13807358053E+03 0.10873985182E+03 0.81789456546E+02
 0.59474258608E+02 0.42771053864E+02 0.31366093220E+02 0.24019021848E+02 0.19204123497E+02
 0.16129791866E+02 0.14354612774E+02 0.13551535716E+02 0.13551538020E+02 0.14354618306E+02
 0.16129797258E+02 0.19204125305E+02 0.24019018574E+02 0.31366086334E+02 0.42771047181E+02
 0.59474256217E+02 0.81789460295E+02 0.10873985959E+03 0.13807358644E+03 0.16674640382E+03
 0.19174709646E+03 0.21095806923E+03 0.22370237728E+03 0.23075731051E+03 0.23384267533E+03
 0.23480240377E+03 0.23497828025E+03 0.23458090182E+03 0.23276997769E+03 0.22794636220E+03
 0.21821127713E+03 0.20222277021E+03 0.17989983656E+03 0.15268608153E+03 0.12325133008E+03
 0.94744402081E+02 0.69902238615E+02 0.50366541524E+02 0.36435499555E+02 0.27263066360E+02
 0.21345967495E+02 0.17461386474E+02 0.15086530635E+02 0.13828850103E+02 0.13437896554E+02
 0.13828850521E+02 0.15086531229E+02 0.17461386891E+02 0.21345967478E+02 0.27263065904E+02
 0.36435498961E+02 0.50366541281E+02 0.69902239180E+02 0.94744403659E+02 0.12325133250E+03
 0.15268608427E+03 0.17989983895E+03 0.20222277172E+03 0.21821127756E+03 0.22794636175E+03
 0.23276997687E+03 0.23458090123E+03 0.23458090123E+03 0.23458088977E+03 0.23346751163E+03
 0.23010936515E+03 0.22272464364E+03 0.20966968223E+03 0.19023893515E+03 0.16515797241E+03
 0.13655720001E+03 0.10742329419E+03 0.80748999639E+02 0.58725574718E+02 0.42277918026E+02
 0.31060508200E+02 0.23823989067E+02 0.19065579828E+02 0.16026855412E+02 0.14271655122E+02
 0.13477338148E+02 0.13477336330E+02 0.14271650762E+02 0.16026851178E+02 0.19065578444E+02
 0.23823991710E+02 0.31060513719E+02 0.42277923475E+02 0.58725577026E+02 0.80748997617E+02
 0.10742328985E+03 0.13655719834E+03 0.16515797958E+03 0.19023895565E+03 0.20966971639E+03
 0.22272468655E+03 0.23010940750E+03 0.23346754278E+03 0.23276997687E+03 0.23347690498E+03
 0.23276994238E+03 0.23010934854E+03 0.22411309768E+03 0.21318156759E+03 0.19627467055E+03
 0.17353460708E+03 0.14649163118E+03 0.11775145472E+03 0.90282048862E+02 0.66589876117E+02
 0.48108502295E+02 0.35000140963E+02 0.26369714527E+02 0.20746135920E+02 0.17042462399E+02
 0.14778137787E+02 0.13578296781E+02 0.13205139040E+02 0.13578290735E+02 0.14778129343E+02
 0.17042456808E+02 0.20746137022E+02 0.26369722418E+02 0.35000151651E+02 0.48108509704E+02
 0.66589875584E+02 0.90282040330E+02 0.11775144400E+03 0.14649162825E+03 0.17353462202E+03
 0.19627470866E+03 0.21318162590E+03 0.22411316471E+03 0.23010940750E+03 0.22794636175E+03
 0.23013366207E+03 0.23013364561E+03 0.22794631763E+03 0.22272462842E+03 0.21318157069E+03
 0.19824705342E+03 0.17771157375E+03 0.15258434936E+03 0.12499887087E+03 0.97687127163E+02
 0.73231827038E+02 0.53396755127E+02 0.38779963079E+02 0.28869130383E+02 0.22402997306E+02
 0.18080160807E+02 0.15322589974E+02 0.13728868676E+02 0.13006885492E+02 0.13006881733E+02
 0.13728859631E+02 0.15322581112E+02 0.18080157780E+02 0.22403002681E+02 0.28869141918E+02
 0.38779974576E+02 0.53396759564E+02 0.73231820584E+02 0.97687111965E+02 0.12499885519E+03
 0.15258434449E+03 0.17771158913E+03 0.19824709183E+03 0.21318162590E+03 0.22272468655E+03
 0.21821127756E+03 0.22276312341E+03 0.22416648938E+03 0.22276310778E+03 0.21821125243E+03
 0.20966969141E+03 0.19627469306E+03 0.17771158801E+03 0.15463232422E+03 0.12872260515E+03
 0.10236612078E+03 0.78030027370E+02 0.57618265759E+02 0.42041885197E+02 0.31140036107E+02
 0.23922576895E+02 0.19072657818E+02 0.15869696271E+02 0.13910974007E+02 0.12871270836E+02
 0.12547459413E+02 0.12871264880E+02 0.13910965536E+02 0.15869690326E+02 0.19072658279E+02
 0.23922584217E+02 0.31140046739E+02 0.42041893095E+02 0.57618265277E+02 0.78030016295E+02
 0.10236610181E+03 0.12872258527E+03 0.15463231180E+03 0.17771158913E+03 0.19627470866E+03
 0.20966971639E+03 0.20222277172E+03 0.20971550288E+03 0.21325653977E+03 0.21325654224E+03
 0.20971551054E+03 0.20222278508E+03 0.19023897474E+03 0.17353464568E+03 0.15258437007E+03
 0.12872260914E+03 0.10396448332E+03 0.80542537201E+02 0.60339804493E+02 0.44442303208E+02
 0.32968457130E+02 0.25200303113E+02 0.19946227745E+02 0.16378191203E+02 0.14102787239E+02
 0.12784288395E+02 0.12185220086E+02 0.12185218182E+02 0.12784283654E+02 0.14102782108E+02
 0.16378188414E+02 0.19946228944E+02 0.25200307934E+02 0.32968463108E+02 0.44442306667E+02
 0.60339801887E+02 0.80542526537E+02 0.10396446484E+03 0.12872258527E+03 0.15258434449E+03
 0.17353462202E+03 0.19023895565E+03 0.17989983895E+03 0.19028161284E+03 0.19635404176E+03
 0.19834077130E+03 0.19635406257E+03 0.19028164979E+03 0.17989988416E+03 0.16515802425E+03
 0.14649166515E+03 0.12499888037E+03 0.10236611498E+03 0.80542530402E+02 0.61279445303E+02
 0.45714788395E+02 0.34157560313E+02 0.26130938639E+02 0.20630165911E+02 0.16805842456E+02
 0.14281552073E+02 0.12732073810E+02 0.11905321082E+02 0.11646910752E+02 0.11905320629E+02
 0.12732072715E+02 0.14281550229E+02 0.16805840180E+02 0.20630164031E+02 0.26130938194E+02
 0.34157561806E+02 0.45714791063E+02 0.61279446625E+02 0.80542526537E+02 0.10236610181E+03
 0.12499885519E+03 0.14649162825E+03 0.16515797958E+03 0.15268608427E+03 0.16518715899E+03
 0.17359783894E+03 0.17779712666E+03 0.17779714000E+03 0.17359787513E+03 0.16518720776E+03
 0.15268613271E+03 0.13655723533E+03 0.11775146366E+03 0.97687114853E+02 0.78030008238E+02
 0.60339790776E+02 0.45714783502E+02 0.34570255924E+02 0.26622738515E+02 0.21066155294E+02
 0.17114885145E+02 0.14426340251E+02 0.12702870294E+02 0.11696012251E+02 0.11235249851E+02
 0.11235251313E+02 0.11696015535E+02 0.12702872792E+02 0.14426339494E+02 0.17114880538E+02
 0.21066148808E+02 0.26622733984E+02 0.34570256912E+02 0.45714791063E+02 0.60339801887E+02
 0.78030016295E+02 0.97687111965E+02 0.11775144400E+03 0.13655719834E+03 0.12325133250E+03
 0.13656618049E+03 0.14652210869E+03 0.15263555541E+03 0.15469194974E+03 0.15263557494E+03
 0.14652214059E+03 0.13656621335E+03 0.12325135514E+03 0.10742329562E+03 0.90282029310E+02
 0.73231799045E+02 0.57618242428E+02 0.44442290779E+02 0.34157556901E+02 0.26622738732E+02
 0.21215924568E+02 0.17276988008E+02 0.14520416839E+02 0.12687969925E+02 0.11549795555E+02
 0.10935169066E+02 0.10741605564E+02 0.10935174123E+02 0.11549802478E+02 0.12687974152E+02
 0.14520415109E+02 0.17276980533E+02 0.21215915359E+02 0.26622733984E+02 0.34157561806E+02
 0.44442306667E+02 0.57618265277E+02 0.73231820584E+02 0.90282040330E+02 0.10742328985E+03
 0.94744403659E+02 0.10741085086E+03 0.11774176861E+03 0.12499929648E+03 0.12873116835E+03
 0.12873117227E+03 0.12499930575E+03 0.11774177701E+03 0.10741085128E+03 0.94744391557E+02