Pt-hcc                                  
   1.00000000000000     
     2.706303    0.000000    0.000000
    -1.353151    2.343727    0.000000
     0.000000    0.000000    4.688606
   Pt
     2
Direct
  0.000000  0.000000  0.000000
  0.333333  0.666667  0.500000
 
   40   40   64
 0.26034187632E+03 0.26004240142E+03 0.25861232033E+03 0.25463982983E+03 0.24634800245E+03
 0.23226304099E+03 0.21184283500E+03 0.18581460563E+03 0.15613126507E+03 0.12551192336E+03
 0.96768936921E+02 0.72122057129E+02 0.52768085283E+02 0.38767239239E+02 0.29273853332E+02
 0.22903069708E+02 0.18531037532E+02 0.15658378080E+02 0.13897047609E+02 0.12958491212E+02
 0.12663437342E+02 0.12958674224E+02 0.13896639679E+02 0.15659138117E+02 0.18529634298E+02
 0.22905375361E+02 0.29272665614E+02 0.38766610409E+02 0.52768711897E+02 0.72121813275E+02
 0.96769003772E+02 0.12551180476E+03 0.15613135506E+03 0.18581443960E+03 0.21184291018E+03
 0.23226306598E+03 0.24634795613E+03 0.25464002448E+03 0.25861232515E+03 0.26004217352E+03
 0.26004217352E+03 0.26004250759E+03 0.25917116627E+03 0.25644007813E+03 0.25022758045E+03
 0.23888881966E+03 0.22140863805E+03 0.19790602581E+03 0.16976820063E+03 0.13939749103E+03
 0.10961180342E+03 0.82958430975E+02 0.61131879898E+02 0.44722529603E+02 0.33274811728E+02
 0.25621539018E+02 0.20389807583E+02 0.16850237577E+02 0.14600320789E+02 0.13289806911E+02
 0.12693964662E+02 0.12693175081E+02 0.13290614186E+02 0.14599449539E+02 0.16851124926E+02
 0.20389247568E+02 0.25620299417E+02 0.33276946751E+02 0.44721380703E+02 0.61132508671E+02
 0.82957922028E+02 0.10961233760E+03 0.13939702199E+03 0.16976875860E+03 0.19790552709E+03
 0.22140926409E+03 0.23888844767E+03 0.25022792377E+03 0.25643998658E+03 0.25917136445E+03
 0.25861232515E+03 0.25917831429E+03 0.25861187813E+03 0.25643981397E+03 0.25141125191E+03
 0.24197830949E+03 0.22691480777E+03 0.20588142457E+03 0.17972451887E+03 0.15040169540E+03
 0.12053569352E+03 0.92773784225E+02 0.69153585109E+02 0.50720046202E+02 0.37435099487E+02
 0.28423705288E+02 0.22325527603E+02 0.18125038811E+02 0.15365891158E+02 0.13671162841E+02
 0.12767909181E+02 0.12483152723E+02 0.12768046301E+02 0.13670810338E+02 0.15366516392E+02
 0.18123783248E+02 0.22327960014E+02 0.28421662513E+02 0.37435815794E+02 0.50719799540E+02
 0.69153598508E+02 0.92773836321E+02 0.12053553937E+03 0.15040165507E+03 0.17972455175E+03
 0.20588141587E+03 0.22691465498E+03 0.24197869996E+03 0.25141096710E+03 0.25643998658E+03
 0.25464002448E+03 0.25645767226E+03 0.25645812018E+03 0.25464010712E+03 0.25022785508E+03
 0.24197814805E+03 0.22870115370E+03 0.20981601466E+03 0.18574197788E+03 0.15797704357E+03
 0.12881924539E+03 0.10082448418E+03 0.76193342577E+02 0.56297489189E+02 0.41487248098E+02
 0.31196489127E+02 0.24245276556E+02 0.19426466572E+02 0.16165748712E+02 0.14089885223E+02
 0.12878336373E+02 0.12326557208E+02 0.12325494711E+02 0.12879438799E+02 0.14088608490E+02
 0.16167242705E+02 0.19424672083E+02 0.24246030598E+02 0.31196998968E+02 0.41486502067E+02
 0.56298373734E+02 0.76192643706E+02 0.10082490286E+03 0.12881907059E+03 0.15797714720E+03
 0.18574197198E+03 0.20981635047E+03 0.22870102750E+03 0.24197869996E+03 0.25022792377E+03
 0.24634795613E+03 0.25025700085E+03 0.25145145299E+03 0.25025671909E+03 0.24634782154E+03
 0.23888832377E+03 0.22691524698E+03 0.20981594262E+03 0.18775059611E+03 0.16182571480E+03
 0.13397200623E+03 0.10652207762E+03 0.81673671503E+02 0.60984341448E+02 0.45107841722E+02
 0.33775421737E+02 0.26044896834E+02 0.20680652646E+02 0.16964263997E+02 0.14523614070E+02
 0.13018308898E+02 0.12213967256E+02 0.11959712984E+02 0.12213883440E+02 0.13018433666E+02
 0.14523417148E+02 0.16964373656E+02 0.20681540584E+02 0.26043321042E+02 0.33776947697E+02
 0.45106602405E+02 0.60985144662E+02 0.81673154106E+02 0.10652232548E+03 0.13397171727E+03
 0.16182579442E+03 0.18775020635E+03 0.20981635047E+03 0.22691465498E+03 0.23888844767E+03
 0.23226306598E+03 0.23892395261E+03 0.24203616399E+03 0.24203603665E+03 0.23892397508E+03
 0.23226322585E+03 0.22140905665E+03 0.20588098925E+03 0.18574219589E+03 0.16182565333E+03
 0.13571819026E+03 0.10946932662E+03 0.85148089625E+02 0.64365218367E+02 0.47972963412E+02
 0.35957847592E+02 0.27615538464E+02 0.21809941236E+02 0.17714951251E+02 0.14947538363E+02
 0.13174906037E+02 0.12137584514E+02 0.11661472360E+02 0.11661258997E+02 0.12137813715E+02
 0.13174569743E+02 0.14948028079E+02 0.17713704384E+02 0.21811527331E+02 0.27614269400E+02
 0.35958749512E+02 0.47972487785E+02 0.64365452501E+02 0.85148032926E+02 0.10946922303E+03
 0.13571840386E+03 0.16182579442E+03 0.18574197198E+03 0.20588141587E+03 0.22140926409E+03
 0.21184291018E+03 0.22144319390E+03 0.22697769727E+03 0.22877512846E+03 0.22697802464E+03
 0.22144330971E+03 0.21184286432E+03 0.19790577874E+03 0.17972501459E+03 0.15797705329E+03
 0.13397184221E+03 0.10946976095E+03 0.86337273615E+02 0.66136351055E+02 0.49811638384E+02
 0.37546018365E+02 0.28845357282E+02 0.22740048754E+02 0.18366322343E+02 0.15335094721E+02
 0.13331822633E+02 0.12090620469E+02 0.11419967864E+02 0.11209341362E+02 0.11419867980E+02
 0.12090840730E+02 0.13331444045E+02 0.15335979269E+02 0.18365333351E+02 0.22740674531E+02
 0.28845143181E+02 0.37545958202E+02 0.49811932597E+02 0.66135904607E+02 0.86337776583E+02
 0.10946922303E+03 0.13397171727E+03 0.15797714720E+03 0.17972455175E+03 0.19790552709E+03
 0.18581443960E+03 0.19793036109E+03 0.20593385042E+03 0.20988677996E+03 0.20988644955E+03
 0.20593358930E+03 0.19793011651E+03 0.18581485903E+03 0.16976852956E+03 0.15040138188E+03
 0.12881918433E+03 0.10652228204E+03 0.85147502403E+02 0.66136502570E+02 0.50445245268E+02
 0.38382605881E+02 0.29632527699E+02 0.23402988316E+02 0.18871783350E+02 0.15656841958E+02
 0.13474921985E+02 0.12063509066E+02 0.11229760196E+02 0.10843334449E+02 0.10843779776E+02
 0.11229287213E+02 0.12064025807E+02 0.13474110711E+02 0.15657615127E+02 0.18871391090E+02
 0.23402996467E+02 0.29632725475E+02 0.38382162991E+02 0.50445818209E+02 0.66135904607E+02
 0.85148032926E+02 0.10652232548E+03 0.12881907059E+03 0.15040165507E+03 0.16976875860E+03
 0.15613135506E+03 0.16977725406E+03 0.17975181148E+03 0.18578699355E+03 0.18780257768E+03
 0.18578746216E+03 0.17975246035E+03 0.16977747687E+03 0.15613115600E+03 0.13939728491E+03
 0.12053607742E+03 0.10082469057E+03 0.81673170773E+02 0.64366018775E+02 0.49811158466E+02
 0.38382937520E+02 0.29903460129E+02 0.23748424886E+02 0.19191819553E+02 0.15888013844E+02
 0.13588906924E+02 0.12050261428E+02 0.11084566244E+02 0.10555878379E+02 0.10388636405E+02
 0.10555934803E+02 0.11084496272E+02 0.12050571457E+02 0.13588647202E+02 0.15887920239E+02
 0.19192190093E+02 0.23747882951E+02 0.29904209753E+02 0.38382162991E+02 0.49811932597E+02
 0.64365452501E+02 0.81673154106E+02 0.10082490286E+03 0.12053553937E+03 0.13939702199E+03
 0.12551180476E+03 0.13938688076E+03 0.15039541631E+03 0.15798102889E+03 0.16183737754E+03
 0.16183718275E+03 0.15798044955E+03 0.15039493310E+03 0.13938676026E+03 0.12551219297E+03
 0.10961206761E+03 0.92773173290E+02 0.76193115776E+02 0.60984928126E+02 0.47971917065E+02
 0.37546668345E+02 0.29631975232E+02 0.23748677282E+02 0.19301288525E+02 0.16008939975E+02
 0.13662363082E+02 0.12044844793E+02 0.10981903170E+02 0.10341660941E+02 0.10041906580E+02
 0.10041842826E+02 0.10341726484E+02 0.10981718646E+02 0.12044989062E+02 0.13662547615E+02
 0.16008472680E+02 0.19301824021E+02 0.23747882951E+02 0.29632725475E+02 0.37545958202E+02
 0.47972487785E+02 0.60985144662E+02 0.76192643706E+02 0.92773836321E+02 0.10961233760E+03
 0.96769003772E+02 0.10958493517E+03 0.12049429092E+03 0.12877467246E+03 0.13392880389E+03
 0.13567679727E+03 0.13392919969E+03 0.12877521619E+03 0.12049497901E+03 0.10958494320E+03
 0.96768698537E+02 0.82958080708E+02 0.69154338082E+02 0.56297341358E+02 0.45107149956E+02
 0.35959080749E+02 0.28844473994E+02 0.23403758402E+02 0.19191384833E+02 0.16009088923E+02
 0.13687713547E+02 0.12043116968E+02 0.10920681214E+02 0.10198618242E+02 0.97968255020E+01
 0.96674235122E+01 0.97968663370E+01 0.10198693406E+02 0.10920685726E+02 0.12042823326E+02
 0.13688240479E+02 0.16008472680E+02 0.19192190093E+02 0.23402996467E+02 0.28845143181E+02
 0.35958749512E+02 0.45106602405E+02 0.56298373734E+02 0.69153598508E+02 0.82957922028E+02
 0.72121813275E+02 0.82917627566E+02 0.92704031778E+02 0.10073687823E+03 0.10642532928E+03
 0.10936890120E+03 0.10936893355E+03 0.10642488928E+03 0.10073627418E+03 0.92703206361E+02
 0.82917579393E+02 0.72122115299E+02 0.61132310417E+02 0.50718918210E+02 0.41487831875E+02
 0.33775794917E+02 0.27614340408E+02 0.22741063306E+02 0.18870812925E+02 0.15888695828E+02
 0.13661965597E+02 0.12043402579E+02 0.10900030395E+02 0.10127212692E+02 0.96498463728E+01
 0.94223366917E+01 0.94221291178E+01 0.96499830730E+01 0.10127090057E+02 0.10900440276E+02
 0.12042823326E+02 0.13662547615E+02 0.15887920239E+02 0.18871391090E+02 0.22740674531E+02
 0.27614269400E+02 0.33776947697E+02 0.41486502067E+02 0.50719799540E+02 0.61132508671E+02
 0.52768711897E+02 0.61085819503E+02 0.69066522945E+02 0.76073730846E+02 0.81533150000E+02
 0.84995809369E+02 0.86182003108E+02 0.84995696703E+02 0.81533550300E+02 0.76074422881E+02
 0.69067414303E+02 0.61085738411E+02 0.52767946832E+02 0.44721579772E+02 0.37436768154E+02
 0.31195173575E+02 0.26045123995E+02 0.21810836640E+02 0.18365489905E+02 0.15657788504E+02
 0.13588203065E+02 0.12045287985E+02 0.10920322789E+02 0.10127285002E+02 0.96009168257E+01
 0.93006417404E+01 0.92026712392E+01 0.93006846873E+01 0.96008767132E+01 0.10127090057E+02
 0.10920685726E+02 0.12044989062E+02 0.13588647202E+02 0.15657615127E+02 0.18365333351E+02
 0.21811527331E+02 0.26043321042E+02 0.31196998968E+02 0.37435815794E+02 0.44721380703E+02
 0.38766610409E+02 0.44675123769E+02 0.50627033663E+02 0.56165579632E+02 0.60820614932E+02
 0.64180170895E+02 0.65940003048E+02 0.65940304910E+02 0.64180107924E+02 0.60820287487E+02
 0.56164244100E+02 0.50626168057E+02 0.44675181544E+02 0.38768340888E+02 0.33275407273E+02
 0.28421610847E+02 0.24247650618E+02 0.20679417528E+02 0.17714905183E+02 0.15335316306E+02
 0.13474387289E+02 0.12050671985E+02 0.10981702302E+02 0.10198831807E+02 0.96499268640E+01
 0.93005204520E+01 0.91303481598E+01 0.91302659798E+01 0.93006846873E+01 0.96499830730E+01
 0.10198693406E+02 0.10981718646E+02 0.12050571457E+02 0.13474110711E+02 0.15335979269E+02
 0.17713704384E+02 0.20681540584E+02 0.24246030598E+02 0.28421662513E+02 0.33276946751E+02
 0.29272665614E+02 0.33234423406E+02 0.37347922138E+02 0.41355877419E+02 0.44938599753E+02
 0.47776262168E+02 0.49597832976E+02 0.50225774010E+02 0.49597581200E+02 0.47776023170E+02
 0.44939375607E+02 0.41357376691E+02 0.37348950528E+02 0.33232997264E+02 0.29271402603E+02
 0.25622926130E+02 0.22326366573E+02 0.19424477318E+02 0.16965777719E+02 0.14947203428E+02
 0.13332003468E+02 0.12063753867E+02 0.11084373795E+02 0.10341719004E+02 0.97967137060E+01
 0.94222120116E+01 0.92028194180E+01 0.91303481598E+01 0.92026712392E+01 0.94221291178E+01
 0.97968663370E+01 0.10341726484E+02 0.11084496272E+02 0.12064025807E+02 0.13331444045E+02
 0.14948028079E+02 0.16964373656E+02 0.19424672083E+02 0.22327960014E+02 0.25620299417E+02
 0.22905375361E+02 0.25584500068E+02 0.28346230777E+02 0.31080710998E+02 0.33621721743E+02
 0.35771424632E+02 0.37335720320E+02 0.38160373742E+02 0.38160473789E+02 0.37336146911E+02
 0.35771463138E+02 0.33620463625E+02 0.31078783533E+02 0.28346145563E+02 0.25587070051E+02
 0.22904663211E+02 0.20387821285E+02 0.18125575997E+02 0.16166840940E+02 0.14522571898E+02
 0.13175022512E+02 0.12090455266E+02 0.11229479648E+02 0.10556119935E+02 0.10041842662E+02
 0.96676209334E+01 0.94222120116E+01 0.93005204520E+01 0.93006417404E+01 0.94223366917E+01
 0.96674235122E+01 0.10041842826E+02 0.10555934803E+02 0.11229287213E+02 0.12090840730E+02
 0.13174569743E+02 0.14523417148E+02 0.16167242705E+02 0.18123783248E+02 0.20389247568E+02
 0.18529634298E+02 0.20360614320E+02 0.22266388018E+02 0.24148535341E+02 0.25909511970E+02
 0.27449837837E+02 0.28656592358E+02 0.29428788741E+02 0.29694580861E+02 0.29428440811E+02
 0.28656208760E+02 0.27450153058E+02 0.25911441849E+02 0.24150254334E+02 0.22264842423E+02
 0.20359222135E+02 0.18531036780E+02 0.16851566727E+02 0.15365264170E+02 0.14089053770E+02
 0.13019196966E+02 0.12137484951E+02 0.11420225535E+02 0.10843541614E+02 0.10388486989E+02
 0.10041842662E+02 0.97967137060E+01 0.96499268640E+01 0.96009168257E+01 0.96498463728E+01
 0.97968255020E+01 0.10041906580E+02 0.10388636405E+02 0.10843779776E+02 0.11419867980E+02
 0.12137813715E+02 0.13018433666E+02 0.14088608490E+02 0.15366516392E+02 0.16851124926E+02
 0.15659138117E+02 0.16828902116E+02 0.18075118847E+02 0.19346928665E+02 0.20573791802E+02
 0.21677224504E+02 0.22583774478E+02 0.23228844177E+02 0.23564661992E+02 0.23564889783E+02
 0.23229288467E+02 0.22583918561E+02 0.21676348279E+02 0.20571621760E+02 0.19346641491E+02
 0.18076898476E+02 0.16829300023E+02 0.15658117835E+02 0.14599364855E+02 0.13671903785E+02
 0.12878915201E+02 0.12213213965E+02 0.11661389907E+02 0.11209075679E+02 0.10843541614E+02
 0.10556119935E+02 0.10341719004E+02 0.10198831807E+02 0.10127285002E+02 0.10127212692E+02
 0.10198618242E+02 0.10341660941E+02 0.10555878379E+02 0.10843334449E+02 0.11209341362E+02
 0.11661258997E+02 0.12213883440E+02 0.12879438799E+02 0.13670810338E+02 0.14599449539E+02
 0.13896639679E+02 0.14581975926E+02 0.15328611587E+02 0.16106659966E+02 0.16880274099E+02
 0.17607191130E+02 0.18238234302E+02 0.18728123712E+02 0.19038618725E+02 0.19144798074E+02
 0.19038262562E+02 0.18727758766E+02 0.18238635631E+02 0.17608470260E+02 0.16881755605E+02
 0.16106281470E+02 0.15327362934E+02 0.14581907341E+02 0.13897545887E+02 0.13290419232E+02
 0.12767143899E+02 0.12325960195E+02 0.11960411281E+02 0.11661389907E+02 0.11420225535E+02
 0.11229479648E+02 0.11084373795E+02 0.10981702302E+02 0.10920322789E+02 0.10900030395E+02
 0.10920681214E+02 0.10981903170E+02 0.11084566244E+02 0.11229760196E+02 0.11419967864E+02
 0.11661472360E+02 0.11959712984E+02 0.12325494711E+02 0.12768046301E+02 0.13290614186E+02
 0.12958674224E+02 0.13276424852E+02 0.13640793323E+02 0.14041459224E+02 0.14458555474E+02
 0.14865887586E+02 0.15238098313E+02 0.15547174926E+02 0.15769030893E+02 0.15885180444E+02
 0.15885309815E+02 0.15769416714E+02 0.15547140105E+02 0.15237272343E+02 0.14864956055E+02
 0.14457647965E+02 0.14041848085E+02 0.13641859163E+02 0.13276201306E+02 0.12957940056E+02
 0.12693435862E+02 0.12483965954E+02 0.12325960195E+02 0.12213213965E+02 0.12137484951E+02
 0.12090455266E+02 0.12063753867E+02 0.12050671985E+02 0.12045287985E+02 0.12043402579E+02
 0.12043116968E+02 0.12044844793E+02 0.12050261428E+02 0.12063509066E+02 0.12090620469E+02
 0.12137584514E+02 0.12213967256E+02 0.12326557208E+02 0.12483152723E+02 0.12693175081E+02
 0.12663437342E+02 0.12680564334E+02 0.12742657430E+02 0.12841124242E+02 0.12967222356E+02
 0.13111103674E+02 0.13256762395E+02 0.13390416266E+02 0.13497699137E+02 0.13566971245E+02
 0.13590897462E+02 0.13566759821E+02 0.13497595111E+02 0.13390770553E+02 0.13257520787E+02
 0.13111564860E+02 0.12968042907E+02 0.12840589865E+02 0.12741776547E+02 0.12680824948E+02
 0.12664071504E+02 0.12693435862E+02 0.12767143899E+02 0.12878915201E+02 0.13019196966E+02
 0.13175022512E+02 0.13332003468E+02 0.13474387289E+02 0.13588203065E+02 0.13661965597E+02
 0.13687713547E+02 0.13662363082E+02 0.13588906924E+02 0.13474921985E+02 0.13331822633E+02
 0.13174906037E+02 0.13018308898E+02 0.12878336373E+02 0.12767909181E+02 0.12693964662E+02
 0.12958491212E+02 0.12681347301E+02 0.12459343636E+02 0.12291597822E+02 0.12170996149E+02
 0.12086890942E+02 0.12033247109E+02 0.12000965401E+02 0.11983557767E+02 0.11975534585E+02
 0.11972582239E+02 0.11972699495E+02 0.11975523317E+02 0.11983458337E+02 0.12000556197E+02
 0.12032732283E+02 0.12086515975E+02 0.12170276231E+02 0.12292045576E+02 0.12460146994E+02
 0.12680824948E+02 0.12957940056E+02 0.13290419232E+02 0.13671903785E+02 0.14089053770E+02
 0.14522571898E+02 0.14947203428E+02 0.15335316306E+02 0.15657788504E+02 0.15888695828E+02
 0.16009088923E+02 0.16008939975E+02 0.15888013844E+02 0.15656841958E+02 0.15335094721E+02
 0.14947538363E+02 0.14523614070E+02 0.14089885223E+02 0.13671162841E+02 0.13289806911E+02
 0.13897047609E+02 0.13275600403E+02 0.12742497719E+02 0.12292656708E+02 0.11919402178E+02
 0.11616466757E+02 0.11371903428E+02 0.11179647350E+02 0.11033868751E+02 0.10931102045E+02
 0.10869954811E+02 0.10849537393E+02 0.10870022031E+02 0.10931228437E+02 0.11034057549E+02
 0.11179876791E+02 0.11372430230E+02 0.11616576659E+02 0.11920181696E+02 0.12292045576E+02
 0.12741776547E+02 0.13276201306E+02 0.13897545887E+02 0.14599364855E+02 0.15365264170E+02
 0.16166840940E+02 0.16965777719E+02 0.17714905183E+02 0.18365489905E+02 0.18870812925E+02
 0.19191384833E+02 0.19301288525E+02 0.19191819553E+02 0.18871783350E+02 0.18366322343E+02
 0.17714951251E+02 0.16964263997E+02 0.16165748712E+02 0.15365891158E+02 0.14600320789E+02
 0.15658378080E+02 0.14582832977E+02 0.13641112440E+02 0.12839981505E+02 0.12171056842E+02
 0.11616657669E+02 0.11164944157E+02 0.10800960872E+02 0.10515782241E+02 0.10304176770E+02
 0.10163394254E+02 0.10093079946E+02 0.10092905360E+02 0.10163331344E+02 0.10303954588E+02
 0.10515784643E+02 0.10800659024E+02 0.11164569508E+02 0.11616576659E+02 0.12170276231E+02
 0.12840589865E+02 0.13641859163E+02 0.14581907341E+02 0.15658117835E+02 0.16851566727E+02
 0.18125575997E+02 0.19424477318E+02 0.20679417528E+02 0.21810836640E+02 0.22741063306E+02
 0.23403758402E+02 0.23748677282E+02 0.23748424886E+02 0.23402988316E+02 0.22740048754E+02
 0.21809941236E+02 0.20680652646E+02 0.19426466572E+02 0.18125038811E+02 0.16850237577E+02
 0.18531037532E+02 0.16827999671E+02 0.15327948321E+02 0.14042713432E+02 0.12967060691E+02
 0.12086664767E+02 0.11372003646E+02 0.10800473314E+02 0.10351315573E+02 0.10010303286E+02
 0.97698866151E+01 0.96262448034E+01 0.95786496919E+01 0.96263784580E+01 0.97700961601E+01
 0.10010388029E+02 0.10351424797E+02 0.10800659024E+02 0.11372430230E+02 0.12086515975E+02
 0.12968042907E+02 0.14041848085E+02 0.15327362934E+02 0.16829300023E+02 0.18531036780E+02
 0.20387821285E+02 0.22326366573E+02 0.24247650618E+02 0.26045123995E+02 0.27614340408E+02
 0.28844473994E+02 0.29631975232E+02 0.29903460129E+02 0.29632527699E+02 0.28845357282E+02
 0.27615538464E+02 0.26044896834E+02 0.24245276556E+02 0.22325527603E+02 0.20389807583E+02
 0.22903069708E+02 0.20361166284E+02 0.18076387724E+02 0.16105126424E+02 0.14458729940E+02
 0.13111395362E+02 0.12033013522E+02 0.11180174650E+02 0.10515725987E+02 0.10010582562E+02
 0.96439626425E+01 0.94043522236E+01 0.92853836412E+01 0.92855155880E+01 0.94040725146E+01
 0.96439676837E+01 0.10010388029E+02 0.10515784643E+02 0.11179876791E+02 0.12032732283E+02
 0.13111564860E+02 0.14457647965E+02 0.16106281470E+02 0.18076898476E+02 0.20359222135E+02
 0.22904663211E+02 0.25622926130E+02 0.28421610847E+02 0.31195173575E+02 0.33775794917E+02
 0.35959080749E+02 0.37546668345E+02 0.38382937520E+02 0.38382605881E+02 0.37546018365E+02
 0.35957847592E+02 0.33775421737E+02 0.31196489127E+02 0.28423705288E+02 0.25621539018E+02
 0.29273853332E+02 0.25585773834E+02 0.22263947808E+02 0.19348731708E+02 0.16880150904E+02
 0.14865406885E+02 0.13257160409E+02 0.12000396370E+02 0.11034008344E+02 0.10303903404E+02
 0.97699463648E+01 0.94039795121E+01 0.91901289069E+01 0.91193663442E+01 0.91901850811E+01
 0.94040725146E+01 0.97700961601E+01 0.10303954588E+02 0.11034057549E+02 0.12000556197E+02
 0.13257520787E+02 0.14864956055E+02 0.16881755605E+02 0.19346641491E+02 0.22264842423E+02
 0.25587070051E+02 0.29271402603E+02 0.33275407273E+02 0.37436768154E+02 0.41487831875E+02
 0.45107149956E+02 0.47971917065E+02 0.49811158466E+02 0.50445245268E+02 0.49811638384E+02
 0.47972963412E+02 0.45107841722E+02 0.41487248098E+02 0.37435099487E+02 0.33274811728E+02
 0.38767239239E+02 0.33232297956E+02 0.28348306888E+02 0.24147816938E+02 0.20572930422E+02
 0.17608420359E+02 0.15237164665E+02 0.13391298648E+02 0.11983197250E+02 0.10931548958E+02
 0.10163212553E+02 0.96267143084E+01 0.92852568708E+01 0.91197163883E+01 0.91193663442E+01
 0.92855155880E+01 0.96263784580E+01 0.10163331344E+02 0.10931228437E+02 0.11983458337E+02
 0.13390770553E+02 0.15237272343E+02 0.17608470260E+02 0.20571621760E+02 0.24150254334E+02
 0.28346145563E+02 0.33232997264E+02 0.38768340888E+02 0.44721579772E+02 0.50718918210E+02
 0.56297341358E+02 0.60984928126E+02 0.64366018775E+02 0.66136502570E+02 0.66136351055E+02
 0.64365218367E+02 0.60984341448E+02 0.56297489189E+02 0.50720046202E+02 0.44722529603E+02
 0.52768085283E+02 0.44676248336E+02 0.37347263075E+02 0.31080242846E+02 0.25911102529E+02
 0.21675670623E+02 0.18239269264E+02 0.15546355627E+02 0.13497996439E+02 0.11975212185E+02
 0.10870102530E+02 0.10092707854E+02 0.95787709241E+01 0.92852568708E+01 0.91901289069E+01
 0.92853836412E+01 0.95786496919E+01 0.10092905360E+02 0.10870022031E+02 0.11975523317E+02
 0.13497595111E+02 0.15547140105E+02 0.18238635631E+02 0.21676348279E+02 0.25911441849E+02
 0.31078783533E+02 0.37348950528E+02 0.44675181544E+02 0.52767946832E+02 0.61132310417E+02
 0.69154338082E+02 0.76193115776E+02 0.81673170773E+02 0.85147502403E+02 0.86337273615E+02
 0.85148089625E+02 0.81673671503E+02 0.76193342577E+02 0.69153585109E+02 0.61131879898E+02
 0.72122057129E+02 0.61085212451E+02 0.50627349501E+02 0.41356643196E+02 0.33620233690E+02
 0.27451192833E+02 0.22583021123E+02 0.18728626658E+02 0.15768923837E+02 0.13567152202E+02
 0.11972494433E+02 0.10849929620E+02 0.10092707854E+02 0.96267143084E+01 0.94039795121E+01
 0.94043522236E+01 0.96262448034E+01 0.10093079946E+02 0.10849537393E+02 0.11972699495E+02
 0.13566759821E+02 0.15769416714E+02 0.18727758766E+02 0.22583918561E+02 0.27450153058E+02
 0.33620463625E+02 0.41357376691E+02 0.50626168057E+02 0.61085738411E+02 0.72122115299E+02
 0.82958080708E+02 0.92773173290E+02 0.10082469057E+03 0.10652228204E+03 0.10946976095E+03
 0.10946932662E+03 0.10652207762E+03 0.10082448418E+03 0.92773784225E+02 0.82958430975E+02
 0.96768936921E+02 0.82918120764E+02 0.69066485990E+02 0.56164609078E+02 0.44939948468E+02
 0.35770441748E+02 0.28656955269E+02 0.23228703563E+02 0.19038424820E+02 0.15885221666E+02
 0.13590811430E+02 0.11972494433E+02 0.10870102530E+02 0.10163212553E+02 0.97699463648E+01
 0.96439626425E+01 0.97698866151E+01 0.10163394254E+02 0.10869954811E+02 0.11972582239E+02
 0.13590897462E+02 0.15885309815E+02 0.19038262562E+02 0.23229288467E+02 0.28656208760E+02
 0.35771463138E+02 0.44939375607E+02 0.56164244100E+02 0.69067414303E+02 0.82917579393E+02
 0.96768698537E+02 0.10961206761E+03 0.12053607742E+03 0.12881918433E+03 0.13397184221E+03
 0.13571819026E+03 0.13397200623E+03 0.12881924539E+03 0.12053569352E+03 0.10961180342E+03
 0.12551192336E+03 0.10958447437E+03 0.92703839194E+02 0.76074554670E+02 0.60819780437E+02
 0.47776863376E+02 0.37335637052E+02 0.29428769107E+02 0.23564813482E+02 0.19144782184E+02
 0.15885221666E+02 0.13567152202E+02 0.11975212185E+02 0.10931548958E+02 0.10303903404E+02
 0.10010582562E+02 0.10010303286E+02 0.10304176770E+02 0.10931102045E+02 0.11975534585E+02
 0.13566971245E+02 0.15885180444E+02 0.19144798074E+02 0.23564889783E+02 0.29428440811E+02
 0.37336146911E+02 0.47776023170E+02 0.60820287487E+02 0.76074422881E+02 0.92703206361E+02
 0.10958494320E+03 0.12551219297E+03 0.13939728491E+03 0.15040138188E+03 0.15797705329E+03
 0.16182565333E+03 0.16182571480E+03 0.15797704357E+03 0.15040169540E+03 0.13939749103E+03
 0.15613126507E+03 0.13938715796E+03 0.12049449463E+03 0.10073628350E+03 0.81533757081E+02
 0.64179577867E+02 0.49597923359E+02 0.38160368794E+02 0.29694468019E+02 0.23564813482E+02
 0.19038424820E+02 0.15768923837E+02 0.13497996439E+02 0.11983197250E+02 0.11034008344E+02
 0.10515725987E+02 0.10351315573E+02 0.10515782241E+02 0.11033868751E+02 0.11983557767E+02
 0.13497699137E+02 0.15769030893E+02 0.19038618725E+02 0.23564661992E+02 0.29694580861E+02
 0.38160473789E+02 0.49597581200E+02 0.64180107924E+02 0.81533550300E+02 0.10073627418E+03
 0.12049497901E+03 0.13938676026E+03 0.15613115600E+03 0.16976852956E+03 0.17972501459E+03
 0.18574219589E+03 0.18775059611E+03 0.18574197788E+03 0.17972451887E+03 0.16976820063E+03
 0.18581460563E+03 0.16977702310E+03 0.15039520502E+03 0.12877517137E+03 0.10642458436E+03
 0.84996415075E+02 0.65939975466E+02 0.50225877955E+02 0.38160368794E+02 0.29428769107E+02
 0.23228703563E+02 0.18728626658E+02 0.15546355627E+02 0.13391298648E+02 0.12000396370E+02
 0.11180174650E+02 0.10800473314E+02 0.10800960872E+02 0.11179647350E+02 0.12000965401E+02
 0.13390416266E+02 0.15547174926E+02 0.18728123712E+02 0.23228844177E+02 0.29428788741E+02
 0.38160373742E+02 0.50225774010E+02 0.65940304910E+02 0.84995696703E+02 0.10642488928E+03
 0.12877521619E+03 0.15039493310E+03 0.16977747687E+03 0.18581485903E+03 0.19790577874E+03
 0.20588098925E+03 0.20981594262E+03 0.20981601466E+03 0.20588142457E+03 0.19790602581E+03
 0.21184283500E+03 0.19793036983E+03 0.17975211212E+03 0.15798040329E+03 0.13392948158E+03
 0.10936841779E+03 0.86182058059E+02 0.65939975466E+02 0.49597923359E+02 0.37335637052E+02
 0.28656955269E+02 0.22583021123E+02 0.18239269264E+02 0.15237164665E+02 0.13257160409E+02
 0.12033013522E+02 0.11372003646E+02 0.11164944157E+02 0.11371903428E+02 0.12033247109E+02
 0.13256762395E+02 0.15238098313E+02 0.18238234302E+02 0.22583774478E+02 0.28656592358E+02
 0.37335720320E+02 0.49597832976E+02 0.65940003048E+02 0.86182003108E+02 0.10936893355E+03
 0.13392919969E+03 0.15798044955E+03 0.17975246035E+03 0.19793011651E+03 0.21184286432E+03
 0.22140905665E+03 0.22691524698E+03 0.22870115370E+03 0.22691480777E+03 0.22140863805E+03
 0.23226304099E+03 0.22144335601E+03 0.20593361844E+03 0.18578768638E+03 0.16183663994E+03
 0.13567740052E+03 0.10936841779E+03 0.84996415075E+02 0.64179577867E+02 0.47776863376E+02
 0.35770441748E+02 0.27451192833E+02 0.21675670623E+02 0.17608420359E+02 0.14865406885E+02
 0.13111395362E+02 0.12086664767E+02 0.11616657669E+02 0.11616466757E+02 0.12086890942E+02
 0.13111103674E+02 0.14865887586E+02 0.17607191130E+02 0.21677224504E+02 0.27449837837E+02
 0.35771424632E+02 0.47776262168E+02 0.64180170895E+02 0.84995809369E+02 0.10936890120E+03
 0.13567679727E+03 0.16183718275E+03 0.18578746216E+03 0.20593358930E+03 0.22144330971E+03
 0.23226322585E+03 0.23888832377E+03 0.24197814805E+03 0.24197830949E+03 0.23888881966E+03
 0.24634800245E+03 0.23892401464E+03 0.22697793017E+03 0.20988620264E+03 0.18780316636E+03
 0.16183663994E+03 0.13392948158E+03 0.10642458436E+03 0.81533757081E+02 0.60819780437E+02
 0.44939948468E+02 0.33620233690E+02 0.25911102529E+02 0.20572930422E+02 0.16880150904E+02
 0.14458729940E+02 0.12967060691E+02 0.12171056842E+02 0.11919402178E+02 0.12170996149E+02
 0.12967222356E+02 0.14458555474E+02 0.16880274099E+02 0.20573791802E+02 0.25909511970E+02
 0.33621721743E+02 0.44938599753E+02 0.60820614932E+02 0.81533150000E+02 0.10642532928E+03
 0.13392880389E+03 0.16183737754E+03 0.18780257768E+03 0.20988644955E+03 0.22697802464E+03
 0.23892397508E+03 0.24634782154E+03 0.25022785508E+03 0.25141125191E+03 0.25022758045E+03
 0.25463982983E+03 0.25025706456E+03 0.24203609460E+03 0.22877576822E+03 0.20988620264E+03
 0.18578768638E+03 0.15798040329E+03 0.12877517137E+03 0.10073628350E+03 0.76074554670E+02
 0.56164609078E+02 0.41356643196E+02 0.31080242846E+02 0.24147816938E+02 0.19348731708E+02
 0.16105126424E+02 0.14042713432E+02 0.12839981505E+02 0.12292656708E+02 0.12291597822E+02
 0.12841124242E+02 0.14041459224E+02 0.16106659966E+02 0.19346928665E+02 0.24148535341E+02
 0.31080710998E+02 0.41355877419E+02 0.56165579632E+02 0.76073730846E+02 0.10073687823E+03
 0.12877467246E+03 0.15798102889E+03 0.18578699355E+03 0.20988677996E+03 0.22877512846E+03
 0.24203603665E+03 0.25025671909E+03 0.25464010712E+03 0.25643981397E+03 0.25644007813E+03
 0.25861232033E+03 0.25645822564E+03 0.25145133182E+03 0.24203609460E+03 0.22697793017E+03
 0.20593361844E+03 0.17975211212E+03 0.15039520502E+03 0.12049449463E+03 0.92703839194E+02
 0.69066485990E+02 0.50627349501E+02 0.37347263075E+02 0.28348306888E+02 0.22263947808E+02
 0.18076387724E+02 0.15327948321E+02 0.13641112440E+02 0.12742497719E+02 0.12459343636E+02
 0.12742657430E+02 0.13640793323E+02 0.15328611587E+02 0.18075118847E+02 0.22266388018E+02
 0.28346230777E+02 0.37347922138E+02 0.50627033663E+02 0.69066522945E+02 0.92704031778E+02
 0.12049429092E+03 0.15039541631E+03 0.17975181148E+03 0.20593385042E+03 0.22697769727E+03
 0.24203616399E+03 0.25145145299E+03 0.25645812018E+03 0.25861187813E+03 0.25917116627E+03
 0.26004240142E+03 0.25917785982E+03 0.25645822564E+03 0.25025706456E+03 0.23892401464E+03
 0.22144335601E+03 0.19793036983E+03 0.16977702310E+03 0.13938715796E+03 0.10958447437E+03
 0.82918120764E+02 0.61085212451E+02 0.44676248336E+02 0.33232297956E+02 0.25585773834E+02
 0.20361166284E+02 0.16827999671E+02 0.14582832977E+02 0.13275600403E+02 0.12681347301E+02
 0.12680564334E+02 0.13276424852E+02 0.14581975926E+02 0.16828902116E+02 0.20360614320E+02
 0.25584500068E+02 0.33234423406E+02 0.44675123769E+02 0.61085819503E+02 0.82917627566E+02
 0.10958493517E+03 0.13938688076E+03 0.16977725406E+03 0.19793036109E+03 0.22144319390E+03
 0.23892395261E+03 0.25025700085E+03 0.25645767226E+03 0.25917831429E+03 0.26004250759E+03
 0.26016286914E+03 0.25978494714E+03 0.25813377485E+03 0.25383846851E+03 0.24518143407E+03
 0.23075989655E+03 0.21009542296E+03 0.18396113044E+03 0.15432481697E+03 0.12388848089E+03
 0.95421193257E+02 0.71087649995E+02 0.52031181461E+02 0.38273360069E+02 0.28949152118E+02
 0.22674868427E+02 0.18363379529E+02 0.15532002931E+02 0.13794867168E+02 0.12869618082E+02
 0.12578196594E+02 0.12869782336E+02 0.13794501212E+02 0.15532697452E+02 0.18362080602E+02
 0.22677322501E+02 0.28947573472E+02 0.38272984989E+02 0.52031638398E+02 0.71087456735E+02