   2   2   1   0
  0.1341975E+02  0.2615324E-09  0.2615324E-09  0.4530987E-09  0.5000000E-15
  1.000000000000000E-004
  CAR 
 Pt-hcc                                  
     41.10106960    -42.99069806  301     14.49026561      1.00000000
    -42.991  0.0000E+00  0.0000E+00
    -42.710  0.0000E+00  0.0000E+00
    -42.430  0.0000E+00  0.0000E+00
    -42.150  0.0000E+00  0.0000E+00
    -41.869  0.0000E+00  0.0000E+00
    -41.589  0.0000E+00  0.0000E+00
    -41.309  0.0000E+00  0.0000E+00
    -41.029  0.0000E+00  0.0000E+00
    -40.748  0.0000E+00  0.0000E+00
    -40.468  0.0000E+00  0.0000E+00
    -40.188  0.0000E+00  0.0000E+00
    -39.907  0.0000E+00  0.0000E+00
    -39.627  0.0000E+00  0.0000E+00
    -39.347  0.3300E-09  0.9251E-10
    -39.066  0.3119E-01  0.8743E-02
    -38.786  0.1038E+00  0.3784E-01
    -38.506  0.1871E+00  0.9030E-01
    -38.225  0.1059E+00  0.1200E+00
    -37.945  0.7287E-05  0.1200E+00
    -37.665  0.0000E+00  0.1200E+00
    -37.385  0.0000E+00  0.1200E+00
    -37.104  0.0000E+00  0.1200E+00
    -36.824  0.0000E+00  0.1200E+00
    -36.544  0.0000E+00  0.1200E+00
    -36.263  0.0000E+00  0.1200E+00
    -35.983  0.0000E+00  0.1200E+00
    -35.703  0.0000E+00  0.1200E+00
    -35.422  0.0000E+00  0.1200E+00
    -35.142  0.0000E+00  0.1200E+00
    -34.862  0.0000E+00  0.1200E+00
    -34.582  0.0000E+00  0.1200E+00
    -34.301  0.0000E+00  0.1200E+00
    -34.021  0.0000E+00  0.1200E+00
    -33.741  0.0000E+00  0.1200E+00
    -33.460  0.0000E+00  0.1200E+00
    -33.180  0.0000E+00  0.1200E+00
    -32.900  0.0000E+00  0.1200E+00
    -32.619  0.0000E+00  0.1200E+00
    -32.339  0.0000E+00  0.1200E+00
    -32.059  0.0000E+00  0.1200E+00
    -31.778  0.0000E+00  0.1200E+00
    -31.498  0.0000E+00  0.1200E+00
    -31.218  0.0000E+00  0.1200E+00
    -30.938  0.0000E+00  0.1200E+00
    -30.657  0.0000E+00  0.1200E+00
    -30.377  0.0000E+00  0.1200E+00
    -30.097  0.0000E+00  0.1200E+00
    -29.816  0.0000E+00  0.1200E+00
    -29.536  0.0000E+00  0.1200E+00
    -29.256  0.0000E+00  0.1200E+00
    -28.975  0.0000E+00  0.1200E+00
    -28.695  0.0000E+00  0.1200E+00
    -28.415  0.0000E+00  0.1200E+00
    -28.134  0.0000E+00  0.1200E+00
    -27.854  0.0000E+00  0.1200E+00
    -27.574  0.0000E+00  0.1200E+00
    -27.294  0.0000E+00  0.1200E+00
    -27.013  0.0000E+00  0.1200E+00
    -26.733  0.0000E+00  0.1200E+00
    -26.453  0.0000E+00  0.1200E+00
    -26.172  0.0000E+00  0.1200E+00
    -25.892  0.0000E+00  0.1200E+00
    -25.612  0.0000E+00  0.1200E+00
    -25.331  0.0000E+00  0.1200E+00
    -25.051  0.0000E+00  0.1200E+00
    -24.771  0.0000E+00  0.1200E+00
    -24.491  0.0000E+00  0.1200E+00
    -24.210  0.0000E+00  0.1200E+00
    -23.930  0.0000E+00  0.1200E+00
    -23.650  0.0000E+00  0.1200E+00
    -23.369  0.0000E+00  0.1200E+00
    -23.089  0.0000E+00  0.1200E+00
    -22.809  0.0000E+00  0.1200E+00
    -22.528  0.0000E+00  0.1200E+00
    -22.248  0.0000E+00  0.1200E+00
    -21.968  0.0000E+00  0.1200E+00
    -21.687  0.0000E+00  0.1200E+00
    -21.407  0.0000E+00  0.1200E+00
    -21.127  0.0000E+00  0.1200E+00
    -20.847  0.0000E+00  0.1200E+00
    -20.566  0.0000E+00  0.1200E+00
    -20.286  0.0000E+00  0.1200E+00
    -20.006  0.0000E+00  0.1200E+00
    -19.725  0.0000E+00  0.1200E+00
    -19.445  0.0000E+00  0.1200E+00
    -19.165  0.0000E+00  0.1200E+00
    -18.884  0.0000E+00  0.1200E+00
    -18.604  0.0000E+00  0.1200E+00
    -18.324  0.0000E+00  0.1200E+00
    -18.043  0.0000E+00  0.1200E+00
    -17.763  0.0000E+00  0.1200E+00
    -17.483  0.0000E+00  0.1200E+00
    -17.203  0.0000E+00  0.1200E+00
    -16.922  0.0000E+00  0.1200E+00
    -16.642  0.0000E+00  0.1200E+00
    -16.362  0.0000E+00  0.1200E+00
    -16.081  0.0000E+00  0.1200E+00
    -15.801  0.0000E+00  0.1200E+00
    -15.521  0.0000E+00  0.1200E+00
    -15.240  0.0000E+00  0.1200E+00
    -14.960  0.0000E+00  0.1200E+00
    -14.680  0.0000E+00  0.1200E+00
    -14.399  0.0000E+00  0.1200E+00
    -14.119  0.0000E+00  0.1200E+00
    -13.839  0.0000E+00  0.1200E+00
    -13.559  0.0000E+00  0.1200E+00
    -13.278  0.0000E+00  0.1200E+00
    -12.998  0.0000E+00  0.1200E+00
    -12.718  0.0000E+00  0.1200E+00
    -12.437  0.0000E+00  0.1200E+00
    -12.157  0.0000E+00  0.1200E+00
    -11.877  0.0000E+00  0.1200E+00
    -11.596  0.0000E+00  0.1200E+00
    -11.316  0.0000E+00  0.1200E+00
    -11.036  0.0000E+00  0.1200E+00
    -10.756  0.0000E+00  0.1200E+00
    -10.475  0.0000E+00  0.1200E+00
    -10.195  0.0000E+00  0.1200E+00
     -9.915  0.0000E+00  0.1200E+00
     -9.634  0.0000E+00  0.1200E+00
     -9.354  0.0000E+00  0.1200E+00
     -9.074  0.0000E+00  0.1200E+00
     -8.793  0.0000E+00  0.1200E+00
     -8.513  0.0000E+00  0.1200E+00
     -8.233  0.0000E+00  0.1200E+00
     -7.952  0.0000E+00  0.1200E+00
     -7.672  0.0000E+00  0.1200E+00
     -7.392  0.0000E+00  0.1200E+00
     -7.112  0.0000E+00  0.1200E+00
     -6.831  0.0000E+00  0.1200E+00
     -6.551  0.0000E+00  0.1200E+00
     -6.271  0.0000E+00  0.1200E+00
     -5.990  0.0000E+00  0.1200E+00
     -5.710  0.0000E+00  0.1200E+00
     -5.430  0.0000E+00  0.1200E+00
     -5.149  0.0000E+00  0.1200E+00
     -4.869  0.0000E+00  0.1200E+00
     -4.589  0.0000E+00  0.1200E+00
     -4.308  0.0000E+00  0.1200E+00
     -4.028  0.0000E+00  0.1200E+00
     -3.748  0.0000E+00  0.1200E+00
     -3.468  0.0000E+00  0.1200E+00
     -3.187  0.0000E+00  0.1200E+00
     -2.907  0.0000E+00  0.1200E+00
     -2.627  0.0000E+00  0.1200E+00
     -2.346  0.0000E+00  0.1200E+00
     -2.066  0.0000E+00  0.1200E+00
     -1.786  0.0000E+00  0.1200E+00
     -1.505  0.0000E+00  0.1200E+00
     -1.225  0.0000E+00  0.1200E+00
     -0.945  0.0000E+00  0.1200E+00
     -0.665  0.0000E+00  0.1200E+00
     -0.384  0.0000E+00  0.1200E+00
     -0.104  0.0000E+00  0.1200E+00
      0.176  0.0000E+00  0.1200E+00
      0.457  0.0000E+00  0.1200E+00
      0.737  0.0000E+00  0.1200E+00
      1.017  0.0000E+00  0.1200E+00
      1.298  0.0000E+00  0.1200E+00
      1.578  0.0000E+00  0.1200E+00
      1.858  0.0000E+00  0.1200E+00
      2.139  0.0000E+00  0.1200E+00
      2.419  0.0000E+00  0.1200E+00
      2.699  0.5301E-12  0.1200E+00
      2.979  0.9016E-04  0.1200E+00
      3.260  0.1937E-03  0.1201E+00
      3.540  0.1680E-02  0.1206E+00
      3.820  0.8921E-04  0.1206E+00
      4.101  0.1234E-02  0.1209E+00
      4.381  0.1624E-02  0.1214E+00
      4.661  0.3027E-02  0.1222E+00
      4.942  0.1083E-02  0.1225E+00
      5.222  0.9289E-03  0.1228E+00
      5.502  0.3764E-02  0.1238E+00
      5.783  0.4653E-02  0.1251E+00
      6.063  0.8651E-02  0.1276E+00
      6.343  0.1532E-01  0.1319E+00
      6.623  0.1985E-01  0.1374E+00
      6.904  0.2057E-01  0.1432E+00
      7.184  0.2280E-01  0.1496E+00
      7.464  0.1438E-01  0.1536E+00
      7.745  0.2277E-01  0.1600E+00
      8.025  0.2818E-01  0.1679E+00
      8.305  0.2481E-01  0.1749E+00
      8.586  0.2166E-01  0.1809E+00
      8.866  0.2635E-01  0.1883E+00
      9.146  0.2044E-01  0.1940E+00
      9.427  0.2176E-01  0.2001E+00
      9.707  0.2405E-01  0.2069E+00
      9.987  0.2582E-01  0.2141E+00
     10.267  0.2839E-01  0.2221E+00
     10.548  0.2923E-01  0.2303E+00
     10.828  0.2115E-01  0.2362E+00
     11.108  0.3686E-01  0.2465E+00
     11.389  0.2593E-01  0.2538E+00
     11.669  0.2434E-01  0.2606E+00
     11.949  0.1238E-01  0.2641E+00
     12.230  0.1903E-01  0.2694E+00
     12.510  0.1819E-01  0.2745E+00
     12.790  0.1987E-01  0.2801E+00
     13.070  0.2191E-01  0.2862E+00
     13.351  0.1846E-01  0.2914E+00
     13.631  0.1925E-01  0.2968E+00
     13.911  0.1755E-01  0.3017E+00
     14.192  0.2967E-01  0.3100E+00
     14.472  0.3379E-01  0.3195E+00
     14.752  0.2448E-01  0.3264E+00
     15.033  0.2112E-01  0.3323E+00
     15.313  0.9426E-02  0.3349E+00
     15.593  0.4393E-02  0.3362E+00
     15.874  0.2316E-02  0.3368E+00
     16.154  0.1930E-02  0.3374E+00
     16.434  0.1534E-02  0.3378E+00
     16.714  0.7414E-02  0.3399E+00
     16.995  0.6313E-02  0.3416E+00
     17.275  0.9522E-02  0.3443E+00
     17.555  0.3785E-02  0.3454E+00
     17.836  0.7873E-03  0.3456E+00
     18.116  0.7180E-02  0.3476E+00
     18.396  0.1679E-02  0.3481E+00
     18.677  0.3018E-02  0.3489E+00
     18.957  0.6977E-02  0.3509E+00
     19.237  0.3570E-02  0.3519E+00
     19.518  0.3258E-02  0.3528E+00
     19.798  0.7758E-02  0.3550E+00
     20.078  0.3817E-02  0.3560E+00
     20.358  0.7570E-02  0.3582E+00
     20.639  0.2496E-02  0.3589E+00
     20.919  0.2550E-02  0.3596E+00
     21.199  0.5705E-03  0.3597E+00
     21.480  0.3681E-02  0.3608E+00
     21.760  0.4920E-02  0.3621E+00
     22.040  0.3238E-02  0.3631E+00
     22.321  0.9615E-02  0.3657E+00
     22.601  0.1150E-01  0.3690E+00
     22.881  0.8276E-02  0.3713E+00
     23.161  0.5239E-02  0.3728E+00
     23.442  0.7524E-02  0.3749E+00
     23.722  0.8498E-02  0.3773E+00
     24.002  0.2270E-02  0.3779E+00
     24.283  0.1158E-01  0.3811E+00
     24.563  0.6013E-02  0.3828E+00
     24.843  0.5531E-02  0.3844E+00
     25.124  0.9658E-02  0.3871E+00
     25.404  0.3773E-02  0.3881E+00
     25.684  0.3857E-02  0.3892E+00
     25.965  0.1088E-01  0.3923E+00
     26.245  0.4617E-02  0.3936E+00
     26.525  0.6122E-02  0.3953E+00
     26.805  0.4886E-02  0.3966E+00
     27.086  0.7971E-02  0.3989E+00
     27.366  0.3236E-02  0.3998E+00
     27.646  0.4665E-02  0.4011E+00
     27.927  0.1009E-01  0.4039E+00
     28.207  0.1214E-01  0.4073E+00
     28.487  0.8917E-02  0.4098E+00
     28.768  0.1239E-01  0.4133E+00
     29.048  0.9465E-02  0.4160E+00
     29.328  0.5816E-02  0.4176E+00
     29.609  0.1627E-01  0.4221E+00
     29.889  0.1917E-01  0.4275E+00
     30.169  0.2215E-01  0.4337E+00
     30.449  0.9253E-02  0.4363E+00
     30.730  0.1128E-01  0.4395E+00
     31.010  0.9766E-02  0.4422E+00
     31.290  0.2051E-01  0.4480E+00
     31.571  0.1118E-01  0.4511E+00
     31.851  0.1090E-01  0.4542E+00
     32.131  0.1964E-01  0.4597E+00
     32.412  0.9678E-02  0.4624E+00
     32.692  0.1079E-01  0.4654E+00
     32.972  0.1162E-01  0.4687E+00
     33.253  0.8587E-02  0.4711E+00
     33.533  0.5282E-02  0.4725E+00
     33.813  0.5610E-02  0.4741E+00
     34.093  0.2986E-02  0.4749E+00
     34.374  0.7035E-02  0.4769E+00
     34.654  0.2071E-02  0.4775E+00
     34.934  0.1627E-02  0.4780E+00
     35.215  0.4130E-02  0.4791E+00
     35.495  0.2440E-02  0.4798E+00
     35.775  0.1784E-03  0.4798E+00
     36.056  0.2516E-03  0.4799E+00
     36.336  0.1051E-03  0.4800E+00
     36.616  0.0000E+00  0.4800E+00
     36.896  0.0000E+00  0.4800E+00
     37.177  0.3541E-06  0.4800E+00
     37.457  0.1780E-03  0.4800E+00
     37.737  0.0000E+00  0.4800E+00
     38.018  0.0000E+00  0.4800E+00
     38.298  0.0000E+00  0.4800E+00
     38.578  0.0000E+00  0.4800E+00
     38.859  0.0000E+00  0.4800E+00
     39.139  0.0000E+00  0.4800E+00
     39.419  0.0000E+00  0.4800E+00
     39.700  0.0000E+00  0.4800E+00
     39.980  0.0000E+00  0.4800E+00
     40.260  0.0000E+00  0.4800E+00
     40.540  0.0000E+00  0.4800E+00
     40.821  0.0000E+00  0.4800E+00
     41.101  0.0000E+00  0.4800E+00
     41.10106960    -42.99069806  301     14.49026561      1.00000000
    -42.991  0.0000E+00  0.0000E+00  0.0000E+00  0.0000E+00  0.0000E+00  0.0000E+00  0.0000E+00  0.0000E+00  0.0000E+00
    -42.710  0.0000E+00  0.0000E+00  0.0000E+00  0.0000E+00  0.0000E+00  0.0000E+00  0.0000E+00  0.0000E+00  0.0000E+00
    -42.430  0.0000E+00  0.0000E+00  0.0000E+00  0.0000E+00  0.0000E+00  0.0000E+00  0.0000E+00  0.0000E+00  0.0000E+00
    -42.150  0.0000E+00  0.0000E+00  0.0000E+00  0.0000E+00  0.0000E+00  0.0000E+00  0.0000E+00  0.0000E+00  0.0000E+00
    -41.869  0.0000E+00  0.0000E+00  0.0000E+00  0.0000E+00  0.0000E+00  0.0000E+00  0.0000E+00  0.0000E+00  0.0000E+00
    -41.589  0.0000E+00  0.0000E+00  0.0000E+00  0.0000E+00  0.0000E+00  0.0000E+00  0.0000E+00  0.0000E+00  0.0000E+00
    -41.309  0.0000E+00  0.0000E+00  0.0000E+00  0.0000E+00  0.0000E+00  0.0000E+00  0.0000E+00  0.0000E+00  0.0000E+00
    -41.029  0.0000E+00  0.0000E+00  0.0000E+00  0.0000E+00  0.0000E+00  0.0000E+00  0.0000E+00  0.0000E+00  0.0000E+00
    -40.748  0.0000E+00  0.0000E+00  0.0000E+00  0.0000E+00  0.0000E+00  0.0000E+00  0.0000E+00  0.0000E+00  0.0000E+00
    -40.468  0.0000E+00  0.0000E+00  0.0000E+00  0.0000E+00  0.0000E+00  0.0000E+00  0.0000E+00  0.0000E+00  0.0000E+00
    -40.188  0.0000E+00  0.0000E+00  0.0000E+00  0.0000E+00  0.0000E+00  0.0000E+00  0.0000E+00  0.0000E+00  0.0000E+00
    -39.907  0.0000E+00  0.0000E+00  0.0000E+00  0.0000E+00  0.0000E+00  0.0000E+00  0.0000E+00  0.0000E+00  0.0000E+00
    -39.627  0.0000E+00  0.0000E+00  0.0000E+00  0.0000E+00  0.0000E+00  0.0000E+00  0.0000E+00  0.0000E+00  0.0000E+00
    -39.347  0.1940E-12  0.7787E-08  0.5693E-09  0.7787E-08  0.7076E-14  0.1667E-13  0.2437E-12  0.1667E-13  0.7076E-14
    -39.066  0.6745E-04  0.7361E+00  0.5641E-01  0.7361E+00  0.3841E-04  0.4632E-05  0.4295E-04  0.4632E-05  0.3841E-04
    -38.786  0.5903E-03  0.2216E+01  0.6749E+00  0.2216E+01  0.2031E-03  0.2940E-04  0.2462E-03  0.2940E-04  0.2031E-03
    -38.506  0.3151E-03  0.3220E+01  0.2842E+01  0.3220E+01  0.3423E-03  0.1402E-03  0.2093E-03  0.1402E-03  0.3423E-03
    -38.225  0.4218E-04  0.8904E+00  0.3490E+01  0.8904E+00  0.3543E-04  0.5921E-04  0.7891E-04  0.5921E-04  0.3543E-04
    -37.945  0.1039E-08  0.7156E-06  0.3618E-03  0.7156E-06  0.2889E-10  0.6452E-09  0.1132E-08  0.6452E-09  0.2889E-10
    -37.665  0.0000E+00  0.0000E+00  0.0000E+00  0.0000E+00  0.0000E+00  0.0000E+00  0.0000E+00  0.0000E+00  0.0000E+00
    -37.385  0.0000E+00  0.0000E+00  0.0000E+00  0.0000E+00  0.0000E+00  0.0000E+00  0.0000E+00  0.0000E+00  0.0000E+00
    -37.104  0.0000E+00  0.0000E+00  0.0000E+00  0.0000E+00  0.0000E+00  0.0000E+00  0.0000E+00  0.0000E+00  0.0000E+00
    -36.824  0.0000E+00  0.0000E+00  0.0000E+00  0.0000E+00  0.0000E+00  0.0000E+00  0.0000E+00  0.0000E+00  0.0000E+00
    -36.544  0.0000E+00  0.0000E+00  0.0000E+00  0.0000E+00  0.0000E+00  0.0000E+00  0.0000E+00  0.0000E+00  0.0000E+00
    -36.263  0.0000E+00  0.0000E+00  0.0000E+00  0.0000E+00  0.0000E+00  0.0000E+00  0.0000E+00  0.0000E+00  0.0000E+00
    -35.983  0.0000E+00  0.0000E+00  0.0000E+00  0.0000E+00  0.0000E+00  0.0000E+00  0.0000E+00  0.0000E+00  0.0000E+00
    -35.703  0.0000E+00  0.0000E+00  0.0000E+00  0.0000E+00  0.0000E+00  0.0000E+00  0.0000E+00  0.0000E+00  0.0000E+00
    -35.422  0.0000E+00  0.0000E+00  0.0000E+00  0.0000E+00  0.0000E+00  0.0000E+00  0.0000E+00  0.0000E+00  0.0000E+00
    -35.142  0.0000E+00  0.0000E+00  0.0000E+00  0.0000E+00  0.0000E+00  0.0000E+00  0.0000E+00  0.0000E+00  0.0000E+00
    -34.862  0.0000E+00  0.0000E+00  0.0000E+00  0.0000E+00  0.0000E+00  0.0000E+00  0.0000E+00  0.0000E+00  0.0000E+00
    -34.582  0.0000E+00  0.0000E+00  0.0000E+00  0.0000E+00  0.0000E+00  0.0000E+00  0.0000E+00  0.0000E+00  0.0000E+00
    -34.301  0.0000E+00  0.0000E+00  0.0000E+00  0.0000E+00  0.0000E+00  0.0000E+00  0.0000E+00  0.0000E+00  0.0000E+00
    -34.021  0.0000E+00  0.0000E+00  0.0000E+00  0.0000E+00  0.0000E+00  0.0000E+00  0.0000E+00  0.0000E+00  0.0000E+00
    -33.741  0.0000E+00  0.0000E+00  0.0000E+00  0.0000E+00  0.0000E+00  0.0000E+00  0.0000E+00  0.0000E+00  0.0000E+00
    -33.460  0.0000E+00  0.0000E+00  0.0000E+00  0.0000E+00  0.0000E+00  0.0000E+00  0.0000E+00  0.0000E+00  0.0000E+00
    -33.180  0.0000E+00  0.0000E+00  0.0000E+00  0.0000E+00  0.0000E+00  0.0000E+00  0.0000E+00  0.0000E+00  0.0000E+00
    -32.900  0.0000E+00  0.0000E+00  0.0000E+00  0.0000E+00  0.0000E+00  0.0000E+00  0.0000E+00  0.0000E+00  0.0000E+00
    -32.619  0.0000E+00  0.0000E+00  0.0000E+00  0.0000E+00  0.0000E+00  0.0000E+00  0.0000E+00  0.0000E+00  0.0000E+00
    -32.339  0.0000E+00  0.0000E+00  0.0000E+00  0.0000E+00  0.0000E+00  0.0000E+00  0.0000E+00  0.0000E+00  0.0000E+00
    -32.059  0.0000E+00  0.0000E+00  0.0000E+00  0.0000E+00  0.0000E+00  0.0000E+00  0.0000E+00  0.0000E+00  0.0000E+00
    -31.778  0.0000E+00  0.0000E+00  0.0000E+00  0.0000E+00  0.0000E+00  0.0000E+00  0.0000E+00  0.0000E+00  0.0000E+00
    -31.498  0.0000E+00  0.0000E+00  0.0000E+00  0.0000E+00  0.0000E+00  0.0000E+00  0.0000E+00  0.0000E+00  0.0000E+00
    -31.218  0.0000E+00  0.0000E+00  0.0000E+00  0.0000E+00  0.0000E+00  0.0000E+00  0.0000E+00  0.0000E+00  0.0000E+00
    -30.938  0.0000E+00  0.0000E+00  0.0000E+00  0.0000E+00  0.0000E+00  0.0000E+00  0.0000E+00  0.0000E+00  0.0000E+00
    -30.657  0.0000E+00  0.0000E+00  0.0000E+00  0.0000E+00  0.0000E+00  0.0000E+00  0.0000E+00  0.0000E+00  0.0000E+00
    -30.377  0.0000E+00  0.0000E+00  0.0000E+00  0.0000E+00  0.0000E+00  0.0000E+00  0.0000E+00  0.0000E+00  0.0000E+00
    -30.097  0.0000E+00  0.0000E+00  0.0000E+00  0.0000E+00  0.0000E+00  0.0000E+00  0.0000E+00  0.0000E+00  0.0000E+00
    -29.816  0.0000E+00  0.0000E+00  0.0000E+00  0.0000E+00  0.0000E+00  0.0000E+00  0.0000E+00  0.0000E+00  0.0000E+00
    -29.536  0.0000E+00  0.0000E+00  0.0000E+00  0.0000E+00  0.0000E+00  0.0000E+00  0.0000E+00  0.0000E+00  0.0000E+00
    -29.256  0.0000E+00  0.0000E+00  0.0000E+00  0.0000E+00  0.0000E+00  0.0000E+00  0.0000E+00  0.0000E+00  0.0000E+00
    -28.975  0.0000E+00  0.0000E+00  0.0000E+00  0.0000E+00  0.0000E+00  0.0000E+00  0.0000E+00  0.0000E+00  0.0000E+00
    -28.695  0.0000E+00  0.0000E+00  0.0000E+00  0.0000E+00  0.0000E+00  0.0000E+00  0.0000E+00  0.0000E+00  0.0000E+00
    -28.415  0.0000E+00  0.0000E+00  0.0000E+00  0.0000E+00  0.0000E+00  0.0000E+00  0.0000E+00  0.0000E+00  0.0000E+00
    -28.134  0.0000E+00  0.0000E+00  0.0000E+00  0.0000E+00  0.0000E+00  0.0000E+00  0.0000E+00  0.0000E+00  0.0000E+00
    -27.854  0.0000E+00  0.0000E+00  0.0000E+00  0.0000E+00  0.0000E+00  0.0000E+00  0.0000E+00  0.0000E+00  0.0000E+00
    -27.574  0.0000E+00  0.0000E+00  0.0000E+00  0.0000E+00  0.0000E+00  0.0000E+00  0.0000E+00  0.0000E+00  0.0000E+00
    -27.294  0.0000E+00  0.0000E+00  0.0000E+00  0.0000E+00  0.0000E+00  0.0000E+00  0.0000E+00  0.0000E+00  0.0000E+00
    -27.013  0.0000E+00  0.0000E+00  0.0000E+00  0.0000E+00  0.0000E+00  0.0000E+00  0.0000E+00  0.0000E+00  0.0000E+00
    -26.733  0.0000E+00  0.0000E+00  0.0000E+00  0.0000E+00  0.0000E+00  0.0000E+00  0.0000E+00  0.0000E+00  0.0000E+00
    -26.453  0.0000E+00  0.0000E+00  0.0000E+00  0.0000E+00  0.0000E+00  0.0000E+00  0.0000E+00  0.0000E+00  0.0000E+00
    -26.172  0.0000E+00  0.0000E+00  0.0000E+00  0.0000E+00  0.0000E+00  0.0000E+00  0.0000E+00  0.0000E+00  0.0000E+00
    -25.892  0.0000E+00  0.0000E+00  0.0000E+00  0.0000E+00  0.0000E+00  0.0000E+00  0.0000E+00  0.0000E+00  0.0000E+00
    -25.612  0.0000E+00  0.0000E+00  0.0000E+00  0.0000E+00  0.0000E+00  0.0000E+00  0.0000E+00  0.0000E+00  0.0000E+00
    -25.331  0.0000E+00  0.0000E+00  0.0000E+00  0.0000E+00  0.0000E+00  0.0000E+00  0.0000E+00  0.0000E+00  0.0000E+00
    -25.051  0.0000E+00  0.0000E+00  0.0000E+00  0.0000E+00  0.0000E+00  0.0000E+00  0.0000E+00  0.0000E+00  0.0000E+00
    -24.771  0.0000E+00  0.0000E+00  0.0000E+00  0.0000E+00  0.0000E+00  0.0000E+00  0.0000E+00  0.0000E+00  0.0000E+00
    -24.491  0.0000E+00  0.0000E+00  0.0000E+00  0.0000E+00  0.0000E+00  0.0000E+00  0.0000E+00  0.0000E+00  0.0000E+00
    -24.210  0.0000E+00  0.0000E+00  0.0000E+00  0.0000E+00  0.0000E+00  0.0000E+00  0.0000E+00  0.0000E+00  0.0000E+00
    -23.930  0.0000E+00  0.0000E+00  0.0000E+00  0.0000E+00  0.0000E+00  0.0000E+00  0.0000E+00  0.0000E+00  0.0000E+00
    -23.650  0.0000E+00  0.0000E+00  0.0000E+00  0.0000E+00  0.0000E+00  0.0000E+00  0.0000E+00  0.0000E+00  0.0000E+00
    -23.369  0.0000E+00  0.0000E+00  0.0000E+00  0.0000E+00  0.0000E+00  0.0000E+00  0.0000E+00  0.0000E+00  0.0000E+00
    -23.089  0.0000E+00  0.0000E+00  0.0000E+00  0.0000E+00  0.0000E+00  0.0000E+00  0.0000E+00  0.0000E+00  0.0000E+00
    -22.809  0.0000E+00  0.0000E+00  0.0000E+00  0.0000E+00  0.0000E+00  0.0000E+00  0.0000E+00  0.0000E+00  0.0000E+00
    -22.528  0.0000E+00  0.0000E+00  0.0000E+00  0.0000E+00  0.0000E+00  0.0000E+00  0.0000E+00  0.0000E+00  0.0000E+00
    -22.248  0.0000E+00  0.0000E+00  0.0000E+00  0.0000E+00  0.0000E+00  0.0000E+00  0.0000E+00  0.0000E+00  0.0000E+00
    -21.968  0.0000E+00  0.0000E+00  0.0000E+00  0.0000E+00  0.0000E+00  0.0000E+00  0.0000E+00  0.0000E+00  0.0000E+00
    -21.687  0.0000E+00  0.0000E+00  0.0000E+00  0.0000E+00  0.0000E+00  0.0000E+00  0.0000E+00  0.0000E+00  0.0000E+00
    -21.407  0.0000E+00  0.0000E+00  0.0000E+00  0.0000E+00  0.0000E+00  0.0000E+00  0.0000E+00  0.0000E+00  0.0000E+00
    -21.127  0.0000E+00  0.0000E+00  0.0000E+00  0.0000E+00  0.0000E+00  0.0000E+00  0.0000E+00  0.0000E+00  0.0000E+00
    -20.847  0.0000E+00  0.0000E+00  0.0000E+00  0.0000E+00  0.0000E+00  0.0000E+00  0.0000E+00  0.0000E+00  0.0000E+00
    -20.566  0.0000E+00  0.0000E+00  0.0000E+00  0.0000E+00  0.0000E+00  0.0000E+00  0.0000E+00  0.0000E+00  0.0000E+00
    -20.286  0.0000E+00  0.0000E+00  0.0000E+00  0.0000E+00  0.0000E+00  0.0000E+00  0.0000E+00  0.0000E+00  0.0000E+00
    -20.006  0.0000E+00  0.0000E+00  0.0000E+00  0.0000E+00  0.0000E+00  0.0000E+00  0.0000E+00  0.0000E+00  0.0000E+00
    -19.725  0.0000E+00  0.0000E+00  0.0000E+00  0.0000E+00  0.0000E+00  0.0000E+00  0.0000E+00  0.0000E+00  0.0000E+00
    -19.445  0.0000E+00  0.0000E+00  0.0000E+00  0.0000E+00  0.0000E+00  0.0000E+00  0.0000E+00  0.0000E+00  0.0000E+00
    -19.165  0.0000E+00  0.0000E+00  0.0000E+00  0.0000E+00  0.0000E+00  0.0000E+00  0.0000E+00  0.0000E+00  0.0000E+00
    -18.884  0.0000E+00  0.0000E+00  0.0000E+00  0.0000E+00  0.0000E+00  0.0000E+00  0.0000E+00  0.0000E+00  0.0000E+00
    -18.604  0.0000E+00  0.0000E+00  0.0000E+00  0.0000E+00  0.0000E+00  0.0000E+00  0.0000E+00  0.0000E+00  0.0000E+00
    -18.324  0.0000E+00  0.0000E+00  0.0000E+00  0.0000E+00  0.0000E+00  0.0000E+00  0.0000E+00  0.0000E+00  0.0000E+00
    -18.043  0.0000E+00  0.0000E+00  0.0000E+00  0.0000E+00  0.0000E+00  0.0000E+00  0.0000E+00  0.0000E+00  0.0000E+00
    -17.763  0.0000E+00  0.0000E+00  0.0000E+00  0.0000E+00  0.0000E+00  0.0000E+00  0.0000E+00  0.0000E+00  0.0000E+00
    -17.483  0.0000E+00  0.0000E+00  0.0000E+00  0.0000E+00  0.0000E+00  0.0000E+00  0.0000E+00  0.0000E+00  0.0000E+00
    -17.203  0.0000E+00  0.0000E+00  0.0000E+00  0.0000E+00  0.0000E+00  0.0000E+00  0.0000E+00  0.0000E+00  0.0000E+00
    -16.922  0.0000E+00  0.0000E+00  0.0000E+00  0.0000E+00  0.0000E+00  0.0000E+00  0.0000E+00  0.0000E+00  0.0000E+00
    -16.642  0.0000E+00  0.0000E+00  0.0000E+00  0.0000E+00  0.0000E+00  0.0000E+00  0.0000E+00  0.0000E+00  0.0000E+00
    -16.362  0.0000E+00  0.0000E+00  0.0000E+00  0.0000E+00  0.0000E+00  0.0000E+00  0.0000E+00  0.0000E+00  0.0000E+00
    -16.081  0.0000E+00  0.0000E+00  0.0000E+00  0.0000E+00  0.0000E+00  0.0000E+00  0.0000E+00  0.0000E+00  0.0000E+00
    -15.801  0.0000E+00  0.0000E+00  0.0000E+00  0.0000E+00  0.0000E+00  0.0000E+00  0.0000E+00  0.0000E+00  0.0000E+00
    -15.521  0.0000E+00  0.0000E+00  0.0000E+00  0.0000E+00  0.0000E+00  0.0000E+00  0.0000E+00  0.0000E+00  0.0000E+00
    -15.240  0.0000E+00  0.0000E+00  0.0000E+00  0.0000E+00  0.0000E+00  0.0000E+00  0.0000E+00  0.0000E+00  0.0000E+00
    -14.960  0.0000E+00  0.0000E+00  0.0000E+00  0.0000E+00  0.0000E+00  0.0000E+00  0.0000E+00  0.0000E+00  0.0000E+00
    -14.680  0.0000E+00  0.0000E+00  0.0000E+00  0.0000E+00  0.0000E+00  0.0000E+00  0.0000E+00  0.0000E+00  0.0000E+00
    -14.399  0.0000E+00  0.0000E+00  0.0000E+00  0.0000E+00  0.0000E+00  0.0000E+00  0.0000E+00  0.0000E+00  0.0000E+00
    -14.119  0.0000E+00  0.0000E+00  0.0000E+00  0.0000E+00  0.0000E+00  0.0000E+00  0.0000E+00  0.0000E+00  0.0000E+00
    -13.839  0.0000E+00  0.0000E+00  0.0000E+00  0.0000E+00  0.0000E+00  0.0000E+00  0.0000E+00  0.0000E+00  0.0000E+00
    -13.559  0.0000E+00  0.0000E+00  0.0000E+00  0.0000E+00  0.0000E+00  0.0000E+00  0.0000E+00  0.0000E+00  0.0000E+00
    -13.278  0.0000E+00  0.0000E+00  0.0000E+00  0.0000E+00  0.0000E+00  0.0000E+00  0.0000E+00  0.0000E+00  0.0000E+00
    -12.998  0.0000E+00  0.0000E+00  0.0000E+00  0.0000E+00  0.0000E+00  0.0000E+00  0.0000E+00  0.0000E+00  0.0000E+00
    -12.718  0.0000E+00  0.0000E+00  0.0000E+00  0.0000E+00  0.0000E+00  0.0000E+00  0.0000E+00  0.0000E+00  0.0000E+00
    -12.437  0.0000E+00  0.0000E+00  0.0000E+00  0.0000E+00  0.0000E+00  0.0000E+00  0.0000E+00  0.0000E+00  0.0000E+00
    -12.157  0.0000E+00  0.0000E+00  0.0000E+00  0.0000E+00  0.0000E+00  0.0000E+00  0.0000E+00  0.0000E+00  0.0000E+00
    -11.877  0.0000E+00  0.0000E+00  0.0000E+00  0.0000E+00  0.0000E+00  0.0000E+00  0.0000E+00  0.0000E+00  0.0000E+00
    -11.596  0.0000E+00  0.0000E+00  0.0000E+00  0.0000E+00  0.0000E+00  0.0000E+00  0.0000E+00  0.0000E+00  0.0000E+00
    -11.316  0.0000E+00  0.0000E+00  0.0000E+00  0.0000E+00  0.0000E+00  0.0000E+00  0.0000E+00  0.0000E+00  0.0000E+00
    -11.036  0.0000E+00  0.0000E+00  0.0000E+00  0.0000E+00  0.0000E+00  0.0000E+00  0.0000E+00  0.0000E+00  0.0000E+00
    -10.756  0.0000E+00  0.0000E+00  0.0000E+00  0.0000E+00  0.0000E+00  0.0000E+00  0.0000E+00  0.0000E+00  0.0000E+00
    -10.475  0.0000E+00  0.0000E+00  0.0000E+00  0.0000E+00  0.0000E+00  0.0000E+00  0.0000E+00  0.0000E+00  0.0000E+00
    -10.195  0.0000E+00  0.0000E+00  0.0000E+00  0.0000E+00  0.0000E+00  0.0000E+00  0.0000E+00  0.0000E+00  0.0000E+00
     -9.915  0.0000E+00  0.0000E+00  0.0000E+00  0.0000E+00  0.0000E+00  0.0000E+00  0.0000E+00  0.0000E+00  0.0000E+00
     -9.634  0.0000E+00  0.0000E+00  0.0000E+00  0.0000E+00  0.0000E+00  0.0000E+00  0.0000E+00  0.0000E+00  0.0000E+00
     -9.354  0.0000E+00  0.0000E+00  0.0000E+00  0.0000E+00  0.0000E+00  0.0000E+00  0.0000E+00  0.0000E+00  0.0000E+00
     -9.074  0.0000E+00  0.0000E+00  0.0000E+00  0.0000E+00  0.0000E+00  0.0000E+00  0.0000E+00  0.0000E+00  0.0000E+00
     -8.793  0.0000E+00  0.0000E+00  0.0000E+00  0.0000E+00  0.0000E+00  0.0000E+00  0.0000E+00  0.0000E+00  0.0000E+00
     -8.513  0.0000E+00  0.0000E+00  0.0000E+00  0.0000E+00  0.0000E+00  0.0000E+00  0.0000E+00  0.0000E+00  0.0000E+00
     -8.233  0.0000E+00  0.0000E+00  0.0000E+00  0.0000E+00  0.0000E+00  0.0000E+00  0.0000E+00  0.0000E+00  0.0000E+00
     -7.952  0.0000E+00  0.0000E+00  0.0000E+00  0.0000E+00  0.0000E+00  0.0000E+00  0.0000E+00  0.0000E+00  0.0000E+00
     -7.672  0.0000E+00  0.0000E+00  0.0000E+00  0.0000E+00  0.0000E+00  0.0000E+00  0.0000E+00  0.0000E+00  0.0000E+00
     -7.392  0.0000E+00  0.0000E+00  0.0000E+00  0.0000E+00  0.0000E+00  0.0000E+00  0.0000E+00  0.0000E+00  0.0000E+00
     -7.112  0.0000E+00  0.0000E+00  0.0000E+00  0.0000E+00  0.0000E+00  0.0000E+00  0.0000E+00  0.0000E+00  0.0000E+00
     -6.831  0.0000E+00  0.0000E+00  0.0000E+00  0.0000E+00  0.0000E+00  0.0000E+00  0.0000E+00  0.0000E+00  0.0000E+00
     -6.551  0.0000E+00  0.0000E+00  0.0000E+00  0.0000E+00  0.0000E+00  0.0000E+00  0.0000E+00  0.0000E+00  0.0000E+00
     -6.271  0.0000E+00  0.0000E+00  0.0000E+00  0.0000E+00  0.0000E+00  0.0000E+00  0.0000E+00  0.0000E+00  0.0000E+00
     -5.990  0.0000E+00  0.0000E+00  0.0000E+00  0.0000E+00  0.0000E+00  0.0000E+00  0.0000E+00  0.0000E+00  0.0000E+00
     -5.710  0.0000E+00  0.0000E+00  0.0000E+00  0.0000E+00  0.0000E+00  0.0000E+00  0.0000E+00  0.0000E+00  0.0000E+00
     -5.430  0.0000E+00  0.0000E+00  0.0000E+00  0.0000E+00  0.0000E+00  0.0000E+00  0.0000E+00  0.0000E+00  0.0000E+00
     -5.149  0.0000E+00  0.0000E+00  0.0000E+00  0.0000E+00  0.0000E+00  0.0000E+00  0.0000E+00  0.0000E+00  0.0000E+00
     -4.869  0.0000E+00  0.0000E+00  0.0000E+00  0.0000E+00  0.0000E+00  0.0000E+00  0.0000E+00  0.0000E+00  0.0000E+00
     -4.589  0.0000E+00  0.0000E+00  0.0000E+00  0.0000E+00  0.0000E+00  0.0000E+00  0.0000E+00  0.0000E+00  0.0000E+00
     -4.308  0.0000E+00  0.0000E+00  0.0000E+00  0.0000E+00  0.0000E+00  0.0000E+00  0.0000E+00  0.0000E+00  0.0000E+00
     -4.028  0.0000E+00  0.0000E+00  0.0000E+00  0.0000E+00  0.0000E+00  0.0000E+00  0.0000E+00  0.0000E+00  0.0000E+00
     -3.748  0.0000E+00  0.0000E+00  0.0000E+00  0.0000E+00  0.0000E+00  0.0000E+00  0.0000E+00  0.0000E+00  0.0000E+00
     -3.468  0.0000E+00  0.0000E+00  0.0000E+00  0.0000E+00  0.0000E+00  0.0000E+00  0.0000E+00  0.0000E+00  0.0000E+00
     -3.187  0.0000E+00  0.0000E+00  0.0000E+00  0.0000E+00  0.0000E+00  0.0000E+00  0.0000E+00  0.0000E+00  0.0000E+00
     -2.907  0.0000E+00  0.0000E+00  0.0000E+00  0.0000E+00  0.0000E+00  0.0000E+00  0.0000E+00  0.0000E+00  0.0000E+00
     -2.627  0.0000E+00  0.0000E+00  0.0000E+00  0.0000E+00  0.0000E+00  0.0000E+00  0.0000E+00  0.0000E+00  0.0000E+00
     -2.346  0.0000E+00  0.0000E+00  0.0000E+00  0.0000E+00  0.0000E+00  0.0000E+00  0.0000E+00  0.0000E+00  0.0000E+00
     -2.066  0.0000E+00  0.0000E+00  0.0000E+00  0.0000E+00  0.0000E+00  0.0000E+00  0.0000E+00  0.0000E+00  0.0000E+00
     -1.786  0.0000E+00  0.0000E+00  0.0000E+00  0.0000E+00  0.0000E+00  0.0000E+00  0.0000E+00  0.0000E+00  0.0000E+00
     -1.505  0.0000E+00  0.0000E+00  0.0000E+00  0.0000E+00  0.0000E+00  0.0000E+00  0.0000E+00  0.0000E+00  0.0000E+00
     -1.225  0.0000E+00  0.0000E+00  0.0000E+00  0.0000E+00  0.0000E+00  0.0000E+00  0.0000E+00  0.0000E+00  0.0000E+00
     -0.945  0.0000E+00  0.0000E+00  0.0000E+00  0.0000E+00  0.0000E+00  0.0000E+00  0.0000E+00  0.0000E+00  0.0000E+00
     -0.665  0.0000E+00  0.0000E+00  0.0000E+00  0.0000E+00  0.0000E+00  0.0000E+00  0.0000E+00  0.0000E+00  0.0000E+00
     -0.384  0.0000E+00  0.0000E+00  0.0000E+00  0.0000E+00  0.0000E+00  0.0000E+00  0.0000E+00  0.0000E+00  0.0000E+00
     -0.104  0.0000E+00  0.0000E+00  0.0000E+00  0.0000E+00  0.0000E+00  0.0000E+00  0.0000E+00  0.0000E+00  0.0000E+00
      0.176  0.0000E+00  0.0000E+00  0.0000E+00  0.0000E+00  0.0000E+00  0.0000E+00  0.0000E+00  0.0000E+00  0.0000E+00
      0.457  0.0000E+00  0.0000E+00  0.0000E+00  0.0000E+00  0.0000E+00  0.0000E+00  0.0000E+00  0.0000E+00  0.0000E+00
      0.737  0.0000E+00  0.0000E+00  0.0000E+00  0.0000E+00  0.0000E+00  0.0000E+00  0.0000E+00  0.0000E+00  0.0000E+00