    2    2  100    1
  0.1341975E+02  0.2615324E-09  0.2615324E-09  0.4530987E-09  0.5000000E-15
  1.000000000000000E-004
  CAR 
 Pt-hcc                                  
     32     70     24
 
  0.0000000E+00  0.0000000E+00  0.0000000E+00  0.1250000E-02
      1        -38.925968   1.000000
      2        -38.476476   1.000000
      3        -38.476475   1.000000
      4        -38.404147   1.000000
      5        -38.404145   1.000000
      6        -38.310603   1.000000
      7          2.900735   1.000000
      8          5.666728   1.000000
      9          9.382705   1.000000
     10         10.036181   1.000000
     11         10.036181   1.000000
     12         10.526261   1.000000
     13         10.526262   1.000000
     14         12.118067   1.000000
     15         12.118068   1.000000
     16         13.042324   1.000000
     17         14.202164   1.000000
     18         14.202164   1.000000
     19         20.360726   0.000000
     20         29.170268   0.000000
     21         30.020821   0.000000
     22         31.665227   0.000000
     23         37.278544   0.000000
     24         37.278717   0.000000
 
  0.1000000E+00 -0.1387779E-16  0.0000000E+00  0.7500000E-02
      1        -38.903074   1.000000
      2        -38.542442   1.000000
      3        -38.495171   1.000000
      4        -38.471263   1.000000
      5        -38.416329   1.000000
      6        -38.315228   1.000000
      7          3.326049   1.000000
      8          6.058499   1.000000
      9          9.293662   1.000000
     10         10.041569   1.000000
     11         10.324974   1.000000
     12         10.386364   1.000000
     13         10.861005   1.000000
     14         11.273218   1.000000
     15         11.887502   1.000000
     16         12.014164   1.000000
     17         14.295856   1.000000
     18         16.094608   0.000000
     19         20.297882   0.000000
     20         29.893519   0.000000
     21         30.647316   0.000000
     22         32.370759   0.000000
     23         34.839111   0.000000
     24         35.330745   0.000000
 
  0.2000000E+00 -0.2775558E-16  0.0000000E+00  0.7500000E-02
      1        -38.842689   1.000000
      2        -38.714788   1.000000
      3        -38.645787   1.000000
      4        -38.544303   1.000000
      5        -38.451157   1.000000
      6        -38.331590   1.000000
      7          4.461455   1.000000
      8          6.884155   1.000000
      9          9.007366   1.000000
     10          9.561581   1.000000
     11          9.685104   1.000000
     12         10.844283   1.000000
     13         11.376929   1.000000
     14         11.383239   1.000000
     15         11.383294   1.000000
     16         11.805355   1.000000
     17         14.443091   0.908949
     18         18.619706   0.000000
     19         20.133639   0.000000
     20         29.778709   0.000000
     21         31.295433   0.000000
     22         33.023080   0.000000
     23         33.185639   0.000000
     24         33.226337   0.000000
 
  0.3000000E+00 -0.2775558E-16  0.0000000E+00  0.7500000E-02
      1        -38.927618   1.000000
      2        -38.853235   1.000000
      3        -38.757424   1.000000
      4        -38.602678   1.000000
      5        -38.495576   1.000000
      6        -38.361607   1.000000
      7          5.759543   1.000000
      8          6.929729   1.000000
      9          8.228745   1.000000
     10          9.361664   1.000000
     11          9.837582   1.000000
     12         10.725000   1.000000
     13         10.872467   1.000000
     14         12.329021   1.000000
     15         12.836124   1.000000
     16         13.162517   1.000000
     17         14.522992   0.177316
     18         20.102338   0.000000
     19         21.123176   0.000000
     20         26.131166   0.000000
     21         29.734592   0.000000
     22         30.328804   0.000000
     23         33.429246   0.000000
     24         33.616257   0.000000
 
  0.4000000E+00 -0.5551115E-16  0.0000000E+00  0.7500000E-02
      1        -39.096240   1.000000
      2        -39.016735   1.000000
      3        -38.670630   1.000000
      4        -38.649024   1.000000
      5        -38.531311   1.000000
      6        -38.402381   1.000000
      7          6.309152   1.000000
      8          6.559363   1.000000
      9          7.394194   1.000000
     10         10.030563   1.000000
     11         10.256237   1.000000
     12         10.513240   1.000000
     13         10.829779   1.000000
     14         14.281195   1.000000
     15         14.527601   0.145480
     16         14.541752   0.072660
     17         14.686669   0.000000
     18         20.712327   0.000000
     19         22.317408   0.000000
     20         23.229605   0.000000
     21         28.058785   0.000000
     22         28.501348   0.000000
     23         28.688474   0.000000
     24         32.531080   0.000000
 
  0.5000000E+00 -0.5551115E-16  0.0000000E+00  0.3750000E-02
      1        -39.160693   1.000000
      2        -39.077691   1.000000
      3        -38.666742   1.000000
      4        -38.627201   1.000000
      5        -38.545155   1.000000
      6        -38.428413   1.000000
      7          6.248743   1.000000
      8          6.503273   1.000000
      9          7.110392   1.000000
     10         10.087768   1.000000
     11         10.385429   1.000000
     12         10.690647   1.000000
     13         11.037217   1.000000
     14         14.541447   0.073860
     15         14.908768   0.000000
     16         15.182718   0.000000
     17         17.128702   0.000000
     18         18.852775   0.000000
     19         22.680660   0.000000
     20         24.171326   0.000000
     21         25.564363   0.000000
     22         27.086721   0.000000
     23         28.016482   0.000000
     24         31.923939   0.000000
 
  0.1000000E+00  0.1000000E+00  0.0000000E+00  0.7500000E-02
      1        -38.861760   1.000000
      2        -38.650079   1.000000
      3        -38.606129   1.000000
      4        -38.518301   1.000000
      5        -38.450142   1.000000
      6        -38.325864   1.000000
      7          4.118868   1.000000
      8          6.734659   1.000000
      9          8.940873   1.000000
     10          9.941517   1.000000
     11         10.068211   1.000000
     12         10.319563   1.000000
     13         11.101558   1.000000
     14         11.131142   1.000000
     15         11.613769   1.000000
     16         11.951677   1.000000
     17         14.329312   0.999997
     18         17.966190   0.000000
     19         20.186371   0.000000
     20         30.605535   0.000000
     21         31.698030   0.000000
     22         32.105959   0.000000
     23         32.930992   0.000000
     24         34.337563   0.000000
 
  0.2000000E+00  0.1000000E+00  0.0000000E+00  0.1500000E-01
      1        -38.828385   1.000000
      2        -38.788289   1.000000
      3        -38.782632   1.000000
      4        -38.586392   1.000000
      5        -38.503221   1.000000
      6        -38.349435   1.000000
      7          5.440332   1.000000
      8          7.393991   1.000000
      9          8.736441   1.000000
     10          8.751053   1.000000
     11          9.608487   1.000000
     12         10.455420   1.000000
     13         11.108482   1.000000
     14         11.476433   1.000000
     15         12.490156   1.000000
     16         13.037712   1.000000
     17         14.336972   0.999993
     18         20.115358   0.000000
     19         20.371346   0.000000
     20         28.066647   0.000000
     21         29.882204   0.000000
     22         30.897744   0.000000
     23         33.252959   0.000000
     24         34.737533   0.000000
 
  0.3000000E+00  0.1000000E+00  0.0000000E+00  0.1500000E-01
      1        -39.012533   1.000000
      2        -38.945698   1.000000
      3        -38.700818   1.000000
      4        -38.657317   1.000000
      5        -38.553177   1.000000
      6        -38.386892   1.000000
      7          6.517289   1.000000
      8          7.037481   1.000000
      9          7.763180   1.000000
     10          9.397621   1.000000
     11         10.081151   1.000000
     12         10.182612   1.000000
     13         10.841508   1.000000
     14         12.530061   1.000000
     15         13.908883   1.000000
     16         14.322691   0.999999
     17         14.872092   0.000000
     18         20.610409   0.000000
     19         22.742686   0.000000
     20         24.024391   0.000000
     21         27.494358   0.000000
     22         29.464307   0.000000
     23         31.437601   0.000000
     24         32.887648   0.000000
 
  0.4000000E+00  0.1000000E+00  0.0000000E+00  0.1500000E-01
      1        -39.125214   1.000000
      2        -39.044812   1.000000
      3        -38.700111   1.000000
      4        -38.628491   1.000000
      5        -38.584250   1.000000
      6        -38.427666   1.000000
      7          6.627215   1.000000
      8          6.837852   1.000000
      9          7.244153   1.000000
     10         10.021381   1.000000
     11         10.322624   1.000000
     12         10.374962   1.000000
     13         10.793151   1.000000
     14         14.149186   1.000000
     15         14.300708   1.000000
     16         14.662701   0.000001
     17         16.912257   0.000000
     18         20.271790   0.000000
     19         22.380233   0.000000
     20         24.479896   0.000000
     21         25.246846   0.000000
     22         27.908611   0.000000
     23         28.629449   0.000000
     24         31.823356   0.000000
 
  0.2000000E+00  0.2000000E+00  0.0000000E+00  0.7500000E-02
      1        -38.933831   1.000000
      2        -38.928344   1.000000
      3        -38.711298   1.000000
      4        -38.666433   1.000000
      5        -38.594170   1.000000
      6        -38.381836   1.000000
      7          6.789057   1.000000
      8          8.019923   1.000000
      9          8.113898   1.000000
     10          8.163482   1.000000
     11          9.827126   1.000000
     12          9.900209   1.000000
     13         11.088761   1.000000
     14         11.566571   1.000000
     15         13.883057   1.000000
     16         14.092088   1.000000
     17         14.972794   0.000000
     18         20.649139   0.000000
     19         22.671719   0.000000
     20         25.453960   0.000000
     21         26.282568   0.000000
     22         30.413583   0.000000
     23         32.882128   0.000000
     24         32.922344   0.000000
 
  0.3000000E+00  0.2000000E+00  0.0000000E+00  0.1500000E-01
      1        -39.042882   1.000000
      2        -38.987616   1.000000
      3        -38.759969   1.000000
      4        -38.670656   1.000000
      5        -38.629627   1.000000
      6        -38.426847   1.000000
      7          7.512614   1.000000
      8          7.541984   1.000000
      9          7.681565   1.000000
     10          9.149022   1.000000
     11          9.649797   1.000000
     12         10.458586   1.000000
     13         10.582230   1.000000
     14         12.595860   1.000000
     15         13.906612   1.000000
     16         14.469753   0.719106
     17         17.035377   0.000000
     18         21.656102   0.000000
     19         22.586082   0.000000
     20         24.024503   0.000000
     21         24.977975   0.000000
     22         29.827735   0.000000
     23         29.872514   0.000000
     24         31.640940   0.000000
 
  0.4000000E+00  0.2000000E+00  0.0000000E+00  0.7500000E-02
      1        -39.083446   1.000000
      2        -39.002890   1.000000
      3        -38.804632   1.000000
      4        -38.699509   1.000000
      5        -38.583234   1.000000
      6        -38.459339   1.000000
      7          7.330808   1.000000
      8          7.472756   1.000000
      9          7.657738   1.000000
     10          9.828213   1.000000
     11          9.849899   1.000000
     12          9.977823   1.000000
     13         10.915478   1.000000
     14         13.592976   1.000000
     15         13.839131   1.000000
     16         14.223336   1.000000
     17         18.694094   0.000000
     18         19.449549   0.000000
     19         22.617225   0.000000
     20         24.684632   0.000000
     21         26.230334   0.000000
     22         27.658490   0.000000
     23         29.551562   0.000000
     24         30.818453   0.000000
 
  0.3000000E+00  0.3000000E+00  0.0000000E+00  0.7500000E-02
      1        -39.018291   1.000000
      2        -38.957027   1.000000
      3        -38.873018   1.000000
      4        -38.795720   1.000000
      5        -38.557017   1.000000
      6        -38.479810   1.000000
      7          7.434348   1.000000
      8          8.156277   1.000000
      9          8.447188   1.000000
     10          8.997064   1.000000
     11          9.595070   1.000000
     12          9.943448   1.000000
     13         11.037155   1.000000
     14         13.066231   1.000000
     15         13.615481   1.000000
     16         14.006124   1.000000
     17         18.800145   0.000000
     18         20.013707   0.000000
     19         21.433457   0.000000
     20         25.799134   0.000000
     21         27.352510   0.000000
     22         28.784725   0.000000
     23         29.880594   0.000000
     24         29.941166   0.000000
 
  0.0000000E+00  0.0000000E+00  0.1250000E+00  0.2500000E-02
      1        -38.902154   1.000000
      2        -38.473172   1.000000
      3        -38.473171   1.000000
      4        -38.406244   1.000000
      5        -38.406243   1.000000
      6        -38.334518   1.000000
      7          3.059336   1.000000
      8          5.662158   1.000000
      9          9.337505   1.000000
     10         10.011182   1.000000
     11         10.011182   1.000000
     12         10.474769   1.000000
     13         10.474770   1.000000
     14         12.248792   1.000000
     15         12.248793   1.000000
     16         12.413682   1.000000
     17         14.171836   1.000000
     18         14.171836   1.000000
     19         21.232960   0.000000
     20         28.705425   0.000000
     21         30.690582   0.000000
     22         31.323646   0.000000
     23         36.036485   0.000000
     24         36.036485   0.000000
 
  0.1000000E+00 -0.1387779E-16  0.1250000E+00  0.1500000E-01
      1        -38.882588   1.000000
      2        -38.538990   1.000000
      3        -38.492383   1.000000
      4        -38.476968   1.000000
      5        -38.419661   1.000000
      6        -38.335684   1.000000
      7          3.480796   1.000000
      8          6.060838   1.000000
      9          9.297132   1.000000
     10          9.924675   1.000000
     11         10.180747   1.000000
     12         10.348779   1.000000
     13         10.802607   1.000000
     14         11.211521   1.000000
     15         12.041647   1.000000
     16         12.058179   1.000000
     17         14.248231   1.000000
     18         15.584716   0.000000
     19         21.279821   0.000000
     20         29.432455   0.000000
     21         31.287594   0.000000
     22         31.985948   0.000000
     23         34.245449   0.000000
     24         35.344990   0.000000
 
  0.2000000E+00 -0.2775558E-16  0.1250000E+00  0.1500000E-01
      1        -38.833391   1.000000
      2        -38.703314   1.000000
      3        -38.651956   1.000000
      4        -38.540748   1.000000
      5        -38.454655   1.000000
      6        -38.347060   1.000000
      7          4.593280   1.000000
      8          6.911779   1.000000
      9          9.045074   1.000000
     10          9.277014   1.000000
     11          9.662683   1.000000
     12         10.684168   1.000000
     13         11.161342   1.000000
     14         11.620351   1.000000
     15         11.673670   1.000000
     16         11.853534   1.000000
     17         14.364035   0.999822
     18         17.458038   0.000000
     19         21.551067   0.000000
     20         29.835747   0.000000
     21         31.181846   0.000000
     22         32.620361   0.000000
     23         33.170693   0.000000
     24         33.841620   0.000000
 
  0.3000000E+00 -0.2775558E-16  0.1250000E+00  0.1500000E-01
      1        -38.935866   1.000000
      2        -38.862289   1.000000
      3        -38.729825   1.000000
      4        -38.598657   1.000000
      5        -38.499782   1.000000
      6        -38.371953   1.000000
      7          5.799208   1.000000
      8          6.973141   1.000000
      9          8.232301   1.000000
     10          9.124368   1.000000
     11          9.869021   1.000000
     12         10.888362   1.000000
     13         10.952540   1.000000
     14         12.393561   1.000000
     15         12.863927   1.000000
     16         13.096068   1.000000
     17         14.428526   0.959618
     18         18.778392   0.000000
     19         22.387099   0.000000
     20         26.461827   0.000000
     21         29.833060   0.000000
     22         30.618661   0.000000
     23         32.531092   0.000000
     24         34.225213   0.000000
 
  0.4000000E+00 -0.5551115E-16  0.1250000E+00  0.1500000E-01
      1        -39.100087   1.000000
      2        -39.025076   1.000000
      3        -38.653476   1.000000
      4        -38.644618   1.000000
      5        -38.535761   1.000000
      6        -38.407571   1.000000
      7          6.222509   1.000000
      8          6.533812   1.000000
      9          7.630330   1.000000
     10          9.191842   1.000000
     11         10.582047   1.000000
     12         10.622436   1.000000
     13         11.490679   1.000000
     14         14.177620   1.000000
     15         14.300749   1.000000
     16         14.577527   0.006791
     17         14.670553   0.000000
     18         19.739057   0.000000
     19         22.320431   0.000000
     20         24.159938   0.000000
     21         28.187260   0.000000
     22         28.405427   0.000000
     23         29.115474   0.000000
     24         32.664155   0.000000
 
  0.5000000E+00 -0.5551115E-16  0.1250000E+00  0.7500000E-02
      1        -39.163611   1.000000
      2        -39.086184   1.000000
      3        -38.661778   1.000000
      4        -38.613733   1.000000
      5        -38.549860   1.000000
      6        -38.430486   1.000000
      7          6.256094   1.000000
      8          6.290569   1.000000
      9          7.437464   1.000000
     10          9.260000   1.000000
     11         10.500927   1.000000
     12         10.772642   1.000000
     13         12.021342   1.000000
     14         14.293530   1.000000
     15         14.935324   0.000000
     16         15.174127   0.000000
     17         16.794990   0.000000
     18         18.687223   0.000000
     19         22.597215   0.000000
     20         23.506229   0.000000
     21         26.483190   0.000000
     22         27.454723   0.000000
     23         28.206013   0.000000
     24         32.158122   0.000000
 
  0.1000000E+00  0.1000000E+00  0.1250000E+00  0.1500000E-01
      1        -38.846735   1.000000
      2        -38.642741   1.000000
      3        -38.609887   1.000000
      4        -38.517900   1.000000
      5        -38.453565   1.000000
      6        -38.342656   1.000000
      7          4.261636   1.000000
      8          6.754203   1.000000
      9          8.981755   1.000000
     10          9.551727   1.000000
     11         10.016206   1.000000
     12         10.297887   1.000000
     13         11.039221   1.000000
     14         11.311283   1.000000
     15         11.705647   1.000000
     16         12.054920   1.000000
     17         14.263468   1.000000
     18         17.025188   0.000000
     19         21.445727   0.000000
     20         30.393348   0.000000
     21         31.919149   0.000000
     22         32.089846   0.000000
     23         32.491281   0.000000
     24         34.540014   0.000000
 
  0.2000000E+00  0.1000000E+00  0.1250000E+00  0.3000000E-01
      1        -38.849043   1.000000
      2        -38.792183   1.000000
      3        -38.745376   1.000000
      4        -38.585116   1.000000
      5        -38.506954   1.000000
      6        -38.361092   1.000000
      7          5.535293   1.000000
      8          7.446016   1.000000
      9          8.548011   1.000000
     10          8.823393   1.000000
     11          9.543806   1.000000
     12         10.362783   1.000000
     13         11.275234   1.000000
     14         11.468190   1.000000
     15         12.634192   1.000000
     16         12.966420   1.000000
     17         14.268601   1.000000
     18         18.487874   0.000000
     19         22.110723   0.000000
     20         28.264608   0.000000
     21         30.004663   0.000000
     22         31.016789   0.000000
     23         32.902420   0.000000
     24         35.187899   0.000000
 
  0.3000000E+00  0.1000000E+00  0.1250000E+00  0.3000000E-01
      1        -39.017027   1.000000
      2        -38.953813   1.000000
      3        -38.683758   1.000000
      4        -38.650916   1.000000
      5        -38.557710   1.000000
      6        -38.392709   1.000000
      7          6.455797   1.000000
      8          7.082699   1.000000
      9          7.888379   1.000000
     10          9.004239   1.000000
     11         10.112999   1.000000
     12         10.570496   1.000000
     13         10.866739   1.000000
     14         12.546769   1.000000
     15         13.973024   1.000000
     16         14.055000   1.000000
     17         14.963043   0.000000
     18         19.677126   0.000000
     19         23.017751   0.000000
     20         24.866561   0.000000
     21         27.692372   0.000000
     22         29.526025   0.000000
     23         31.176126   0.000000
     24         33.152616   0.000000
 
  0.4000000E+00  0.1000000E+00  0.1250000E+00  0.3000000E-01
      1        -39.128171   1.000000
      2        -39.053259   1.000000
      3        -38.698793   1.000000
      4        -38.611981   1.000000
      5        -38.589265   1.000000
      6        -38.428702   1.000000
      7          6.533442   1.000000
      8          6.697083   1.000000
      9          7.630110   1.000000
     10          9.191384   1.000000
     11         10.167352   1.000000
     12         10.926814   1.000000
     13         11.398734   1.000000
     14         14.005121   1.000000
     15         14.156261   1.000000
     16         14.722038   0.000000
     17         16.839899   0.000000
     18         19.954503   0.000000
     19         22.142036   0.000000
     20         24.477710   0.000000
     21         25.697659   0.000000
     22         28.143640   0.000000
     23         28.895598   0.000000
     24         31.956139   0.000000
 
  0.2000000E+00  0.2000000E+00  0.1250000E+00  0.1500000E-01
      1        -38.938366   1.000000
      2        -38.936411   1.000000
      3        -38.690002   1.000000
      4        -38.667370   1.000000
      5        -38.595727   1.000000
      6        -38.387546   1.000000
      7          6.806115   1.000000
      8          7.835949   1.000000
      9          8.180769   1.000000
     10          8.321255   1.000000
     11          9.831950   1.000000
     12          9.904445   1.000000
     13         10.935627   1.000000
     14         11.752638   1.000000
     15         13.795983   1.000000
     16         14.033966   1.000000
     17         15.076471   0.000000
     18         19.743154   0.000000
     19         23.272042   0.000000
     20         26.021645   0.000000
     21         26.488439   0.000000
     22         30.431536   0.000000
     23         32.043245   0.000000
     24         33.672424   0.000000
 
  0.3000000E+00  0.2000000E+00  0.1250000E+00  0.3000000E-01
      1        -39.045000   1.000000
      2        -38.995406   1.000000
      3        -38.761351   1.000000
      4        -38.679023   1.000000
      5        -38.608800   1.000000
      6        -38.426711   1.000000
      7          7.237914   1.000000
      8          7.676900   1.000000
      9          7.914352   1.000000
     10          8.843495   1.000000
     11          9.865418   1.000000
     12         10.345676   1.000000
     13         10.744871   1.000000
     14         12.671019   1.000000
     15         13.626351   1.000000
     16         14.615236   0.000204
     17         17.091332   0.000000
     18         21.680826   0.000000
     19         21.862363   0.000000
     20         24.158819   0.000000
     21         25.826039   0.000000
     22         29.306849   0.000000
     23         30.001534   0.000000
     24         31.909670   0.000000
 
  0.4000000E+00  0.2000000E+00  0.1250000E+00  0.1500000E-01
      1        -39.084735   1.000000
      2        -39.011133   1.000000
      3        -38.805777   1.000000
      4        -38.706105   1.000000
      5        -38.568163   1.000000
      6        -38.455339   1.000000
      7          7.107145   1.000000
      8          7.530848   1.000000
      9          8.021178   1.000000
     10          9.116331   1.000000
     11          9.660794   1.000000
     12         10.595676   1.000000
     13         11.119945   1.000000
     14         13.547752   1.000000
     15         13.626495   1.000000
     16         14.327988   0.999998
     17         18.768598   0.000000
     18         19.477840   0.000000
     19         22.846374   0.000000
     20         24.386424   0.000000
     21         25.386444   0.000000
     22         28.670986   0.000000
     23         29.662686   0.000000
     24         30.508434   0.000000
 
  0.3000000E+00  0.3000000E+00  0.1250000E+00  0.1500000E-01
      1        -39.016546   1.000000
      2        -38.965336   1.000000
      3        -38.878299   1.000000
      4        -38.802498   1.000000
      5        -38.543929   1.000000
      6        -38.473863   1.000000
      7          7.490962   1.000000
      8          8.119176   1.000000
      9          8.467644   1.000000
     10          8.820045   1.000000
     11          9.791006   1.000000
     12          9.829285   1.000000
     13         11.045560   1.000000
     14         13.184691   1.000000
     15         13.323041   1.000000
     16         14.135894   1.000000
     17         18.914330   0.000000
     18         20.170777   0.000000
     19         21.766593   0.000000
     20         24.861195   0.000000
     21         27.664639   0.000000
     22         27.704506   0.000000
     23         29.693682   0.000000
     24         30.971296   0.000000
 
  0.0000000E+00  0.0000000E+00  0.2500000E+00  0.2500000E-02
      1        -38.838190   1.000000
      2        -38.465744   1.000000
      3        -38.465743   1.000000
      4        -38.414222   1.000000
      5        -38.414221   1.000000
      6        -38.403410   1.000000
      7          3.511428   1.000000
      8          5.607324   1.000000
      9          9.234623   1.000000
     10          9.971254   1.000000
     11          9.971254   1.000000
     12         10.341905   1.000000
     13         10.341905   1.000000
     14         11.150658   1.000000
     15         12.586708   1.000000
     16         12.586709   1.000000
     17         14.056613   1.000000
     18         14.056613   1.000000
     19         23.233617   0.000000
     20         28.264060   0.000000
     21         30.599367   0.000000
     22         31.432685   0.000000
     23         35.277794   0.000000
     24         35.277794   0.000000
 
  0.1000000E+00 -0.1387779E-16  0.2500000E+00  0.1500000E-01
      1        -38.823818   1.000000
      2        -38.528479   1.000000
      3        -38.495909   1.000000
      4        -38.483847   1.000000
      5        -38.428058   1.000000
      6        -38.389964   1.000000
      7          3.923608   1.000000
      8          6.023329   1.000000
      9          9.272334   1.000000
     10          9.725661   1.000000
     11          9.820872   1.000000
     12         10.290793   1.000000
     13         10.661449   1.000000
     14         10.766915   1.000000
     15         12.420505   1.000000
     16         12.423701   1.000000
     17         14.091242   1.000000
     18         14.811563   0.000000
     19         23.348166   0.000000
     20         28.975628   0.000000
     21         31.238090   0.000000
     22         31.982307   0.000000
     23         33.948727   0.000000
     24         35.003099   0.000000
 
  0.2000000E+00 -0.2775558E-16  0.2500000E+00  0.1500000E-01
      1        -38.809844   1.000000
      2        -38.680815   1.000000
      3        -38.656735   1.000000
      4        -38.531088   1.000000
      5        -38.464932   1.000000
      6        -38.391135   1.000000
      7          4.973324   1.000000
      8          6.938555   1.000000
      9          8.802511   1.000000
     10          9.191498   1.000000
     11          9.367220   1.000000
     12         10.440723   1.000000
     13         11.057041   1.000000
     14         11.535283   1.000000
     15         12.239311   1.000000
     16         12.254439   1.000000
     17         14.127360   1.000000
     18         16.054733   0.000000
     19         23.670713   0.000000
     20         29.972913   0.000000
     21         31.032805   0.000000
     22         32.049110   0.000000
     23         33.636392   0.000000
     24         34.251031   0.000000
 
  0.3000000E+00 -0.2775558E-16  0.2500000E+00  0.1500000E-01
      1        -38.946565   1.000000
      2        -38.883330   1.000000
      3        -38.666971   1.000000
      4        -38.587177   1.000000
      5        -38.511388   1.000000
      6        -38.402455   1.000000
      7          5.934410   1.000000