       N       E                     dE             d eps       ncg     rms          rms(c)
DAV:   1     0.138129308733E+03    0.13813E+03   -0.23275E+04  3384   0.128E+03
DAV:   2    -0.114086818054E+02   -0.14954E+03   -0.14888E+03  3552   0.276E+02
DAV:   3    -0.126332369145E+02   -0.12246E+01   -0.12192E+01  4416   0.320E+01
DAV:   4    -0.126367535249E+02   -0.35166E-02   -0.35165E-02  5064   0.145E+00
DAV:   5    -0.126367550086E+02   -0.14837E-05   -0.14841E-05  4632   0.232E-02    0.228E+01
DAV:   6    -0.119920707651E+02    0.64468E+00   -0.23168E+00  3600   0.979E+00    0.779E+00
DAV:   7    -0.119524937541E+02    0.39577E-01   -0.18156E-01  4464   0.234E+00    0.213E+00
DAV:   8    -0.119498336414E+02    0.26601E-02   -0.78994E-03  3624   0.949E-01    0.338E-01
DAV:   9    -0.119496456133E+02    0.18803E-03   -0.24750E-04  4272   0.105E-01    0.379E-02
DAV:  10    -0.119496576524E+02   -0.12039E-04   -0.10550E-05  4320   0.249E-02    0.106E-02
DAV:  11    -0.119496570473E+02    0.60504E-06   -0.91633E-07  3168   0.769E-03
   1 F= -.11949657E+02 E0= -.11947538E+02  d E =-.119497E+02
