PROCAR lm decomposed
# of k-points:   70         # of bands:   24         # of ions:    2

 k-point     1 :    0.00000000 0.00000000 0.00000000     weight = 0.00125000

band     1 # energy  -40.56633583 # occ.  2.00000000
 
ion      s     py     pz     px    dxy    dyz    dz2    dxz  x2-y2    tot
    1  0.000  0.000  0.491  0.000  0.000  0.000  0.000  0.000  0.000  0.491
    2  0.000  0.000  0.491  0.000  0.000  0.000  0.000  0.000  0.000  0.491
tot    0.000  0.000  0.982  0.000  0.000  0.000  0.000  0.000  0.000  0.982
 
band     2 # energy  -40.31048114 # occ.  2.00000000
 
ion      s     py     pz     px    dxy    dyz    dz2    dxz  x2-y2    tot
    1  0.000  0.125  0.000  0.374  0.000  0.000  0.000  0.000  0.000  0.498
    2  0.000  0.125  0.000  0.374  0.000  0.000  0.000  0.000  0.000  0.498
tot    0.000  0.249  0.000  0.747  0.000  0.000  0.000  0.000  0.000  0.996
 
band     3 # energy  -40.31048023 # occ.  2.00000000
 
ion      s     py     pz     px    dxy    dyz    dz2    dxz  x2-y2    tot
    1  0.000  0.374  0.000  0.125  0.000  0.000  0.000  0.000  0.000  0.498
    2  0.000  0.374  0.000  0.125  0.000  0.000  0.000  0.000  0.000  0.498
tot    0.000  0.747  0.000  0.249  0.000  0.000  0.000  0.000  0.000  0.996
 
band     4 # energy  -40.26100420 # occ.  2.00000000
 
ion      s     py     pz     px    dxy    dyz    dz2    dxz  x2-y2    tot
    1  0.000  0.125  0.000  0.374  0.000  0.000  0.000  0.000  0.000  0.499
    2  0.000  0.125  0.000  0.374  0.000  0.000  0.000  0.000  0.000  0.499
tot    0.000  0.249  0.000  0.748  0.000  0.000  0.000  0.000  0.000  0.997
 
band     5 # energy  -40.26100329 # occ.  2.00000000
 
ion      s     py     pz     px    dxy    dyz    dz2    dxz  x2-y2    tot
    1  0.000  0.374  0.000  0.125  0.000  0.000  0.000  0.000  0.000  0.499
    2  0.000  0.374  0.000  0.125  0.000  0.000  0.000  0.000  0.000  0.499
tot    0.000  0.748  0.000  0.249  0.000  0.000  0.000  0.000  0.000  0.997
 
band     6 # energy  -40.14962178 # occ.  2.00000000
 
ion      s     py     pz     px    dxy    dyz    dz2    dxz  x2-y2    tot
    1  0.000  0.000  0.498  0.000  0.000  0.000  0.000  0.000  0.000  0.498
    2  0.000  0.000  0.498  0.000  0.000  0.000  0.000  0.000  0.000  0.498
tot    0.000  0.000  0.996  0.000  0.000  0.000  0.000  0.000  0.000  0.996
 
band     7 # energy    1.93318355 # occ.  2.00000000
 
ion      s     py     pz     px    dxy    dyz    dz2    dxz  x2-y2    tot
    1  0.204  0.000  0.000  0.000  0.000  0.000  0.000  0.000  0.000  0.204
    2  0.204  0.000  0.000  0.000  0.000  0.000  0.000  0.000  0.000  0.204
tot    0.408  0.000  0.000  0.000  0.000  0.000  0.001  0.000  0.000  0.409
 
band     8 # energy    4.63855583 # occ.  2.00000000
 
ion      s     py     pz     px    dxy    dyz    dz2    dxz  x2-y2    tot
    1  0.085  0.000  0.000  0.000  0.000  0.000  0.236  0.000  0.000  0.321
    2  0.085  0.000  0.000  0.000  0.000  0.000  0.236  0.000  0.000  0.321
tot    0.169  0.000  0.000  0.000  0.000  0.000  0.472  0.000  0.000  0.642
 
band     9 # energy    7.98778436 # occ.  2.00000000
 
ion      s     py     pz     px    dxy    dyz    dz2    dxz  x2-y2    tot
    1  0.000  0.000  0.000  0.000  0.000  0.000  0.416  0.000  0.000  0.416
    2  0.000  0.000  0.000  0.000  0.000  0.000  0.416  0.000  0.000  0.416
tot    0.000  0.000  0.000  0.000  0.000  0.000  0.832  0.000  0.000  0.832
 
band    10 # energy    8.53954004 # occ.  2.00000000
 
ion      s     py     pz     px    dxy    dyz    dz2    dxz  x2-y2    tot
    1  0.000  0.000  0.000  0.000  0.106  0.000  0.000  0.000  0.318  0.425
    2  0.000  0.000  0.000  0.000  0.106  0.000  0.000  0.000  0.318  0.425
tot    0.000  0.000  0.000  0.000  0.212  0.000  0.000  0.000  0.637  0.850
 
band    11 # energy    8.53954068 # occ.  2.00000000
 
ion      s     py     pz     px    dxy    dyz    dz2    dxz  x2-y2    tot
    1  0.000  0.000  0.000  0.000  0.318  0.000  0.000  0.000  0.106  0.425
    2  0.000  0.000  0.000  0.000  0.318  0.000  0.000  0.000  0.106  0.425
tot    0.000  0.000  0.000  0.000  0.637  0.000  0.000  0.000  0.212  0.850
 
band    12 # energy    8.94806683 # occ.  2.00000000
 
ion      s     py     pz     px    dxy    dyz    dz2    dxz  x2-y2    tot
    1  0.000  0.000  0.000  0.000  0.109  0.000  0.000  0.000  0.326  0.435
    2  0.000  0.000  0.000  0.000  0.109  0.000  0.000  0.000  0.326  0.435
tot    0.000  0.000  0.000  0.000  0.217  0.000  0.000  0.000  0.652  0.870
 
band    13 # energy    8.94806749 # occ.  2.00000000
 
ion      s     py     pz     px    dxy    dyz    dz2    dxz  x2-y2    tot
    1  0.000  0.000  0.000  0.000  0.326  0.000  0.000  0.000  0.109  0.435
    2  0.000  0.000  0.000  0.000  0.326  0.000  0.000  0.000  0.109  0.435
tot    0.000  0.000  0.000  0.000  0.652  0.000  0.000  0.000  0.217  0.870
 
band    14 # energy   10.31925535 # occ.  2.00000000
 
ion      s     py     pz     px    dxy    dyz    dz2    dxz  x2-y2    tot
    1  0.000  0.000  0.000  0.000  0.000  0.112  0.000  0.335  0.000  0.446
    2  0.000  0.000  0.000  0.000  0.000  0.112  0.000  0.335  0.000  0.446
tot    0.000  0.000  0.000  0.000  0.000  0.223  0.000  0.669  0.000  0.892
 
band    15 # energy   10.31925554 # occ.  2.00000000
 
ion      s     py     pz     px    dxy    dyz    dz2    dxz  x2-y2    tot
    1  0.000  0.000  0.000  0.000  0.000  0.335  0.000  0.112  0.000  0.446
    2  0.000  0.000  0.000  0.000  0.000  0.335  0.000  0.112  0.000  0.446
tot    0.000  0.000  0.000  0.000  0.000  0.669  0.000  0.223  0.000  0.892
 
band    16 # energy   11.33885178 # occ.  2.00000000
 
ion      s     py     pz     px    dxy    dyz    dz2    dxz  x2-y2    tot
    1  0.000  0.000  0.092  0.000  0.000  0.000  0.000  0.000  0.000  0.092
    2  0.000  0.000  0.092  0.000  0.000  0.000  0.000  0.000  0.000  0.092
tot    0.000  0.000  0.184  0.000  0.000  0.000  0.000  0.000  0.000  0.184
 
band    17 # energy   12.07718830 # occ.  2.00000000
 
ion      s     py     pz     px    dxy    dyz    dz2    dxz  x2-y2    tot
    1  0.000  0.000  0.000  0.000  0.000  0.117  0.000  0.350  0.000  0.467
    2  0.000  0.000  0.000  0.000  0.000  0.117  0.000  0.350  0.000  0.467
tot    0.000  0.000  0.000  0.000  0.000  0.233  0.000  0.700  0.000  0.933
 
band    18 # energy   12.07718852 # occ.  2.00000000
 
ion      s     py     pz     px    dxy    dyz    dz2    dxz  x2-y2    tot
    1  0.000  0.000  0.000  0.000  0.000  0.350  0.000  0.117  0.000  0.467
    2  0.000  0.000  0.000  0.000  0.000  0.350  0.000  0.117  0.000  0.467
tot    0.000  0.000  0.000  0.000  0.000  0.700  0.000  0.233  0.000  0.933
 
band    19 # energy   17.41856687 # occ.  0.00000000
 
ion      s     py     pz     px    dxy    dyz    dz2    dxz  x2-y2    tot
    1  0.184  0.000  0.000  0.000  0.000  0.000  0.226  0.000  0.000  0.409
    2  0.184  0.000  0.000  0.000  0.000  0.000  0.226  0.000  0.000  0.409
tot    0.368  0.000  0.000  0.000  0.000  0.000  0.451  0.000  0.000  0.819
 
band    20 # energy   27.28624329 # occ.  0.00000000
 
ion      s     py     pz     px    dxy    dyz    dz2    dxz  x2-y2    tot
    1  0.003  0.000  0.000  0.000  0.000  0.000  0.002  0.000  0.000  0.005
    2  0.003  0.000  0.000  0.000  0.000  0.000  0.002  0.000  0.000  0.005
tot    0.006  0.000  0.000  0.000  0.000  0.000  0.004  0.000  0.000  0.011
 
band    21 # energy   27.99068118 # occ.  0.00000000
 
ion      s     py     pz     px    dxy    dyz    dz2    dxz  x2-y2    tot
    1  0.000  0.000  0.019  0.000  0.000  0.000  0.000  0.000  0.000  0.019
    2  0.000  0.000  0.019  0.000  0.000  0.000  0.000  0.000  0.000  0.019
tot    0.000  0.000  0.038  0.000  0.000  0.000  0.000  0.000  0.000  0.038
 
band    22 # energy   29.56297081 # occ.  0.00000000
 
ion      s     py     pz     px    dxy    dyz    dz2    dxz  x2-y2    tot
    1  0.000  0.000  0.000  0.000  0.000  0.000  0.018  0.000  0.000  0.018
    2  0.000  0.000  0.000  0.000  0.000  0.000  0.018  0.000  0.000  0.018
tot    0.000  0.000  0.000  0.000  0.000  0.000  0.036  0.000  0.000  0.036
 
band    23 # energy   33.98580505 # occ.  0.00000000
 
ion      s     py     pz     px    dxy    dyz    dz2    dxz  x2-y2    tot
    1  0.000  0.034  0.000  0.094  0.016  0.000  0.000  0.000  0.006  0.150
    2  0.000  0.034  0.000  0.094  0.016  0.000  0.000  0.000  0.006  0.150
tot    0.000  0.068  0.000  0.187  0.032  0.000  0.000  0.000  0.012  0.300
 
band    24 # energy   33.98580533 # occ.  0.00000000
 
ion      s     py     pz     px    dxy    dyz    dz2    dxz  x2-y2    tot
    1  0.000  0.094  0.000  0.034  0.006  0.000  0.000  0.000  0.016  0.150
    2  0.000  0.094  0.000  0.034  0.006  0.000  0.000  0.000  0.016  0.150
tot    0.000  0.187  0.000  0.068  0.012  0.000  0.000  0.000  0.032  0.300
 

 k-point     2 :    0.10000000 0.00000000 0.00000000     weight = 0.00750000

band     1 # energy  -40.55116410 # occ.  2.00000000
 
ion      s     py     pz     px    dxy    dyz    dz2    dxz  x2-y2    tot
    1  0.000  0.000  0.491  0.000  0.000  0.000  0.000  0.000  0.000  0.491
    2  0.000  0.000  0.491  0.000  0.000  0.000  0.000  0.000  0.000  0.491
tot    0.000  0.000  0.982  0.000  0.000  0.000  0.000  0.000  0.000  0.982
 
band     2 # energy  -40.35598103 # occ.  2.00000000
 
ion      s     py     pz     px    dxy    dyz    dz2    dxz  x2-y2    tot
    1  0.000  0.124  0.000  0.373  0.000  0.000  0.000  0.000  0.000  0.497
    2  0.000  0.124  0.000  0.373  0.000  0.000  0.000  0.000  0.000  0.497
tot    0.000  0.249  0.000  0.746  0.000  0.000  0.000  0.000  0.000  0.995
 
band     3 # energy  -40.32342378 # occ.  2.00000000
 
ion      s     py     pz     px    dxy    dyz    dz2    dxz  x2-y2    tot
    1  0.000  0.373  0.000  0.124  0.000  0.000  0.000  0.000  0.000  0.498
    2  0.000  0.373  0.000  0.124  0.000  0.000  0.000  0.000  0.000  0.498
tot    0.000  0.747  0.000  0.249  0.000  0.000  0.000  0.000  0.000  0.996
 
band     4 # energy  -40.30654748 # occ.  2.00000000
 
ion      s     py     pz     px    dxy    dyz    dz2    dxz  x2-y2    tot
    1  0.000  0.125  0.000  0.374  0.000  0.000  0.000  0.000  0.000  0.498
    2  0.000  0.124  0.000  0.374  0.000  0.000  0.000  0.000  0.000  0.498
tot    0.000  0.249  0.000  0.747  0.000  0.000  0.000  0.000  0.000  0.996
 
band     5 # energy  -40.26962744 # occ.  2.00000000
 
ion      s     py     pz     px    dxy    dyz    dz2    dxz  x2-y2    tot
    1  0.000  0.374  0.000  0.125  0.000  0.000  0.000  0.000  0.000  0.499
    2  0.000  0.374  0.000  0.125  0.000  0.000  0.000  0.000  0.000  0.499
tot    0.000  0.748  0.000  0.249  0.000  0.000  0.000  0.000  0.000  0.997
 
band     6 # energy  -40.15229353 # occ.  2.00000000
 
ion      s     py     pz     px    dxy    dyz    dz2    dxz  x2-y2    tot
    1  0.000  0.000  0.498  0.000  0.000  0.000  0.000  0.000  0.000  0.498
    2  0.000  0.000  0.498  0.000  0.000  0.000  0.000  0.000  0.000  0.498
tot    0.000  0.000  0.996  0.000  0.000  0.000  0.000  0.000  0.000  0.996
 
band     7 # energy    2.31614209 # occ.  2.00000000
 
ion      s     py     pz     px    dxy    dyz    dz2    dxz  x2-y2    tot
    1  0.200  0.001  0.000  0.002  0.000  0.000  0.000  0.000  0.000  0.203
    2  0.200  0.001  0.000  0.002  0.000  0.000  0.000  0.000  0.000  0.203
tot    0.399  0.001  0.000  0.004  0.001  0.000  0.000  0.000  0.000  0.405
 
band     8 # energy    4.98760560 # occ.  2.00000000
 
ion      s     py     pz     px    dxy    dyz    dz2    dxz  x2-y2    tot
    1  0.077  0.001  0.000  0.002  0.002  0.000  0.240  0.000  0.001  0.322
    2  0.077  0.001  0.000  0.002  0.002  0.000  0.240  0.000  0.001  0.322
tot    0.155  0.001  0.000  0.004  0.004  0.000  0.480  0.000  0.001  0.644
 
band     9 # energy    7.91255258 # occ.  2.00000000
 
ion      s     py     pz     px    dxy    dyz    dz2    dxz  x2-y2    tot
    1  0.000  0.000  0.000  0.000  0.117  0.000  0.255  0.000  0.039  0.411
    2  0.000  0.000  0.000  0.000  0.117  0.000  0.255  0.000  0.039  0.411
tot    0.000  0.000  0.000  0.001  0.234  0.000  0.510  0.000  0.078  0.823
 
band    10 # energy    8.54906059 # occ.  2.00000000
 
ion      s     py     pz     px    dxy    dyz    dz2    dxz  x2-y2    tot
    1  0.000  0.000  0.000  0.000  0.212  0.000  0.140  0.000  0.071  0.422
    2  0.000  0.000  0.000  0.000  0.212  0.000  0.140  0.000  0.071  0.422
tot    0.000  0.000  0.000  0.001  0.423  0.000  0.279  0.000  0.141  0.844
 
band    11 # energy    8.78220565 # occ.  2.00000000
 
ion      s     py     pz     px    dxy    dyz    dz2    dxz  x2-y2    tot
    1  0.002  0.000  0.000  0.000  0.301  0.000  0.024  0.000  0.100  0.427
    2  0.002  0.000  0.000  0.000  0.301  0.000  0.024  0.000  0.100  0.427
tot    0.004  0.000  0.000  0.001  0.601  0.000  0.048  0.000  0.200  0.855
 
band    12 # energy    8.84066193 # occ.  2.00000000
 
ion      s     py     pz     px    dxy    dyz    dz2    dxz  x2-y2    tot
    1  0.000  0.000  0.000  0.000  0.106  0.000  0.000  0.000  0.319  0.426
    2  0.000  0.000  0.000  0.000  0.106  0.000  0.000  0.000  0.319  0.426
tot    0.000  0.001  0.000  0.000  0.213  0.000  0.000  0.000  0.639  0.853
 
band    13 # energy    9.23540205 # occ.  2.00000000
 
ion      s     py     pz     px    dxy    dyz    dz2    dxz  x2-y2    tot
    1  0.000  0.000  0.000  0.000  0.109  0.000  0.000  0.000  0.327  0.436
    2  0.000  0.000  0.000  0.000  0.109  0.000  0.000  0.000  0.327  0.436
tot    0.000  0.001  0.000  0.000  0.218  0.000  0.000  0.000  0.654  0.873
 
band    14 # energy    9.64856625 # occ.  2.00000000
 
ion      s     py     pz     px    dxy    dyz    dz2    dxz  x2-y2    tot
    1  0.000  0.000  0.024  0.000  0.000  0.077  0.000  0.231  0.000  0.332
    2  0.000  0.000  0.024  0.000  0.000  0.077  0.000  0.231  0.000  0.332
tot    0.000  0.000  0.048  0.000  0.000  0.154  0.000  0.462  0.000  0.664
 
band    15 # energy   10.12909189 # occ.  2.00000000
 
ion      s     py     pz     px    dxy    dyz    dz2    dxz  x2-y2    tot
    1  0.000  0.000  0.000  0.000  0.000  0.331  0.000  0.110  0.000  0.442
    2  0.000  0.000  0.000  0.000  0.000  0.331  0.000  0.110  0.000  0.442
tot    0.000  0.000  0.000  0.000  0.000  0.662  0.000  0.221  0.000  0.883
 
band    16 # energy   10.26914946 # occ.  2.00000000
 
ion      s     py     pz     px    dxy    dyz    dz2    dxz  x2-y2    tot
    1  0.000  0.000  0.021  0.000  0.000  0.085  0.000  0.256  0.000  0.362
    2  0.000  0.000  0.021  0.000  0.000  0.085  0.000  0.256  0.000  0.362
tot    0.000  0.000  0.041  0.000  0.000  0.171  0.000  0.512  0.000  0.724
 
band    17 # energy   12.14972459 # occ.  1.99999388
 
ion      s     py     pz     px    dxy    dyz    dz2    dxz  x2-y2    tot
    1  0.000  0.000  0.000  0.000  0.000  0.352  0.000  0.117  0.000  0.469
    2  0.000  0.000  0.000  0.000  0.000  0.352  0.000  0.117  0.000  0.469
tot    0.000  0.000  0.000  0.000  0.000  0.704  0.000  0.235  0.000  0.939
 
band    18 # energy   13.87459933 # occ.  0.00000000
 
ion      s     py     pz     px    dxy    dyz    dz2    dxz  x2-y2    tot
    1  0.000  0.000  0.048  0.000  0.000  0.064  0.000  0.192  0.000  0.304
    2  0.000  0.000  0.048  0.000  0.000  0.064  0.000  0.192  0.000  0.304
tot    0.000  0.000  0.096  0.000  0.000  0.128  0.000  0.384  0.000  0.608
 
band    19 # energy   17.37296290 # occ.  0.00000000
 
ion      s     py     pz     px    dxy    dyz    dz2    dxz  x2-y2    tot
    1  0.185  0.000  0.000  0.001  0.002  0.000  0.217  0.000  0.001  0.405
    2  0.185  0.000  0.000  0.001  0.002  0.000  0.217  0.000  0.001  0.405
tot    0.369  0.000  0.000  0.001  0.003  0.000  0.435  0.000  0.001  0.810
 
band    20 # energy   27.82803347 # occ.  0.00000000
 
ion      s     py     pz     px    dxy    dyz    dz2    dxz  x2-y2    tot
    1  0.005  0.001  0.000  0.002  0.017  0.000  0.003  0.000  0.006  0.032
    2  0.005  0.001  0.000  0.002  0.017  0.000  0.003  0.000  0.006  0.032
tot    0.009  0.001  0.000  0.004  0.033  0.000  0.005  0.000  0.011  0.064
 
band    21 # energy   28.55004093 # occ.  0.00000000
 
ion      s     py     pz     px    dxy    dyz    dz2    dxz  x2-y2    tot
    1  0.000  0.000  0.017  0.000  0.000  0.002  0.000  0.006  0.000  0.024
    2  0.000  0.000  0.017  0.000  0.000  0.002  0.000  0.006  0.000  0.024
tot    0.000  0.000  0.033  0.000  0.000  0.004  0.000  0.012  0.000  0.049
 
band    22 # energy   30.04938730 # occ.  0.00000000
 
ion      s     py     pz     px    dxy    dyz    dz2    dxz  x2-y2    tot
    1  0.001  0.002  0.000  0.007  0.015  0.000  0.023  0.000  0.005  0.055
    2  0.001  0.002  0.000  0.007  0.015  0.000  0.023  0.000  0.005  0.055
tot    0.003  0.005  0.000  0.015  0.031  0.000  0.047  0.000  0.010  0.111
 
band    23 # energy   32.21150450 # occ.  0.00000000
 
ion      s     py     pz     px    dxy    dyz    dz2    dxz  x2-y2    tot
    1  0.007  0.026  0.000  0.077  0.014  0.000  0.003  0.000  0.005  0.131
    2  0.007  0.026  0.000  0.077  0.014  0.000  0.003  0.000  0.005  0.131
tot    0.014  0.051  0.000  0.154  0.028  0.000  0.006  0.000  0.009  0.263
 
band    24 # energy   32.40228543 # occ.  0.00000000
 
ion      s     py     pz     px    dxy    dyz    dz2    dxz  x2-y2    tot
    1  0.000  0.000  0.008  0.000  0.000  0.006  0.000  0.018  0.000  0.031
    2  0.000  0.000  0.008  0.000  0.000  0.006  0.000  0.018  0.000  0.031
tot    0.000  0.000  0.016  0.000  0.000  0.012  0.000  0.035  0.000  0.063
 

 k-point     3 :    0.20000000 0.00000000 0.00000000     weight = 0.00750000

band     1 # energy  -40.50985162 # occ.  2.00000000
 
ion      s     py     pz     px    dxy    dyz    dz2    dxz  x2-y2    tot
    1  0.000  0.000  0.492  0.000  0.000  0.000  0.000  0.000  0.000  0.492
    2  0.000  0.000  0.492  0.000  0.000  0.000  0.000  0.000  0.000  0.492
tot    0.000  0.000  0.984  0.000  0.000  0.000  0.000  0.000  0.000  0.984
 
band     2 # energy  -40.47428951 # occ.  2.00000000
 
ion      s     py     pz     px    dxy    dyz    dz2    dxz  x2-y2    tot
    1  0.000  0.124  0.000  0.372  0.000  0.000  0.000  0.000  0.000  0.496
    2  0.000  0.124  0.000  0.372  0.000  0.000  0.000  0.000  0.000  0.496
tot    0.000  0.248  0.000  0.743  0.000  0.000  0.000  0.000  0.000  0.991
 
band     3 # energy  -40.42538902 # occ.  2.00000000
 
ion      s     py     pz     px    dxy    dyz    dz2    dxz  x2-y2    tot
    1  0.000  0.124  0.000  0.372  0.000  0.000  0.000  0.000  0.000  0.496
    2  0.000  0.124  0.000  0.372  0.000  0.000  0.000  0.000  0.000  0.496
tot    0.000  0.248  0.000  0.744  0.000  0.000  0.000  0.000  0.000  0.993
 
band     4 # energy  -40.35756549 # occ.  2.00000000
 
ion      s     py     pz     px    dxy    dyz    dz2    dxz  x2-y2    tot
    1  0.000  0.373  0.000  0.124  0.000  0.000  0.000  0.000  0.000  0.497
    2  0.000  0.373  0.000  0.124  0.000  0.000  0.000  0.000  0.000  0.497
tot    0.000  0.746  0.000  0.249  0.000  0.000  0.000  0.000  0.000  0.995
 
band     5 # energy  -40.29399146 # occ.  2.00000000
 
ion      s     py     pz     px    dxy    dyz    dz2    dxz  x2-y2    tot
    1  0.000  0.374  0.000  0.125  0.000  0.000  0.000  0.000  0.000  0.498
    2  0.000  0.374  0.000  0.125  0.000  0.000  0.000  0.000  0.000  0.498
tot    0.000  0.747  0.000  0.249  0.000  0.000  0.000  0.000  0.000  0.997
 
band     6 # energy  -40.16332138 # occ.  2.00000000
 
ion      s     py     pz     px    dxy    dyz    dz2    dxz  x2-y2    tot
    1  0.000  0.000  0.498  0.000  0.000  0.000  0.000  0.000  0.000  0.498
    2  0.000  0.000  0.498  0.000  0.000  0.000  0.000  0.000  0.000  0.498
tot    0.000  0.000  0.995  0.000  0.000  0.000  0.000  0.000  0.000  0.995
 
band     7 # energy    3.35316158 # occ.  2.00000000
 
ion      s     py     pz     px    dxy    dyz    dz2    dxz  x2-y2    tot
    1  0.184  0.002  0.000  0.007  0.007  0.000  0.001  0.000  0.002  0.203
    2  0.184  0.002  0.000  0.007  0.007  0.000  0.001  0.000  0.002  0.203
tot    0.368  0.004  0.000  0.013  0.013  0.000  0.002  0.000  0.004  0.405
 
band     8 # energy    5.74487034 # occ.  2.00000000
 
ion      s     py     pz     px    dxy    dyz    dz2    dxz  x2-y2    tot
    1  0.052  0.001  0.000  0.004  0.041  0.000  0.222  0.000  0.014  0.335
    2  0.052  0.001  0.000  0.004  0.041  0.000  0.222  0.000  0.014  0.335
tot    0.104  0.003  0.000  0.008  0.083  0.000  0.445  0.000  0.028  0.670
 
band     9 # energy    7.66127489 # occ.  2.00000000
 
ion      s     py     pz     px    dxy    dyz    dz2    dxz  x2-y2    tot
    1  0.003  0.001  0.000  0.004  0.187  0.000  0.129  0.000  0.062  0.386
    2  0.003  0.001  0.000  0.004  0.187  0.000  0.129  0.000  0.062  0.386
tot    0.007  0.003  0.000  0.008  0.373  0.000  0.257  0.000  0.124  0.772
 
band    10 # energy    8.16615050 # occ.  2.00000000
 
ion      s     py     pz     px    dxy    dyz    dz2    dxz  x2-y2    tot
    1  0.000  0.000  0.020  0.000  0.000  0.075  0.000  0.224  0.000  0.319
    2  0.000  0.000  0.020  0.000  0.000  0.075  0.000  0.224  0.000  0.319
tot    0.000  0.000  0.041  0.000  0.000  0.149  0.000  0.448  0.000  0.638
 
band    11 # energy    8.24127625 # occ.  2.00000000
 
ion      s     py     pz     px    dxy    dyz    dz2    dxz  x2-y2    tot
    1  0.006  0.000  0.000  0.001  0.257  0.000  0.058  0.000  0.086  0.408
    2  0.006  0.000  0.000  0.001  0.257  0.000  0.058  0.000  0.086  0.408
tot    0.012  0.001  0.000  0.002  0.514  0.000  0.116  0.000  0.171  0.817
 
band    12 # energy    9.23252711 # occ.  2.00000000
 
ion      s     py     pz     px    dxy    dyz    dz2    dxz  x2-y2    tot
    1  0.004  0.001  0.000  0.002  0.110  0.000  0.270  0.000  0.037  0.423
    2  0.004  0.001  0.000  0.002  0.110  0.000  0.270  0.000  0.037  0.423
tot    0.008  0.001  0.000  0.004  0.220  0.000  0.539  0.000  0.073  0.845
 
band    13 # energy    9.69496910 # occ.  2.00000000
 
ion      s     py     pz     px    dxy    dyz    dz2    dxz  x2-y2    tot
    1  0.000  0.001  0.000  0.000  0.108  0.000  0.000  0.000  0.323  0.432
    2  0.000  0.001  0.000  0.000  0.108  0.000  0.000  0.000  0.323  0.432
tot    0.000  0.002  0.000  0.001  0.215  0.000  0.000  0.000  0.646  0.864
 
band    14 # energy    9.70847218 # occ.  2.00000000
 
ion      s     py     pz     px    dxy    dyz    dz2    dxz  x2-y2    tot
    1  0.000  0.000  0.000  0.000  0.000  0.325  0.000  0.108  0.000  0.433
    2  0.000  0.000  0.000  0.000  0.000  0.325  0.000  0.108  0.000  0.433
tot    0.000  0.000  0.000  0.000  0.000  0.649  0.000  0.216  0.000  0.865
 
band    15 # energy    9.71753404 # occ.  2.00000000
 
ion      s     py     pz     px    dxy    dyz    dz2    dxz  x2-y2    tot
    1  0.000  0.000  0.011  0.000  0.000  0.095  0.000  0.285  0.000  0.390
    2  0.000  0.000  0.011  0.000  0.000  0.095  0.000  0.285  0.000  0.390
tot    0.000  0.000  0.021  0.000  0.000  0.190  0.000  0.569  0.000  0.780
 
band    16 # energy   10.04270809 # occ.  2.00000000
 
ion      s     py     pz     px    dxy    dyz    dz2    dxz  x2-y2    tot
    1  0.000  0.001  0.000  0.000  0.110  0.000  0.000  0.000  0.330  0.442
    2  0.000  0.001  0.000  0.000  0.110  0.000  0.000  0.000  0.330  0.442
tot    0.000  0.002  0.000  0.001  0.220  0.000  0.000  0.000  0.660  0.883
 
band    17 # energy   12.26526862 # occ.  1.79017817
 
ion      s     py     pz     px    dxy    dyz    dz2    dxz  x2-y2    tot
    1  0.000  0.000  0.000  0.000  0.000  0.355  0.000  0.118  0.000  0.474
    2  0.000  0.000  0.000  0.000  0.000  0.355  0.000  0.118  0.000  0.474
tot    0.000  0.000  0.000  0.000  0.000  0.711  0.000  0.237  0.000  0.948
 
band    18 # energy   16.17096973 # occ.  0.00000000
 
ion      s     py     pz     px    dxy    dyz    dz2    dxz  x2-y2    tot
    1  0.000  0.000  0.064  0.000  0.000  0.052  0.000  0.156  0.000  0.272
    2  0.000  0.000  0.064  0.000  0.000  0.052  0.000  0.156  0.000  0.272
tot    0.000  0.000  0.128  0.000  0.000  0.104  0.000  0.312  0.000  0.545
 
band    19 # energy   17.27278689 # occ.  0.00000000
 
ion      s     py     pz     px    dxy    dyz    dz2    dxz  x2-y2    tot
    1  0.187  0.001  0.000  0.003  0.006  0.000  0.188  0.000  0.002  0.387
    2  0.187  0.001  0.000  0.003  0.006  0.000  0.188  0.000  0.002  0.387
tot    0.375  0.002  0.000  0.006  0.011  0.000  0.377  0.000  0.004  0.775
 
band    20 # energy   26.80661570 # occ.  0.00000000
 
ion      s     py     pz     px    dxy    dyz    dz2    dxz  x2-y2    tot
    1  0.025  0.016  0.000  0.049  0.056  0.000  0.026  0.000  0.019  0.190
    2  0.025  0.016  0.000  0.049  0.056  0.000  0.026  0.000  0.019  0.190
tot    0.050  0.032  0.000  0.097  0.111  0.000  0.051  0.000  0.037  0.379
 
band    21 # energy   29.16904686 # occ.  0.00000000
 
ion      s     py     pz     px    dxy    dyz    dz2    dxz  x2-y2    tot
    1  0.000  0.000  0.010  0.000  0.000  0.003  0.000  0.008  0.000  0.020
    2  0.000  0.000  0.010  0.000  0.000  0.003  0.000  0.008  0.000  0.020
tot    0.000  0.000  0.019  0.000  0.000  0.005  0.000  0.016  0.000  0.041
 
band    22 # energy   29.92755859 # occ.  0.00000000
 
ion      s     py     pz     px    dxy    dyz    dz2    dxz  x2-y2    tot
    1  0.000  0.083  0.000  0.028  0.011  0.000  0.000  0.000  0.034  0.157
    2  0.000  0.083  0.000  0.028  0.011  0.000  0.000  0.000  0.034  0.157
tot    0.000  0.166  0.000  0.055  0.023  0.000  0.000  0.000  0.069  0.313
 
band    23 # energy   30.55435816 # occ.  0.00000000
 
ion      s     py     pz     px    dxy    dyz    dz2    dxz  x2-y2    tot
    1  0.005  0.005  0.000  0.014  0.033  0.000  0.019  0.000  0.011  0.086
    2  0.005  0.005  0.000  0.014  0.033  0.000  0.019  0.000  0.011  0.086
tot    0.009  0.010  0.000  0.029  0.065  0.000  0.038  0.000  0.022  0.172
 
band    24 # energy   30.71856951 # occ.  0.00000000
 
ion      s     py     pz     px    dxy    dyz    dz2    dxz  x2-y2    tot
    1  0.000  0.000  0.004  0.000  0.000  0.016  0.000  0.048  0.000  0.067
    2  0.000  0.000  0.004  0.000  0.000  0.016  0.000  0.048  0.000  0.067
tot    0.000  0.000  0.008  0.000  0.000  0.032  0.000  0.095  0.000  0.135
 

 k-point     4 :    0.30000000 0.00000000 0.00000000     weight = 0.00750000

band     1 # energy  -40.61959456 # occ.  2.00000000
 
ion      s     py     pz     px    dxy    dyz    dz2    dxz  x2-y2    tot
    1  0.000  0.123  0.000  0.370  0.000  0.000  0.000  0.000  0.000  0.493
    2  0.000  0.123  0.000  0.370  0.000  0.000  0.000  0.000  0.000  0.493
tot    0.000  0.247  0.000  0.740  0.000  0.000  0.000  0.000  0.000  0.987
 
band     2 # energy  -40.56952589 # occ.  2.00000000
 
ion      s     py     pz     px    dxy    dyz    dz2    dxz  x2-y2    tot
    1  0.000  0.124  0.000  0.371  0.000  0.000  0.000  0.000  0.000  0.494
    2  0.000  0.124  0.000  0.371  0.000  0.000  0.000  0.000  0.000  0.494
tot    0.000  0.247  0.000  0.741  0.000  0.000  0.000  0.000  0.000  0.988
 
band     3 # energy  -40.45220725 # occ.  2.00000000
 
ion      s     py     pz     px    dxy    dyz    dz2    dxz  x2-y2    tot
    1  0.000  0.000  0.493  0.000  0.000  0.000  0.000  0.000  0.000  0.493
    2  0.000  0.000  0.493  0.000  0.000  0.000  0.000  0.000  0.000  0.493
tot    0.000  0.000  0.986  0.000  0.000  0.000  0.000  0.000  0.000  0.986
 
band     4 # energy  -40.39822479 # occ.  2.00000000
 
ion      s     py     pz     px    dxy    dyz    dz2    dxz  x2-y2    tot
    1  0.000  0.373  0.000  0.124  0.000  0.000  0.000  0.000  0.000  0.497
    2  0.000  0.373  0.000  0.124  0.000  0.000  0.000  0.000  0.000  0.497
tot    0.000  0.745  0.000  0.248  0.000  0.000  0.000  0.000  0.000  0.994
 
band     5 # energy  -40.32452815 # occ.  2.00000000
 
ion      s     py     pz     px    dxy    dyz    dz2    dxz  x2-y2    tot
    1  0.000  0.373  0.000  0.124  0.000  0.000  0.000  0.000  0.000  0.498
    2  0.000  0.373  0.000  0.124  0.000  0.000  0.000  0.000  0.000  0.498
tot    0.000  0.747  0.000  0.249  0.000  0.000  0.000  0.000  0.000  0.996
 
band     6 # energy  -40.18386661 # occ.  2.00000000
 
ion      s     py     pz     px    dxy    dyz    dz2    dxz  x2-y2    tot
    1  0.000  0.000  0.497  0.000  0.000  0.000  0.000  0.000  0.000  0.497
    2  0.000  0.000  0.497  0.000  0.000  0.000  0.000  0.000  0.000  0.497
tot    0.000  0.000  0.995  0.000  0.000  0.000  0.000  0.000  0.000  0.995
 
band     7 # energy    4.59573528 # occ.  2.00000000
 
ion      s     py     pz     px    dxy    dyz    dz2    dxz  x2-y2    tot
    1  0.143  0.003  0.000  0.009  0.052  0.000  0.006  0.000  0.017  0.231
    2  0.143  0.003  0.000  0.009  0.052  0.000  0.006  0.000  0.017  0.231
tot    0.287  0.006  0.000  0.018  0.104  0.000  0.012  0.000  0.035  0.461
 
band     8 # energy    5.84702727 # occ.  2.00000000
 
ion      s     py     pz     px    dxy    dyz    dz2    dxz  x2-y2    tot
    1  0.021  0.000  0.000  0.001  0.165  0.000  0.119  0.000  0.055  0.362
    2  0.021  0.000  0.000  0.001  0.165  0.000  0.119  0.000  0.055  0.362
tot    0.043  0.001  0.000  0.002  0.330  0.000  0.238  0.000  0.110  0.725
 
band     9 # energy    7.01778903 # occ.  2.00000000
 
ion      s     py     pz     px    dxy    dyz    dz2    dxz  x2-y2    tot
    1  0.000  0.000  0.012  0.000  0.000  0.079  0.000  0.238  0.000  0.330
    2  0.000  0.000  0.012  0.000  0.000  0.079  0.000  0.238  0.000  0.330
tot    0.000  0.000  0.024  0.000  0.000  0.159  0.000  0.477  0.000  0.659
 
band    10 # energy    7.95339192 # occ.  2.00000000
 
ion      s     py     pz     px    dxy    dyz    dz2    dxz  x2-y2    tot
    1  0.014  0.003  0.000  0.010  0.206  0.000  0.046  0.000  0.069  0.349
    2  0.014  0.003  0.000  0.010  0.206  0.000  0.046  0.000  0.069  0.349
tot    0.028  0.007  0.000  0.021  0.411  0.000  0.093  0.000  0.137  0.697
 
band    11 # energy    8.35165243 # occ.  2.00000000
 
ion      s     py     pz     px    dxy    dyz    dz2    dxz  x2-y2    tot