PROCAR lm decomposed
# of k-points:   70         # of bands:   24         # of ions:    2

 k-point     1 :    0.00000000 0.00000000 0.00000000     weight = 0.00125000

band     1 # energy  -38.92596843 # occ.  2.00000000
 
ion      s     py     pz     px    dxy    dyz    dz2    dxz  x2-y2    tot
    1  0.000  0.000  0.489  0.000  0.000  0.000  0.000  0.000  0.000  0.489
    2  0.000  0.000  0.489  0.000  0.000  0.000  0.000  0.000  0.000  0.489
tot    0.000  0.000  0.978  0.000  0.000  0.000  0.000  0.000  0.000  0.978
 
band     2 # energy  -38.47647600 # occ.  2.00000000
 
ion      s     py     pz     px    dxy    dyz    dz2    dxz  x2-y2    tot
    1  0.000  0.125  0.000  0.374  0.000  0.000  0.000  0.000  0.000  0.499
    2  0.000  0.125  0.000  0.374  0.000  0.000  0.000  0.000  0.000  0.499
tot    0.000  0.249  0.000  0.748  0.000  0.000  0.000  0.000  0.000  0.997
 
band     3 # energy  -38.47647476 # occ.  2.00000000
 
ion      s     py     pz     px    dxy    dyz    dz2    dxz  x2-y2    tot
    1  0.000  0.374  0.000  0.125  0.000  0.000  0.000  0.000  0.000  0.499
    2  0.000  0.374  0.000  0.125  0.000  0.000  0.000  0.000  0.000  0.499
tot    0.000  0.748  0.000  0.249  0.000  0.000  0.000  0.000  0.000  0.997
 
band     4 # energy  -38.40414662 # occ.  2.00000000
 
ion      s     py     pz     px    dxy    dyz    dz2    dxz  x2-y2    tot
    1  0.000  0.125  0.000  0.375  0.000  0.000  0.000  0.000  0.000  0.500
    2  0.000  0.125  0.000  0.375  0.000  0.000  0.000  0.000  0.000  0.500
tot    0.000  0.250  0.000  0.749  0.000  0.000  0.000  0.000  0.000  0.999
 
band     5 # energy  -38.40414538 # occ.  2.00000000
 
ion      s     py     pz     px    dxy    dyz    dz2    dxz  x2-y2    tot
    1  0.000  0.375  0.000  0.125  0.000  0.000  0.000  0.000  0.000  0.500
    2  0.000  0.375  0.000  0.125  0.000  0.000  0.000  0.000  0.000  0.500
tot    0.000  0.749  0.000  0.250  0.000  0.000  0.000  0.000  0.000  0.999
 
band     6 # energy  -38.31060270 # occ.  2.00000000
 
ion      s     py     pz     px    dxy    dyz    dz2    dxz  x2-y2    tot
    1  0.000  0.000  0.499  0.000  0.000  0.000  0.000  0.000  0.000  0.499
    2  0.000  0.000  0.499  0.000  0.000  0.000  0.000  0.000  0.000  0.499
tot    0.000  0.000  0.997  0.000  0.000  0.000  0.000  0.000  0.000  0.997
 
band     7 # energy    2.90073539 # occ.  2.00000000
 
ion      s     py     pz     px    dxy    dyz    dz2    dxz  x2-y2    tot
    1  0.226  0.000  0.000  0.000  0.000  0.000  0.000  0.000  0.000  0.226
    2  0.226  0.000  0.000  0.000  0.000  0.000  0.000  0.000  0.000  0.226
tot    0.451  0.000  0.000  0.000  0.000  0.000  0.001  0.000  0.000  0.452
 
band     8 # energy    5.66672802 # occ.  2.00000000
 
ion      s     py     pz     px    dxy    dyz    dz2    dxz  x2-y2    tot
    1  0.092  0.000  0.000  0.000  0.000  0.000  0.246  0.000  0.000  0.338
    2  0.092  0.000  0.000  0.000  0.000  0.000  0.246  0.000  0.000  0.338
tot    0.184  0.000  0.000  0.000  0.000  0.000  0.492  0.000  0.000  0.676
 
band     9 # energy    9.38270536 # occ.  2.00000000
 
ion      s     py     pz     px    dxy    dyz    dz2    dxz  x2-y2    tot
    1  0.000  0.000  0.000  0.000  0.000  0.000  0.423  0.000  0.000  0.423
    2  0.000  0.000  0.000  0.000  0.000  0.000  0.423  0.000  0.000  0.423
tot    0.000  0.000  0.000  0.000  0.000  0.000  0.847  0.000  0.000  0.847
 
band    10 # energy   10.03618071 # occ.  2.00000000
 
ion      s     py     pz     px    dxy    dyz    dz2    dxz  x2-y2    tot
    1  0.000  0.000  0.000  0.000  0.108  0.000  0.000  0.000  0.323  0.431
    2  0.000  0.000  0.000  0.000  0.108  0.000  0.000  0.000  0.323  0.431
tot    0.000  0.000  0.000  0.000  0.215  0.000  0.000  0.000  0.646  0.862
 
band    11 # energy   10.03618149 # occ.  2.00000000
 
ion      s     py     pz     px    dxy    dyz    dz2    dxz  x2-y2    tot
    1  0.000  0.000  0.000  0.000  0.323  0.000  0.000  0.000  0.108  0.431
    2  0.000  0.000  0.000  0.000  0.323  0.000  0.000  0.000  0.108  0.431
tot    0.000  0.000  0.000  0.000  0.646  0.000  0.000  0.000  0.215  0.862
 
band    12 # energy   10.52626120 # occ.  2.00000000
 
ion      s     py     pz     px    dxy    dyz    dz2    dxz  x2-y2    tot
    1  0.000  0.000  0.000  0.000  0.110  0.000  0.000  0.000  0.331  0.441
    2  0.000  0.000  0.000  0.000  0.110  0.000  0.000  0.000  0.331  0.441
tot    0.000  0.000  0.000  0.000  0.220  0.000  0.000  0.000  0.661  0.882
 
band    13 # energy   10.52626201 # occ.  2.00000000
 
ion      s     py     pz     px    dxy    dyz    dz2    dxz  x2-y2    tot
    1  0.000  0.000  0.000  0.000  0.331  0.000  0.000  0.000  0.110  0.441
    2  0.000  0.000  0.000  0.000  0.331  0.000  0.000  0.000  0.110  0.441
tot    0.000  0.000  0.000  0.000  0.661  0.000  0.000  0.000  0.220  0.882
 
band    14 # energy   12.11806714 # occ.  2.00000000
 
ion      s     py     pz     px    dxy    dyz    dz2    dxz  x2-y2    tot
    1  0.000  0.000  0.000  0.000  0.000  0.113  0.000  0.338  0.000  0.451
    2  0.000  0.000  0.000  0.000  0.000  0.113  0.000  0.338  0.000  0.451
tot    0.000  0.000  0.000  0.000  0.000  0.225  0.000  0.676  0.000  0.901
 
band    15 # energy   12.11806770 # occ.  2.00000000
 
ion      s     py     pz     px    dxy    dyz    dz2    dxz  x2-y2    tot
    1  0.000  0.000  0.000  0.000  0.000  0.338  0.000  0.113  0.000  0.451
    2  0.000  0.000  0.000  0.000  0.000  0.338  0.000  0.113  0.000  0.451
tot    0.000  0.000  0.000  0.000  0.000  0.676  0.000  0.225  0.000  0.901
 
band    16 # energy   13.04232444 # occ.  2.00000000
 
ion      s     py     pz     px    dxy    dyz    dz2    dxz  x2-y2    tot
    1  0.000  0.000  0.106  0.000  0.000  0.000  0.000  0.000  0.000  0.106
    2  0.000  0.000  0.106  0.000  0.000  0.000  0.000  0.000  0.000  0.106
tot    0.000  0.000  0.212  0.000  0.000  0.000  0.000  0.000  0.000  0.212
 
band    17 # energy   14.20216380 # occ.  2.00000000
 
ion      s     py     pz     px    dxy    dyz    dz2    dxz  x2-y2    tot
    1  0.000  0.000  0.000  0.000  0.000  0.117  0.000  0.352  0.000  0.469
    2  0.000  0.000  0.000  0.000  0.000  0.117  0.000  0.352  0.000  0.469
tot    0.000  0.000  0.000  0.000  0.000  0.235  0.000  0.704  0.000  0.938
 
band    18 # energy   14.20216445 # occ.  2.00000000
 
ion      s     py     pz     px    dxy    dyz    dz2    dxz  x2-y2    tot
    1  0.000  0.000  0.000  0.000  0.000  0.352  0.000  0.117  0.000  0.469
    2  0.000  0.000  0.000  0.000  0.000  0.352  0.000  0.117  0.000  0.469
tot    0.000  0.000  0.000  0.000  0.000  0.704  0.000  0.235  0.000  0.938
 
band    19 # energy   20.36072593 # occ.  0.00000000
 
ion      s     py     pz     px    dxy    dyz    dz2    dxz  x2-y2    tot
    1  0.196  0.000  0.000  0.000  0.000  0.000  0.224  0.000  0.000  0.420
    2  0.196  0.000  0.000  0.000  0.000  0.000  0.224  0.000  0.000  0.420
tot    0.393  0.000  0.000  0.000  0.000  0.000  0.447  0.000  0.000  0.840
 
band    20 # energy   29.17026823 # occ.  0.00000000
 
ion      s     py     pz     px    dxy    dyz    dz2    dxz  x2-y2    tot
    1  0.003  0.000  0.000  0.000  0.000  0.000  0.002  0.000  0.000  0.005
    2  0.003  0.000  0.000  0.000  0.000  0.000  0.002  0.000  0.000  0.005
tot    0.006  0.000  0.000  0.000  0.000  0.000  0.005  0.000  0.000  0.011
 
band    21 # energy   30.02082146 # occ.  0.00000000
 
ion      s     py     pz     px    dxy    dyz    dz2    dxz  x2-y2    tot
    1  0.000  0.000  0.017  0.000  0.000  0.000  0.000  0.000  0.000  0.017
    2  0.000  0.000  0.017  0.000  0.000  0.000  0.000  0.000  0.000  0.017
tot    0.000  0.000  0.035  0.000  0.000  0.000  0.000  0.000  0.000  0.035
 
band    22 # energy   31.66522749 # occ.  0.00000000
 
ion      s     py     pz     px    dxy    dyz    dz2    dxz  x2-y2    tot
    1  0.000  0.000  0.000  0.000  0.000  0.000  0.021  0.000  0.000  0.021
    2  0.000  0.000  0.000  0.000  0.000  0.000  0.021  0.000  0.000  0.021
tot    0.000  0.000  0.000  0.000  0.000  0.000  0.041  0.000  0.000  0.042
 
band    23 # energy   37.27854399 # occ.  0.00000000
 
ion      s     py     pz     px    dxy    dyz    dz2    dxz  x2-y2    tot
    1  0.000  0.109  0.000  0.022  0.004  0.000  0.000  0.000  0.020  0.155
    2  0.000  0.109  0.000  0.022  0.004  0.000  0.000  0.000  0.020  0.155
tot    0.000  0.217  0.000  0.044  0.008  0.000  0.000  0.000  0.041  0.310
 
band    24 # energy   37.27871652 # occ.  0.00000000
 
ion      s     py     pz     px    dxy    dyz    dz2    dxz  x2-y2    tot
    1  0.000  0.022  0.000  0.109  0.020  0.000  0.000  0.000  0.004  0.155
    2  0.000  0.022  0.000  0.109  0.020  0.000  0.000  0.000  0.004  0.155
tot    0.000  0.044  0.000  0.217  0.041  0.000  0.000  0.000  0.008  0.310
 

 k-point     2 :    0.10000000-0.00000000 0.00000000     weight = 0.00750000

band     1 # energy  -38.90307440 # occ.  2.00000000
 
ion      s     py     pz     px    dxy    dyz    dz2    dxz  x2-y2    tot
    1  0.000  0.000  0.489  0.000  0.000  0.000  0.000  0.000  0.000  0.489
    2  0.000  0.000  0.489  0.000  0.000  0.000  0.000  0.000  0.000  0.489
tot    0.000  0.000  0.979  0.000  0.000  0.000  0.000  0.000  0.000  0.979
 
band     2 # energy  -38.54244249 # occ.  2.00000000
 
ion      s     py     pz     px    dxy    dyz    dz2    dxz  x2-y2    tot
    1  0.000  0.124  0.000  0.373  0.000  0.000  0.000  0.000  0.000  0.498
    2  0.000  0.124  0.000  0.373  0.000  0.000  0.000  0.000  0.000  0.498
tot    0.000  0.249  0.000  0.747  0.000  0.000  0.000  0.000  0.000  0.996
 
band     3 # energy  -38.49517055 # occ.  2.00000000
 
ion      s     py     pz     px    dxy    dyz    dz2    dxz  x2-y2    tot
    1  0.000  0.374  0.000  0.125  0.000  0.000  0.000  0.000  0.000  0.498
    2  0.000  0.374  0.000  0.125  0.000  0.000  0.000  0.000  0.000  0.498
tot    0.000  0.748  0.000  0.249  0.000  0.000  0.000  0.000  0.000  0.997
 
band     4 # energy  -38.47126320 # occ.  2.00000000
 
ion      s     py     pz     px    dxy    dyz    dz2    dxz  x2-y2    tot
    1  0.000  0.125  0.000  0.374  0.000  0.000  0.000  0.000  0.000  0.499
    2  0.000  0.125  0.000  0.374  0.000  0.000  0.000  0.000  0.000  0.499
tot    0.000  0.249  0.000  0.748  0.000  0.000  0.000  0.000  0.000  0.997
 
band     5 # energy  -38.41632945 # occ.  2.00000000
 
ion      s     py     pz     px    dxy    dyz    dz2    dxz  x2-y2    tot
    1  0.000  0.375  0.000  0.125  0.000  0.000  0.000  0.000  0.000  0.499
    2  0.000  0.375  0.000  0.125  0.000  0.000  0.000  0.000  0.000  0.499
tot    0.000  0.749  0.000  0.250  0.000  0.000  0.000  0.000  0.000  0.999
 
band     6 # energy  -38.31522777 # occ.  2.00000000
 
ion      s     py     pz     px    dxy    dyz    dz2    dxz  x2-y2    tot
    1  0.000  0.000  0.499  0.000  0.000  0.000  0.000  0.000  0.000  0.499
    2  0.000  0.000  0.499  0.000  0.000  0.000  0.000  0.000  0.000  0.499
tot    0.000  0.000  0.997  0.000  0.000  0.000  0.000  0.000  0.000  0.997
 
band     7 # energy    3.32604892 # occ.  2.00000000
 
ion      s     py     pz     px    dxy    dyz    dz2    dxz  x2-y2    tot
    1  0.220  0.001  0.000  0.002  0.000  0.000  0.000  0.000  0.000  0.224
    2  0.220  0.001  0.000  0.002  0.000  0.000  0.000  0.000  0.000  0.224
tot    0.441  0.002  0.000  0.005  0.001  0.000  0.000  0.000  0.000  0.448
 
band     8 # energy    6.05849941 # occ.  2.00000000
 
ion      s     py     pz     px    dxy    dyz    dz2    dxz  x2-y2    tot
    1  0.084  0.001  0.000  0.002  0.002  0.000  0.249  0.000  0.001  0.338
    2  0.084  0.001  0.000  0.002  0.002  0.000  0.249  0.000  0.001  0.338
tot    0.168  0.001  0.000  0.004  0.004  0.000  0.497  0.000  0.001  0.676
 
band     9 # energy    9.29366240 # occ.  2.00000000
 
ion      s     py     pz     px    dxy    dyz    dz2    dxz  x2-y2    tot
    1  0.000  0.000  0.000  0.001  0.118  0.000  0.259  0.000  0.039  0.418
    2  0.000  0.000  0.000  0.001  0.118  0.000  0.259  0.000  0.039  0.418
tot    0.000  0.000  0.000  0.001  0.236  0.000  0.519  0.000  0.079  0.836
 
band    10 # energy   10.04156892 # occ.  2.00000000
 
ion      s     py     pz     px    dxy    dyz    dz2    dxz  x2-y2    tot
    1  0.000  0.000  0.000  0.000  0.213  0.000  0.143  0.000  0.071  0.428
    2  0.000  0.000  0.000  0.000  0.213  0.000  0.143  0.000  0.071  0.428
tot    0.000  0.000  0.000  0.001  0.426  0.000  0.286  0.000  0.142  0.856
 
band    11 # energy   10.32497361 # occ.  2.00000000
 
ion      s     py     pz     px    dxy    dyz    dz2    dxz  x2-y2    tot
    1  0.002  0.000  0.000  0.000  0.306  0.000  0.023  0.000  0.102  0.433
    2  0.002  0.000  0.000  0.000  0.306  0.000  0.023  0.000  0.102  0.433
tot    0.004  0.000  0.000  0.001  0.611  0.000  0.046  0.000  0.204  0.866
 
band    12 # energy   10.38636437 # occ.  2.00000000
 
ion      s     py     pz     px    dxy    dyz    dz2    dxz  x2-y2    tot
    1  0.000  0.001  0.000  0.000  0.108  0.000  0.000  0.000  0.323  0.432
    2  0.000  0.001  0.000  0.000  0.108  0.000  0.000  0.000  0.323  0.432
tot    0.000  0.001  0.000  0.000  0.215  0.000  0.000  0.000  0.646  0.863
 
band    13 # energy   10.86100483 # occ.  2.00000000
 
ion      s     py     pz     px    dxy    dyz    dz2    dxz  x2-y2    tot
    1  0.000  0.001  0.000  0.000  0.110  0.000  0.000  0.000  0.331  0.442
    2  0.000  0.001  0.000  0.000  0.110  0.000  0.000  0.000  0.331  0.442
tot    0.000  0.001  0.000  0.000  0.221  0.000  0.000  0.000  0.662  0.884
 
band    14 # energy   11.27321840 # occ.  2.00000000
 
ion      s     py     pz     px    dxy    dyz    dz2    dxz  x2-y2    tot
    1  0.000  0.000  0.032  0.000  0.000  0.073  0.000  0.218  0.000  0.323
    2  0.000  0.000  0.032  0.000  0.000  0.073  0.000  0.218  0.000  0.323
tot    0.000  0.000  0.065  0.000  0.000  0.146  0.000  0.437  0.000  0.647
 
band    15 # energy   11.88750179 # occ.  2.00000000
 
ion      s     py     pz     px    dxy    dyz    dz2    dxz  x2-y2    tot
    1  0.000  0.000  0.000  0.000  0.000  0.334  0.000  0.111  0.000  0.446
    2  0.000  0.000  0.000  0.000  0.000  0.334  0.000  0.111  0.000  0.446
tot    0.000  0.000  0.000  0.000  0.000  0.668  0.000  0.223  0.000  0.891
 
band    16 # energy   12.01416415 # occ.  2.00000000
 
ion      s     py     pz     px    dxy    dyz    dz2    dxz  x2-y2    tot
    1  0.000  0.000  0.023  0.000  0.000  0.087  0.000  0.260  0.000  0.370
    2  0.000  0.000  0.023  0.000  0.000  0.087  0.000  0.260  0.000  0.370
tot    0.000  0.000  0.046  0.000  0.000  0.173  0.000  0.520  0.000  0.740
 
band    17 # energy   14.29585551 # occ.  1.99999996
 
ion      s     py     pz     px    dxy    dyz    dz2    dxz  x2-y2    tot
    1  0.000  0.000  0.000  0.000  0.000  0.354  0.000  0.118  0.000  0.472
    2  0.000  0.000  0.000  0.000  0.000  0.354  0.000  0.118  0.000  0.472
tot    0.000  0.000  0.000  0.000  0.000  0.709  0.000  0.236  0.000  0.945
 
band    18 # energy   16.09460824 # occ.  0.00000000
 
ion      s     py     pz     px    dxy    dyz    dz2    dxz  x2-y2    tot
    1  0.000  0.000  0.051  0.000  0.000  0.068  0.000  0.205  0.000  0.325
    2  0.000  0.000  0.051  0.000  0.000  0.068  0.000  0.205  0.000  0.325
tot    0.000  0.000  0.103  0.000  0.000  0.137  0.000  0.411  0.000  0.650
 
band    19 # energy   20.29788246 # occ.  0.00000000
 
ion      s     py     pz     px    dxy    dyz    dz2    dxz  x2-y2    tot
    1  0.197  0.000  0.000  0.001  0.002  0.000  0.216  0.000  0.001  0.416
    2  0.197  0.000  0.000  0.001  0.002  0.000  0.216  0.000  0.001  0.416
tot    0.394  0.001  0.000  0.002  0.004  0.000  0.432  0.000  0.001  0.833
 
band    20 # energy   29.89351885 # occ.  0.00000000
 
ion      s     py     pz     px    dxy    dyz    dz2    dxz  x2-y2    tot
    1  0.004  0.000  0.000  0.001  0.016  0.000  0.002  0.000  0.005  0.029
    2  0.004  0.000  0.000  0.001  0.016  0.000  0.002  0.000  0.005  0.029
tot    0.009  0.001  0.000  0.002  0.031  0.000  0.005  0.000  0.010  0.058
 
band    21 # energy   30.64731589 # occ.  0.00000000
 
ion      s     py     pz     px    dxy    dyz    dz2    dxz  x2-y2    tot
    1  0.000  0.000  0.015  0.000  0.000  0.002  0.000  0.007  0.000  0.024
    2  0.000  0.000  0.015  0.000  0.000  0.002  0.000  0.007  0.000  0.024
tot    0.000  0.000  0.030  0.000  0.000  0.004  0.000  0.013  0.000  0.048
 
band    22 # energy   32.37075939 # occ.  0.00000000
 
ion      s     py     pz     px    dxy    dyz    dz2    dxz  x2-y2    tot
    1  0.000  0.001  0.000  0.003  0.013  0.000  0.024  0.000  0.004  0.045
    2  0.000  0.001  0.000  0.003  0.013  0.000  0.024  0.000  0.004  0.045
tot    0.001  0.002  0.000  0.006  0.027  0.000  0.047  0.000  0.009  0.091
 
band    23 # energy   34.83911093 # occ.  0.00000000
 
ion      s     py     pz     px    dxy    dyz    dz2    dxz  x2-y2    tot
    1  0.000  0.000  0.009  0.000  0.000  0.006  0.000  0.019  0.000  0.034
    2  0.000  0.000  0.009  0.000  0.000  0.006  0.000  0.019  0.000  0.034
tot    0.000  0.000  0.018  0.000  0.000  0.013  0.000  0.038  0.000  0.068
 
band    24 # energy   35.33074524 # occ.  0.00000000
 
ion      s     py     pz     px    dxy    dyz    dz2    dxz  x2-y2    tot
    1  0.007  0.029  0.000  0.086  0.019  0.000  0.006  0.000  0.007  0.153
    2  0.007  0.029  0.000  0.086  0.019  0.000  0.006  0.000  0.006  0.153
tot    0.014  0.057  0.000  0.171  0.039  0.000  0.011  0.000  0.013  0.306
 

 k-point     3 :    0.20000000-0.00000000 0.00000000     weight = 0.00750000

band     1 # energy  -38.84268917 # occ.  2.00000000
 
ion      s     py     pz     px    dxy    dyz    dz2    dxz  x2-y2    tot
    1  0.000  0.000  0.490  0.000  0.000  0.000  0.000  0.000  0.000  0.490
    2  0.000  0.000  0.490  0.000  0.000  0.000  0.000  0.000  0.000  0.490
tot    0.000  0.000  0.981  0.000  0.000  0.000  0.000  0.000  0.000  0.981
 
band     2 # energy  -38.71478779 # occ.  2.00000000
 
ion      s     py     pz     px    dxy    dyz    dz2    dxz  x2-y2    tot
    1  0.000  0.124  0.000  0.371  0.000  0.000  0.000  0.000  0.000  0.495
    2  0.000  0.124  0.000  0.371  0.000  0.000  0.000  0.000  0.000  0.495
tot    0.000  0.248  0.000  0.743  0.000  0.000  0.000  0.000  0.000  0.991
 
band     3 # energy  -38.64578685 # occ.  2.00000000
 
ion      s     py     pz     px    dxy    dyz    dz2    dxz  x2-y2    tot
    1  0.000  0.124  0.000  0.372  0.000  0.000  0.000  0.000  0.000  0.496
    2  0.000  0.124  0.000  0.372  0.000  0.000  0.000  0.000  0.000  0.496
tot    0.000  0.248  0.000  0.744  0.000  0.000  0.000  0.000  0.000  0.993
 
band     4 # energy  -38.54430256 # occ.  2.00000000
 
ion      s     py     pz     px    dxy    dyz    dz2    dxz  x2-y2    tot
    1  0.000  0.373  0.000  0.124  0.000  0.000  0.000  0.000  0.000  0.498
    2  0.000  0.373  0.000  0.124  0.000  0.000  0.000  0.000  0.000  0.498
tot    0.000  0.747  0.000  0.249  0.000  0.000  0.000  0.000  0.000  0.996
 
band     5 # energy  -38.45115718 # occ.  2.00000000
 
ion      s     py     pz     px    dxy    dyz    dz2    dxz  x2-y2    tot
    1  0.000  0.374  0.000  0.125  0.000  0.000  0.000  0.000  0.000  0.499
    2  0.000  0.374  0.000  0.125  0.000  0.000  0.000  0.000  0.000  0.499
tot    0.000  0.749  0.000  0.250  0.000  0.000  0.000  0.000  0.000  0.998
 
band     6 # energy  -38.33159042 # occ.  2.00000000
 
ion      s     py     pz     px    dxy    dyz    dz2    dxz  x2-y2    tot
    1  0.000  0.000  0.498  0.000  0.000  0.000  0.000  0.000  0.000  0.498
    2  0.000  0.000  0.498  0.000  0.000  0.000  0.000  0.000  0.000  0.498
tot    0.000  0.000  0.997  0.000  0.000  0.000  0.000  0.000  0.000  0.997
 
band     7 # energy    4.46145518 # occ.  2.00000000
 
ion      s     py     pz     px    dxy    dyz    dz2    dxz  x2-y2    tot
    1  0.201  0.003  0.000  0.008  0.008  0.000  0.001  0.000  0.003  0.224
    2  0.201  0.003  0.000  0.008  0.008  0.000  0.001  0.000  0.003  0.224
tot    0.403  0.005  0.000  0.016  0.016  0.000  0.002  0.000  0.005  0.447
 
band     8 # energy    6.88415487 # occ.  2.00000000
 
ion      s     py     pz     px    dxy    dyz    dz2    dxz  x2-y2    tot
    1  0.055  0.002  0.000  0.005  0.046  0.000  0.226  0.000  0.015  0.349
    2  0.055  0.002  0.000  0.005  0.046  0.000  0.226  0.000  0.015  0.349
tot    0.111  0.003  0.000  0.010  0.092  0.000  0.451  0.000  0.031  0.698
 
band     9 # energy    9.00736566 # occ.  2.00000000
 
ion      s     py     pz     px    dxy    dyz    dz2    dxz  x2-y2    tot
    1  0.004  0.002  0.000  0.005  0.186  0.000  0.132  0.000  0.062  0.390
    2  0.004  0.002  0.000  0.005  0.186  0.000  0.132  0.000  0.062  0.390
tot    0.008  0.003  0.000  0.010  0.372  0.000  0.263  0.000  0.124  0.781
 
band    10 # energy    9.56158075 # occ.  2.00000000
 
ion      s     py     pz     px    dxy    dyz    dz2    dxz  x2-y2    tot
    1  0.000  0.000  0.025  0.000  0.000  0.074  0.000  0.223  0.000  0.322
    2  0.000  0.000  0.025  0.000  0.000  0.074  0.000  0.223  0.000  0.322
tot    0.000  0.000  0.049  0.000  0.000  0.149  0.000  0.446  0.000  0.643
 
band    11 # energy    9.68510393 # occ.  2.00000000
 
ion      s     py     pz     px    dxy    dyz    dz2    dxz  x2-y2    tot
    1  0.007  0.000  0.000  0.001  0.257  0.000  0.062  0.000  0.086  0.414
    2  0.007  0.000  0.000  0.001  0.257  0.000  0.062  0.000  0.086  0.414
tot    0.014  0.001  0.000  0.003  0.514  0.000  0.125  0.000  0.171  0.828
 
band    12 # energy   10.84428336 # occ.  2.00000000
 
ion      s     py     pz     px    dxy    dyz    dz2    dxz  x2-y2    tot
    1  0.005  0.001  0.000  0.002  0.111  0.000  0.271  0.000  0.037  0.427
    2  0.005  0.001  0.000  0.002  0.111  0.000  0.271  0.000  0.037  0.427
tot    0.010  0.002  0.000  0.005  0.222  0.000  0.542  0.000  0.074  0.855
 
band    13 # energy   11.37692915 # occ.  2.00000000
 
ion      s     py     pz     px    dxy    dyz    dz2    dxz  x2-y2    tot
    1  0.000  0.000  0.014  0.000  0.000  0.094  0.000  0.283  0.000  0.391
    2  0.000  0.000  0.014  0.000  0.000  0.094  0.000  0.283  0.000  0.391
tot    0.000  0.000  0.027  0.000  0.000  0.189  0.000  0.566  0.000  0.782
 
band    14 # energy   11.38323943 # occ.  2.00000000
 
ion      s     py     pz     px    dxy    dyz    dz2    dxz  x2-y2    tot
    1  0.000  0.001  0.000  0.000  0.108  0.000  0.000  0.000  0.325  0.436
    2  0.000  0.001  0.000  0.000  0.108  0.000  0.000  0.000  0.325  0.436
tot    0.000  0.003  0.000  0.001  0.217  0.000  0.000  0.000  0.651  0.871
 
band    15 # energy   11.38329437 # occ.  2.00000000
 
ion      s     py     pz     px    dxy    dyz    dz2    dxz  x2-y2    tot
    1  0.000  0.000  0.000  0.000  0.000  0.327  0.000  0.109  0.000  0.437
    2  0.000  0.000  0.000  0.000  0.000  0.327  0.000  0.109  0.000  0.437
tot    0.000  0.000  0.000  0.000  0.000  0.655  0.000  0.218  0.000  0.873
 
band    16 # energy   11.80535469 # occ.  2.00000000
 
ion      s     py     pz     px    dxy    dyz    dz2    dxz  x2-y2    tot
    1  0.000  0.001  0.000  0.000  0.111  0.000  0.000  0.000  0.333  0.446
    2  0.000  0.001  0.000  0.000  0.111  0.000  0.000  0.000  0.333  0.446
tot    0.000  0.003  0.000  0.001  0.222  0.000  0.000  0.000  0.666  0.892
 
band    17 # energy   14.44309068 # occ.  1.81789730
 
ion      s     py     pz     px    dxy    dyz    dz2    dxz  x2-y2    tot
    1  0.000  0.000  0.000  0.000  0.000  0.358  0.000  0.119  0.000  0.477
    2  0.000  0.000  0.000  0.000  0.000  0.358  0.000  0.119  0.000  0.477
tot    0.000  0.000  0.000  0.000  0.000  0.716  0.000  0.239  0.000  0.955
 
band    18 # energy   18.61970567 # occ.  0.00000000
 
ion      s     py     pz     px    dxy    dyz    dz2    dxz  x2-y2    tot
    1  0.000  0.000  0.071  0.000  0.000  0.055  0.000  0.164  0.000  0.290
    2  0.000  0.000  0.071  0.000  0.000  0.055  0.000  0.164  0.000  0.290
tot    0.000  0.000  0.143  0.000  0.000  0.109  0.000  0.327  0.000  0.579
 
band    19 # energy   20.13363881 # occ.  0.00000000
 
ion      s     py     pz     px    dxy    dyz    dz2    dxz  x2-y2    tot
    1  0.198  0.001  0.000  0.004  0.006  0.000  0.188  0.000  0.002  0.399
    2  0.198  0.001  0.000  0.004  0.006  0.000  0.188  0.000  0.002  0.399
tot    0.397  0.002  0.000  0.007  0.012  0.000  0.376  0.000  0.004  0.799
 
band    20 # energy   29.77870916 # occ.  0.00000000
 
ion      s     py     pz     px    dxy    dyz    dz2    dxz  x2-y2    tot
    1  0.022  0.015  0.000  0.045  0.061  0.000  0.024  0.000  0.020  0.188
    2  0.022  0.015  0.000  0.045  0.061  0.000  0.024  0.000  0.020  0.188
tot    0.045  0.030  0.000  0.090  0.122  0.000  0.048  0.000  0.041  0.375
 
band    21 # energy   31.29543277 # occ.  0.00000000
 
ion      s     py     pz     px    dxy    dyz    dz2    dxz  x2-y2    tot
    1  0.000  0.000  0.009  0.000  0.000  0.003  0.000  0.009  0.000  0.021
    2  0.000  0.000  0.009  0.000  0.000  0.003  0.000  0.009  0.000  0.021
tot    0.000  0.000  0.017  0.000  0.000  0.006  0.000  0.018  0.000  0.042
 
band    22 # energy   33.02307975 # occ.  0.00000000
 
ion      s     py     pz     px    dxy    dyz    dz2    dxz  x2-y2    tot
    1  0.000  0.087  0.000  0.029  0.012  0.000  0.000  0.000  0.037  0.166
    2  0.000  0.087  0.000  0.029  0.012  0.000  0.000  0.000  0.037  0.166
tot    0.000  0.175  0.000  0.058  0.025  0.000  0.000  0.000  0.074  0.332
 
band    23 # energy   33.18563920 # occ.  0.00000000
 
ion      s     py     pz     px    dxy    dyz    dz2    dxz  x2-y2    tot
    1  0.004  0.007  0.000  0.021  0.031  0.000  0.024  0.000  0.010  0.098
    2  0.004  0.007  0.000  0.021  0.031  0.000  0.024  0.000  0.010  0.098
tot    0.009  0.014  0.000  0.041  0.062  0.000  0.048  0.000  0.021  0.195
 
band    24 # energy   33.22633743 # occ.  0.00000000
 
ion      s     py     pz     px    dxy    dyz    dz2    dxz  x2-y2    tot
    1  0.000  0.000  0.005  0.000  0.000  0.016  0.000  0.048  0.000  0.069
    2  0.000  0.000  0.005  0.000  0.000  0.016  0.000  0.048  0.000  0.069
tot    0.000  0.000  0.010  0.000  0.000  0.032  0.000  0.097  0.000  0.139
 

 k-point     4 :    0.30000000-0.00000000 0.00000000     weight = 0.00750000

band     1 # energy  -38.92761826 # occ.  2.00000000
 
ion      s     py     pz     px    dxy    dyz    dz2    dxz  x2-y2    tot
    1  0.000  0.123  0.000  0.369  0.000  0.000  0.000  0.000  0.000  0.493
    2  0.000  0.123  0.000  0.369  0.000  0.000  0.000  0.000  0.000  0.493
tot    0.000  0.246  0.000  0.739  0.000  0.000  0.000  0.000  0.000  0.985
 
band     2 # energy  -38.85323517 # occ.  2.00000000
 
ion      s     py     pz     px    dxy    dyz    dz2    dxz  x2-y2    tot
    1  0.000  0.123  0.000  0.370  0.000  0.000  0.000  0.000  0.000  0.494
    2  0.000  0.123  0.000  0.370  0.000  0.000  0.000  0.000  0.000  0.494
tot    0.000  0.247  0.000  0.740  0.000  0.000  0.000  0.000  0.000  0.987
 
band     3 # energy  -38.75742413 # occ.  2.00000000
 
ion      s     py     pz     px    dxy    dyz    dz2    dxz  x2-y2    tot
    1  0.000  0.000  0.492  0.000  0.000  0.000  0.000  0.000  0.000  0.492
    2  0.000  0.000  0.492  0.000  0.000  0.000  0.000  0.000  0.000  0.492
tot    0.000  0.000  0.984  0.000  0.000  0.000  0.000  0.000  0.000  0.984
 
band     4 # energy  -38.60267779 # occ.  2.00000000
 
ion      s     py     pz     px    dxy    dyz    dz2    dxz  x2-y2    tot
    1  0.000  0.373  0.000  0.124  0.000  0.000  0.000  0.000  0.000  0.497
    2  0.000  0.373  0.000  0.124  0.000  0.000  0.000  0.000  0.000  0.497
tot    0.000  0.746  0.000  0.249  0.000  0.000  0.000  0.000  0.000  0.994
 
band     5 # energy  -38.49557556 # occ.  2.00000000
 
ion      s     py     pz     px    dxy    dyz    dz2    dxz  x2-y2    tot
    1  0.000  0.374  0.000  0.125  0.000  0.000  0.000  0.000  0.000  0.499
    2  0.000  0.374  0.000  0.125  0.000  0.000  0.000  0.000  0.000  0.499
tot    0.000  0.748  0.000  0.249  0.000  0.000  0.000  0.000  0.000  0.997
 
band     6 # energy  -38.36160722 # occ.  2.00000000
 
ion      s     py     pz     px    dxy    dyz    dz2    dxz  x2-y2    tot
    1  0.000  0.000  0.498  0.000  0.000  0.000  0.000  0.000  0.000  0.498
    2  0.000  0.000  0.498  0.000  0.000  0.000  0.000  0.000  0.000  0.498
tot    0.000  0.000  0.996  0.000  0.000  0.000  0.000  0.000  0.000  0.996
 
band     7 # energy    5.75954300 # occ.  2.00000000
 
ion      s     py     pz     px    dxy    dyz    dz2    dxz  x2-y2    tot
    1  0.153  0.003  0.000  0.010  0.060  0.000  0.007  0.000  0.020  0.253
    2  0.153  0.003  0.000  0.010  0.060  0.000  0.007  0.000  0.020  0.253
tot    0.305  0.007  0.000  0.021  0.119  0.000  0.014  0.000  0.040  0.506
 
band     8 # energy    6.92972901 # occ.  2.00000000
 
ion      s     py     pz     px    dxy    dyz    dz2    dxz  x2-y2    tot
    1  0.024  0.000  0.000  0.001  0.171  0.000  0.119  0.000  0.057  0.372
    2  0.024  0.000  0.000  0.001  0.171  0.000  0.119  0.000  0.057  0.372
tot    0.047  0.001  0.000  0.002  0.342  0.000  0.238  0.000  0.114  0.745
 
band     9 # energy    8.22874538 # occ.  2.00000000
 
ion      s     py     pz     px    dxy    dyz    dz2    dxz  x2-y2    tot
    1  0.000  0.000  0.014  0.000  0.000  0.080  0.000  0.240  0.000  0.334
    2  0.000  0.000  0.014  0.000  0.000  0.080  0.000  0.240  0.000  0.334
tot    0.000  0.000  0.029  0.000  0.000  0.160  0.000  0.479  0.000  0.668
 
band    10 # energy    9.36166414 # occ.  2.00000000
 
ion      s     py     pz     px    dxy    dyz    dz2    dxz  x2-y2    tot
    1  0.017  0.004  0.000  0.013  0.202  0.000  0.049  0.000  0.067  0.352
    2  0.017  0.004  0.000  0.013  0.202  0.000  0.049  0.000  0.067  0.352
tot    0.033  0.009  0.000  0.026  0.404  0.000  0.097  0.000  0.135  0.704
 
band    11 # energy    9.83758225 # occ.  2.00000000
 
ion      s     py     pz     px    dxy    dyz    dz2    dxz  x2-y2    tot