<?xml version="1.0" encoding="ISO-8859-1"?>
<modeling>
 <generator>
  <i name="program" type="string">vasp </i>
  <i name="version" type="string">6.3.2  </i>
  <i name="subversion" type="string">27Jun22 (build Aug 12 2022 00:53:59) complex                          parallel </i>
  <i name="platform" type="string">tv2STD </i>
  <i name="date" type="string">2024 11 30 </i>
  <i name="time" type="string">17:15:17 </i>
 </generator>
 <incar>
  <i type="string" name="SYSTEM">Pt-hcc</i>
  <i type="int" name="ISTART">     0</i>
  <i type="string" name="PREC">Accurate      normal | accurate</i>
  <i type="string" name="ALGO">Normal     Normal, Fast, Very_Fast</i>
  <i type="logical" name="ADDGRID"> F  </i>
  <i type="int" name="ICHARG">     2</i>
  <i type="int" name="INIWAV">     1</i>
  <i type="int" name="NELM">   100</i>
  <i type="int" name="IBRION">     2</i>
  <i name="EDIFF">      0.00000100</i>
  <i name="EDIFFG">     -0.02000000</i>
  <i type="int" name="NSW">   100</i>
  <i type="int" name="ISIF">     2</i>
  <i type="int" name="ISYM">     1</i>
  <i name="ENCUT">    450.00000000</i>
  <i type="logical" name="LREAL"> F  </i>
  <i type="int" name="ISMEAR">     0</i>
  <i name="SIGMA">      0.05000000</i>
  <i type="int" name="NWRITE">     2</i>
  <i type="logical" name="LWAVE"> T  </i>
  <i type="logical" name="LCHARG"> T  </i>
  <i type="int" name="LORBIT">    11</i>
 </incar>
 <primitive_cell>
  <structure name="primitive_cell" >
   <crystal>
    <varray name="basis" >
     <v>       2.70630256       0.00000000       0.00000000 </v>
     <v>      -1.35315128       2.34372677       0.00000000 </v>
     <v>       0.00000000       0.00000000       4.68860612 </v>
    </varray>
    <i name="volume">     29.73904916 </i>
    <varray name="rec_basis" >
     <v>       0.36950783       0.21333545       0.00000000 </v>
     <v>       0.00000000       0.42667090       0.00000000 </v>
     <v>       0.00000000       0.00000000       0.21328300 </v>
    </varray>
   </crystal>
   <varray name="positions" >
    <v>       0.00000000       0.00000000       0.00000000 </v>
    <v>       0.33333333       0.66666667       0.50000000 </v>
   </varray>
  </structure>
  <varray name="primitive_index" >
   <v type="int" >        1 </v>
   <v type="int" >        2 </v>
  </varray>
 </primitive_cell>
 <kpoints>
  <generation param="Gamma">
   <v type="int" name="divisions">      10       10        8 </v>
   <v name="usershift">      0.00000000       0.00000000       0.00000000 </v>
   <v name="genvec1">      0.10000000       0.00000000       0.00000000 </v>
   <v name="genvec2">      0.00000000       0.10000000       0.00000000 </v>
   <v name="genvec3">      0.00000000       0.00000000       0.12500000 </v>
   <v name="shift">      0.00000000       0.00000000       0.00000000 </v>
  </generation>
  <varray name="kpointlist" >
   <v>       0.00000000       0.00000000       0.00000000 </v>
   <v>       0.10000000       0.00000000       0.00000000 </v>
   <v>       0.20000000       0.00000000       0.00000000 </v>
   <v>       0.30000000       0.00000000       0.00000000 </v>
   <v>       0.40000000       0.00000000       0.00000000 </v>
   <v>       0.50000000       0.00000000       0.00000000 </v>
   <v>       0.10000000       0.10000000       0.00000000 </v>
   <v>       0.20000000       0.10000000       0.00000000 </v>
   <v>       0.30000000       0.10000000       0.00000000 </v>
   <v>       0.40000000       0.10000000       0.00000000 </v>
   <v>       0.20000000       0.20000000       0.00000000 </v>
   <v>       0.30000000       0.20000000       0.00000000 </v>
   <v>       0.40000000       0.20000000       0.00000000 </v>
   <v>       0.30000000       0.30000000       0.00000000 </v>
   <v>       0.00000000       0.00000000       0.12500000 </v>
   <v>       0.10000000       0.00000000       0.12500000 </v>
   <v>       0.20000000       0.00000000       0.12500000 </v>
   <v>       0.30000000       0.00000000       0.12500000 </v>
   <v>       0.40000000       0.00000000       0.12500000 </v>
   <v>       0.50000000       0.00000000       0.12500000 </v>
   <v>       0.10000000       0.10000000       0.12500000 </v>
   <v>       0.20000000       0.10000000       0.12500000 </v>
   <v>       0.30000000       0.10000000       0.12500000 </v>
   <v>       0.40000000       0.10000000       0.12500000 </v>
   <v>       0.20000000       0.20000000       0.12500000 </v>
   <v>       0.30000000       0.20000000       0.12500000 </v>
   <v>       0.40000000       0.20000000       0.12500000 </v>
   <v>       0.30000000       0.30000000       0.12500000 </v>
   <v>       0.00000000       0.00000000       0.25000000 </v>
   <v>       0.10000000       0.00000000       0.25000000 </v>
   <v>       0.20000000       0.00000000       0.25000000 </v>
   <v>       0.30000000       0.00000000       0.25000000 </v>
   <v>       0.40000000       0.00000000       0.25000000 </v>
   <v>       0.50000000       0.00000000       0.25000000 </v>
   <v>       0.10000000       0.10000000       0.25000000 </v>
   <v>       0.20000000       0.10000000       0.25000000 </v>
   <v>       0.30000000       0.10000000       0.25000000 </v>
   <v>       0.40000000       0.10000000       0.25000000 </v>
   <v>       0.20000000       0.20000000       0.25000000 </v>
   <v>       0.30000000       0.20000000       0.25000000 </v>
   <v>       0.40000000       0.20000000       0.25000000 </v>
   <v>       0.30000000       0.30000000       0.25000000 </v>
   <v>       0.00000000       0.00000000       0.37500000 </v>
   <v>       0.10000000       0.00000000       0.37500000 </v>
   <v>       0.20000000       0.00000000       0.37500000 </v>
   <v>       0.30000000       0.00000000       0.37500000 </v>
   <v>       0.40000000       0.00000000       0.37500000 </v>
   <v>       0.50000000       0.00000000       0.37500000 </v>
   <v>       0.10000000       0.10000000       0.37500000 </v>
   <v>       0.20000000       0.10000000       0.37500000 </v>
   <v>       0.30000000       0.10000000       0.37500000 </v>
   <v>       0.40000000       0.10000000       0.37500000 </v>
   <v>       0.20000000       0.20000000       0.37500000 </v>
   <v>       0.30000000       0.20000000       0.37500000 </v>
   <v>       0.40000000       0.20000000       0.37500000 </v>
   <v>       0.30000000       0.30000000       0.37500000 </v>
   <v>       0.00000000       0.00000000       0.50000000 </v>
   <v>       0.10000000       0.00000000       0.50000000 </v>
   <v>       0.20000000       0.00000000       0.50000000 </v>
   <v>       0.30000000       0.00000000       0.50000000 </v>
   <v>       0.40000000       0.00000000       0.50000000 </v>
   <v>       0.50000000       0.00000000       0.50000000 </v>
   <v>       0.10000000       0.10000000       0.50000000 </v>
   <v>       0.20000000       0.10000000       0.50000000 </v>
   <v>       0.30000000       0.10000000       0.50000000 </v>
   <v>       0.40000000       0.10000000       0.50000000 </v>
   <v>       0.20000000       0.20000000       0.50000000 </v>
   <v>       0.30000000       0.20000000       0.50000000 </v>
   <v>       0.40000000       0.20000000       0.50000000 </v>
   <v>       0.30000000       0.30000000       0.50000000 </v>
  </varray>
  <varray name="weights" >
   <v>       0.00125000 </v>
   <v>       0.00750000 </v>
   <v>       0.00750000 </v>
   <v>       0.00750000 </v>
   <v>       0.00750000 </v>
   <v>       0.00375000 </v>
   <v>       0.00750000 </v>
   <v>       0.01500000 </v>
   <v>       0.01500000 </v>
   <v>       0.01500000 </v>
   <v>       0.00750000 </v>
   <v>       0.01500000 </v>
   <v>       0.00750000 </v>
   <v>       0.00750000 </v>
   <v>       0.00250000 </v>
   <v>       0.01500000 </v>
   <v>       0.01500000 </v>
   <v>       0.01500000 </v>
   <v>       0.01500000 </v>
   <v>       0.00750000 </v>
   <v>       0.01500000 </v>
   <v>       0.03000000 </v>
   <v>       0.03000000 </v>
   <v>       0.03000000 </v>
   <v>       0.01500000 </v>
   <v>       0.03000000 </v>
   <v>       0.01500000 </v>
   <v>       0.01500000 </v>
   <v>       0.00250000 </v>
   <v>       0.01500000 </v>
   <v>       0.01500000 </v>
   <v>       0.01500000 </v>
   <v>       0.01500000 </v>
   <v>       0.00750000 </v>
   <v>       0.01500000 </v>
   <v>       0.03000000 </v>
   <v>       0.03000000 </v>
   <v>       0.03000000 </v>
   <v>       0.01500000 </v>
   <v>       0.03000000 </v>
   <v>       0.01500000 </v>
   <v>       0.01500000 </v>
   <v>       0.00250000 </v>
   <v>       0.01500000 </v>
   <v>       0.01500000 </v>
   <v>       0.01500000 </v>
   <v>       0.01500000 </v>
   <v>       0.00750000 </v>
   <v>       0.01500000 </v>
   <v>       0.03000000 </v>
   <v>       0.03000000 </v>
   <v>       0.03000000 </v>
   <v>       0.01500000 </v>
   <v>       0.03000000 </v>
   <v>       0.01500000 </v>
   <v>       0.01500000 </v>
   <v>       0.00125000 </v>
   <v>       0.00750000 </v>
   <v>       0.00750000 </v>
   <v>       0.00750000 </v>
   <v>       0.00750000 </v>
   <v>       0.00375000 </v>
   <v>       0.00750000 </v>
   <v>       0.01500000 </v>
   <v>       0.01500000 </v>
   <v>       0.01500000 </v>
   <v>       0.00750000 </v>
   <v>       0.01500000 </v>
   <v>       0.00750000 </v>
   <v>       0.00750000 </v>
  </varray>
 </kpoints>
 <parameters>
  <separator name="general" >
   <i type="string" name="SYSTEM">Pt-hcc</i>
   <i type="logical" name="LCOMPAT"> F  </i>
  </separator>
  <separator name="electronic" >
   <i type="string" name="PREC">accura</i>
   <i name="ENMAX">    450.00000000</i>
   <i name="ENAUG">    527.01400000</i>
   <i name="EDIFF">      0.00000100</i>
   <i type="int" name="IALGO">    38</i>
   <i type="int" name="IWAVPR">    11</i>
   <i type="int" name="NBANDS">    24</i>
   <i type="int" name="NBANDSLOW">    -1</i>
   <i type="int" name="NBANDSHIGH">    -1</i>
   <i name="NELECT">     32.00000000</i>
   <i type="int" name="TURBO">     0</i>
   <i type="int" name="IRESTART">     0</i>
   <i type="int" name="NREBOOT">     0</i>
   <i type="int" name="NMIN">     0</i>
   <i name="EREF">      0.00000000</i>
   <separator name="electronic smearing" >
    <i type="int" name="ISMEAR">     0</i>
    <i name="SIGMA">      0.05000000</i>
    <i name="KSPACING">      0.50000000</i>
    <i type="logical" name="KGAMMA"> T  </i>
    <i type="logical" name="KBLOWUP"> T  </i>
   </separator>
   <separator name="electronic projectors" >
    <i type="logical" name="LREAL"> F  </i>
    <v name="ROPT">      0.00000000</v>
    <i type="int" name="LMAXPAW">  -100</i>
    <i type="int" name="LMAXMIX">     2</i>
    <i type="logical" name="NLSPLINE"> F  </i>
   </separator>
   <separator name="electronic startup" >
    <i type="int" name="ISTART">     0</i>
    <i type="int" name="ICHARG">     2</i>
    <i type="int" name="INIWAV">     1</i>
   </separator>
   <separator name="electronic spin" >
    <i type="int" name="ISPIN">     1</i>
    <i type="logical" name="LNONCOLLINEAR"> F  </i>
    <v name="MAGMOM">      1.00000000      1.00000000</v>
    <i name="NUPDOWN">     -1.00000000</i>
    <i type="logical" name="LSORBIT"> F  </i>
    <v name="SAXIS">      0.00000000      0.00000000      1.00000000</v>
    <i type="logical" name="LSPIRAL"> F  </i>
    <v name="QSPIRAL">      0.00000000      0.00000000      0.00000000</v>
    <i type="logical" name="LZEROZ"> F  </i>
   </separator>
   <separator name="electronic exchange-correlation" >
    <i type="logical" name="LASPH"> F  </i>
    <i type="logical" name="LMETAGGA"> F  </i>
   </separator>
   <separator name="electronic convergence" >
    <i type="int" name="NELM">   100</i>
    <i type="int" name="NELMDL">    -5</i>
    <i type="int" name="NELMIN">     2</i>
    <i name="ENINI">    450.00000000</i>
    <separator name="electronic convergence detail" >
     <i type="logical" name="LDIAG"> T  </i>
     <i type="logical" name="LSUBROT"> F  </i>
     <i name="WEIMIN">      0.00100000</i>
     <i name="EBREAK">      0.00000001</i>
     <i name="DEPER">      0.30000000</i>
     <i type="int" name="NRMM">     4</i>
     <i name="TIME">      0.40000000</i>
    </separator>
   </separator>
   <separator name="electronic mixer" >
    <i name="AMIX">      0.40000000</i>
    <i name="BMIX">      1.00000000</i>
    <i name="AMIN">      0.10000000</i>
    <i name="AMIX_MAG">      1.60000000</i>
    <i name="BMIX_MAG">      1.00000000</i>
    <separator name="electronic mixer details" >
     <i type="int" name="IMIX">     4</i>
     <i type="logical" name="MIXFIRST"> F  </i>
     <i type="int" name="MAXMIX">   -45</i>
     <i name="WC">    100.00000000</i>
     <i type="int" name="INIMIX">     1</i>
     <i type="int" name="MIXPRE">     1</i>
     <i type="int" name="MREMOVE">     5</i>
    </separator>
   </separator>
   <separator name="electronic dipolcorrection" >
    <i type="logical" name="LDIPOL"> F  </i>
    <i type="logical" name="LMONO"> F  </i>
    <i type="int" name="IDIPOL">     0</i>
    <i name="EPSILON">      1.00000000</i>
    <v name="DIPOL">   -100.00000000   -100.00000000   -100.00000000</v>
    <i name="EFIELD">      0.00000000</i>
   </separator>
  </separator>
  <separator name="grids" >
   <i type="int" name="NGX">    20</i>
   <i type="int" name="NGY">    20</i>
   <i type="int" name="NGZ">    32</i>
   <i type="int" name="NGXF">    40</i>
   <i type="int" name="NGYF">    40</i>
   <i type="int" name="NGZF">    64</i>
   <i type="logical" name="ADDGRID"> F  </i>
  </separator>
  <separator name="ionic" >
   <i type="int" name="NSW">   100</i>
   <i type="int" name="IBRION">     2</i>
   <i type="int" name="MDALGO">     0</i>
   <i type="int" name="ISIF">     2</i>
   <i name="PSTRESS">      0.00000000</i>
   <i name="EDIFFG">     -0.02000000</i>
   <i type="int" name="NFREE">     1</i>
   <i name="POTIM">      0.50000000</i>
   <i name="SMASS">     -3.00000000</i>
   <i name="SCALEE">      1.00000000</i>
  </separator>
  <separator name="ionic md" >
   <i name="TEBEG">      0.00010000</i>
   <i name="TEEND">      0.00010000</i>
   <i type="int" name="NBLOCK">     1</i>
   <i type="int" name="KBLOCK">   100</i>
   <i type="int" name="NPACO">   256</i>
   <i name="APACO">     10.00000000</i>
  </separator>
  <separator name="symmetry" >
   <i type="int" name="ISYM">     1</i>
   <i name="SYMPREC">      0.00001000</i>
  </separator>
  <separator name="dos" >
   <i type="int" name="LORBIT">    11</i>
   <v name="RWIGS">     -1.00000000</v>
   <i type="int" name="NEDOS">   301</i>
   <i name="EMIN">     10.00000000</i>
   <i name="EMAX">    -10.00000000</i>
   <i name="EFERMI">      0.00000000</i>
  </separator>
  <separator name="writing" >
   <i type="int" name="NWRITE">     2</i>
   <i type="logical" name="LWAVE"> T  </i>
   <i type="logical" name="LDOWNSAMPLE"> F  </i>
   <i type="logical" name="LCHARG"> T  </i>
   <i type="logical" name="LPARD"> F  </i>
   <i type="logical" name="LVTOT"> F  </i>
   <i type="logical" name="LVHAR"> F  </i>
   <i type="logical" name="LELF"> F  </i>
   <i type="logical" name="LOPTICS"> F  </i>
   <v name="STM">      0.00000000      0.00000000      0.00000000      0.00000000      0.00000000      0.00000000      0.00000000</v>
  </separator>
  <separator name="performance" >
   <i type="int" name="NPAR">    24</i>
   <i type="int" name="NSIM">     4</i>
   <i type="int" name="NBLK">    -1</i>
   <i type="logical" name="LPLANE"> T  </i>
   <i type="logical" name="LSCALAPACK"> T  </i>
   <i type="logical" name="LSCAAWARE"> F  </i>
   <i type="logical" name="LSCALU"> F  </i>
   <i type="logical" name="LASYNC"> F  </i>
   <i type="logical" name="LORBITALREAL"> F  </i>
  </separator>
  <separator name="miscellaneous" >
   <i type="int" name="IDIOT">     3</i>
   <i type="int" name="PHON_NSTRUCT">    -1</i>
   <i type="logical" name="LMUSIC"> F  </i>
   <v name="POMASS">    195.08000000</v>
   <v name="DARWINR">      0.00000000</v>
   <v name="DARWINV">      1.00000000</v>
   <i type="logical" name="LCORR"> T  </i>
  </separator>
  <i type="logical" name="GGA_COMPAT"> T  </i>
  <i type="logical" name="LBERRY"> F  </i>
  <i type="int" name="ICORELEVEL">     0</i>
  <i type="logical" name="LDAU"> F  </i>
  <i type="int" name="I_CONSTRAINED_M">     0</i>
  <separator name="electronic exchange-correlation" >
   <i type="string" name="GGA">--</i>
   <i type="int" name="VOSKOWN">     0</i>
   <i type="logical" name="LHFCALC"> F  </i>
   <i type="string" name="PRECFOCK"></i>
   <i type="logical" name="LSYMGRAD"> F  </i>
   <i type="logical" name="LHFONE"> F  </i>
   <i type="logical" name="LRHFCALC"> F  </i>
   <i type="logical" name="LTHOMAS"> F  </i>
   <i type="logical" name="LMODELHF"> F  </i>
   <i type="logical" name="LFOCKACE"> F  </i>
   <i name="ENCUT4O">     -1.00000000</i>
   <i type="int" name="EXXOEP">     0</i>
   <i type="int" name="FOURORBIT">     0</i>
   <i name="AEXX">      0.00000000</i>
   <i name="HFALPHA">      0.00000000</i>
   <i name="MCALPHA">      0.00000000</i>
   <i name="ALDAX">      1.00000000</i>
   <i name="AGGAX">      1.00000000</i>
   <i name="ALDAC">      1.00000000</i>
   <i name="AGGAC">      1.00000000</i>
   <i type="int" name="NKREDX">     1</i>
   <i type="int" name="NKREDY">     1</i>
   <i type="int" name="NKREDZ">     1</i>
   <i type="logical" name="SHIFTRED"> F  </i>
   <i type="logical" name="ODDONLY"> F  </i>
   <i type="logical" name="EVENONLY"> F  </i>
   <i type="int" name="LMAXFOCK">     0</i>
   <i type="int" name="NMAXFOCKAE">     0</i>
   <i type="logical" name="LFOCKAEDFT"> F  </i>
   <i name="HFSCREEN">      0.00000000</i>
   <i name="HFSCREENC">      0.00000000</i>
   <i type="int" name="NBANDSGWLOW">     0</i>
  </separator>
  <separator name="vdW DFT" >
   <i type="logical" name="LUSE_VDW"> F  </i>
   <i name="Zab_VDW">     -0.84910000</i>
   <i name="PARAM1">      0.12340000</i>
   <i name="PARAM2">      1.00000000</i>
   <i name="PARAM3">      0.00000000</i>
  </separator>
  <separator name="model GW" >
   <i type="int" name="MODEL_GW">     0</i>
   <i name="MODEL_EPS0">      8.92171475</i>
   <i name="MODEL_ALPHA">      1.00000000</i>
  </separator>
  <separator name="linear response parameters" >
   <i type="logical" name="LEPSILON"> F  </i>
   <i type="logical" name="LRPA"> F  </i>
   <i type="logical" name="LNABLA"> F  </i>
   <i type="logical" name="LVEL"> F  </i>
   <i name="CSHIFT">      0.10000000</i>
   <i name="OMEGAMAX">     -1.00000000</i>
   <i name="DEG_THRESHOLD">      0.00200000</i>
   <i name="RTIME">     -0.10000000</i>
   <i name="WPLASMAI">      0.00000000</i>
   <v name="DFIELD">      0.00000000      0.00000000      0.00000000</v>
   <v name="WPLASMA">      0.00000000      0.00000000      0.00000000      0.00000000      0.00000000      0.00000000      0.00000000      0.00000000      0.00000000</v>
  </separator>
  <separator name="orbital magnetization" >
   <i type="logical" name="NUCIND"> F  </i>
   <v name="MAGPOS">      0.00000000      0.00000000      0.00000000</v>
   <i type="logical" name="LNICSALL"> T  </i>
   <i type="logical" name="ORBITALMAG"> F  </i>
   <i type="logical" name="LMAGBLOCH"> F  </i>
   <i type="logical" name="LCHIMAG"> F  </i>
   <i type="logical" name="LGAUGE"> T  </i>
   <i type="int" name="MAGATOM">     0</i>
   <v name="MAGDIPOL">      0.00000000      0.00000000      0.00000000</v>
   <v name="AVECCONST">      0.00000000      0.00000000      0.00000000</v>
  </separator>
  <separator name="response functions" >
   <i type="logical" name="LFINITE_TEMPERATURE"> F  </i>
   <i type="logical" name="LADDER"> F  </i>
   <i type="logical" name="LRPAFORCE"> F  </i>
   <i type="logical" name="LFXC"> F  </i>
   <i type="logical" name="LHARTREE"> T  </i>
   <i type="int" name="IBSE">     0</i>
   <v type="int" name="KPOINT">    -1     0     0     0</v>
   <i type="logical" name="LTCTC"> F  </i>
   <i type="logical" name="LTCTE"> F  </i>
   <i type="logical" name="LTETE"> F  </i>
   <i type="logical" name="LTRIPLET"> F  </i>
   <i type="logical" name="LFXCEPS"> F  </i>
   <i type="logical" name="LFXHEG"> F  </i>
   <i type="int" name="NATURALO">     2</i>
   <i type="logical" name="LHOLEGF"> F  </i>
   <i type="logical" name="L2ORDER"> F  </i>
   <i type="logical" name="LDMP1"> F  </i>
   <i type="logical" name="LMP2LT"> F  </i>
   <i type="logical" name="LSMP2LT"> F  </i>
   <i type="logical" name="LGWLF"> F  </i>
   <i name="ENCUTGW">     -2.00000000</i>
   <i name="ENCUTGWSOFT">     -2.00000000</i>
   <i name="ENCUTLF">     -1.00000000</i>
   <i type="logical" name="LESF_SPLINES"> F  </i>
   <i type="int" name="LMAXMP2">    -1</i>
   <i name="SCISSOR">      0.00000000</i>
   <i type="int" name="NOMEGA">     0</i>
   <i type="int" name="NOMEGAR">     0</i>
   <i type="int" name="NBANDSGW">    -1</i>
   <i type="int" name="NBANDSO">    -1</i>
   <i type="int" name="NBANDSV">    -1</i>
   <i type="int" name="NELMGW">     1</i>
   <i type="int" name="NELMHF">     1</i>
   <i type="int" name="DIM">     3</i>
   <i type="int" name="IESPILON">     4</i>
   <i type="int" name="ANTIRES">     0</i>
   <i name="OMEGAMAX">    -30.00000000</i>
   <i name="OMEGAMIN">    -30.00000000</i>
   <i name="OMEGATL">   -200.00000000</i>
   <i type="int" name="OMEGAGRID">     0</i>
   <i name="CSHIFT">     -0.10000000</i>
   <i type="logical" name="LSELFENERGY"> F  </i>
   <i type="logical" name="LSPECTRAL"> F  </i>
   <i type="logical" name="LSPECTRALGW"> F  </i>
   <i type="logical" name="LSINGLES"> F  </i>
   <i type="logical" name="LFERMIGW"> F  </i>
   <i type="logical" name="ODDONLYGW"> F  </i>
   <i type="logical" name="EVENONLYGW"> F  </i>
   <i type="int" name="NKREDLFX">     1</i>
   <i type="int" name="NKREDLFY">     1</i>
   <i type="int" name="NKREDLFZ">     1</i>
   <i type="int" name="MAXMEM">  2800</i>
   <i type="int" name="TELESCOPE">     0</i>
   <i type="int" name="NTAUPAR">    -1</i>
   <i type="int" name="NOMEGAPAR">    -1</i>
   <i name="DAMP_NEWTON">      0.80000001</i>
   <i name="LAMBDA">      1.00000000</i>
  </separator>
  <separator name="External order field" >
   <i name="OFIELD_KAPPA">      0.00000000</i>
   <v name="OFIELD_K">      0.00000000      0.00000000      0.00000000</v>
   <i name="OFIELD_Q6_NEAR">      0.00000000</i>
   <i name="OFIELD_Q6_FAR">      0.00000000</i>
   <i name="OFIELD_A">      0.00000000</i>
  </separator>
  <separator name="optional k-points parameters" >
   <i type="int" name="KPOINTS_OPT_MODE">     1</i>
   <i type="logical" name="LKPOINTS_OPT"> F  </i>
  </separator>
 </parameters>
 <atominfo>
  <atoms>       2 </atoms>
  <types>       1 </types>
  <array name="atoms" >
   <dimension dim="1">ion</dimension>
   <field type="string">element</field>
   <field type="int">atomtype</field>
   <set>
    <rc><c>Pt</c><c>   1</c></rc>
    <rc><c>Pt</c><c>   1</c></rc>
   </set>
  </array>
  <array name="atomtypes" >
   <dimension dim="1">type</dimension>
   <field type="int">atomspertype</field>
   <field type="string">element</field>
   <field>mass</field>
   <field>valence</field>
   <field type="string">pseudopotential</field>
   <set>
    <rc><c>   2</c><c>Pt</c><c>    195.08000000</c><c>     16.00000000</c><c>  PAW_PBE Pt_pv 12Dec2005               </c></rc>
   </set>
  </array>
 </atominfo>
 <structure name="initialpos" >
  <crystal>
   <varray name="basis" >
    <v>       2.70630256       0.00000000       0.00000000 </v>
    <v>      -1.35315128       2.34372677       0.00000000 </v>
    <v>       0.00000000       0.00000000       4.68860612 </v>
   </varray>
   <i name="volume">     29.73904916 </i>
   <varray name="rec_basis" >
    <v>       0.36950783       0.21333545       0.00000000 </v>
    <v>       0.00000000       0.42667090       0.00000000 </v>
    <v>       0.00000000       0.00000000       0.21328300 </v>
   </varray>
  </crystal>
  <varray name="positions" >
   <v>       0.00000000       0.00000000       0.00000000 </v>
   <v>       0.33333333       0.66666667       0.50000000 </v>
  </varray>
 </structure>
 <calculation>
  <scstep>
   <time name="dav">    0.30    0.30</time>
   <time name="total">    0.31    0.31</time>
   <energy>
    <i name="alphaZ">    322.71624381 </i>
    <i name="ewald">  -4327.49059109 </i>
    <i name="hartreedc">   -779.29827126 </i>
    <i name="XCdc">    127.94305959 </i>
    <i name="pawpsdc">   4131.50523274 </i>
    <i name="pawaedc">  -4061.67189606 </i>
    <i name="eentropy">     -0.00205617 </i>
    <i name="bandstr">   -132.00207827 </i>
    <i name="atom">   4856.42966544 </i>
    <i name="e_fr_energy">    138.12930873 </i>
    <i name="e_wo_entrp">    138.13136491 </i>
    <i name="e_0_energy">    138.13033682 </i>
   </energy>
  </scstep>
  <scstep>
   <time name="dav">    0.32    0.33</time>
   <time name="total">    0.32    0.33</time>
   <energy>
    <i name="e_fr_energy">    -11.40868181 </i>
    <i name="e_wo_entrp">    -11.40467043 </i>
    <i name="e_0_energy">    -11.40667612 </i>
   </energy>
  </scstep>
  <scstep>
   <time name="dav">    0.47    0.47</time>
   <time name="total">    0.47    0.47</time>
   <energy>
    <i name="e_fr_energy">    -12.63323691 </i>
    <i name="e_wo_entrp">    -12.62937210 </i>
    <i name="e_0_energy">    -12.63130451 </i>
   </energy>
  </scstep>
  <scstep>
   <time name="dav">    0.59    0.59</time>
   <time name="total">    0.59    0.59</time>
   <energy>
    <i name="e_fr_energy">    -12.63675352 </i>
    <i name="e_wo_entrp">    -12.63289460 </i>
    <i name="e_0_energy">    -12.63482406 </i>
   </energy>
  </scstep>
  <scstep>
   <time name="dav">    0.52    0.52</time>
   <time name="total">    0.54    0.54</time>
   <energy>
    <i name="e_fr_energy">    -12.63675501 </i>
    <i name="e_wo_entrp">    -12.63289613 </i>
    <i name="e_0_energy">    -12.63482557 </i>
   </energy>
  </scstep>
  <scstep>
   <time name="dav">    0.33    0.33</time>
   <time name="total">    0.36    0.36</time>
   <energy>
    <i name="e_fr_energy">    -11.99207077 </i>
    <i name="e_wo_entrp">    -11.98802676 </i>
    <i name="e_0_energy">    -11.99004876 </i>
   </energy>
  </scstep>
  <scstep>
   <time name="dav">    0.46    0.46</time>
   <time name="total">    0.48    0.48</time>
   <energy>
    <i name="e_fr_energy">    -11.95249375 </i>
    <i name="e_wo_entrp">    -11.94825638 </i>
    <i name="e_0_energy">    -11.95037507 </i>
   </energy>
  </scstep>
  <scstep>
   <time name="dav">    0.33    0.34</time>
   <time name="total">    0.36    0.36</time>
   <energy>
    <i name="e_fr_energy">    -11.94983364 </i>
    <i name="e_wo_entrp">    -11.94557572 </i>
    <i name="e_0_energy">    -11.94770468 </i>
   </energy>
  </scstep>
  <scstep>
   <time name="dav">    0.45    0.45</time>
   <time name="total">    0.47    0.48</time>
   <energy>
    <i name="e_fr_energy">    -11.94964561 </i>
    <i name="e_wo_entrp">    -11.94540530 </i>
    <i name="e_0_energy">    -11.94752546 </i>
   </energy>
  </scstep>
  <scstep>
   <time name="dav">    0.45    0.46</time>
   <time name="total">    0.48    0.48</time>
   <energy>
    <i name="e_fr_energy">    -11.94965765 </i>
    <i name="e_wo_entrp">    -11.94542056 </i>
    <i name="e_0_energy">    -11.94753910 </i>
   </energy>
  </scstep>
  <scstep>
   <time name="dav">    0.31    0.31</time>
   <time name="total">    0.32    0.32</time>
   <energy>
    <i name="alphaZ">    322.71624381 </i>
    <i name="ewald">  -4327.49059109 </i>
    <i name="hartreedc">   -741.41019823 </i>
    <i name="XCdc">    126.26622307 </i>
    <i name="pawpsdc">   4809.75045265 </i>
    <i name="pawaedc">  -4745.43526376 </i>
    <i name="eentropy">     -0.00423770 </i>
    <i name="bandstr">   -312.77195126 </i>
    <i name="atom">   4856.42966544 </i>
    <i name="e_fr_energy">    -11.94965705 </i>
    <i name="e_wo_entrp">    -11.94541935 </i>
    <i name="e_0_energy">    -11.94753820 </i>
   </energy>
  </scstep>
  <structure>
   <crystal>
    <varray name="basis" >
     <v>       2.70630256       0.00000000       0.00000000 </v>
     <v>      -1.35315128       2.34372677       0.00000000 </v>
     <v>       0.00000000       0.00000000       4.68860612 </v>
    </varray>
    <i name="volume">     29.73904916 </i>
    <varray name="rec_basis" >
     <v>       0.36950783       0.21333545       0.00000000 </v>
     <v>       0.00000000       0.42667090       0.00000000 </v>
     <v>       0.00000000       0.00000000       0.21328300 </v>
    </varray>
   </crystal>
   <varray name="positions" >
    <v>       0.00000000       0.00000000       0.00000000 </v>
    <v>       0.33333333       0.66666667       0.50000000 </v>
   </varray>
  </structure>
  <varray name="forces" >
   <v>       0.00000000       0.00000000       0.00000000 </v>
   <v>      -0.00000000      -0.00000000       0.00000000 </v>
  </varray>
  <varray name="stress" >
   <v>     155.23186432      -0.00000000       0.00000000 </v>
   <v>      -0.00000000     155.23186432      -0.00000000 </v>
   <v>       0.00000000       0.00000000     134.17282520 </v>
  </varray>
  <energy>
   <i name="e_fr_energy">    -11.94965705 </i>
   <i name="e_wo_entrp">    -11.94541935 </i>
   <i name="e_0_energy">    -11.94753820 </i>
  </energy>
  <time name="totalsc">    5.04    5.17</time>
  <eigenvalues>
   <array>
    <dimension dim="1">band</dimension>
    <dimension dim="2">kpoint</dimension>
    <dimension dim="3">spin</dimension>
    <field>eigene</field>
    <field>occ</field>
    <set>
     <set comment="spin 1">
      <set comment="kpoint 1">
       <r>  -40.5663    1.0000 </r>
       <r>  -40.3105    1.0000 </r>
       <r>  -40.3105    1.0000 </r>
       <r>  -40.2610    1.0000 </r>
       <r>  -40.2610    1.0000 </r>
       <r>  -40.1496    1.0000 </r>
       <r>    1.9332    1.0000 </r>
       <r>    4.6386    1.0000 </r>
       <r>    7.9878    1.0000 </r>
       <r>    8.5395    1.0000 </r>
       <r>    8.5395    1.0000 </r>
       <r>    8.9481    1.0000 </r>
       <r>    8.9481    1.0000 </r>
       <r>   10.3193    1.0000 </r>
       <r>   10.3193    1.0000 </r>
       <r>   11.3389    1.0000 </r>
       <r>   12.0772    1.0000 </r>
       <r>   12.0772    1.0000 </r>
       <r>   17.4186    0.0000 </r>
       <r>   27.2862    0.0000 </r>
       <r>   27.9907    0.0000 </r>
       <r>   29.5630    0.0000 </r>
       <r>   33.9858    0.0000 </r>
       <r>   33.9858    0.0000 </r>
      </set>
      <set comment="kpoint 2">
       <r>  -40.5512    1.0000 </r>
       <r>  -40.3560    1.0000 </r>
       <r>  -40.3234    1.0000 </r>
       <r>  -40.3065    1.0000 </r>
       <r>  -40.2696    1.0000 </r>
       <r>  -40.1523    1.0000 </r>
       <r>    2.3161    1.0000 </r>
       <r>    4.9876    1.0000 </r>
       <r>    7.9126    1.0000 </r>
       <r>    8.5491    1.0000 </r>
       <r>    8.7822    1.0000 </r>
       <r>    8.8407    1.0000 </r>
       <r>    9.2354    1.0000 </r>
       <r>    9.6486    1.0000 </r>
       <r>   10.1291    1.0000 </r>
       <r>   10.2691    1.0000 </r>
       <r>   12.1497    1.0000 </r>
       <r>   13.8746    0.0000 </r>
       <r>   17.3730    0.0000 </r>
       <r>   27.8280    0.0000 </r>
       <r>   28.5500    0.0000 </r>
       <r>   30.0494    0.0000 </r>
       <r>   32.2115    0.0000 </r>
       <r>   32.4023    0.0000 </r>
      </set>
      <set comment="kpoint 3">
       <r>  -40.5099    1.0000 </r>
       <r>  -40.4743    1.0000 </r>
       <r>  -40.4254    1.0000 </r>
       <r>  -40.3576    1.0000 </r>
       <r>  -40.2940    1.0000 </r>
       <r>  -40.1633    1.0000 </r>
       <r>    3.3532    1.0000 </r>
       <r>    5.7449    1.0000 </r>
       <r>    7.6613    1.0000 </r>
       <r>    8.1662    1.0000 </r>
       <r>    8.2413    1.0000 </r>
       <r>    9.2325    1.0000 </r>
       <r>    9.6950    1.0000 </r>
       <r>    9.7085    1.0000 </r>
       <r>    9.7175    1.0000 </r>
       <r>   10.0427    1.0000 </r>
       <r>   12.2653    0.8951 </r>
       <r>   16.1710    0.0000 </r>
       <r>   17.2728    0.0000 </r>
       <r>   26.8066    0.0000 </r>
       <r>   29.1690    0.0000 </r>
       <r>   29.9276    0.0000 </r>
       <r>   30.5544    0.0000 </r>
       <r>   30.7186    0.0000 </r>
      </set>
      <set comment="kpoint 4">
       <r>  -40.6196    1.0000 </r>
       <r>  -40.5695    1.0000 </r>
       <r>  -40.4522    1.0000 </r>
       <r>  -40.3982    1.0000 </r>
       <r>  -40.3245    1.0000 </r>
       <r>  -40.1839    1.0000 </r>
       <r>    4.5957    1.0000 </r>
       <r>    5.8470    1.0000 </r>
       <r>    7.0178    1.0000 </r>
       <r>    7.9534    1.0000 </r>
       <r>    8.3517    1.0000 </r>
       <r>    9.1603    1.0000 </r>
       <r>    9.2774    1.0000 </r>
       <r>   10.4929    1.0000 </r>
       <r>   10.9293    1.0000 </r>
       <r>   11.1926    1.0000 </r>
       <r>   12.3282    0.2994 </r>
       <r>   17.3445    0.0000 </r>
       <r>   18.4870    0.0000 </r>
       <r>   23.0807    0.0000 </r>
       <r>   27.4298    0.0000 </r>
       <r>   27.6232    0.0000 </r>
       <r>   29.9410    0.0000 </r>
       <r>   30.6991    0.0000 </r>
      </set>
      <set comment="kpoint 5">
       <r>  -40.7361    1.0000 </r>
       <r>  -40.6834    1.0000 </r>
       <r>  -40.4305    1.0000 </r>
       <r>  -40.3937    1.0000 </r>
       <r>  -40.3498    1.0000 </r>
       <r>  -40.2118    1.0000 </r>
       <r>    5.2333    1.0000 </r>
       <r>    5.5078    1.0000 </r>
       <r>    6.3039    1.0000 </r>
       <r>    8.5218    1.0000 </r>
       <r>    8.7549    1.0000 </r>
       <r>    8.9720    1.0000 </r>
       <r>    9.2192    1.0000 </r>
       <r>   12.1326    1.0000 </r>
       <r>   12.3323    0.2609 </r>
       <r>   12.3430    0.1725 </r>
       <r>   12.5258    0.0000 </r>
       <r>   18.0799    0.0000 </r>
       <r>   19.3756    0.0000 </r>
       <r>   20.5071    0.0000 </r>
       <r>   25.3569    0.0000 </r>
       <r>   25.3933    0.0000 </r>
       <r>   26.3416    0.0000 </r>
       <r>   29.4440    0.0000 </r>
      </set>
      <set comment="kpoint 6">
       <r>  -40.7815    1.0000 </r>
       <r>  -40.7255    1.0000 </r>
       <r>  -40.4425    1.0000 </r>
       <r>  -40.3647    1.0000 </r>
       <r>  -40.3593    1.0000 </r>
       <r>  -40.2294    1.0000 </r>
       <r>    5.2738    1.0000 </r>
       <r>    5.4059    1.0000 </r>
       <r>    6.0618    1.0000 </r>
       <r>    8.6080    1.0000 </r>
       <r>    8.8630    1.0000 </r>
       <r>    9.0953    1.0000 </r>
       <r>    9.4200    1.0000 </r>
       <r>   12.3426    0.1751 </r>
       <r>   12.6436    0.0000 </r>
       <r>   12.8704    0.0000 </r>
       <r>   14.7012    0.0000 </r>
       <r>   16.2712    0.0000 </r>
       <r>   19.8967    0.0000 </r>
       <r>   21.4565    0.0000 </r>
       <r>   22.3841    0.0000 </r>
       <r>   24.5480    0.0000 </r>
       <r>   25.7745    0.0000 </r>
       <r>   28.8287    0.0000 </r>
      </set>
      <set comment="kpoint 7">
       <r>  -40.5231    1.0000 </r>
       <r>  -40.4299    1.0000 </r>
       <r>  -40.3980    1.0000 </r>
       <r>  -40.3396    1.0000 </r>
       <r>  -40.2929    1.0000 </r>
       <r>  -40.1596    1.0000 </r>
       <r>    3.0357    1.0000 </r>
       <r>    5.5947    1.0000 </r>
       <r>    7.6142    1.0000 </r>
       <r>    8.4575    1.0000 </r>
       <r>    8.6031    1.0000 </r>
       <r>    8.7904    1.0000 </r>
       <r>    9.4785    1.0000 </r>
       <r>    9.4813    1.0000 </r>
       <r>    9.8785    1.0000 </r>
       <r>   10.1914    1.0000 </r>
       <r>   12.1757    0.9999 </r>
       <r>   15.5688    0.0000 </r>
       <r>   17.3022    0.0000 </r>
       <r>   28.0377    0.0000 </r>
       <r>   28.9313    0.0000 </r>
       <r>   29.4999    0.0000 </r>
       <r>   30.5800    0.0000 </r>
       <r>   31.5261    0.0000 </r>
      </set>
      <set comment="kpoint 8">
       <r>  -40.5519    1.0000 </r>
       <r>  -40.5198    1.0000 </r>
       <r>  -40.4732    1.0000 </r>
       <r>  -40.3867    1.0000 </r>
       <r>  -40.3295    1.0000 </r>
       <r>  -40.1754    1.0000 </r>
       <r>    4.2590    1.0000 </r>
       <r>    6.2256    1.0000 </r>
       <r>    7.4233    1.0000 </r>
       <r>    7.4651    1.0000 </r>
       <r>    8.1651    1.0000 </r>
       <r>    8.9360    1.0000 </r>
       <r>    9.4615    1.0000 </r>
       <r>    9.7894    1.0000 </r>
       <r>   10.6371    1.0000 </r>
       <r>   11.0884    1.0000 </r>
       <r>   12.1794    0.9999 </r>
       <r>   17.3104    0.0000 </r>
       <r>   17.7669    0.0000 </r>
       <r>   25.0016    0.0000 </r>
       <r>   26.8786    0.0000 </r>
       <r>   28.6623    0.0000 </r>
       <r>   30.7210    0.0000 </r>
       <r>   31.6921    0.0000 </r>
      </set>
      <set comment="kpoint 9">
       <r>  -40.6782    1.0000 </r>
       <r>  -40.6340    1.0000 </r>
       <r>  -40.4357    1.0000 </r>
       <r>  -40.4140    1.0000 </r>
       <r>  -40.3644    1.0000 </r>
       <r>  -40.2011    1.0000 </r>
       <r>    5.3311    1.0000 </r>
       <r>    5.9486    1.0000 </r>
       <r>    6.6208    1.0000 </r>
       <r>    7.9716    1.0000 </r>
       <r>    8.6128    1.0000 </r>
       <r>    8.6523    1.0000 </r>
       <r>    9.2516    1.0000 </r>
       <r>   10.6672    1.0000 </r>
       <r>   11.8330    1.0000 </r>
       <r>   12.1666    1.0000 </r>
       <r>   12.6480    0.0000 </r>
       <r>   17.8723    0.0000 </r>
       <r>   19.9851    0.0000 </r>
       <r>   21.0881    0.0000 </r>
       <r>   24.6746    0.0000 </r>
       <r>   27.2346    0.0000 </r>
       <r>   28.0851    0.0000 </r>
       <r>   29.8772    0.0000 </r>
      </set>
      <set comment="kpoint 10">
       <r>  -40.7566    1.0000 </r>
       <r>  -40.7026    1.0000 </r>
       <r>  -40.4653    1.0000 </r>
       <r>  -40.3863    1.0000 </r>
       <r>  -40.3652    1.0000 </r>
       <r>  -40.2291    1.0000 </r>
       <r>    5.5870    1.0000 </r>
       <r>    5.7021    1.0000 </r>
       <r>    6.1799    1.0000 </r>
       <r>    8.5550    1.0000 </r>
       <r>    8.8113    1.0000 </r>
       <r>    8.8234    1.0000 </r>
       <r>    9.1870    1.0000 </r>
       <r>   12.0296    1.0000 </r>
       <r>   12.1481    1.0000 </r>
       <r>   12.4535    0.0000 </r>
       <r>   14.4632    0.0000 </r>
       <r>   17.5603    0.0000 </r>
       <r>   19.5784    0.0000 </r>
       <r>   21.6819    0.0000 </r>
       <r>   22.4742    0.0000 </r>
       <r>   24.8949    0.0000 </r>
       <r>   26.2873    0.0000 </r>
       <r>   28.7536    0.0000 </r>
      </set>
      <set comment="kpoint 11">
       <r>  -40.6243    1.0000 </r>
       <r>  -40.6216    1.0000 </r>
       <r>  -40.4418    1.0000 </r>
       <r>  -40.4208    1.0000 </r>
       <r>  -40.3922    1.0000 </r>
       <r>  -40.1977    1.0000 </r>
       <r>    5.5187    1.0000 </r>
       <r>    6.8414    1.0000 </r>
       <r>    6.8682    1.0000 </r>
       <r>    6.9312    1.0000 </r>
       <r>    8.4014    1.0000 </r>
       <r>    8.4046    1.0000 </r>
       <r>    9.4621    1.0000 </r>
       <r>    9.8557    1.0000 </r>
       <r>   11.8142    1.0000 </r>
       <r>   11.9792    1.0000 </r>
       <r>   12.7355    0.0000 </r>
       <r>   17.8687    0.0000 </r>
       <r>   19.8772    0.0000 </r>
       <r>   22.5371    0.0000 </r>
       <r>   23.4296    0.0000 </r>
       <r>   28.0242    0.0000 </r>
       <r>   29.6912    0.0000 </r>
       <r>   30.0238    0.0000 </r>
      </set>
      <set comment="kpoint 12">
       <r>  -40.7001    1.0000 </r>
       <r>  -40.6629    1.0000 </r>
       <r>  -40.5056    1.0000 </r>
       <r>  -40.4451    1.0000 </r>
       <r>  -40.3658    1.0000 </r>
       <r>  -40.2285    1.0000 </r>
       <r>    6.3024    1.0000 </r>
       <r>    6.4166    1.0000 </r>
       <r>    6.4907    1.0000 </r>
       <r>    7.7442    1.0000 </r>
       <r>    8.2445    1.0000 </r>
       <r>    8.9280    1.0000 </r>
       <r>    8.9980    1.0000 </r>
       <r>   10.7269    1.0000 </r>
       <r>   11.8264    1.0000 </r>
       <r>   12.3034    0.5692 </r>
       <r>   14.5400    0.0000 </r>
       <r>   18.8777    0.0000 </r>
       <r>   19.7934    0.0000 </r>
       <r>   21.3683    0.0000 </r>
       <r>   22.0411    0.0000 </r>
       <r>   26.6246    0.0000 </r>
       <r>   27.3579    0.0000 </r>
       <r>   28.5541    0.0000 </r>
      </set>
      <set comment="kpoint 13">
       <r>  -40.7277    1.0000 </r>
       <r>  -40.6734    1.0000 </r>
       <r>  -40.5363    1.0000 </r>
       <r>  -40.4652    1.0000 </r>
       <r>  -40.3343    1.0000 </r>
       <r>  -40.2507    1.0000 </r>
       <r>    6.2662    1.0000 </r>
       <r>    6.3236    1.0000 </r>
       <r>    6.4167    1.0000 </r>
       <r>    8.3600    1.0000 </r>
       <r>    8.3959    1.0000 </r>
       <r>    8.5162    1.0000 </r>
       <r>    9.2877    1.0000 </r>
       <r>   11.5666    1.0000 </r>
       <r>   11.7704    1.0000 </r>
       <r>   12.0931    1.0000 </r>
       <r>   16.1576    0.0000 </r>
       <r>   16.7601    0.0000 </r>
       <r>   20.0394    0.0000 </r>
       <r>   21.7689    0.0000 </r>
       <r>   23.2687    0.0000 </r>
       <r>   24.4369    0.0000 </r>
       <r>   26.7675    0.0000 </r>
       <r>   27.8856    0.0000 </r>
      </set>
      <set comment="kpoint 14">
       <r>  -40.6827    1.0000 </r>
       <r>  -40.6414    1.0000 </r>
       <r>  -40.5834    1.0000 </r>
       <r>  -40.5309    1.0000 </r>
       <r>  -40.3170    1.0000 </r>
       <r>  -40.2645    1.0000 </r>
       <r>    6.3635    1.0000 </r>
       <r>    6.8733    1.0000 </r>
       <r>    7.1411    1.0000 </r>
       <r>    7.6165    1.0000 </r>
       <r>    8.1939    1.0000 </r>
       <r>    8.4891    1.0000 </r>
       <r>    9.3887    1.0000 </r>
       <r>   11.1249    1.0000 </r>
       <r>   11.5856    1.0000 </r>
       <r>   11.9142    1.0000 </r>
       <r>   16.2056    0.0000 </r>
       <r>   17.4626    0.0000 </r>
       <r>   18.8819    0.0000 </r>
       <r>   22.6964    0.0000 </r>
       <r>   24.2611    0.0000 </r>
       <r>   25.5677    0.0000 </r>
       <r>   26.4648    0.0000 </r>
       <r>   26.7524    0.0000 </r>
      </set>
      <set comment="kpoint 15">
       <r>  -40.5506    1.0000 </r>
       <r>  -40.3085    1.0000 </r>
       <r>  -40.3085    1.0000 </r>
       <r>  -40.2628    1.0000 </r>
       <r>  -40.2628    1.0000 </r>
       <r>  -40.1652    1.0000 </r>
       <r>    2.0756    1.0000 </r>
       <r>    4.6237    1.0000 </r>
       <r>    7.9506    1.0000 </r>
       <r>    8.5179    1.0000 </r>
       <r>    8.5179    1.0000 </r>
       <r>    8.9048    1.0000 </r>
       <r>    8.9048    1.0000 </r>
       <r>   10.4288    1.0000 </r>
       <r>   10.4288    1.0000 </r>
       <r>   10.7214    1.0000 </r>
       <r>   12.0484    1.0000 </r>
       <r>   12.0484    1.0000 </r>
       <r>   18.2854    0.0000 </r>
       <r>   26.8331    0.0000 </r>
       <r>   28.5532    0.0000 </r>
       <r>   29.2581    0.0000 </r>
       <r>   33.2239    0.0000 </r>
       <r>   33.2239    0.0000 </r>
      </set>
      <set comment="kpoint 16">
       <r>  -40.5374    1.0000 </r>
       <r>  -40.3533    1.0000 </r>
       <r>  -40.3213    1.0000 </r>
       <r>  -40.3097    1.0000 </r>
       <r>  -40.2717    1.0000 </r>
       <r>  -40.1667    1.0000 </r>
       <r>    2.4556    1.0000 </r>
       <r>    4.9792    1.0000 </r>
       <r>    7.9157    1.0000 </r>
       <r>    8.4521    1.0000 </r>
       <r>    8.6645    1.0000 </r>
       <r>    8.8089    1.0000 </r>
       <r>    9.1870    1.0000 </r>
       <r>    9.5915    1.0000 </r>
       <r>   10.2584    1.0000 </r>
       <r>   10.2856    1.0000 </r>
       <r>   12.1083    1.0000 </r>
       <r>   13.3518    0.0000 </r>
       <r>   18.3576    0.0000 </r>
       <r>   27.4136    0.0000 </r>
       <r>   29.0444    0.0000 </r>
       <r>   29.7534    0.0000 </r>
       <r>   31.4884    0.0000 </r>
       <r>   32.2933    0.0000 </r>
      </set>
      <set comment="kpoint 17">
       <r>  -40.5116    1.0000 </r>
       <r>  -40.4588    1.0000 </r>
       <r>  -40.4288    1.0000 </r>
       <r>  -40.3552    1.0000 </r>
       <r>  -40.2964    1.0000 </r>
       <r>  -40.1745    1.0000 </r>
       <r>    3.4749    1.0000 </r>
       <r>    5.7603    1.0000 </r>
       <r>    7.6952    1.0000 </r>
       <r>    7.9005    1.0000 </r>
       <r>    8.2372    1.0000 </r>
       <r>    9.1010    1.0000 </r>
       <r>    9.5121    1.0000 </r>
       <r>    9.8967    1.0000 </r>
       <r>    9.9592    1.0000 </r>
       <r>   10.0912    1.0000 </r>
       <r>   12.1987    0.9991 </r>
       <r>   15.0002    0.0000 </r>
       <r>   18.7184    0.0000 </r>
       <r>   26.8944    0.0000 </r>
       <r>   28.9906    0.0000 </r>
       <r>   30.0330    0.0000 </r>
       <r>   30.0839    0.0000 </r>
       <r>   31.2056    0.0000 </r>
      </set>
      <set comment="kpoint 18">
       <r>  -40.6232    1.0000 </r>
       <r>  -40.5747    1.0000 </r>
       <r>  -40.4361    1.0000 </r>
       <r>  -40.3954    1.0000 </r>
       <r>  -40.3274    1.0000 </r>
       <r>  -40.1911    1.0000 </r>
       <r>    4.6458    1.0000 </r>
       <r>    5.8804    1.0000 </r>
       <r>    7.0042    1.0000 </r>
       <r>    7.7667    1.0000 </r>
       <r>    8.3788    1.0000 </r>
       <r>    9.2839    1.0000 </r>
       <r>    9.3455    1.0000 </r>
       <r>   10.5512    1.0000 </r>
       <r>   10.9529    1.0000 </r>
       <r>   11.1381    1.0000 </r>
       <r>   12.2501    0.9538 </r>
       <r>   16.1746    0.0000 </r>
       <r>   19.6606    0.0000 </r>
       <r>   23.3726    0.0000 </r>
       <r>   27.5294    0.0000 </r>
       <r>   27.6872    0.0000 </r>
       <r>   29.3763    0.0000 </r>
       <r>   31.2232    0.0000 </r>
      </set>
      <set comment="kpoint 19">
       <r>  -40.7382    1.0000 </r>
       <r>  -40.6887    1.0000 </r>
       <r>  -40.4276    1.0000 </r>
       <r>  -40.3832    1.0000 </r>
       <r>  -40.3529    1.0000 </r>
       <r>  -40.2155    1.0000 </r>
       <r>    5.1572    1.0000 </r>
       <r>    5.5101    1.0000 </r>
       <r>    6.4849    1.0000 </r>
       <r>    7.8205    1.0000 </r>
       <r>    9.0073    1.0000 </r>
       <r>    9.0651    1.0000 </r>
       <r>    9.8064    1.0000 </r>
       <r>   12.0462    1.0000 </r>
       <r>   12.1492    1.0000 </r>
       <r>   12.4308    0.0003 </r>
       <r>   12.4478    0.0000 </r>
       <r>   17.1780    0.0000 </r>
       <r>   19.4144    0.0000 </r>
       <r>   21.3604    0.0000 </r>
       <r>   25.0531    0.0000 </r>
       <r>   25.6942    0.0000 </r>
       <r>   26.7075    0.0000 </r>
       <r>   29.6494    0.0000 </r>
      </set>
      <set comment="kpoint 20">
       <r>  -40.7829    1.0000 </r>
       <r>  -40.7307    1.0000 </r>
       <r>  -40.4393    1.0000 </r>
       <r>  -40.3628    1.0000 </r>
       <r>  -40.3561    1.0000 </r>
       <r>  -40.2312    1.0000 </r>
       <r>    5.2208    1.0000 </r>
       <r>    5.3076    1.0000 </r>
       <r>    6.3194    1.0000 </r>
       <r>    7.8854    1.0000 </r>
       <r>    8.9616    1.0000 </r>
       <r>    9.1715    1.0000 </r>
       <r>   10.2846    1.0000 </r>
       <r>   12.1414    1.0000 </r>
       <r>   12.6659    0.0000 </r>
       <r>   12.8632    0.0000 </r>
       <r>   14.4305    0.0000 </r>
       <r>   16.1403    0.0000 </r>
       <r>   19.7775    0.0000 </r>
       <r>   20.5956    0.0000 </r>
       <r>   23.5024    0.0000 </r>
       <r>   24.8651    0.0000 </r>
       <r>   25.9153    0.0000 </r>
       <r>   29.1061    0.0000 </r>
      </set>
      <set comment="kpoint 21">
       <r>  -40.5149    1.0000 </r>
       <r>  -40.4230    1.0000 </r>
       <r>  -40.4001    1.0000 </r>
       <r>  -40.3392    1.0000 </r>
       <r>  -40.2952    1.0000 </r>
       <r>  -40.1714    1.0000 </r>
       <r>    3.1658    1.0000 </r>
       <r>    5.6024    1.0000 </r>
       <r>    7.6488    1.0000 </r>
       <r>    8.1369    1.0000 </r>
       <r>    8.5382    1.0000 </r>
       <r>    8.7786    1.0000 </r>
       <r>    9.4019    1.0000 </r>
       <r>    9.6414    1.0000 </r>
       <r>    9.9683    1.0000 </r>
       <r>   10.2744    1.0000 </r>
       <r>   12.1197    1.0000 </r>
       <r>   14.6183    0.0000 </r>
       <r>   18.5808    0.0000 </r>
       <r>   27.9424    0.0000 </r>
       <r>   28.9801    0.0000 </r>
       <r>   29.5041    0.0000 </r>
       <r>   30.1290    0.0000 </r>
       <r>   31.7779    0.0000 </r>
      </set>
      <set comment="kpoint 22">
       <r>  -40.5589    1.0000 </r>
       <r>  -40.5240    1.0000 </r>
       <r>  -40.4530    1.0000 </r>
       <r>  -40.3853    1.0000 </r>
       <r>  -40.3319    1.0000 </r>
       <r>  -40.1839    1.0000 </r>
       <r>    4.3520    1.0000 </r>
       <r>    6.2661    1.0000 </r>
       <r>    7.2778    1.0000 </r>
       <r>    7.4960    1.0000 </r>
       <r>    8.1244    1.0000 </r>
       <r>    8.8360    1.0000 </r>
       <r>    9.6162    1.0000 </r>
       <r>    9.7797    1.0000 </r>
       <r>   10.7591    1.0000 </r>
       <r>   11.0298    1.0000 </r>
       <r>   12.1227    1.0000 </r>
       <r>   15.8934    0.0000 </r>
       <r>   19.3350    0.0000 </r>
       <r>   25.1899    0.0000 </r>
       <r>   27.0122    0.0000 </r>
       <r>   28.6538    0.0000 </r>
       <r>   30.2196    0.0000 </r>
       <r>   32.2194    0.0000 </r>
      </set>
      <set comment="kpoint 23">
       <r>  -40.6805    1.0000 </r>
       <r>  -40.6388    1.0000 </r>
       <r>  -40.4347    1.0000 </r>
       <r>  -40.4005    1.0000 </r>
       <r>  -40.3669    1.0000 </r>
       <r>  -40.2058    1.0000 </r>
       <r>    5.3017    1.0000 </r>
       <r>    5.9874    1.0000 </r>
       <r>    6.7028    1.0000 </r>
       <r>    7.6601    1.0000 </r>
       <r>    8.6002    1.0000 </r>
       <r>    9.0082    1.0000 </r>
       <r>    9.2687    1.0000 </r>
       <r>   10.6842    1.0000 </r>
       <r>   11.8854    1.0000 </r>
       <r>   11.9514    1.0000 </r>
       <r>   12.7184    0.0000 </r>
       <r>   17.0211    0.0000 </r>
       <r>   20.2585    0.0000 </r>
       <r>   21.8750    0.0000 </r>
       <r>   24.8193    0.0000 </r>
       <r>   26.9943    0.0000 </r>
       <r>   28.1247    0.0000 </r>
       <r>   30.1200    0.0000 </r>
      </set>
      <set comment="kpoint 24">
       <r>  -40.7580    1.0000 </r>
       <r>  -40.7078    1.0000 </r>
       <r>  -40.4634    1.0000 </r>
       <r>  -40.3899    1.0000 </r>
       <r>  -40.3552    1.0000 </r>
       <r>  -40.2302    1.0000 </r>
       <r>    5.4663    1.0000 </r>
       <r>    5.6566    1.0000 </r>
       <r>    6.4777    1.0000 </r>
       <r>    7.8233    1.0000 </r>
       <r>    8.6766    1.0000 </r>
       <r>    9.3059    1.0000 </r>
       <r>    9.7269    1.0000 </r>
       <r>   11.9087    1.0000 </r>
       <r>   12.0357    1.0000 </r>
       <r>   12.5017    0.0000 </r>
       <r>   14.4072    0.0000 </r>
       <r>   17.3229    0.0000 </r>
       <r>   19.2644    0.0000 </r>
       <r>   21.6140    0.0000 </r>
       <r>   22.9495    0.0000 </r>
       <r>   25.1638    0.0000 </r>
       <r>   26.4989    0.0000 </r>
       <r>   28.8779    0.0000 </r>
      </set>
      <set comment="kpoint 25">
       <r>  -40.6268    1.0000 </r>
       <r>  -40.6257    1.0000 </r>
       <r>  -40.4421    1.0000 </r>
       <r>  -40.4121    1.0000 </r>
       <r>  -40.3895    1.0000 </r>
       <r>  -40.2022    1.0000 </r>
       <r>    5.5481    1.0000 </r>
       <r>    6.6709    1.0000 </r>
       <r>    6.9502    1.0000 </r>
       <r>    7.0478    1.0000 </r>
       <r>    8.3900    1.0000 </r>
       <r>    8.4129    1.0000 </r>
       <r>    9.3321    1.0000 </r>
       <r>   10.0196    1.0000 </r>
       <r>   11.7378    1.0000 </r>
       <r>   11.9381    1.0000 </r>
       <r>   12.8185    0.0000 </r>
       <r>   17.0409    0.0000 </r>
       <r>   20.4968    0.0000 </r>
       <r>   23.0227    0.0000 </r>
       <r>   23.6075    0.0000 </r>
       <r>   27.9357    0.0000 </r>
       <r>   28.8378    0.0000 </r>
       <r>   30.7155    0.0000 </r>
      </set>
      <set comment="kpoint 26">
       <r>  -40.7010    1.0000 </r>
       <r>  -40.6677    1.0000 </r>
       <r>  -40.5061    1.0000 </r>
       <r>  -40.4495    1.0000 </r>
       <r>  -40.3543    1.0000 </r>
       <r>  -40.2291    1.0000 </r>
       <r>    6.0997    1.0000 </r>
       <r>    6.5010    1.0000 </r>
       <r>    6.6887    1.0000 </r>
       <r>    7.5132    1.0000 </r>
       <r>    8.4071    1.0000 </r>
       <r>    8.8191    1.0000 </r>
       <r>    9.1452    1.0000 </r>
       <r>   10.7931    1.0000 </r>
       <r>   11.5982    1.0000 </r>
       <r>   12.4200    0.0009 </r>
       <r>   14.5874    0.0000 </r>
       <r>   18.9260    0.0000 </r>
       <r>   19.0786    0.0000 </r>
       <r>   21.4671    0.0000 </r>
       <r>   22.8735    0.0000 </r>
       <r>   26.1187    0.0000 </r>
       <r>   27.3810    0.0000 </r>
       <r>   28.7272    0.0000 </r>
      </set>
      <set comment="kpoint 27">
       <r>  -40.7279    1.0000 </r>
       <r>  -40.6783    1.0000 </r>
       <r>  -40.5365    1.0000 </r>
       <r>  -40.4693    1.0000 </r>
       <r>  -40.3256    1.0000 </r>
       <r>  -40.2488    1.0000 </r>
       <r>    6.0196    1.0000 </r>
       <r>    6.3738    1.0000 </r>
       <r>    6.7879    1.0000 </r>
       <r>    7.7511    1.0000 </r>
       <r>    8.2478    1.0000 </r>
       <r>    9.0267    1.0000 </r>
       <r>    9.4669    1.0000 </r>
       <r>   11.5337    1.0000 </r>
       <r>   11.5950    1.0000 </r>
       <r>   12.1783    0.9999 </r>
       <r>   16.2354    0.0000 </r>
       <r>   16.7920    0.0000 </r>
       <r>   20.1727    0.0000 </r>
       <r>   21.4560    0.0000 </r>
       <r>   22.4320    0.0000 </r>
       <r>   25.5187    0.0000 </r>
       <r>   27.0080    0.0000 </r>
       <r>   27.2683    0.0000 </r>
      </set>
      <set comment="kpoint 28">
       <r>  -40.6812    1.0000 </r>
       <r>  -40.6462    1.0000 </r>
       <r>  -40.5859    1.0000 </r>
       <r>  -40.5350    1.0000 </r>
       <r>  -40.3092    1.0000 </r>
       <r>  -40.2614    1.0000 </r>
       <r>    6.4052    1.0000 </r>
       <r>    6.8479    1.0000 </r>
       <r>    7.1717    1.0000 </r>
       <r>    7.4838    1.0000 </r>
       <r>    8.3406    1.0000 </r>
       <r>    8.3836    1.0000 </r>
       <r>    9.3978    1.0000 </r>
       <r>   11.2263    1.0000 </r>
       <r>   11.3472    1.0000 </r>
       <r>   12.0204    1.0000 </r>
       <r>   16.3076    0.0000 </r>
       <r>   17.6118    0.0000 </r>
       <r>   19.1611    0.0000 </r>
       <r>   21.7992    0.0000 </r>
       <r>   24.5156    0.0000 </r>
       <r>   24.5610    0.0000 </r>
       <r>   26.5077    0.0000 </r>
       <r>   27.7869    0.0000 </r>
      </set>
      <set comment="kpoint 29">
       <r>  -40.5063    1.0000 </r>
       <r>  -40.3029    1.0000 </r>
       <r>  -40.3029    1.0000 </r>
       <r>  -40.2678    1.0000 </r>
       <r>  -40.2678    1.0000 </r>
       <r>  -40.2111    1.0000 </r>
       <r>    2.4840    1.0000 </r>
       <r>    4.5401    1.0000 </r>
       <r>    7.8647    1.0000 </r>
       <r>    8.4839    1.0000 </r>
       <r>    8.4839    1.0000 </r>
       <r>    8.7942    1.0000 </r>
       <r>    8.7942    1.0000 </r>
       <r>    9.5366    1.0000 </r>
       <r>   10.7124    1.0000 </r>
       <r>   10.7124    1.0000 </r>
       <r>   11.9473    1.0000 </r>
       <r>   11.9473    1.0000 </r>
       <r>   20.2323    0.0000 </r>
       <r>   26.3522    0.0000 </r>
       <r>   28.6057    0.0000 </r>
       <r>   29.0054    0.0000 </r>
       <r>   32.6151    0.0000 </r>
       <r>   32.6151    0.0000 </r>
      </set>
      <set comment="kpoint 30">
       <r>  -40.4979    1.0000 </r>
       <r>  -40.3450    1.0000 </r>
       <r>  -40.3191    1.0000 </r>
       <r>  -40.3157    1.0000 </r>
       <r>  -40.2775    1.0000 </r>
       <r>  -40.2066    1.0000 </r>
       <r>    2.8565    1.0000 </r>
       <r>    4.9112    1.0000 </r>
       <r>    7.8970    1.0000 </r>
       <r>    8.2834    1.0000 </r>
       <r>    8.3634    1.0000 </r>
       <r>    8.7592    1.0000 </r>
       <r>    9.0692    1.0000 </r>
       <r>    9.1751    1.0000 </r>
       <r>   10.5784    1.0000 </r>
       <r>   10.5794    1.0000 </r>
       <r>   11.9736    1.0000 </r>
       <r>   12.6184    0.0000 </r>
       <r>   20.3735    0.0000 </r>
       <r>   26.9259    0.0000 </r>
       <r>   29.0986    0.0000 </r>
       <r>   29.4428    0.0000 </r>
       <r>   31.2037    0.0000 </r>
       <r>   32.1513    0.0000 </r>
      </set>
      <set comment="kpoint 31">
       <r>  -40.5080    1.0000 </r>
       <r>  -40.4441    1.0000 </r>
       <r>  -40.4168    1.0000 </r>
       <r>  -40.3479    1.0000 </r>
       <r>  -40.3030    1.0000 </r>
       <r>  -40.2061    1.0000 </r>
       <r>    3.8268    1.0000 </r>
       <r>    5.7508    1.0000 </r>
       <r>    7.4897    1.0000 </r>
       <r>    7.8165    1.0000 </r>
       <r>    7.9870    1.0000 </r>
       <r>    8.8862    1.0000 </r>
       <r>    9.4222    1.0000 </r>
       <r>    9.8202    1.0000 </r>
       <r>   10.4241    1.0000 </r>
       <r>   10.4463    1.0000 </r>
       <r>   12.0020    1.0000 </r>
       <r>   13.7130    0.0000 </r>
       <r>   20.7879    0.0000 </r>
       <r>   27.1454    0.0000 </r>
       <r>   28.5687    0.0000 </r>
       <r>   29.4037    0.0000 </r>
       <r>   30.5604    0.0000 </r>
       <r>   31.4480    0.0000 </r>
      </set>
      <set comment="kpoint 32">
       <r>  -40.6280    1.0000 </r>
       <r>  -40.5876    1.0000 </r>
       <r>  -40.3961    1.0000 </r>
       <r>  -40.3873    1.0000 </r>
       <r>  -40.3352    1.0000 </r>
       <r>  -40.2131    1.0000 </r>
       <r>    4.8013    1.0000 </r>
       <r>    5.9246    1.0000 </r>
       <r>    6.8936    1.0000 </r>
       <r>    7.4813    1.0000 </r>
       <r>    8.5111    1.0000 </r>
       <r>    9.3938    1.0000 </r>
       <r>    9.5421    1.0000 </r>
       <r>   10.8028    1.0000 </r>
       <r>   10.8719    1.0000 </r>
       <r>   11.1296    1.0000 </r>
       <r>   12.0465    1.0000 </r>
       <r>   14.6778    0.0000 </r>
       <r>   21.1718    0.0000 </r>
       <r>   24.2105    0.0000 </r>
       <r>   26.8692    0.0000 </r>
       <r>   28.4252    0.0000 </r>
       <r>   29.2067    0.0000 </r>
       <r>   30.5814    0.0000 </r>
      </set>
      <set comment="kpoint 33">
       <r>  -40.7410    1.0000 </r>
       <r>  -40.7020    1.0000 </r>
       <r>  -40.4187    1.0000 </r>
       <r>  -40.3614    1.0000 </r>
       <r>  -40.3540    1.0000 </r>
       <r>  -40.2276    1.0000 </r>
       <r>    5.0585    1.0000 </r>
       <r>    5.5487    1.0000 </r>
       <r>    6.7194    1.0000 </r>
       <r>    7.1452    1.0000 </r>
       <r>    9.3038    1.0000 </r>
       <r>    9.3385    1.0000 </r>
       <r>   10.7292    1.0000 </r>
       <r>   11.5617    1.0000 </r>
       <r>   12.1592    1.0000 </r>
       <r>   12.1923    0.9995 </r>
       <r>   12.4516    0.0000 </r>
       <r>   15.6494    0.0000 </r>
       <r>   19.7631    0.0000 </r>
       <r>   22.1796    0.0000 </r>
       <r>   24.9403    0.0000 </r>
       <r>   26.5320    0.0000 </r>
       <r>   27.3452    0.0000 </r>
       <r>   29.9812    0.0000 </r>
      </set>
      <set comment="kpoint 34">
       <r>  -40.7847    1.0000 </r>
       <r>  -40.7443    1.0000 </r>
       <r>  -40.4304    1.0000 </r>
       <r>  -40.3719    1.0000 </r>
       <r>  -40.3330    1.0000 </r>
       <r>  -40.2378    1.0000 </r>
       <r>    5.0310    1.0000 </r>
       <r>    5.3738    1.0000 </r>
       <r>    6.6286    1.0000 </r>
       <r>    7.0917    1.0000 </r>
       <r>    9.2520    1.0000 </r>
       <r>    9.5102    1.0000 </r>
       <r>   11.5166    1.0000 </r>
       <r>   11.6394    1.0000 </r>
       <r>   12.6990    0.0000 </r>
       <r>   12.8425    0.0000 </r>
       <r>   13.6679    0.0000 </r>
       <r>   15.7243    0.0000 </r>
       <r>   19.5173    0.0000 </r>
       <r>   19.7948    0.0000 </r>
       <r>   24.9801    0.0000 </r>
       <r>   25.7359    0.0000 </r>
       <r>   26.2738    0.0000 </r>
       <r>   29.8406    0.0000 </r>
      </set>
      <set comment="kpoint 35">
       <r>  -40.4934    1.0000 </r>
       <r>  -40.4074    1.0000 </r>
       <r>  -40.4013    1.0000 </r>
       <r>  -40.3368    1.0000 </r>
       <r>  -40.3013    1.0000 </r>
       <r>  -40.2052    1.0000 </r>
       <r>    3.5418    1.0000 </r>
       <r>    5.5716    1.0000 </r>
       <r>    7.7020    1.0000 </r>
       <r>    7.7559    1.0000 </r>
       <r>    8.1245    1.0000 </r>
       <r>    8.7698    1.0000 </r>
       <r>    9.2837    1.0000 </r>
       <r>    9.6056    1.0000 </r>
       <r>   10.4346    1.0000 </r>
       <r>   10.5177    1.0000 </r>
       <r>   11.9479    1.0000 </r>
       <r>   13.4579    0.0000 </r>
       <r>   20.6674    0.0000 </r>
       <r>   27.6759    0.0000 </r>
       <r>   29.1794    0.0000 </r>
       <r>   29.5213    0.0000 </r>
       <r>   29.5491    0.0000 </r>
       <r>   31.3352    0.0000 </r>
      </set>
      <set comment="kpoint 36">
       <r>  -40.5672    1.0000 </r>
       <r>  -40.5335    1.0000 </r>
       <r>  -40.4096    1.0000 </r>
       <r>  -40.3803    1.0000 </r>
       <r>  -40.3382    1.0000 </r>
       <r>  -40.2088    1.0000 </r>
       <r>    4.6221    1.0000 </r>
       <r>    6.3256    1.0000 </r>
       <r>    6.9700    1.0000 </r>
       <r>    7.5911    1.0000 </r>
       <r>    7.9473    1.0000 </r>
       <r>    8.6898    1.0000 </r>
       <r>    9.5751    1.0000 </r>
       <r>   10.2023    1.0000 </r>
       <r>   10.9115    1.0000 </r>
       <r>   11.0037    1.0000 </r>
       <r>   11.9663    1.0000 </r>
       <r>   14.4498    0.0000 </r>
       <r>   21.2157    0.0000 </r>
       <r>   25.7359    0.0000 </r>
       <r>   27.2556    0.0000 </r>
       <r>   28.5583    0.0000 </r>
       <r>   29.6812    0.0000 </r>
       <r>   30.5615    0.0000 </r>
      </set>
      <set comment="kpoint 37">
       <r>  -40.6845    1.0000 </r>
       <r>  -40.6510    1.0000 </r>
       <r>  -40.4292    1.0000 </r>
       <r>  -40.3814    1.0000 </r>
       <r>  -40.3608    1.0000 </r>
       <r>  -40.2203    1.0000 </r>
       <r>    5.2894    1.0000 </r>
       <r>    6.0498    1.0000 </r>
       <r>    6.7378    1.0000 </r>
       <r>    7.3573    1.0000 </r>
       <r>    8.6451    1.0000 </r>
       <r>    9.3193    1.0000 </r>
       <r>    9.4943    1.0000 </r>
       <r>   10.8067    1.0000 </r>
       <r>   11.4315    1.0000 </r>
       <r>   12.1291    1.0000 </r>
       <r>   12.7540    0.0000 </r>
       <r>   15.5463    0.0000 </r>
       <r>   20.8484    0.0000 </r>
       <r>   23.2974    0.0000 </r>
       <r>   24.9490    0.0000 </r>
       <r>   26.7531    0.0000 </r>
       <r>   28.3926    0.0000 </r>
       <r>   29.8332    0.0000 </r>
      </set>
      <set comment="kpoint 38">
       <r>  -40.7600    1.0000 </r>
       <r>  -40.7212    1.0000 </r>
       <r>  -40.4572    1.0000 </r>
       <r>  -40.4000    1.0000 </r>
       <r>  -40.3299    1.0000 </r>
       <r>  -40.2359    1.0000 </r>
       <r>    5.2864    1.0000 </r>
       <r>    5.7275    1.0000 </r>
       <r>    6.8259    1.0000 </r>
       <r>    7.1194    1.0000 </r>
       <r>    8.6771    1.0000 </r>
       <r>    9.7929    1.0000 </r>
       <r>   10.4677    1.0000 </r>
       <r>   11.3940    1.0000 </r>
       <r>   11.9785    1.0000 </r>
       <r>   12.6186    0.0000 </r>
       <r>   14.2725    0.0000 </r>
       <r>   16.5489    0.0000 </r>
       <r>   19.1001    0.0000 </r>
       <r>   21.1640    0.0000 </r>
       <r>   24.0485    0.0000 </r>
       <r>   25.8782    0.0000 </r>
       <r>   26.9952    0.0000 </r>
       <r>   28.8148    0.0000 </r>
      </set>
      <set comment="kpoint 39">
       <r>  -40.6364    1.0000 </r>
       <r>  -40.6305    1.0000 </r>
       <r>  -40.4410    1.0000 </r>
       <r>  -40.4100    1.0000 </r>
       <r>  -40.3635    1.0000 </r>
       <r>  -40.2172    1.0000 </r>
       <r>    5.6396    1.0000 </r>
       <r>    6.4791    1.0000 </r>
       <r>    7.0325    1.0000 </r>
       <r>    7.2379    1.0000 </r>
       <r>    8.3047    1.0000 </r>
       <r>    8.3614    1.0000 </r>
       <r>    9.1853    1.0000 </r>
       <r>   10.4946    1.0000 </r>
       <r>   11.2539    1.0000 </r>
       <r>   12.1909    0.9996 </r>
       <r>   12.9099    0.0000 </r>
       <r>   15.6183    0.0000 </r>
       <r>   21.5352    0.0000 </r>
       <r>   24.0581    0.0000 </r>
       <r>   24.1859    0.0000 </r>
       <r>   27.6860    0.0000 </r>
       <r>   27.7587    0.0000 </r>
       <r>   30.3281    0.0000 </r>
      </set>
      <set comment="kpoint 40">
       <r>  -40.7031    1.0000 </r>
       <r>  -40.6786    1.0000 </r>
       <r>  -40.5048    1.0000 </r>
       <r>  -40.4602    1.0000 </r>
       <r>  -40.3269    1.0000 </r>
       <r>  -40.2336    1.0000 </r>
       <r>    5.9478    1.0000 </r>
       <r>    6.6500    1.0000 </r>
       <r>    6.6771    1.0000 </r>
       <r>    7.5184    1.0000 </r>
       <r>    8.2437    1.0000 </r>
       <r>    8.8969    1.0000 </r>
       <r>    9.3733    1.0000 </r>
       <r>   10.9136    1.0000 </r>
       <r>   11.2089    1.0000 </r>
       <r>   12.6385    0.0000 </r>
       <r>   14.7010    0.0000 </r>
       <r>   17.5362    0.0000 </r>
       <r>   19.5526    0.0000 </r>
       <r>   21.9434    0.0000 </r>
       <r>   23.6578    0.0000 </r>
       <r>   25.7617    0.0000 </r>
       <r>   26.9559    0.0000 </r>
       <r>   29.1322    0.0000 </r>
      </set>
      <set comment="kpoint 41">
       <r>  -40.7285    1.0000 </r>
       <r>  -40.6913    1.0000 </r>
       <r>  -40.5341    1.0000 </r>
       <r>  -40.4807    1.0000 </r>
       <r>  -40.3044    1.0000 </r>
       <r>  -40.2468    1.0000 </r>
       <r>    5.8597    1.0000 </r>
       <r>    6.5002    1.0000 </r>
       <r>    7.1214    1.0000 </r>
       <r>    7.3105    1.0000 </r>
       <r>    7.9652    1.0000 </r>
       <r>    9.3698    1.0000 </r>
       <r>    9.8157    1.0000 </r>
       <r>   10.9795    1.0000 </r>
       <r>   11.7017    1.0000 </r>
       <r>   12.3471    0.1442 </r>
       <r>   16.4652    0.0000 </r>
       <r>   16.8873    0.0000 </r>
       <r>   20.0336    0.0000 </r>
       <r>   20.7091    0.0000 </r>
       <r>   22.1364    0.0000 </r>
       <r>   26.3012    0.0000 </r>
       <r>   26.9510    0.0000 </r>
       <r>   27.6209    0.0000 </r>
      </set>
      <set comment="kpoint 42">
       <r>  -40.6784    1.0000 </r>
       <r>  -40.6574    1.0000 </r>
       <r>  -40.5901    1.0000 </r>
       <r>  -40.5466    1.0000 </r>
       <r>  -40.2911    1.0000 </r>
       <r>  -40.2552    1.0000 </r>
       <r>    6.4852    1.0000 </r>
       <r>    6.7494    1.0000 </r>
       <r>    7.2801    1.0000 </r>
       <r>    7.3695    1.0000 </r>
       <r>    8.1850    1.0000 </r>
       <r>    8.5016    1.0000 </r>
       <r>    9.4194    1.0000 </r>
       <r>   10.7624    1.0000 </r>
       <r>   11.5237    1.0000 </r>
       <r>   12.2208    0.9940 </r>
       <r>   16.6086    0.0000 </r>
       <r>   18.0714    0.0000 </r>
       <r>   19.8652    0.0000 </r>
       <r>   20.4163    0.0000 </r>
       <r>   23.0914    0.0000 </r>
       <r>   24.0668    0.0000 </r>
       <r>   27.4779    0.0000 </r>
       <r>   29.0829    0.0000 </r>
      </set>
      <set comment="kpoint 43">
       <r>  -40.4394    1.0000 </r>
       <r>  -40.2952    1.0000 </r>
       <r>  -40.2952    1.0000 </r>
       <r>  -40.2797    1.0000 </r>
       <r>  -40.2758    1.0000 </r>
       <r>  -40.2758    1.0000 </r>
       <r>    3.0923    1.0000 </r>
       <r>    4.2796    1.0000 </r>
       <r>    7.8175    1.0000 </r>
       <r>    8.4858    1.0000 </r>
       <r>    8.4858    1.0000 </r>
       <r>    8.5224    1.0000 </r>
       <r>    8.6598    1.0000 </r>
       <r>    8.6598    1.0000 </r>
       <r>   11.0799    1.0000 </r>
       <r>   11.0799    1.0000 </r>
       <r>   11.7473    1.0000 </r>
       <r>   11.7473    1.0000 </r>
       <r>   22.5351    0.0000 </r>
       <r>   25.8873    0.0000 </r>
       <r>   28.0053    0.0000 </r>
       <r>   28.4628    0.0000 </r>
       <r>   32.5289    0.0000 </r>
       <r>   32.5289    0.0000 </r>
      </set>
      <set comment="kpoint 44">
       <r>  -40.4395    1.0000 </r>
       <r>  -40.3385    1.0000 </r>
       <r>  -40.3300    1.0000 </r>
       <r>  -40.3066    1.0000 </r>
       <r>  -40.2862    1.0000 </r>
       <r>  -40.2613    1.0000 </r>
       <r>    3.4586    1.0000 </r>
       <r>    4.6581    1.0000 </r>
       <r>    7.7910    1.0000 </r>
       <r>    7.9653    1.0000 </r>
       <r>    8.2757    1.0000 </r>
       <r>    8.7267    1.0000 </r>
       <r>    8.7542    1.0000 </r>
       <r>    8.9303    1.0000 </r>
       <r>   10.9822    1.0000 </r>
       <r>   11.0426    1.0000 </r>
       <r>   11.7310    1.0000 </r>
       <r>   12.0514    1.0000 </r>
       <r>   22.6835    0.0000 </r>
       <r>   26.3387    0.0000 </r>
       <r>   28.5222    0.0000 </r>
       <r>   28.8710    0.0000 </r>
       <r>   31.2433    0.0000 </r>
       <r>   32.2769    0.0000 </r>
      </set>
      <set comment="kpoint 45">
       <r>  -40.4961    1.0000 </r>
       <r>  -40.4597    1.0000 </r>
       <r>  -40.3671    1.0000 </r>
       <r>  -40.3377    1.0000 </r>
       <r>  -40.3135    1.0000 </r>
       <r>  -40.2534    1.0000 </r>
       <r>    4.3644    1.0000 </r>
       <r>    5.5257    1.0000 </r>
       <r>    7.2503    1.0000 </r>
       <r>    7.6393    1.0000 </r>
       <r>    8.0132    1.0000 </r>
       <r>    8.5980    1.0000 </r>
       <r>    9.4312    1.0000 </r>
       <r>    9.6676    1.0000 </r>
       <r>   10.8495    1.0000 </r>
       <r>   11.0703    1.0000 </r>
       <r>   11.6877    1.0000 </r>
       <r>   12.6706    0.0000 </r>
       <r>   22.9892    0.0000 </r>
       <r>   27.0163    0.0000 </r>
       <r>   27.9606    0.0000 </r>
       <r>   28.8306    0.0000 </r>
       <r>   30.5469    0.0000 </r>
       <r>   31.3644    0.0000 </r>
      </set>
      <set comment="kpoint 46">
       <r>  -40.6277    1.0000 </r>
       <r>  -40.6039    1.0000 </r>
       <r>  -40.3755    1.0000 </r>
       <r>  -40.3472    1.0000 </r>
       <r>  -40.3456    1.0000 </r>
       <r>  -40.2485    1.0000 </r>
       <r>    5.0677    1.0000 </r>
       <r>    5.7808    1.0000 </r>
       <r>    6.8375    1.0000 </r>
       <r>    7.2529    1.0000 </r>
       <r>    8.7674    1.0000 </r>
       <r>    9.3039    1.0000 </r>
       <r>    9.8434    1.0000 </r>
       <r>   10.5759    1.0000 </r>
       <r>   11.2921    1.0000 </r>
       <r>   11.3482    1.0000 </r>
       <r>   11.7835    1.0000 </r>
       <r>   13.3251    0.0000 </r>
       <r>   22.6291    0.0000 </r>
       <r>   25.1235    0.0000 </r>
       <r>   26.0019    0.0000 </r>
       <r>   28.4381    0.0000 </r>
       <r>   29.5547    0.0000 </r>
       <r>   30.6118    0.0000 </r>
      </set>
      <set comment="kpoint 47">
       <r>  -40.7402    1.0000 </r>
       <r>  -40.7186    1.0000 </r>
       <r>  -40.4056    1.0000 </r>
       <r>  -40.3747    1.0000 </r>
       <r>  -40.3168    1.0000 </r>
       <r>  -40.2492    1.0000 </r>
       <r>    5.0916    1.0000 </r>
       <r>    5.4895    1.0000 </r>
       <r>    6.6775    1.0000 </r>
       <r>    6.8605    1.0000 </r>
       <r>    9.7723    1.0000 </r>
       <r>    9.9171    1.0000 </r>
       <r>   10.9551    1.0000 </r>
       <r>   11.2849    1.0000 </r>
       <r>   12.0609    1.0000 </r>
       <r>   12.2571    0.9314 </r>
       <r>   12.4035    0.0039 </r>
       <r>   14.1894    0.0000 </r>
       <r>   20.3649    0.0000 </r>
       <r>   21.8985    0.0000 </r>
       <r>   25.7322    0.0000 </r>
       <r>   27.5130    0.0000 </r>
       <r>   27.7502    0.0000 </r>
       <r>   30.5278    0.0000 </r>
      </set>
      <set comment="kpoint 48">
       <r>  -40.7833    1.0000 </r>
       <r>  -40.7611    1.0000 </r>
       <r>  -40.4172    1.0000 </r>
       <r>  -40.3855    1.0000 </r>
       <r>  -40.3028    1.0000 </r>
       <r>  -40.2523    1.0000 </r>
       <r>    5.0158    1.0000 </r>
       <r>    5.3491    1.0000 </r>
       <r>    6.6442    1.0000 </r>
       <r>    6.6896    1.0000 </r>
       <r>    9.7144    1.0000 </r>
       <r>   10.2569    1.0000 </r>
       <r>   10.9860    1.0000 </r>
       <r>   12.4250    0.0006 </r>
       <r>   12.7349    0.0000 </r>
       <r>   12.8109    0.0000 </r>
       <r>   12.9172    0.0000 </r>
       <r>   14.9970    0.0000 </r>
       <r>   19.2966    0.0000 </r>
       <r>   19.3695    0.0000 </r>
       <r>   26.1709    0.0000 </r>
       <r>   26.6569    0.0000 </r>
       <r>   26.9741    0.0000 </r>
       <r>   29.6989    0.0000 </r>
      </set>
      <set comment="kpoint 49">
       <r>  -40.4664    1.0000 </r>
       <r>  -40.4211    1.0000 </r>
       <r>  -40.3639    1.0000 </r>
       <r>  -40.3308    1.0000 </r>
       <r>  -40.3096    1.0000 </r>
       <r>  -40.2541    1.0000 </r>
       <r>    4.1151    1.0000 </r>
       <r>    5.3292    1.0000 </r>
       <r>    7.4114    1.0000 </r>
       <r>    7.7329    1.0000 </r>
       <r>    7.9430    1.0000 </r>
       <r>    8.5157    1.0000 </r>
       <r>    9.2769    1.0000 </r>
       <r>    9.4753    1.0000 </r>
       <r>   10.8818    1.0000 </r>
       <r>   11.0557    1.0000 </r>
       <r>   11.6631    1.0000 </r>
       <r>   12.5296    0.0000 </r>
       <r>   22.9388    0.0000 </r>
       <r>   26.9599    0.0000 </r>
       <r>   29.0641    0.0000 </r>
       <r>   29.1831    0.0000 </r>
       <r>   29.5802    0.0000 </r>
       <r>   30.3149    0.0000 </r>
      </set>
      <set comment="kpoint 50">
       <r>  -40.5674    1.0000 </r>
       <r>  -40.5462    1.0000 </r>
       <r>  -40.3760    1.0000 </r>
       <r>  -40.3619    1.0000 </r>
       <r>  -40.3398    1.0000 </r>
       <r>  -40.2474    1.0000 </r>
       <r>    5.0415    1.0000 </r>
       <r>    6.0764    1.0000 </r>
       <r>    6.9387    1.0000 </r>
       <r>    7.5292    1.0000 </r>
       <r>    7.8891    1.0000 </r>
       <r>    8.4342    1.0000 </r>
       <r>    9.7343    1.0000 </r>
       <r>   10.3106    1.0000 </r>
       <r>   11.2138    1.0000 </r>
       <r>   11.2839    1.0000 </r>
       <r>   11.7444    1.0000 </r>
       <r>   13.1867    0.0000 </r>
       <r>   23.1621    0.0000 </r>
       <r>   26.5097    0.0000 </r>
       <r>   26.7991    0.0000 </r>
       <r>   28.6206    0.0000 </r>
       <r>   28.7732    0.0000 </r>
       <r>   29.5339    0.0000 </r>
      </set>
      <set comment="kpoint 51">
       <r>  -40.6848    1.0000 </r>
       <r>  -40.6657    1.0000 </r>
       <r>  -40.4188    1.0000 </r>
       <r>  -40.3914    1.0000 </r>
       <r>  -40.3216    1.0000 </r>
       <r>  -40.2454    1.0000 </r>
       <r>    5.3887    1.0000 </r>
       <r>    5.9186    1.0000 </r>
       <r>    6.7520    1.0000 </r>
       <r>    7.2031    1.0000 </r>
       <r>    8.8821    1.0000 </r>
       <r>    9.3441    1.0000 </r>
       <r>    9.8131    1.0000 </r>
       <r>   10.6657    1.0000 </r>
       <r>   11.5065    1.0000 </r>
       <r>   12.3470    0.1449 </r>
       <r>   12.7212    0.0000 </r>
       <r>   14.1094    0.0000 </r>
       <r>   21.7171    0.0000 </r>
       <r>   23.6914    0.0000 </r>
       <r>   25.4716    0.0000 </r>
       <r>   27.2755    0.0000 </r>
       <r>   28.3422    0.0000 </r>
       <r>   28.6942    0.0000 </r>
      </set>
      <set comment="kpoint 52">
       <r>  -40.7586    1.0000 </r>
       <r>  -40.7374    1.0000 </r>
       <r>  -40.4457    1.0000 </r>
       <r>  -40.4145    1.0000 </r>
       <r>  -40.2988    1.0000 </r>
       <r>  -40.2488    1.0000 </r>
       <r>    5.2834    1.0000 </r>
       <r>    5.6852    1.0000 </r>
       <r>    6.7132    1.0000 </r>
       <r>    6.9339    1.0000 </r>
       <r>    9.0489    1.0000 </r>
       <r>   10.3231    1.0000 </r>
       <r>   10.5053    1.0000 </r>
       <r>   11.1150    1.0000 </r>
       <r>   12.0065    1.0000 </r>
       <r>   12.6108    0.0000 </r>
       <r>   14.2934    0.0000 </r>
       <r>   15.5816    0.0000 </r>
       <r>   19.3526    0.0000 </r>
       <r>   20.5073    0.0000 </r>
       <r>   25.3723    0.0000 </r>
       <r>   26.6849    0.0000 </r>
       <r>   27.3920    0.0000 </r>
       <r>   28.0222    0.0000 </r>
      </set>
      <set comment="kpoint 53">
       <r>  -40.6427    1.0000 </r>
       <r>  -40.6368    1.0000 </r>
       <r>  -40.4369    1.0000 </r>
       <r>  -40.4183    1.0000 </r>
       <r>  -40.3214    1.0000 </r>
       <r>  -40.2428    1.0000 </r>
       <r>    5.7978    1.0000 </r>
       <r>    6.2552    1.0000 </r>
       <r>    7.1999    1.0000 </r>
       <r>    7.3922    1.0000 </r>
       <r>    8.1334    1.0000 </r>
       <r>    8.1397    1.0000 </r>
       <r>    9.3931    1.0000 </r>
       <r>   10.4572    1.0000 </r>
       <r>   11.4949    1.0000 </r>
       <r>   12.4008    0.0050 </r>
       <r>   12.9439    0.0000 </r>
       <r>   14.2029    0.0000 </r>
       <r>   22.7542    0.0000 </r>
       <r>   24.4636    0.0000 </r>
       <r>   25.4651    0.0000 </r>
       <r>   26.6613    0.0000 </r>
       <r>   27.3954    0.0000 </r>
       <r>   28.9323    0.0000 </r>
      </set>
      <set comment="kpoint 54">
       <r>  -40.7038    1.0000 </r>
       <r>  -40.6907    1.0000 </r>
       <r>  -40.4990    1.0000 </r>
       <r>  -40.4741    1.0000 </r>
       <r>  -40.2945    1.0000 </r>
       <r>  -40.2449    1.0000 </r>
       <r>    5.9374    1.0000 </r>
       <r>    6.3461    1.0000 </r>
       <r>    6.9316    1.0000 </r>
       <r>    7.5707    1.0000 </r>
       <r>    8.2619    1.0000 </r>
       <r>    8.8904    1.0000 </r>
       <r>    9.5661    1.0000 </r>
       <r>   10.3247    1.0000 </r>
       <r>   11.7370    1.0000 </r>
       <r>   12.6970    0.0000 </r>
       <r>   14.9020    0.0000 </r>
       <r>   16.2464    0.0000 </r>
       <r>   20.3389    0.0000 </r>
       <r>   22.0362    0.0000 </r>
       <r>   23.9379    0.0000 </r>
       <r>   25.5487    0.0000 </r>
       <r>   27.1230    0.0000 </r>
       <r>   28.9023    0.0000 </r>
      </set>
      <set comment="kpoint 55">
       <r>  -40.7265    1.0000 </r>
       <r>  -40.7070    1.0000 </r>
       <r>  -40.5264    1.0000 </r>
       <r>  -40.4962    1.0000 </r>
       <r>  -40.2803    1.0000 </r>
       <r>  -40.2492    1.0000 </r>
       <r>    5.8719    1.0000 </r>
       <r>    6.4081    1.0000 </r>
       <r>    6.9108    1.0000 </r>
       <r>    7.4878    1.0000 </r>
       <r>    8.0826    1.0000 </r>
       <r>    9.2953    1.0000 </r>
       <r>   10.1167    1.0000 </r>
       <r>   10.4871    1.0000 </r>
       <r>   11.9266    1.0000 </r>
       <r>   12.3970    0.0067 </r>
       <r>   16.8183    0.0000 </r>
       <r>   17.0245    0.0000 </r>
       <r>   19.4526    0.0000 </r>
       <r>   19.8661    0.0000 </r>
       <r>   22.9389    0.0000 </r>
       <r>   25.2360    0.0000 </r>
       <r>   28.0441    0.0000 </r>
       <r>   28.2161    0.0000 </r>
      </set>
      <set comment="kpoint 56">
       <r>  -40.6764    1.0000 </r>
       <r>  -40.6682    1.0000 </r>
       <r>  -40.5878    1.0000 </r>
       <r>  -40.5617    1.0000 </r>
       <r>  -40.2710    1.0000 </r>
       <r>  -40.2519    1.0000 </r>
       <r>    6.5284    1.0000 </r>
       <r>    6.6241    1.0000 </r>
       <r>    7.3873    1.0000 </r>
       <r>    7.4301    1.0000 </r>
       <r>    8.1109    1.0000 </r>
       <r>    8.4905    1.0000 </r>
       <r>    9.4873    1.0000 </r>
[...]
       </set>
       <set comment="band 12">
        <r>  0.0000  0.0000  0.0000  0.0000  0.0000  0.0448  0.0000  0.0415  0.0000 </r>
        <r>  0.0210  0.0149  0.0000  0.0056  0.1100  0.0000  0.4219  0.0000  0.0822 </r>
       </set>
       <set comment="band 13">
        <r>  0.0045  0.0012  0.0000  0.0005  0.0673  0.0000  0.0011  0.0000  0.0497 </r>
        <r>  0.0000  0.0000  0.0003  0.0000  0.0000  0.2083  0.0000  0.5122  0.0000 </r>
       </set>
       <set comment="band 14">
        <r>  0.0000  0.0000  0.0003  0.0000  0.0000  0.2083  0.0000  0.5122  0.0000 </r>
        <r>  0.0045  0.0012  0.0000  0.0005  0.0673  0.0000  0.0011  0.0000  0.0497 </r>
       </set>
       <set comment="band 15">
        <r>  0.0066  0.0002  0.0000  0.0001  0.1640  0.0000  0.3544  0.0000  0.0591 </r>
        <r>  0.0000  0.0000  0.0028  0.0000  0.0000  0.2002  0.0000  0.1445  0.0000 </r>
       </set>
       <set comment="band 16">
        <r>  0.0000  0.0000  0.0028  0.0000  0.0000  0.2002  0.0000  0.1445  0.0000 </r>
        <r>  0.0066  0.0002  0.0000  0.0001  0.1640  0.0000  0.3544  0.0000  0.0591 </r>
       </set>
       <set comment="band 17">
        <r>  0.0000  0.0000  0.0127  0.0000  0.0000  0.1223  0.0000  0.0452  0.0000 </r>
        <r>  0.0878  0.0254  0.0000  0.0086  0.3207  0.0000  0.0054  0.0000  0.1147 </r>
       </set>
       <set comment="band 18">
        <r>  0.0878  0.0254  0.0000  0.0086  0.3207  0.0000  0.0054  0.0000  0.1147 </r>
        <r>  0.0000  0.0000  0.0127  0.0000  0.0000  0.1223  0.0000  0.0452  0.0000 </r>
       </set>
       <set comment="band 19">
        <r>  0.2683  0.0520  0.0000  0.0183  0.0110  0.0000  0.0082  0.0000  0.0043 </r>
        <r>  0.0000  0.0000  0.0369  0.0000  0.0000  0.0216  0.0000  0.0509  0.0000 </r>
       </set>
       <set comment="band 20">
        <r>  0.0000  0.0000  0.0369  0.0000  0.0000  0.0216  0.0000  0.0509  0.0000 </r>
        <r>  0.2683  0.0520  0.0000  0.0183  0.0110  0.0000  0.0082  0.0000  0.0043 </r>
       </set>
       <set comment="band 21">
        <r>  0.0007  0.0473  0.0000  0.0690  0.0334  0.0000  0.0514  0.0000  0.0999 </r>
        <r>  0.0000  0.0000  0.0875  0.0000  0.0000  0.0090  0.0000  0.0182  0.0000 </r>
       </set>
       <set comment="band 22">
        <r>  0.0000  0.0000  0.0875  0.0000  0.0000  0.0090  0.0000  0.0182  0.0000 </r>
        <r>  0.0007  0.0473  0.0000  0.0690  0.0334  0.0000  0.0514  0.0000  0.0999 </r>
       </set>
       <set comment="band 23">
        <r>  0.0000  0.0000  0.0327  0.0000  0.0000  0.0743  0.0000  0.0293  0.0000 </r>
        <r>  0.0000  0.0497  0.0000  0.0374  0.0183  0.0000  0.0555  0.0000  0.0542 </r>
       </set>
       <set comment="band 24">
        <r>  0.0000  0.0497  0.0000  0.0374  0.0183  0.0000  0.0555  0.0000  0.0542 </r>
        <r>  0.0000  0.0000  0.0327  0.0000  0.0000  0.0743  0.0000  0.0293  0.0000 </r>
       </set>
      </set>
      <set comment="kpoint 68">
       <set comment="band 1">
        <r>  0.0000  0.0000  0.0513  0.0000  0.0000  0.0000  0.0000  0.0000  0.0000 </r>
        <r>  0.0000  0.4815  0.0000  0.4510  0.0000  0.0000  0.0000  0.0000  0.0000 </r>
       </set>
       <set comment="band 2">
        <r>  0.0000  0.4815  0.0000  0.4510  0.0000  0.0000  0.0000  0.0000  0.0000 </r>
        <r>  0.0000  0.0000  0.0513  0.0000  0.0000  0.0000  0.0000  0.0000  0.0000 </r>
       </set>
       <set comment="band 3">
        <r>  0.0000  0.0000  0.0381  0.0000  0.0000  0.0000  0.0000  0.0000  0.0000 </r>
        <r>  0.0000  0.4605  0.0000  0.4920  0.0000  0.0000  0.0000  0.0000  0.0001 </r>
       </set>
       <set comment="band 4">
        <r>  0.0000  0.4605  0.0000  0.4920  0.0000  0.0000  0.0000  0.0000  0.0001 </r>
        <r>  0.0000  0.0000  0.0381  0.0000  0.0000  0.0000  0.0000  0.0000  0.0000 </r>
       </set>
       <set comment="band 5">
        <r>  0.0000  0.0459  0.0000  0.0452  0.0000  0.0000  0.0000  0.0000  0.0000 </r>
        <r>  0.0000  0.0000  0.9016  0.0000  0.0000  0.0000  0.0000  0.0000  0.0000 </r>
       </set>
       <set comment="band 6">
        <r>  0.0000  0.0000  0.9016  0.0000  0.0000  0.0000  0.0000  0.0000  0.0000 </r>
        <r>  0.0000  0.0459  0.0000  0.0452  0.0000  0.0000  0.0000  0.0000  0.0000 </r>
       </set>
       <set comment="band 7">
        <r>  0.0670  0.0062  0.0000  0.0022  0.0920  0.0000  0.0592  0.0000  0.0387 </r>
        <r>  0.0000  0.0000  0.0027  0.0000  0.0000  0.1976  0.0000  0.1816  0.0000 </r>
       </set>
       <set comment="band 8">
        <r>  0.0000  0.0000  0.0027  0.0000  0.0000  0.1976  0.0000  0.1816  0.0000 </r>
        <r>  0.0670  0.0062  0.0000  0.0022  0.0920  0.0000  0.0592  0.0000  0.0387 </r>
       </set>
       <set comment="band 9">
        <r>  0.0000  0.0000  0.0031  0.0000  0.0000  0.0693  0.0000  0.0323  0.0000 </r>
        <r>  0.0085  0.0081  0.0000  0.0052  0.2708  0.0000  0.1281  0.0000  0.2129 </r>
       </set>
       <set comment="band 10">
        <r>  0.0085  0.0081  0.0000  0.0052  0.2708  0.0000  0.1281  0.0000  0.2129 </r>
        <r>  0.0000  0.0000  0.0031  0.0000  0.0000  0.0693  0.0000  0.0323  0.0000 </r>
       </set>
       <set comment="band 11">
        <r>  0.0170  0.0123  0.0000  0.0222  0.0588  0.0000  0.1410  0.0000  0.1663 </r>
        <r>  0.0000  0.0000  0.0048  0.0000  0.0000  0.0994  0.0000  0.1583  0.0000 </r>
       </set>
       <set comment="band 12">
        <r>  0.0000  0.0000  0.0048  0.0000  0.0000  0.0994  0.0000  0.1583  0.0000 </r>
        <r>  0.0170  0.0123  0.0000  0.0222  0.0588  0.0000  0.1410  0.0000  0.1663 </r>
       </set>
       <set comment="band 13">
        <r>  0.0152  0.0019  0.0000  0.0050  0.0759  0.0000  0.0382  0.0000  0.2163 </r>
        <r>  0.0000  0.0000  0.0004  0.0000  0.0000  0.2129  0.0000  0.2625  0.0000 </r>
       </set>
       <set comment="band 14">
        <r>  0.0000  0.0000  0.0004  0.0000  0.0000  0.2129  0.0000  0.2625  0.0000 </r>
        <r>  0.0152  0.0019  0.0000  0.0050  0.0759  0.0000  0.0382  0.0000  0.2163 </r>
       </set>
       <set comment="band 15">
        <r>  0.0041  0.0019  0.0000  0.0006  0.0885  0.0000  0.4839  0.0000  0.0373 </r>
        <r>  0.0000  0.0000  0.0025  0.0000  0.0000  0.1797  0.0000  0.1289  0.0000 </r>
       </set>
       <set comment="band 16">
        <r>  0.0000  0.0000  0.0025  0.0000  0.0000  0.1797  0.0000  0.1289  0.0000 </r>
        <r>  0.0041  0.0019  0.0000  0.0006  0.0885  0.0000  0.4839  0.0000  0.0373 </r>
       </set>
       <set comment="band 17">
        <r>  0.0000  0.0000  0.0208  0.0000  0.0000  0.0604  0.0000  0.0210  0.0000 </r>
        <r>  0.0970  0.0350  0.0000  0.0246  0.2741  0.0000  0.0067  0.0000  0.1305 </r>
       </set>
       <set comment="band 18">
        <r>  0.0970  0.0350  0.0000  0.0246  0.2741  0.0000  0.0067  0.0000  0.1305 </r>
        <r>  0.0000  0.0000  0.0208  0.0000  0.0000  0.0604  0.0000  0.0210  0.0000 </r>
       </set>
       <set comment="band 19">
        <r>  0.3116  0.0258  0.0000  0.0415  0.0190  0.0000  0.0250  0.0000  0.0287 </r>
        <r>  0.0000  0.0000  0.0147  0.0000  0.0000  0.0151  0.0000  0.0895  0.0000 </r>
       </set>
       <set comment="band 20">
        <r>  0.0000  0.0000  0.0147  0.0000  0.0000  0.0151  0.0000  0.0895  0.0000 </r>
        <r>  0.3116  0.0258  0.0000  0.0415  0.0190  0.0000  0.0250  0.0000  0.0287 </r>
       </set>
       <set comment="band 21">
        <r>  0.0000  0.0001  0.0482  0.0001  0.0001  0.0466  0.0000  0.0153  0.0001 </r>
        <r>  0.0237  0.0793  0.0001  0.0558  0.0513  0.0001  0.0070  0.0000  0.1097 </r>
       </set>
       <set comment="band 22">
        <r>  0.0237  0.0793  0.0001  0.0558  0.0513  0.0001  0.0070  0.0000  0.1097 </r>
        <r>  0.0000  0.0001  0.0482  0.0001  0.0001  0.0466  0.0000  0.0153  0.0001 </r>
       </set>
       <set comment="band 23">
        <r>  0.0000  0.0000  0.0850  0.0000  0.0000  0.0450  0.0000  0.0279  0.0000 </r>
        <r>  0.0053  0.0353  0.0000  0.0277  0.0121  0.0000  0.0228  0.0000  0.0183 </r>
       </set>
       <set comment="band 24">
        <r>  0.0053  0.0353  0.0000  0.0277  0.0121  0.0000  0.0228  0.0000  0.0183 </r>
        <r>  0.0000  0.0000  0.0850  0.0000  0.0000  0.0450  0.0000  0.0279  0.0000 </r>
       </set>
      </set>
      <set comment="kpoint 69">
       <set comment="band 1">
        <r>  0.0000  0.0000  0.0477  0.0000  0.0000  0.0000  0.0000  0.0000  0.0000 </r>
        <r>  0.0000  0.2354  0.0000  0.7002  0.0000  0.0000  0.0000  0.0000  0.0000 </r>
       </set>
       <set comment="band 2">
        <r>  0.0000  0.2354  0.0000  0.7002  0.0000  0.0000  0.0000  0.0000  0.0000 </r>
        <r>  0.0000  0.0000  0.0477  0.0000  0.0000  0.0000  0.0000  0.0000  0.0000 </r>
       </set>
       <set comment="band 3">
        <r>  0.0000  0.0000  0.0356  0.0000  0.0000  0.0000  0.0000  0.0000  0.0000 </r>
        <r>  0.0000  0.7109  0.0000  0.2434  0.0001  0.0000  0.0000  0.0000  0.0000 </r>
       </set>
       <set comment="band 4">
        <r>  0.0000  0.7109  0.0000  0.2434  0.0001  0.0000  0.0000  0.0000  0.0000 </r>
        <r>  0.0000  0.0000  0.0356  0.0000  0.0000  0.0000  0.0000  0.0000  0.0000 </r>
       </set>
       <set comment="band 5">
        <r>  0.0000  0.0426  0.0000  0.0424  0.0000  0.0000  0.0000  0.0000  0.0000 </r>
        <r>  0.0000  0.0000  0.9079  0.0000  0.0000  0.0000  0.0000  0.0000  0.0000 </r>
       </set>
       <set comment="band 6">
        <r>  0.0000  0.0000  0.9079  0.0000  0.0000  0.0000  0.0000  0.0000  0.0000 </r>
        <r>  0.0000  0.0426  0.0000  0.0424  0.0000  0.0000  0.0000  0.0000  0.0000 </r>
       </set>
       <set comment="band 7">
        <r>  0.0591  0.0054  0.0000  0.0029  0.1310  0.0000  0.0509  0.0001  0.0450 </r>
        <r>  0.0000  0.0000  0.0009  0.0000  0.0000  0.0937  0.0000  0.2719  0.0000 </r>
       </set>
       <set comment="band 8">
        <r>  0.0000  0.0000  0.0009  0.0000  0.0000  0.0937  0.0000  0.2719  0.0000 </r>
        <r>  0.0591  0.0054  0.0000  0.0029  0.1310  0.0000  0.0509  0.0001  0.0450 </r>
       </set>
       <set comment="band 9">
        <r>  0.0000  0.0000  0.0009  0.0000  0.0000  0.0704  0.0000  0.0786  0.0000 </r>
        <r>  0.0001  0.0088  0.0000  0.0033  0.3026  0.0000  0.1835  0.0000  0.1021 </r>
       </set>
       <set comment="band 10">
        <r>  0.0001  0.0088  0.0000  0.0033  0.3026  0.0000  0.1835  0.0000  0.1021 </r>
        <r>  0.0000  0.0000  0.0009  0.0000  0.0000  0.0704  0.0000  0.0786  0.0000 </r>
       </set>
       <set comment="band 11">
        <r>  0.0113  0.0064  0.0000  0.0191  0.0596  0.0000  0.0184  0.0000  0.0911 </r>
        <r>  0.0000  0.0000  0.0054  0.0000  0.0000  0.3331  0.0000  0.1528  0.0000 </r>
       </set>
       <set comment="band 12">
        <r>  0.0000  0.0000  0.0054  0.0000  0.0000  0.3331  0.0000  0.1528  0.0000 </r>
        <r>  0.0113  0.0064  0.0000  0.0191  0.0596  0.0000  0.0184  0.0000  0.0911 </r>
       </set>
       <set comment="band 13">
        <r>  0.0000  0.0000  0.0026  0.0000  0.0000  0.1519  0.0000  0.0758  0.0000 </r>
        <r>  0.0003  0.0068  0.0000  0.0198  0.1401  0.0000  0.0073  0.0000  0.3876 </r>
       </set>
       <set comment="band 14">
        <r>  0.0003  0.0068  0.0000  0.0198  0.1401  0.0000  0.0073  0.0000  0.3876 </r>
        <r>  0.0000  0.0000  0.0026  0.0000  0.0000  0.1519  0.0000  0.0758  0.0000 </r>
       </set>
       <set comment="band 15">
        <r>  0.0000  0.0007  0.0000  0.0002  0.0321  0.0000  0.5981  0.0000  0.0258 </r>
        <r>  0.0000  0.0000  0.0009  0.0000  0.0000  0.1207  0.0000  0.1558  0.0000 </r>
       </set>
       <set comment="band 16">
        <r>  0.0000  0.0000  0.0009  0.0000  0.0000  0.1207  0.0000  0.1558  0.0000 </r>
        <r>  0.0000  0.0007  0.0000  0.0002  0.0321  0.0000  0.5981  0.0000  0.0258 </r>
       </set>
       <set comment="band 17">
        <r>  0.0000  0.0000  0.0378  0.0000  0.0000  0.0234  0.0000  0.0125  0.0000 </r>
        <r>  0.0292  0.0266  0.0000  0.0758  0.0963  0.0000  0.0153  0.0000  0.2173 </r>
       </set>
       <set comment="band 18">
        <r>  0.0292  0.0266  0.0000  0.0758  0.0963  0.0000  0.0153  0.0000  0.2173 </r>
        <r>  0.0000  0.0000  0.0378  0.0000  0.0000  0.0234  0.0000  0.0125  0.0000 </r>
       </set>
       <set comment="band 19">
        <r>  0.4078  0.0056  0.0000  0.0151  0.0707  0.0000  0.0205  0.0000  0.0403 </r>
        <r>  0.0000  0.0000  0.0003  0.0000  0.0000  0.0472  0.0000  0.1040  0.0000 </r>
       </set>
       <set comment="band 20">
        <r>  0.0000  0.0000  0.0003  0.0000  0.0000  0.0472  0.0000  0.1040  0.0000 </r>
        <r>  0.4078  0.0056  0.0000  0.0151  0.0707  0.0000  0.0205  0.0000  0.0403 </r>
       </set>
       <set comment="band 21">
        <r>  0.0372  0.1049  0.0000  0.0405  0.0996  0.0000  0.0011  0.0000  0.0365 </r>
        <r>  0.0000  0.0000  0.0342  0.0000  0.0000  0.0543  0.0000  0.0220  0.0000 </r>
       </set>
       <set comment="band 22">
        <r>  0.0000  0.0000  0.0342  0.0000  0.0000  0.0543  0.0000  0.0220  0.0000 </r>
        <r>  0.0372  0.1049  0.0000  0.0405  0.0996  0.0000  0.0011  0.0000  0.0365 </r>
       </set>
       <set comment="band 23">
        <r>  0.0000  0.0000  0.0945  0.0000  0.0000  0.0259  0.0000  0.0305  0.0000 </r>
        <r>  0.0067  0.0179  0.0000  0.0435  0.0175  0.0000  0.0068  0.0000  0.0173 </r>
       </set>
       <set comment="band 24">
        <r>  0.0067  0.0179  0.0000  0.0435  0.0175  0.0000  0.0068  0.0000  0.0173 </r>
        <r>  0.0000  0.0000  0.0945  0.0000  0.0000  0.0259  0.0000  0.0305  0.0000 </r>
       </set>
      </set>
      <set comment="kpoint 70">
       <set comment="band 1">
        <r>  0.0000  0.0000  0.0564  0.0000  0.0000  0.0000  0.0000  0.0000  0.0000 </r>
        <r>  0.0000  0.6847  0.0000  0.2435  0.0001  0.0000  0.0000  0.0000  0.0000 </r>
       </set>
       <set comment="band 2">
        <r>  0.0000  0.6847  0.0000  0.2435  0.0001  0.0000  0.0000  0.0000  0.0000 </r>
        <r>  0.0000  0.0000  0.0564  0.0000  0.0000  0.0000  0.0000  0.0000  0.0000 </r>
       </set>
       <set comment="band 3">
        <r>  0.0000  0.0000  0.0279  0.0000  0.0000  0.0000  0.0000  0.0000  0.0000 </r>
        <r>  0.0000  0.2590  0.0000  0.7010  0.0000  0.0000  0.0000  0.0000  0.0001 </r>
       </set>
       <set comment="band 4">
        <r>  0.0000  0.2590  0.0000  0.7010  0.0000  0.0000  0.0000  0.0000  0.0001 </r>
        <r>  0.0000  0.0000  0.0279  0.0000  0.0000  0.0000  0.0000  0.0000  0.0000 </r>
       </set>
       <set comment="band 5">
        <r>  0.0000  0.0428  0.0000  0.0433  0.0000  0.0000  0.0000  0.0000  0.0000 </r>
        <r>  0.0000  0.0000  0.9069  0.0000  0.0000  0.0000  0.0000  0.0000  0.0000 </r>
       </set>
       <set comment="band 6">
        <r>  0.0000  0.0000  0.9069  0.0000  0.0000  0.0000  0.0000  0.0000  0.0000 </r>
        <r>  0.0000  0.0428  0.0000  0.0433  0.0000  0.0000  0.0000  0.0000  0.0000 </r>
       </set>
       <set comment="band 7">
        <r>  0.0480  0.0024  0.0000  0.0025  0.0157  0.0000  0.1478  0.0000  0.0213 </r>
        <r>  0.0000  0.0000  0.0003  0.0000  0.0000  0.3189  0.0000  0.1376  0.0000 </r>
       </set>
       <set comment="band 8">
        <r>  0.0000  0.0000  0.0003  0.0000  0.0000  0.3189  0.0000  0.1376  0.0000 </r>
        <r>  0.0480  0.0024  0.0000  0.0025  0.0157  0.0000  0.1478  0.0000  0.0213 </r>
       </set>
       <set comment="band 9">
        <r>  0.0000  0.0000  0.0008  0.0000  0.0000  0.0751  0.0000  0.2005  0.0000 </r>
        <r>  0.0049  0.0081  0.0000  0.0167  0.0895  0.0000  0.0492  0.0000  0.2404 </r>
       </set>
       <set comment="band 10">
        <r>  0.0049  0.0081  0.0000  0.0167  0.0895  0.0000  0.0492  0.0000  0.2404 </r>
        <r>  0.0000  0.0000  0.0008  0.0000  0.0000  0.0751  0.0000  0.2005  0.0000 </r>
       </set>
       <set comment="band 11">
        <r>  0.0022  0.0236  0.0000  0.0125  0.2596  0.0000  0.0285  0.0000  0.2391 </r>
        <r>  0.0000  0.0000  0.0068  0.0000  0.0000  0.0398  0.0000  0.0735  0.0000 </r>
       </set>
       <set comment="band 12">
        <r>  0.0000  0.0000  0.0068  0.0000  0.0000  0.0398  0.0000  0.0735  0.0000 </r>
        <r>  0.0022  0.0236  0.0000  0.0125  0.2596  0.0000  0.0285  0.0000  0.2391 </r>
       </set>
       <set comment="band 13">
        <r>  0.0000  0.0000  0.0002  0.0000  0.0000  0.1541  0.0000  0.2164  0.0000 </r>
        <r>  0.0057  0.0060  0.0000  0.0024  0.2652  0.0000  0.0135  0.0000  0.1670 </r>
       </set>
       <set comment="band 14">
        <r>  0.0057  0.0060  0.0000  0.0024  0.2652  0.0000  0.0135  0.0000  0.1670 </r>
        <r>  0.0000  0.0000  0.0002  0.0000  0.0000  0.1541  0.0000  0.2164  0.0000 </r>
       </set>
       <set comment="band 15">
        <r>  0.0008  0.0007  0.0000  0.0003  0.0218  0.0000  0.6332  0.0000  0.0084 </r>
        <r>  0.0000  0.0000  0.0004  0.0000  0.0000  0.1470  0.0000  0.1215  0.0000 </r>
       </set>
       <set comment="band 16">
        <r>  0.0000  0.0000  0.0004  0.0000  0.0000  0.1470  0.0000  0.1215  0.0000 </r>
        <r>  0.0008  0.0007  0.0000  0.0003  0.0218  0.0000  0.6332  0.0000  0.0084 </r>
       </set>
       <set comment="band 17">
        <r>  0.0000  0.0000  0.0358  0.0000  0.0000  0.0492  0.0000  0.0179  0.0000 </r>
        <r>  0.1389  0.0496  0.0000  0.0199  0.1977  0.0000  0.0072  0.0000  0.0808 </r>
       </set>
       <set comment="band 18">
        <r>  0.1389  0.0496  0.0000  0.0199  0.1977  0.0000  0.0072  0.0000  0.0808 </r>
        <r>  0.0000  0.0000  0.0358  0.0000  0.0000  0.0492  0.0000  0.0179  0.0000 </r>
       </set>
       <set comment="band 19">
        <r>  0.3505  0.0331  0.0000  0.0147  0.0210  0.0000  0.0141  0.0000  0.0161 </r>
        <r>  0.0000  0.0000  0.0173  0.0000  0.0000  0.0511  0.0000  0.0727  0.0000 </r>
       </set>
       <set comment="band 20">
        <r>  0.0000  0.0000  0.0173  0.0000  0.0000  0.0511  0.0000  0.0727  0.0000 </r>
        <r>  0.3505  0.0331  0.0000  0.0147  0.0210  0.0000  0.0141  0.0000  0.0161 </r>
       </set>
       <set comment="band 21">
        <r>  0.0006  0.0494  0.0000  0.0954  0.0734  0.0000  0.0014  0.0000  0.1674 </r>
        <r>  0.0000  0.0000  0.0194  0.0000  0.0000  0.0447  0.0000  0.0495  0.0000 </r>
       </set>
       <set comment="band 22">
        <r>  0.0000  0.0000  0.0194  0.0000  0.0000  0.0447  0.0000  0.0495  0.0000 </r>
        <r>  0.0006  0.0494  0.0000  0.0954  0.0734  0.0000  0.0014  0.0000  0.1674 </r>
       </set>
       <set comment="band 23">
        <r>  0.0000  0.0000  0.1210  0.0000  0.0000  0.0253  0.0000  0.0198  0.0000 </r>
        <r>  0.0019  0.0511  0.0000  0.0241  0.0248  0.0000  0.0034  0.0000  0.0196 </r>
       </set>
       <set comment="band 24">
        <r>  0.0019  0.0511  0.0000  0.0241  0.0248  0.0000  0.0034  0.0000  0.0196 </r>
        <r>  0.0000  0.0000  0.1210  0.0000  0.0000  0.0253  0.0000  0.0198  0.0000 </r>
       </set>
      </set>
     </set>
    </set>
   </array>
  </projected>
 </calculation>
 <structure name="finalpos" >
  <crystal>
   <varray name="basis" >
    <v>       2.70630256       0.00000000       0.00000000 </v>
    <v>      -1.35315128       2.34372677       0.00000000 </v>
    <v>       0.00000000       0.00000000       4.68860612 </v>
   </varray>
   <i name="volume">     29.73904916 </i>
   <varray name="rec_basis" >
    <v>       0.36950783       0.21333545       0.00000000 </v>
    <v>       0.00000000       0.42667090       0.00000000 </v>
    <v>       0.00000000       0.00000000       0.21328300 </v>
   </varray>
  </crystal>
  <varray name="positions" >
   <v>       0.00000000       0.00000000       0.00000000 </v>
   <v>       0.33333333       0.66666667       0.50000000 </v>
  </varray>
 </structure>
</modeling>
