<?xml version="1.0" encoding="ISO-8859-1"?>
<modeling>
 <generator>
  <i name="program" type="string">vasp </i>
  <i name="version" type="string">6.3.2  </i>
  <i name="subversion" type="string">27Jun22 (build Aug 12 2022 00:53:59) complex                          parallel </i>
  <i name="platform" type="string">tv2STD </i>
  <i name="date" type="string">2024 12 03 </i>
  <i name="time" type="string">02:18:59 </i>
 </generator>
 <incar>
  <i type="string" name="SYSTEM">Pt-hcc</i>
  <i type="int" name="ISTART">     0</i>
  <i type="string" name="PREC">Accurate      normal | accurate</i>
  <i type="string" name="ALGO">Normal     Normal, Fast, Very_Fast</i>
  <i type="logical" name="ADDGRID"> F  </i>
  <i type="int" name="ICHARG">     2</i>
  <i type="int" name="INIWAV">     1</i>
  <i type="int" name="NELM">   100</i>
  <i type="int" name="IBRION">     2</i>
  <i name="EDIFF">      0.00000100</i>
  <i name="EDIFFG">     -0.02000000</i>
  <i type="int" name="NSW">   100</i>
  <i type="int" name="ISIF">     2</i>
  <i type="int" name="ISYM">     1</i>
  <i name="ENCUT">    450.00000000</i>
  <i type="logical" name="LREAL"> F  </i>
  <i type="int" name="ISMEAR">     0</i>
  <i name="SIGMA">      0.05000000</i>
  <i type="int" name="NWRITE">     2</i>
  <i type="logical" name="LWAVE"> T  </i>
  <i type="logical" name="LCHARG"> T  </i>
  <i type="int" name="LORBIT">    11</i>
 </incar>
 <primitive_cell>
  <structure name="primitive_cell" >
   <crystal>
    <varray name="basis" >
     <v>       2.61532352       0.00000000       0.00000000 </v>
     <v>      -1.30766176       2.26493660       0.00000000 </v>
     <v>       0.00000000       0.00000000       4.53098704 </v>
    </varray>
    <i name="volume">     26.83949187 </i>
    <varray name="rec_basis" >
     <v>       0.38236187       0.22075673       0.00000000 </v>
     <v>       0.00000000       0.44151346       0.00000000 </v>
     <v>       0.00000000       0.00000000       0.22070246 </v>
    </varray>
   </crystal>
   <varray name="positions" >
    <v>       0.00000000       0.00000000       0.00000000 </v>
    <v>       0.33333333       0.66666667       0.50000000 </v>
   </varray>
  </structure>
  <varray name="primitive_index" >
   <v type="int" >        1 </v>
   <v type="int" >        2 </v>
  </varray>
 </primitive_cell>
 <kpoints>
  <generation param="Gamma">
   <v type="int" name="divisions">      10       10        8 </v>
   <v name="usershift">      0.00000000       0.00000000       0.00000000 </v>
   <v name="genvec1">      0.10000000       0.00000000       0.00000000 </v>
   <v name="genvec2">      0.00000000       0.10000000       0.00000000 </v>
   <v name="genvec3">      0.00000000       0.00000000       0.12500000 </v>
   <v name="shift">      0.00000000       0.00000000       0.00000000 </v>
  </generation>
  <varray name="kpointlist" >
   <v>       0.00000000       0.00000000       0.00000000 </v>
   <v>       0.10000000      -0.00000000       0.00000000 </v>
   <v>       0.20000000      -0.00000000       0.00000000 </v>
   <v>       0.30000000      -0.00000000       0.00000000 </v>
   <v>       0.40000000      -0.00000000       0.00000000 </v>
   <v>       0.50000000      -0.00000000       0.00000000 </v>
   <v>       0.10000000       0.10000000       0.00000000 </v>
   <v>       0.20000000       0.10000000       0.00000000 </v>
   <v>       0.30000000       0.10000000       0.00000000 </v>
   <v>       0.40000000       0.10000000       0.00000000 </v>
   <v>       0.20000000       0.20000000       0.00000000 </v>
   <v>       0.30000000       0.20000000       0.00000000 </v>
   <v>       0.40000000       0.20000000       0.00000000 </v>
   <v>       0.30000000       0.30000000       0.00000000 </v>
   <v>       0.00000000       0.00000000       0.12500000 </v>
   <v>       0.10000000      -0.00000000       0.12500000 </v>
   <v>       0.20000000      -0.00000000       0.12500000 </v>
   <v>       0.30000000      -0.00000000       0.12500000 </v>
   <v>       0.40000000      -0.00000000       0.12500000 </v>
   <v>       0.50000000      -0.00000000       0.12500000 </v>
   <v>       0.10000000       0.10000000       0.12500000 </v>
   <v>       0.20000000       0.10000000       0.12500000 </v>
   <v>       0.30000000       0.10000000       0.12500000 </v>
   <v>       0.40000000       0.10000000       0.12500000 </v>
   <v>       0.20000000       0.20000000       0.12500000 </v>
   <v>       0.30000000       0.20000000       0.12500000 </v>
   <v>       0.40000000       0.20000000       0.12500000 </v>
   <v>       0.30000000       0.30000000       0.12500000 </v>
   <v>       0.00000000       0.00000000       0.25000000 </v>
   <v>       0.10000000      -0.00000000       0.25000000 </v>
   <v>       0.20000000      -0.00000000       0.25000000 </v>
   <v>       0.30000000      -0.00000000       0.25000000 </v>
   <v>       0.40000000      -0.00000000       0.25000000 </v>
   <v>       0.50000000      -0.00000000       0.25000000 </v>
   <v>       0.10000000       0.10000000       0.25000000 </v>
   <v>       0.20000000       0.10000000       0.25000000 </v>
   <v>       0.30000000       0.10000000       0.25000000 </v>
   <v>       0.40000000       0.10000000       0.25000000 </v>
   <v>       0.20000000       0.20000000       0.25000000 </v>
   <v>       0.30000000       0.20000000       0.25000000 </v>
   <v>       0.40000000       0.20000000       0.25000000 </v>
   <v>       0.30000000       0.30000000       0.25000000 </v>
   <v>       0.00000000       0.00000000       0.37500000 </v>
   <v>       0.10000000      -0.00000000       0.37500000 </v>
   <v>       0.20000000      -0.00000000       0.37500000 </v>
   <v>       0.30000000      -0.00000000       0.37500000 </v>
   <v>       0.40000000      -0.00000000       0.37500000 </v>
   <v>       0.50000000      -0.00000000       0.37500000 </v>
   <v>       0.10000000       0.10000000       0.37500000 </v>
   <v>       0.20000000       0.10000000       0.37500000 </v>
   <v>       0.30000000       0.10000000       0.37500000 </v>
   <v>       0.40000000       0.10000000       0.37500000 </v>
   <v>       0.20000000       0.20000000       0.37500000 </v>
   <v>       0.30000000       0.20000000       0.37500000 </v>
   <v>       0.40000000       0.20000000       0.37500000 </v>
   <v>       0.30000000       0.30000000       0.37500000 </v>
   <v>       0.00000000       0.00000000       0.50000000 </v>
   <v>       0.10000000      -0.00000000       0.50000000 </v>
   <v>       0.20000000      -0.00000000       0.50000000 </v>
   <v>       0.30000000      -0.00000000       0.50000000 </v>
   <v>       0.40000000      -0.00000000       0.50000000 </v>
   <v>       0.50000000      -0.00000000       0.50000000 </v>
   <v>       0.10000000       0.10000000       0.50000000 </v>
   <v>       0.20000000       0.10000000       0.50000000 </v>
   <v>       0.30000000       0.10000000       0.50000000 </v>
   <v>       0.40000000       0.10000000       0.50000000 </v>
   <v>       0.20000000       0.20000000       0.50000000 </v>
   <v>       0.30000000       0.20000000       0.50000000 </v>
   <v>       0.40000000       0.20000000       0.50000000 </v>
   <v>       0.30000000       0.30000000       0.50000000 </v>
  </varray>
  <varray name="weights" >
   <v>       0.00125000 </v>
   <v>       0.00750000 </v>
   <v>       0.00750000 </v>
   <v>       0.00750000 </v>
   <v>       0.00750000 </v>
   <v>       0.00375000 </v>
   <v>       0.00750000 </v>
   <v>       0.01500000 </v>
   <v>       0.01500000 </v>
   <v>       0.01500000 </v>
   <v>       0.00750000 </v>
   <v>       0.01500000 </v>
   <v>       0.00750000 </v>
   <v>       0.00750000 </v>
   <v>       0.00250000 </v>
   <v>       0.01500000 </v>
   <v>       0.01500000 </v>
   <v>       0.01500000 </v>
   <v>       0.01500000 </v>
   <v>       0.00750000 </v>
   <v>       0.01500000 </v>
   <v>       0.03000000 </v>
   <v>       0.03000000 </v>
   <v>       0.03000000 </v>
   <v>       0.01500000 </v>
   <v>       0.03000000 </v>
   <v>       0.01500000 </v>
   <v>       0.01500000 </v>
   <v>       0.00250000 </v>
   <v>       0.01500000 </v>
   <v>       0.01500000 </v>
   <v>       0.01500000 </v>
   <v>       0.01500000 </v>
   <v>       0.00750000 </v>
   <v>       0.01500000 </v>
   <v>       0.03000000 </v>
   <v>       0.03000000 </v>
   <v>       0.03000000 </v>
   <v>       0.01500000 </v>
   <v>       0.03000000 </v>
   <v>       0.01500000 </v>
   <v>       0.01500000 </v>
   <v>       0.00250000 </v>
   <v>       0.01500000 </v>
   <v>       0.01500000 </v>
   <v>       0.01500000 </v>
   <v>       0.01500000 </v>
   <v>       0.00750000 </v>
   <v>       0.01500000 </v>
   <v>       0.03000000 </v>
   <v>       0.03000000 </v>
   <v>       0.03000000 </v>
   <v>       0.01500000 </v>
   <v>       0.03000000 </v>
   <v>       0.01500000 </v>
   <v>       0.01500000 </v>
   <v>       0.00125000 </v>
   <v>       0.00750000 </v>
   <v>       0.00750000 </v>
   <v>       0.00750000 </v>
   <v>       0.00750000 </v>
   <v>       0.00375000 </v>
   <v>       0.00750000 </v>
   <v>       0.01500000 </v>
   <v>       0.01500000 </v>
   <v>       0.01500000 </v>
   <v>       0.00750000 </v>
   <v>       0.01500000 </v>
   <v>       0.00750000 </v>
   <v>       0.00750000 </v>
  </varray>
 </kpoints>
 <parameters>
  <separator name="general" >
   <i type="string" name="SYSTEM">Pt-hcc</i>
   <i type="logical" name="LCOMPAT"> F  </i>
  </separator>
  <separator name="electronic" >
   <i type="string" name="PREC">accura</i>
   <i name="ENMAX">    450.00000000</i>
   <i name="ENAUG">    527.01400000</i>
   <i name="EDIFF">      0.00000100</i>
   <i type="int" name="IALGO">    38</i>
   <i type="int" name="IWAVPR">    11</i>
   <i type="int" name="NBANDS">    24</i>
   <i type="int" name="NBANDSLOW">    -1</i>
   <i type="int" name="NBANDSHIGH">    -1</i>
   <i name="NELECT">     32.00000000</i>
   <i type="int" name="TURBO">     0</i>
   <i type="int" name="IRESTART">     0</i>
   <i type="int" name="NREBOOT">     0</i>
   <i type="int" name="NMIN">     0</i>
   <i name="EREF">      0.00000000</i>
   <separator name="electronic smearing" >
    <i type="int" name="ISMEAR">     0</i>
    <i name="SIGMA">      0.05000000</i>
    <i name="KSPACING">      0.50000000</i>
    <i type="logical" name="KGAMMA"> T  </i>
    <i type="logical" name="KBLOWUP"> T  </i>
   </separator>
   <separator name="electronic projectors" >
    <i type="logical" name="LREAL"> F  </i>
    <v name="ROPT">      0.00000000</v>
    <i type="int" name="LMAXPAW">  -100</i>
    <i type="int" name="LMAXMIX">     2</i>
    <i type="logical" name="NLSPLINE"> F  </i>
   </separator>
   <separator name="electronic startup" >
    <i type="int" name="ISTART">     0</i>
    <i type="int" name="ICHARG">     2</i>
    <i type="int" name="INIWAV">     1</i>
   </separator>
   <separator name="electronic spin" >
    <i type="int" name="ISPIN">     1</i>
    <i type="logical" name="LNONCOLLINEAR"> F  </i>
    <v name="MAGMOM">      1.00000000      1.00000000</v>
    <i name="NUPDOWN">     -1.00000000</i>
    <i type="logical" name="LSORBIT"> F  </i>
    <v name="SAXIS">      0.00000000      0.00000000      1.00000000</v>
    <i type="logical" name="LSPIRAL"> F  </i>
    <v name="QSPIRAL">      0.00000000      0.00000000      0.00000000</v>
    <i type="logical" name="LZEROZ"> F  </i>
   </separator>
   <separator name="electronic exchange-correlation" >
    <i type="logical" name="LASPH"> F  </i>
    <i type="logical" name="LMETAGGA"> F  </i>
   </separator>
   <separator name="electronic convergence" >
    <i type="int" name="NELM">   100</i>
    <i type="int" name="NELMDL">    -5</i>
    <i type="int" name="NELMIN">     2</i>
    <i name="ENINI">    450.00000000</i>
    <separator name="electronic convergence detail" >
     <i type="logical" name="LDIAG"> T  </i>
     <i type="logical" name="LSUBROT"> F  </i>
     <i name="WEIMIN">      0.00100000</i>
     <i name="EBREAK">      0.00000001</i>
     <i name="DEPER">      0.30000000</i>
     <i type="int" name="NRMM">     4</i>
     <i name="TIME">      0.40000000</i>
    </separator>
   </separator>
   <separator name="electronic mixer" >
    <i name="AMIX">      0.40000000</i>
    <i name="BMIX">      1.00000000</i>
    <i name="AMIN">      0.10000000</i>
    <i name="AMIX_MAG">      1.60000000</i>
    <i name="BMIX_MAG">      1.00000000</i>
    <separator name="electronic mixer details" >
     <i type="int" name="IMIX">     4</i>
     <i type="logical" name="MIXFIRST"> F  </i>
     <i type="int" name="MAXMIX">   -45</i>
     <i name="WC">    100.00000000</i>
     <i type="int" name="INIMIX">     1</i>
     <i type="int" name="MIXPRE">     1</i>
     <i type="int" name="MREMOVE">     5</i>
    </separator>
   </separator>
   <separator name="electronic dipolcorrection" >
    <i type="logical" name="LDIPOL"> F  </i>
    <i type="logical" name="LMONO"> F  </i>
    <i type="int" name="IDIPOL">     0</i>
    <i name="EPSILON">      1.00000000</i>
    <v name="DIPOL">   -100.00000000   -100.00000000   -100.00000000</v>
    <i name="EFIELD">      0.00000000</i>
   </separator>
  </separator>
  <separator name="grids" >
   <i type="int" name="NGX">    18</i>
   <i type="int" name="NGY">    18</i>
   <i type="int" name="NGZ">    32</i>
   <i type="int" name="NGXF">    36</i>
   <i type="int" name="NGYF">    36</i>
   <i type="int" name="NGZF">    64</i>
   <i type="logical" name="ADDGRID"> F  </i>
  </separator>
  <separator name="ionic" >
   <i type="int" name="NSW">   100</i>
   <i type="int" name="IBRION">     2</i>
   <i type="int" name="MDALGO">     0</i>
   <i type="int" name="ISIF">     2</i>
   <i name="PSTRESS">      0.00000000</i>
   <i name="EDIFFG">     -0.02000000</i>
   <i type="int" name="NFREE">     1</i>
   <i name="POTIM">      0.50000000</i>
   <i name="SMASS">     -3.00000000</i>
   <i name="SCALEE">      1.00000000</i>
  </separator>
  <separator name="ionic md" >
   <i name="TEBEG">      0.00010000</i>
   <i name="TEEND">      0.00010000</i>
   <i type="int" name="NBLOCK">     1</i>
   <i type="int" name="KBLOCK">   100</i>
   <i type="int" name="NPACO">   256</i>
   <i name="APACO">     10.00000000</i>
  </separator>
  <separator name="symmetry" >
   <i type="int" name="ISYM">     1</i>
   <i name="SYMPREC">      0.00001000</i>
  </separator>
  <separator name="dos" >
   <i type="int" name="LORBIT">    11</i>
   <v name="RWIGS">     -1.00000000</v>
   <i type="int" name="NEDOS">   301</i>
   <i name="EMIN">     10.00000000</i>
   <i name="EMAX">    -10.00000000</i>
   <i name="EFERMI">      0.00000000</i>
  </separator>
  <separator name="writing" >
   <i type="int" name="NWRITE">     2</i>
   <i type="logical" name="LWAVE"> T  </i>
   <i type="logical" name="LDOWNSAMPLE"> F  </i>
   <i type="logical" name="LCHARG"> T  </i>
   <i type="logical" name="LPARD"> F  </i>
   <i type="logical" name="LVTOT"> F  </i>
   <i type="logical" name="LVHAR"> F  </i>
   <i type="logical" name="LELF"> F  </i>
   <i type="logical" name="LOPTICS"> F  </i>
   <v name="STM">      0.00000000      0.00000000      0.00000000      0.00000000      0.00000000      0.00000000      0.00000000</v>
  </separator>
  <separator name="performance" >
   <i type="int" name="NPAR">    24</i>
   <i type="int" name="NSIM">     4</i>
   <i type="int" name="NBLK">    -1</i>
   <i type="logical" name="LPLANE"> T  </i>
   <i type="logical" name="LSCALAPACK"> T  </i>
   <i type="logical" name="LSCAAWARE"> F  </i>
   <i type="logical" name="LSCALU"> F  </i>
   <i type="logical" name="LASYNC"> F  </i>
   <i type="logical" name="LORBITALREAL"> F  </i>
  </separator>
  <separator name="miscellaneous" >
   <i type="int" name="IDIOT">     3</i>
   <i type="int" name="PHON_NSTRUCT">    -1</i>
   <i type="logical" name="LMUSIC"> F  </i>
   <v name="POMASS">    195.08000000</v>
   <v name="DARWINR">      0.00000000</v>
   <v name="DARWINV">      1.00000000</v>
   <i type="logical" name="LCORR"> T  </i>
  </separator>
  <i type="logical" name="GGA_COMPAT"> T  </i>
  <i type="logical" name="LBERRY"> F  </i>
  <i type="int" name="ICORELEVEL">     0</i>
  <i type="logical" name="LDAU"> F  </i>
  <i type="int" name="I_CONSTRAINED_M">     0</i>
  <separator name="electronic exchange-correlation" >
   <i type="string" name="GGA">--</i>
   <i type="int" name="VOSKOWN">     0</i>
   <i type="logical" name="LHFCALC"> F  </i>
   <i type="string" name="PRECFOCK"></i>
   <i type="logical" name="LSYMGRAD"> F  </i>
   <i type="logical" name="LHFONE"> F  </i>
   <i type="logical" name="LRHFCALC"> F  </i>
   <i type="logical" name="LTHOMAS"> F  </i>
   <i type="logical" name="LMODELHF"> F  </i>
   <i type="logical" name="LFOCKACE"> F  </i>
   <i name="ENCUT4O">     -1.00000000</i>
   <i type="int" name="EXXOEP">     0</i>
   <i type="int" name="FOURORBIT">     0</i>
   <i name="AEXX">      0.00000000</i>
   <i name="HFALPHA">      0.00000000</i>
   <i name="MCALPHA">      0.00000000</i>
   <i name="ALDAX">      1.00000000</i>
   <i name="AGGAX">      1.00000000</i>
   <i name="ALDAC">      1.00000000</i>
   <i name="AGGAC">      1.00000000</i>
   <i type="int" name="NKREDX">     1</i>
   <i type="int" name="NKREDY">     1</i>
   <i type="int" name="NKREDZ">     1</i>
   <i type="logical" name="SHIFTRED"> F  </i>
   <i type="logical" name="ODDONLY"> F  </i>
   <i type="logical" name="EVENONLY"> F  </i>
   <i type="int" name="LMAXFOCK">     0</i>
   <i type="int" name="NMAXFOCKAE">     0</i>
   <i type="logical" name="LFOCKAEDFT"> F  </i>
   <i name="HFSCREEN">      0.00000000</i>
   <i name="HFSCREENC">      0.00000000</i>
   <i type="int" name="NBANDSGWLOW">     0</i>
  </separator>
  <separator name="vdW DFT" >
   <i type="logical" name="LUSE_VDW"> F  </i>
   <i name="Zab_VDW">     -0.84910000</i>
   <i name="PARAM1">      0.12340000</i>
   <i name="PARAM2">      1.00000000</i>
   <i name="PARAM3">      0.00000000</i>
  </separator>
  <separator name="model GW" >
   <i type="int" name="MODEL_GW">     0</i>
   <i name="MODEL_EPS0">      8.05184756</i>
   <i name="MODEL_ALPHA">      1.00000000</i>
  </separator>
  <separator name="linear response parameters" >
   <i type="logical" name="LEPSILON"> F  </i>
   <i type="logical" name="LRPA"> F  </i>
   <i type="logical" name="LNABLA"> F  </i>
   <i type="logical" name="LVEL"> F  </i>
   <i name="CSHIFT">      0.10000000</i>
   <i name="OMEGAMAX">     -1.00000000</i>
   <i name="DEG_THRESHOLD">      0.00200000</i>
   <i name="RTIME">     -0.10000000</i>
   <i name="WPLASMAI">      0.00000000</i>
   <v name="DFIELD">      0.00000000      0.00000000      0.00000000</v>
   <v name="WPLASMA">      0.00000000      0.00000000      0.00000000      0.00000000      0.00000000      0.00000000      0.00000000      0.00000000      0.00000000</v>
  </separator>
  <separator name="orbital magnetization" >
   <i type="logical" name="NUCIND"> F  </i>
   <v name="MAGPOS">      0.00000000      0.00000000      0.00000000</v>
   <i type="logical" name="LNICSALL"> T  </i>
   <i type="logical" name="ORBITALMAG"> F  </i>
   <i type="logical" name="LMAGBLOCH"> F  </i>
   <i type="logical" name="LCHIMAG"> F  </i>
   <i type="logical" name="LGAUGE"> T  </i>
   <i type="int" name="MAGATOM">     0</i>
   <v name="MAGDIPOL">      0.00000000      0.00000000      0.00000000</v>
   <v name="AVECCONST">      0.00000000      0.00000000      0.00000000</v>
  </separator>
  <separator name="response functions" >
   <i type="logical" name="LFINITE_TEMPERATURE"> F  </i>
   <i type="logical" name="LADDER"> F  </i>
   <i type="logical" name="LRPAFORCE"> F  </i>
   <i type="logical" name="LFXC"> F  </i>
   <i type="logical" name="LHARTREE"> T  </i>
   <i type="int" name="IBSE">     0</i>
   <v type="int" name="KPOINT">    -1     0     0     0</v>
   <i type="logical" name="LTCTC"> F  </i>
   <i type="logical" name="LTCTE"> F  </i>
   <i type="logical" name="LTETE"> F  </i>
   <i type="logical" name="LTRIPLET"> F  </i>
   <i type="logical" name="LFXCEPS"> F  </i>
   <i type="logical" name="LFXHEG"> F  </i>
   <i type="int" name="NATURALO">     2</i>
   <i type="logical" name="LHOLEGF"> F  </i>
   <i type="logical" name="L2ORDER"> F  </i>
   <i type="logical" name="LDMP1"> F  </i>
   <i type="logical" name="LMP2LT"> F  </i>
   <i type="logical" name="LSMP2LT"> F  </i>
   <i type="logical" name="LGWLF"> F  </i>
   <i name="ENCUTGW">     -2.00000000</i>
   <i name="ENCUTGWSOFT">     -2.00000000</i>
   <i name="ENCUTLF">     -1.00000000</i>
   <i type="logical" name="LESF_SPLINES"> F  </i>
   <i type="int" name="LMAXMP2">    -1</i>
   <i name="SCISSOR">      0.00000000</i>
   <i type="int" name="NOMEGA">     0</i>
   <i type="int" name="NOMEGAR">     0</i>
   <i type="int" name="NBANDSGW">    -1</i>
   <i type="int" name="NBANDSO">    -1</i>
   <i type="int" name="NBANDSV">    -1</i>
   <i type="int" name="NELMGW">     1</i>
   <i type="int" name="NELMHF">     1</i>
   <i type="int" name="DIM">     3</i>
   <i type="int" name="IESPILON">     4</i>
   <i type="int" name="ANTIRES">     0</i>
   <i name="OMEGAMAX">    -30.00000000</i>
   <i name="OMEGAMIN">    -30.00000000</i>
   <i name="OMEGATL">   -200.00000000</i>
   <i type="int" name="OMEGAGRID">     0</i>
   <i name="CSHIFT">     -0.10000000</i>
   <i type="logical" name="LSELFENERGY"> F  </i>
   <i type="logical" name="LSPECTRAL"> F  </i>
   <i type="logical" name="LSPECTRALGW"> F  </i>
   <i type="logical" name="LSINGLES"> F  </i>
   <i type="logical" name="LFERMIGW"> F  </i>
   <i type="logical" name="ODDONLYGW"> F  </i>
   <i type="logical" name="EVENONLYGW"> F  </i>
   <i type="int" name="NKREDLFX">     1</i>
   <i type="int" name="NKREDLFY">     1</i>
   <i type="int" name="NKREDLFZ">     1</i>
   <i type="int" name="MAXMEM">  2800</i>
   <i type="int" name="TELESCOPE">     0</i>
   <i type="int" name="NTAUPAR">    -1</i>
   <i type="int" name="NOMEGAPAR">    -1</i>
   <i name="DAMP_NEWTON">      0.80000001</i>
   <i name="LAMBDA">      1.00000000</i>
  </separator>
  <separator name="External order field" >
   <i name="OFIELD_KAPPA">      0.00000000</i>
   <v name="OFIELD_K">      0.00000000      0.00000000      0.00000000</v>
   <i name="OFIELD_Q6_NEAR">      0.00000000</i>
   <i name="OFIELD_Q6_FAR">      0.00000000</i>
   <i name="OFIELD_A">      0.00000000</i>
  </separator>
  <separator name="optional k-points parameters" >
   <i type="int" name="KPOINTS_OPT_MODE">     1</i>
   <i type="logical" name="LKPOINTS_OPT"> F  </i>
  </separator>
 </parameters>
 <atominfo>
  <atoms>       2 </atoms>
  <types>       1 </types>
  <array name="atoms" >
   <dimension dim="1">ion</dimension>
   <field type="string">element</field>
   <field type="int">atomtype</field>
   <set>
    <rc><c>Pt</c><c>   1</c></rc>
    <rc><c>Pt</c><c>   1</c></rc>
   </set>
  </array>
  <array name="atomtypes" >
   <dimension dim="1">type</dimension>
   <field type="int">atomspertype</field>
   <field type="string">element</field>
   <field>mass</field>
   <field>valence</field>
   <field type="string">pseudopotential</field>
   <set>
    <rc><c>   2</c><c>Pt</c><c>    195.08000000</c><c>     16.00000000</c><c>  PAW_PBE Pt_pv 12Dec2005               </c></rc>
   </set>
  </array>
 </atominfo>
 <structure name="initialpos" >
  <crystal>
   <varray name="basis" >
    <v>       2.61532352       0.00000000       0.00000000 </v>
    <v>      -1.30766176       2.26493660       0.00000000 </v>
    <v>       0.00000000       0.00000000       4.53098704 </v>
   </varray>
   <i name="volume">     26.83949187 </i>
   <varray name="rec_basis" >
    <v>       0.38236187       0.22075673       0.00000000 </v>
    <v>       0.00000000       0.44151346       0.00000000 </v>
    <v>       0.00000000       0.00000000       0.22070246 </v>
   </varray>
  </crystal>
  <varray name="positions" >
   <v>       0.00000000       0.00000000       0.00000000 </v>
   <v>       0.33333333       0.66666667       0.50000000 </v>
  </varray>
 </structure>
 <calculation>
  <scstep>
   <time name="dav">    0.28    0.28</time>
   <time name="total">    0.28    0.29</time>
   <energy>
    <i name="alphaZ">    357.58032555 </i>
    <i name="ewald">  -4478.03065321 </i>
    <i name="hartreedc">   -712.97752023 </i>
    <i name="XCdc">    129.10735665 </i>
    <i name="pawpsdc">   4131.50523274 </i>
    <i name="pawaedc">  -4061.67189606 </i>
    <i name="eentropy">     -0.00216645 </i>
    <i name="bandstr">    -84.15696135 </i>
    <i name="atom">   4856.42966544 </i>
    <i name="e_fr_energy">    137.78338308 </i>
    <i name="e_wo_entrp">    137.78554953 </i>
    <i name="e_0_energy">    137.78446630 </i>
   </energy>
  </scstep>
  <scstep>
   <time name="dav">    0.28    0.29</time>
   <time name="total">    0.28    0.29</time>
   <energy>
    <i name="e_fr_energy">    -10.77700205 </i>
    <i name="e_wo_entrp">    -10.77373690 </i>
    <i name="e_0_energy">    -10.77536948 </i>
   </energy>
  </scstep>
  <scstep>
   <time name="dav">    0.46    0.47</time>
   <time name="total">    0.46    0.47</time>
   <energy>
    <i name="e_fr_energy">    -11.90644285 </i>
    <i name="e_wo_entrp">    -11.90351561 </i>
    <i name="e_0_energy">    -11.90497923 </i>
   </energy>
  </scstep>
  <scstep>
   <time name="dav">    0.52    0.52</time>
   <time name="total">    0.52    0.52</time>
   <energy>
    <i name="e_fr_energy">    -11.90936037 </i>
    <i name="e_wo_entrp">    -11.90643913 </i>
    <i name="e_0_energy">    -11.90789975 </i>
   </energy>
  </scstep>
  <scstep>
   <time name="dav">    0.52    0.52</time>
   <time name="total">    0.54    0.54</time>
   <energy>
    <i name="e_fr_energy">    -11.90936100 </i>
    <i name="e_wo_entrp">    -11.90643976 </i>
    <i name="e_0_energy">    -11.90790038 </i>
   </energy>
  </scstep>
  <scstep>
   <time name="dav">    0.30    0.30</time>
   <time name="total">    0.32    0.32</time>
   <energy>
    <i name="e_fr_energy">    -11.33569461 </i>
    <i name="e_wo_entrp">    -11.33222015 </i>
    <i name="e_0_energy">    -11.33395738 </i>
   </energy>
  </scstep>
  <scstep>
   <time name="dav">    0.42    0.42</time>
   <time name="total">    0.44    0.44</time>
   <energy>
    <i name="e_fr_energy">    -11.28620237 </i>
    <i name="e_wo_entrp">    -11.28279029 </i>
    <i name="e_0_energy">    -11.28449633 </i>
   </energy>
  </scstep>
  <scstep>
   <time name="dav">    0.31    0.31</time>
   <time name="total">    0.33    0.33</time>
   <energy>
    <i name="e_fr_energy">    -11.28263026 </i>
    <i name="e_wo_entrp">    -11.27922316 </i>
    <i name="e_0_energy">    -11.28092671 </i>
   </energy>
  </scstep>
  <scstep>
   <time name="dav">    0.41    0.41</time>
   <time name="total">    0.43    0.43</time>
   <energy>
    <i name="e_fr_energy">    -11.28243987 </i>
    <i name="e_wo_entrp">    -11.27905121 </i>
    <i name="e_0_energy">    -11.28074554 </i>
   </energy>
  </scstep>
  <scstep>
   <time name="dav">    0.53    0.53</time>
   <time name="total">    0.55    0.55</time>
   <energy>
    <i name="e_fr_energy">    -11.28244747 </i>
    <i name="e_wo_entrp">    -11.27906499 </i>
    <i name="e_0_energy">    -11.28075623 </i>
   </energy>
  </scstep>
  <scstep>
   <time name="dav">    0.23    0.23</time>
   <time name="total">    0.24    0.24</time>
   <energy>
    <i name="alphaZ">    357.58032555 </i>
    <i name="ewald">  -4478.03065321 </i>
    <i name="hartreedc">   -677.21514740 </i>
    <i name="XCdc">    127.50773488 </i>
    <i name="pawpsdc">   5214.37535209 </i>
    <i name="pawaedc">  -5150.96251368 </i>
    <i name="eentropy">     -0.00338333 </i>
    <i name="bandstr">   -260.96382710 </i>
    <i name="atom">   4856.42966544 </i>
    <i name="e_fr_energy">    -11.28244676 </i>
    <i name="e_wo_entrp">    -11.27906343 </i>
    <i name="e_0_energy">    -11.28075510 </i>
   </energy>
  </scstep>
  <structure>
   <crystal>
    <varray name="basis" >
     <v>       2.61532352       0.00000000       0.00000000 </v>
     <v>      -1.30766176       2.26493660       0.00000000 </v>
     <v>       0.00000000       0.00000000       4.53098704 </v>
    </varray>
    <i name="volume">     26.83949187 </i>
    <varray name="rec_basis" >
     <v>       0.38236187       0.22075673       0.00000000 </v>
     <v>       0.00000000       0.44151346       0.00000000 </v>
     <v>       0.00000000       0.00000000       0.22070246 </v>
    </varray>
   </crystal>
   <varray name="positions" >
    <v>       0.00000000       0.00000000       0.00000000 </v>
    <v>       0.33333333       0.66666667       0.50000000 </v>
   </varray>
  </structure>
  <varray name="forces" >
   <v>      -0.00000000       0.00000000       0.00000000 </v>
   <v>       0.00000000      -0.00000000       0.00000000 </v>
  </varray>
  <varray name="stress" >
   <v>     612.37224997      -0.00000000       0.00000000 </v>
   <v>       0.00000000     612.37224997       0.00000000 </v>
   <v>       0.00000000       0.00000000     534.26230816 </v>
  </varray>
  <energy>
   <i name="e_fr_energy">    -11.28244676 </i>
   <i name="e_wo_entrp">    -11.27906343 </i>
   <i name="e_0_energy">    -11.28075510 </i>
  </energy>
  <time name="totalsc">    4.69    4.74</time>
  <eigenvalues>
   <array>
    <dimension dim="1">band</dimension>
    <dimension dim="2">kpoint</dimension>
    <dimension dim="3">spin</dimension>
    <field>eigene</field>
    <field>occ</field>
    <set>
     <set comment="spin 1">
      <set comment="kpoint 1">
       <r>  -38.9260    1.0000 </r>
       <r>  -38.4765    1.0000 </r>
       <r>  -38.4765    1.0000 </r>
       <r>  -38.4041    1.0000 </r>
       <r>  -38.4041    1.0000 </r>
       <r>  -38.3106    1.0000 </r>
       <r>    2.9007    1.0000 </r>
       <r>    5.6667    1.0000 </r>
       <r>    9.3827    1.0000 </r>
       <r>   10.0362    1.0000 </r>
       <r>   10.0362    1.0000 </r>
       <r>   10.5263    1.0000 </r>
       <r>   10.5263    1.0000 </r>
       <r>   12.1181    1.0000 </r>
       <r>   12.1181    1.0000 </r>
       <r>   13.0423    1.0000 </r>
       <r>   14.2022    1.0000 </r>
       <r>   14.2022    1.0000 </r>
       <r>   20.3607    0.0000 </r>
       <r>   29.1703    0.0000 </r>
       <r>   30.0208    0.0000 </r>
       <r>   31.6652    0.0000 </r>
       <r>   37.2785    0.0000 </r>
       <r>   37.2787    0.0000 </r>
      </set>
      <set comment="kpoint 2">
       <r>  -38.9031    1.0000 </r>
       <r>  -38.5424    1.0000 </r>
       <r>  -38.4952    1.0000 </r>
       <r>  -38.4713    1.0000 </r>
       <r>  -38.4163    1.0000 </r>
       <r>  -38.3152    1.0000 </r>
       <r>    3.3260    1.0000 </r>
       <r>    6.0585    1.0000 </r>
       <r>    9.2937    1.0000 </r>
       <r>   10.0416    1.0000 </r>
       <r>   10.3250    1.0000 </r>
       <r>   10.3864    1.0000 </r>
       <r>   10.8610    1.0000 </r>
       <r>   11.2732    1.0000 </r>
       <r>   11.8875    1.0000 </r>
       <r>   12.0142    1.0000 </r>
       <r>   14.2959    1.0000 </r>
       <r>   16.0946    0.0000 </r>
       <r>   20.2979    0.0000 </r>
       <r>   29.8935    0.0000 </r>
       <r>   30.6473    0.0000 </r>
       <r>   32.3708    0.0000 </r>
       <r>   34.8391    0.0000 </r>
       <r>   35.3307    0.0000 </r>
      </set>
      <set comment="kpoint 3">
       <r>  -38.8427    1.0000 </r>
       <r>  -38.7148    1.0000 </r>
       <r>  -38.6458    1.0000 </r>
       <r>  -38.5443    1.0000 </r>
       <r>  -38.4512    1.0000 </r>
       <r>  -38.3316    1.0000 </r>
       <r>    4.4615    1.0000 </r>
       <r>    6.8842    1.0000 </r>
       <r>    9.0074    1.0000 </r>
       <r>    9.5616    1.0000 </r>
       <r>    9.6851    1.0000 </r>
       <r>   10.8443    1.0000 </r>
       <r>   11.3769    1.0000 </r>
       <r>   11.3832    1.0000 </r>
       <r>   11.3833    1.0000 </r>
       <r>   11.8054    1.0000 </r>
       <r>   14.4431    0.9089 </r>
       <r>   18.6197    0.0000 </r>
       <r>   20.1336    0.0000 </r>
       <r>   29.7787    0.0000 </r>
       <r>   31.2954    0.0000 </r>
       <r>   33.0231    0.0000 </r>
       <r>   33.1856    0.0000 </r>
       <r>   33.2263    0.0000 </r>
      </set>
      <set comment="kpoint 4">
       <r>  -38.9276    1.0000 </r>
       <r>  -38.8532    1.0000 </r>
       <r>  -38.7574    1.0000 </r>
       <r>  -38.6027    1.0000 </r>
       <r>  -38.4956    1.0000 </r>
       <r>  -38.3616    1.0000 </r>
       <r>    5.7595    1.0000 </r>
       <r>    6.9297    1.0000 </r>
       <r>    8.2287    1.0000 </r>
       <r>    9.3617    1.0000 </r>
       <r>    9.8376    1.0000 </r>
       <r>   10.7250    1.0000 </r>
       <r>   10.8725    1.0000 </r>
       <r>   12.3290    1.0000 </r>
       <r>   12.8361    1.0000 </r>
       <r>   13.1625    1.0000 </r>
       <r>   14.5230    0.1773 </r>
       <r>   20.1023    0.0000 </r>
       <r>   21.1232    0.0000 </r>
       <r>   26.1312    0.0000 </r>
       <r>   29.7346    0.0000 </r>
       <r>   30.3288    0.0000 </r>
       <r>   33.4292    0.0000 </r>
       <r>   33.6163    0.0000 </r>
      </set>
      <set comment="kpoint 5">
       <r>  -39.0962    1.0000 </r>
       <r>  -39.0167    1.0000 </r>
       <r>  -38.6706    1.0000 </r>
       <r>  -38.6490    1.0000 </r>
       <r>  -38.5313    1.0000 </r>
       <r>  -38.4024    1.0000 </r>
       <r>    6.3092    1.0000 </r>
       <r>    6.5594    1.0000 </r>
       <r>    7.3942    1.0000 </r>
       <r>   10.0306    1.0000 </r>
       <r>   10.2562    1.0000 </r>
       <r>   10.5132    1.0000 </r>
       <r>   10.8298    1.0000 </r>
       <r>   14.2812    1.0000 </r>
       <r>   14.5276    0.1455 </r>
       <r>   14.5418    0.0727 </r>
       <r>   14.6867    0.0000 </r>
       <r>   20.7123    0.0000 </r>
       <r>   22.3174    0.0000 </r>
       <r>   23.2296    0.0000 </r>
       <r>   28.0588    0.0000 </r>
       <r>   28.5013    0.0000 </r>
       <r>   28.6885    0.0000 </r>
       <r>   32.5311    0.0000 </r>
      </set>
      <set comment="kpoint 6">
       <r>  -39.1607    1.0000 </r>
       <r>  -39.0777    1.0000 </r>
       <r>  -38.6667    1.0000 </r>
       <r>  -38.6272    1.0000 </r>
       <r>  -38.5452    1.0000 </r>
       <r>  -38.4284    1.0000 </r>
       <r>    6.2487    1.0000 </r>
       <r>    6.5033    1.0000 </r>
       <r>    7.1104    1.0000 </r>
       <r>   10.0878    1.0000 </r>
       <r>   10.3854    1.0000 </r>
       <r>   10.6906    1.0000 </r>
       <r>   11.0372    1.0000 </r>
       <r>   14.5414    0.0739 </r>
       <r>   14.9088    0.0000 </r>
       <r>   15.1827    0.0000 </r>
       <r>   17.1287    0.0000 </r>
       <r>   18.8528    0.0000 </r>
       <r>   22.6807    0.0000 </r>
       <r>   24.1713    0.0000 </r>
       <r>   25.5644    0.0000 </r>
       <r>   27.0867    0.0000 </r>
       <r>   28.0165    0.0000 </r>
       <r>   31.9239    0.0000 </r>
      </set>
      <set comment="kpoint 7">
       <r>  -38.8618    1.0000 </r>
       <r>  -38.6501    1.0000 </r>
       <r>  -38.6061    1.0000 </r>
       <r>  -38.5183    1.0000 </r>
       <r>  -38.4501    1.0000 </r>
       <r>  -38.3259    1.0000 </r>
       <r>    4.1189    1.0000 </r>
       <r>    6.7347    1.0000 </r>
       <r>    8.9409    1.0000 </r>
       <r>    9.9415    1.0000 </r>
       <r>   10.0682    1.0000 </r>
       <r>   10.3196    1.0000 </r>
       <r>   11.1016    1.0000 </r>
       <r>   11.1311    1.0000 </r>
       <r>   11.6138    1.0000 </r>
       <r>   11.9517    1.0000 </r>
       <r>   14.3293    1.0000 </r>
       <r>   17.9662    0.0000 </r>
       <r>   20.1864    0.0000 </r>
       <r>   30.6055    0.0000 </r>
       <r>   31.6980    0.0000 </r>
       <r>   32.1060    0.0000 </r>
       <r>   32.9310    0.0000 </r>
       <r>   34.3376    0.0000 </r>
      </set>
      <set comment="kpoint 8">
       <r>  -38.8284    1.0000 </r>
       <r>  -38.7883    1.0000 </r>
       <r>  -38.7826    1.0000 </r>
       <r>  -38.5864    1.0000 </r>
       <r>  -38.5032    1.0000 </r>
       <r>  -38.3494    1.0000 </r>
       <r>    5.4403    1.0000 </r>
       <r>    7.3940    1.0000 </r>
       <r>    8.7364    1.0000 </r>
       <r>    8.7511    1.0000 </r>
       <r>    9.6085    1.0000 </r>
       <r>   10.4554    1.0000 </r>
       <r>   11.1085    1.0000 </r>
       <r>   11.4764    1.0000 </r>
       <r>   12.4902    1.0000 </r>
       <r>   13.0377    1.0000 </r>
       <r>   14.3370    1.0000 </r>
       <r>   20.1154    0.0000 </r>
       <r>   20.3713    0.0000 </r>
       <r>   28.0666    0.0000 </r>
       <r>   29.8822    0.0000 </r>
       <r>   30.8977    0.0000 </r>
       <r>   33.2530    0.0000 </r>
       <r>   34.7375    0.0000 </r>
      </set>
      <set comment="kpoint 9">
       <r>  -39.0125    1.0000 </r>
       <r>  -38.9457    1.0000 </r>
       <r>  -38.7008    1.0000 </r>
       <r>  -38.6573    1.0000 </r>
       <r>  -38.5532    1.0000 </r>
       <r>  -38.3869    1.0000 </r>
       <r>    6.5173    1.0000 </r>
       <r>    7.0375    1.0000 </r>
       <r>    7.7632    1.0000 </r>
       <r>    9.3976    1.0000 </r>
       <r>   10.0812    1.0000 </r>
       <r>   10.1826    1.0000 </r>
       <r>   10.8415    1.0000 </r>
       <r>   12.5301    1.0000 </r>
       <r>   13.9089    1.0000 </r>
       <r>   14.3227    1.0000 </r>
       <r>   14.8721    0.0000 </r>
       <r>   20.6104    0.0000 </r>
       <r>   22.7427    0.0000 </r>
       <r>   24.0244    0.0000 </r>
       <r>   27.4944    0.0000 </r>
       <r>   29.4643    0.0000 </r>
       <r>   31.4376    0.0000 </r>
       <r>   32.8876    0.0000 </r>
      </set>
      <set comment="kpoint 10">
       <r>  -39.1252    1.0000 </r>
       <r>  -39.0448    1.0000 </r>
       <r>  -38.7001    1.0000 </r>
       <r>  -38.6285    1.0000 </r>
       <r>  -38.5843    1.0000 </r>
       <r>  -38.4277    1.0000 </r>
       <r>    6.6272    1.0000 </r>
       <r>    6.8379    1.0000 </r>
       <r>    7.2442    1.0000 </r>
       <r>   10.0214    1.0000 </r>
       <r>   10.3226    1.0000 </r>
       <r>   10.3750    1.0000 </r>
       <r>   10.7932    1.0000 </r>
       <r>   14.1492    1.0000 </r>
       <r>   14.3007    1.0000 </r>
       <r>   14.6627    0.0000 </r>
       <r>   16.9123    0.0000 </r>
       <r>   20.2718    0.0000 </r>
       <r>   22.3802    0.0000 </r>
       <r>   24.4799    0.0000 </r>
       <r>   25.2468    0.0000 </r>
       <r>   27.9086    0.0000 </r>
       <r>   28.6294    0.0000 </r>
       <r>   31.8234    0.0000 </r>
      </set>
      <set comment="kpoint 11">
       <r>  -38.9338    1.0000 </r>
       <r>  -38.9283    1.0000 </r>
       <r>  -38.7113    1.0000 </r>
       <r>  -38.6664    1.0000 </r>
       <r>  -38.5942    1.0000 </r>
       <r>  -38.3818    1.0000 </r>
       <r>    6.7891    1.0000 </r>
       <r>    8.0199    1.0000 </r>
       <r>    8.1139    1.0000 </r>
       <r>    8.1635    1.0000 </r>
       <r>    9.8271    1.0000 </r>
       <r>    9.9002    1.0000 </r>
       <r>   11.0888    1.0000 </r>
       <r>   11.5666    1.0000 </r>
       <r>   13.8831    1.0000 </r>
       <r>   14.0921    1.0000 </r>
       <r>   14.9728    0.0000 </r>
       <r>   20.6491    0.0000 </r>
       <r>   22.6717    0.0000 </r>
       <r>   25.4540    0.0000 </r>
       <r>   26.2826    0.0000 </r>
       <r>   30.4136    0.0000 </r>
       <r>   32.8821    0.0000 </r>
       <r>   32.9223    0.0000 </r>
      </set>
      <set comment="kpoint 12">
       <r>  -39.0429    1.0000 </r>
       <r>  -38.9876    1.0000 </r>
       <r>  -38.7600    1.0000 </r>
       <r>  -38.6707    1.0000 </r>
       <r>  -38.6296    1.0000 </r>
       <r>  -38.4268    1.0000 </r>
       <r>    7.5126    1.0000 </r>
       <r>    7.5420    1.0000 </r>
       <r>    7.6816    1.0000 </r>
       <r>    9.1490    1.0000 </r>
       <r>    9.6498    1.0000 </r>
       <r>   10.4586    1.0000 </r>
       <r>   10.5822    1.0000 </r>
       <r>   12.5959    1.0000 </r>
       <r>   13.9066    1.0000 </r>
       <r>   14.4698    0.7191 </r>
       <r>   17.0354    0.0000 </r>
       <r>   21.6561    0.0000 </r>
       <r>   22.5861    0.0000 </r>
       <r>   24.0245    0.0000 </r>
       <r>   24.9780    0.0000 </r>
       <r>   29.8277    0.0000 </r>
       <r>   29.8725    0.0000 </r>
       <r>   31.6409    0.0000 </r>
      </set>
      <set comment="kpoint 13">
       <r>  -39.0834    1.0000 </r>
       <r>  -39.0029    1.0000 </r>
       <r>  -38.8046    1.0000 </r>
       <r>  -38.6995    1.0000 </r>
       <r>  -38.5832    1.0000 </r>
       <r>  -38.4593    1.0000 </r>
       <r>    7.3308    1.0000 </r>
       <r>    7.4728    1.0000 </r>
       <r>    7.6577    1.0000 </r>
       <r>    9.8282    1.0000 </r>
       <r>    9.8499    1.0000 </r>
       <r>    9.9778    1.0000 </r>
       <r>   10.9155    1.0000 </r>
       <r>   13.5930    1.0000 </r>
       <r>   13.8391    1.0000 </r>
       <r>   14.2233    1.0000 </r>
       <r>   18.6941    0.0000 </r>
       <r>   19.4495    0.0000 </r>
       <r>   22.6172    0.0000 </r>
       <r>   24.6846    0.0000 </r>
       <r>   26.2303    0.0000 </r>
       <r>   27.6585    0.0000 </r>
       <r>   29.5516    0.0000 </r>
       <r>   30.8185    0.0000 </r>
      </set>
      <set comment="kpoint 14">
       <r>  -39.0183    1.0000 </r>
       <r>  -38.9570    1.0000 </r>
       <r>  -38.8730    1.0000 </r>
       <r>  -38.7957    1.0000 </r>
       <r>  -38.5570    1.0000 </r>
       <r>  -38.4798    1.0000 </r>
       <r>    7.4343    1.0000 </r>
       <r>    8.1563    1.0000 </r>
       <r>    8.4472    1.0000 </r>
       <r>    8.9971    1.0000 </r>
       <r>    9.5951    1.0000 </r>
       <r>    9.9434    1.0000 </r>
       <r>   11.0372    1.0000 </r>
       <r>   13.0662    1.0000 </r>
       <r>   13.6155    1.0000 </r>
       <r>   14.0061    1.0000 </r>
       <r>   18.8001    0.0000 </r>
       <r>   20.0137    0.0000 </r>
       <r>   21.4335    0.0000 </r>
       <r>   25.7991    0.0000 </r>
       <r>   27.3525    0.0000 </r>
       <r>   28.7847    0.0000 </r>
       <r>   29.8806    0.0000 </r>
       <r>   29.9412    0.0000 </r>
      </set>
      <set comment="kpoint 15">
       <r>  -38.9022    1.0000 </r>
       <r>  -38.4732    1.0000 </r>
       <r>  -38.4732    1.0000 </r>
       <r>  -38.4062    1.0000 </r>
       <r>  -38.4062    1.0000 </r>
       <r>  -38.3345    1.0000 </r>
       <r>    3.0593    1.0000 </r>
       <r>    5.6622    1.0000 </r>
       <r>    9.3375    1.0000 </r>
       <r>   10.0112    1.0000 </r>
       <r>   10.0112    1.0000 </r>
       <r>   10.4748    1.0000 </r>
       <r>   10.4748    1.0000 </r>
       <r>   12.2488    1.0000 </r>
       <r>   12.2488    1.0000 </r>
       <r>   12.4137    1.0000 </r>
       <r>   14.1718    1.0000 </r>
       <r>   14.1718    1.0000 </r>
       <r>   21.2330    0.0000 </r>
       <r>   28.7054    0.0000 </r>
       <r>   30.6906    0.0000 </r>
       <r>   31.3236    0.0000 </r>
       <r>   36.0365    0.0000 </r>
       <r>   36.0365    0.0000 </r>
      </set>
      <set comment="kpoint 16">
       <r>  -38.8826    1.0000 </r>
       <r>  -38.5390    1.0000 </r>
       <r>  -38.4924    1.0000 </r>
       <r>  -38.4770    1.0000 </r>
       <r>  -38.4197    1.0000 </r>
       <r>  -38.3357    1.0000 </r>
       <r>    3.4808    1.0000 </r>
       <r>    6.0608    1.0000 </r>
       <r>    9.2971    1.0000 </r>
       <r>    9.9247    1.0000 </r>
       <r>   10.1807    1.0000 </r>
       <r>   10.3488    1.0000 </r>
       <r>   10.8026    1.0000 </r>
       <r>   11.2115    1.0000 </r>
       <r>   12.0416    1.0000 </r>
       <r>   12.0582    1.0000 </r>
       <r>   14.2482    1.0000 </r>
       <r>   15.5847    0.0000 </r>
       <r>   21.2798    0.0000 </r>
       <r>   29.4325    0.0000 </r>
       <r>   31.2876    0.0000 </r>
       <r>   31.9859    0.0000 </r>
       <r>   34.2454    0.0000 </r>
       <r>   35.3450    0.0000 </r>
      </set>
      <set comment="kpoint 17">
       <r>  -38.8334    1.0000 </r>
       <r>  -38.7033    1.0000 </r>
       <r>  -38.6520    1.0000 </r>
       <r>  -38.5407    1.0000 </r>
       <r>  -38.4547    1.0000 </r>
       <r>  -38.3471    1.0000 </r>
       <r>    4.5933    1.0000 </r>
       <r>    6.9118    1.0000 </r>
       <r>    9.0451    1.0000 </r>
       <r>    9.2770    1.0000 </r>
       <r>    9.6627    1.0000 </r>
       <r>   10.6842    1.0000 </r>
       <r>   11.1613    1.0000 </r>
       <r>   11.6204    1.0000 </r>
       <r>   11.6737    1.0000 </r>
       <r>   11.8535    1.0000 </r>
       <r>   14.3640    0.9998 </r>
       <r>   17.4580    0.0000 </r>
       <r>   21.5511    0.0000 </r>
       <r>   29.8357    0.0000 </r>
       <r>   31.1818    0.0000 </r>
       <r>   32.6204    0.0000 </r>
       <r>   33.1707    0.0000 </r>
       <r>   33.8416    0.0000 </r>
      </set>
      <set comment="kpoint 18">
       <r>  -38.9359    1.0000 </r>
       <r>  -38.8623    1.0000 </r>
       <r>  -38.7298    1.0000 </r>
       <r>  -38.5987    1.0000 </r>
       <r>  -38.4998    1.0000 </r>
       <r>  -38.3720    1.0000 </r>
       <r>    5.7992    1.0000 </r>
       <r>    6.9731    1.0000 </r>
       <r>    8.2323    1.0000 </r>
       <r>    9.1244    1.0000 </r>
       <r>    9.8690    1.0000 </r>
       <r>   10.8884    1.0000 </r>
       <r>   10.9525    1.0000 </r>
       <r>   12.3936    1.0000 </r>
       <r>   12.8639    1.0000 </r>
       <r>   13.0961    1.0000 </r>
       <r>   14.4285    0.9596 </r>
       <r>   18.7784    0.0000 </r>
       <r>   22.3871    0.0000 </r>
       <r>   26.4618    0.0000 </r>
       <r>   29.8331    0.0000 </r>
       <r>   30.6187    0.0000 </r>
       <r>   32.5311    0.0000 </r>
       <r>   34.2252    0.0000 </r>
      </set>
      <set comment="kpoint 19">
       <r>  -39.1001    1.0000 </r>
       <r>  -39.0251    1.0000 </r>
       <r>  -38.6535    1.0000 </r>
       <r>  -38.6446    1.0000 </r>
       <r>  -38.5358    1.0000 </r>
       <r>  -38.4076    1.0000 </r>
       <r>    6.2225    1.0000 </r>
       <r>    6.5338    1.0000 </r>
       <r>    7.6303    1.0000 </r>
       <r>    9.1918    1.0000 </r>
       <r>   10.5820    1.0000 </r>
       <r>   10.6224    1.0000 </r>
       <r>   11.4907    1.0000 </r>
       <r>   14.1776    1.0000 </r>
       <r>   14.3007    1.0000 </r>
       <r>   14.5775    0.0068 </r>
       <r>   14.6706    0.0000 </r>
       <r>   19.7391    0.0000 </r>
       <r>   22.3204    0.0000 </r>
       <r>   24.1599    0.0000 </r>
       <r>   28.1873    0.0000 </r>
       <r>   28.4054    0.0000 </r>
       <r>   29.1155    0.0000 </r>
       <r>   32.6642    0.0000 </r>
      </set>
      <set comment="kpoint 20">
       <r>  -39.1636    1.0000 </r>
       <r>  -39.0862    1.0000 </r>
       <r>  -38.6618    1.0000 </r>
       <r>  -38.6137    1.0000 </r>
       <r>  -38.5499    1.0000 </r>
       <r>  -38.4305    1.0000 </r>
       <r>    6.2561    1.0000 </r>
       <r>    6.2906    1.0000 </r>
       <r>    7.4375    1.0000 </r>
       <r>    9.2600    1.0000 </r>
       <r>   10.5009    1.0000 </r>
       <r>   10.7726    1.0000 </r>
       <r>   12.0213    1.0000 </r>
       <r>   14.2935    1.0000 </r>
       <r>   14.9353    0.0000 </r>
       <r>   15.1741    0.0000 </r>
       <r>   16.7950    0.0000 </r>
       <r>   18.6872    0.0000 </r>
       <r>   22.5972    0.0000 </r>
       <r>   23.5062    0.0000 </r>
       <r>   26.4832    0.0000 </r>
       <r>   27.4547    0.0000 </r>
       <r>   28.2060    0.0000 </r>
       <r>   32.1581    0.0000 </r>
      </set>
      <set comment="kpoint 21">
       <r>  -38.8467    1.0000 </r>
       <r>  -38.6427    1.0000 </r>
       <r>  -38.6099    1.0000 </r>
       <r>  -38.5179    1.0000 </r>
       <r>  -38.4536    1.0000 </r>
       <r>  -38.3427    1.0000 </r>
       <r>    4.2616    1.0000 </r>
       <r>    6.7542    1.0000 </r>
       <r>    8.9818    1.0000 </r>
       <r>    9.5517    1.0000 </r>
       <r>   10.0162    1.0000 </r>
       <r>   10.2979    1.0000 </r>
       <r>   11.0392    1.0000 </r>
       <r>   11.3113    1.0000 </r>
       <r>   11.7056    1.0000 </r>
       <r>   12.0549    1.0000 </r>
       <r>   14.2635    1.0000 </r>
       <r>   17.0252    0.0000 </r>
       <r>   21.4457    0.0000 </r>
       <r>   30.3933    0.0000 </r>
       <r>   31.9191    0.0000 </r>
       <r>   32.0898    0.0000 </r>
       <r>   32.4913    0.0000 </r>
       <r>   34.5400    0.0000 </r>
      </set>
      <set comment="kpoint 22">
       <r>  -38.8490    1.0000 </r>
       <r>  -38.7922    1.0000 </r>
       <r>  -38.7454    1.0000 </r>
       <r>  -38.5851    1.0000 </r>
       <r>  -38.5070    1.0000 </r>
       <r>  -38.3611    1.0000 </r>
       <r>    5.5353    1.0000 </r>
       <r>    7.4460    1.0000 </r>
       <r>    8.5480    1.0000 </r>
       <r>    8.8234    1.0000 </r>
       <r>    9.5438    1.0000 </r>
       <r>   10.3628    1.0000 </r>
       <r>   11.2752    1.0000 </r>
       <r>   11.4682    1.0000 </r>
       <r>   12.6342    1.0000 </r>
       <r>   12.9664    1.0000 </r>
       <r>   14.2686    1.0000 </r>
       <r>   18.4879    0.0000 </r>
       <r>   22.1107    0.0000 </r>
       <r>   28.2646    0.0000 </r>
       <r>   30.0047    0.0000 </r>
       <r>   31.0168    0.0000 </r>
       <r>   32.9024    0.0000 </r>
       <r>   35.1879    0.0000 </r>
      </set>
      <set comment="kpoint 23">
       <r>  -39.0170    1.0000 </r>
       <r>  -38.9538    1.0000 </r>
       <r>  -38.6838    1.0000 </r>
       <r>  -38.6509    1.0000 </r>
       <r>  -38.5577    1.0000 </r>
       <r>  -38.3927    1.0000 </r>
       <r>    6.4558    1.0000 </r>
       <r>    7.0827    1.0000 </r>
       <r>    7.8884    1.0000 </r>
       <r>    9.0042    1.0000 </r>
       <r>   10.1130    1.0000 </r>
       <r>   10.5705    1.0000 </r>
       <r>   10.8667    1.0000 </r>
       <r>   12.5468    1.0000 </r>
       <r>   13.9730    1.0000 </r>
       <r>   14.0550    1.0000 </r>
       <r>   14.9630    0.0000 </r>
       <r>   19.6771    0.0000 </r>
       <r>   23.0178    0.0000 </r>
       <r>   24.8666    0.0000 </r>
       <r>   27.6924    0.0000 </r>
       <r>   29.5260    0.0000 </r>
       <r>   31.1761    0.0000 </r>
       <r>   33.1526    0.0000 </r>
      </set>
      <set comment="kpoint 24">
       <r>  -39.1282    1.0000 </r>
       <r>  -39.0533    1.0000 </r>
       <r>  -38.6988    1.0000 </r>
       <r>  -38.6120    1.0000 </r>
       <r>  -38.5893    1.0000 </r>
       <r>  -38.4287    1.0000 </r>
       <r>    6.5334    1.0000 </r>
       <r>    6.6971    1.0000 </r>
       <r>    7.6301    1.0000 </r>
       <r>    9.1914    1.0000 </r>
       <r>   10.1674    1.0000 </r>
       <r>   10.9268    1.0000 </r>
       <r>   11.3987    1.0000 </r>
       <r>   14.0051    1.0000 </r>
       <r>   14.1563    1.0000 </r>
       <r>   14.7220    0.0000 </r>
       <r>   16.8399    0.0000 </r>
       <r>   19.9545    0.0000 </r>
       <r>   22.1420    0.0000 </r>
       <r>   24.4777    0.0000 </r>
       <r>   25.6977    0.0000 </r>
       <r>   28.1436    0.0000 </r>
       <r>   28.8956    0.0000 </r>
       <r>   31.9561    0.0000 </r>
      </set>
      <set comment="kpoint 25">
       <r>  -38.9384    1.0000 </r>
       <r>  -38.9364    1.0000 </r>
       <r>  -38.6900    1.0000 </r>
       <r>  -38.6674    1.0000 </r>
       <r>  -38.5957    1.0000 </r>
       <r>  -38.3875    1.0000 </r>
       <r>    6.8061    1.0000 </r>
       <r>    7.8359    1.0000 </r>
       <r>    8.1808    1.0000 </r>
       <r>    8.3213    1.0000 </r>
       <r>    9.8319    1.0000 </r>
       <r>    9.9044    1.0000 </r>
       <r>   10.9356    1.0000 </r>
       <r>   11.7526    1.0000 </r>
       <r>   13.7960    1.0000 </r>
       <r>   14.0340    1.0000 </r>
       <r>   15.0765    0.0000 </r>
       <r>   19.7432    0.0000 </r>
       <r>   23.2720    0.0000 </r>
       <r>   26.0216    0.0000 </r>
       <r>   26.4884    0.0000 </r>
       <r>   30.4315    0.0000 </r>
       <r>   32.0432    0.0000 </r>
       <r>   33.6724    0.0000 </r>
      </set>
      <set comment="kpoint 26">
       <r>  -39.0450    1.0000 </r>
       <r>  -38.9954    1.0000 </r>
       <r>  -38.7614    1.0000 </r>
       <r>  -38.6790    1.0000 </r>
       <r>  -38.6088    1.0000 </r>
       <r>  -38.4267    1.0000 </r>
       <r>    7.2379    1.0000 </r>
       <r>    7.6769    1.0000 </r>
       <r>    7.9144    1.0000 </r>
       <r>    8.8435    1.0000 </r>
       <r>    9.8654    1.0000 </r>
       <r>   10.3457    1.0000 </r>
       <r>   10.7449    1.0000 </r>
       <r>   12.6710    1.0000 </r>
       <r>   13.6264    1.0000 </r>
       <r>   14.6152    0.0002 </r>
       <r>   17.0913    0.0000 </r>
       <r>   21.6808    0.0000 </r>
       <r>   21.8624    0.0000 </r>
       <r>   24.1588    0.0000 </r>
       <r>   25.8260    0.0000 </r>
       <r>   29.3068    0.0000 </r>
       <r>   30.0015    0.0000 </r>
       <r>   31.9097    0.0000 </r>
      </set>
      <set comment="kpoint 27">
       <r>  -39.0847    1.0000 </r>
       <r>  -39.0111    1.0000 </r>
       <r>  -38.8058    1.0000 </r>
       <r>  -38.7061    1.0000 </r>
       <r>  -38.5682    1.0000 </r>
       <r>  -38.4553    1.0000 </r>
       <r>    7.1071    1.0000 </r>
       <r>    7.5308    1.0000 </r>
       <r>    8.0212    1.0000 </r>
       <r>    9.1163    1.0000 </r>
       <r>    9.6608    1.0000 </r>
       <r>   10.5957    1.0000 </r>
       <r>   11.1199    1.0000 </r>
       <r>   13.5478    1.0000 </r>
       <r>   13.6265    1.0000 </r>
       <r>   14.3280    1.0000 </r>
       <r>   18.7686    0.0000 </r>
       <r>   19.4778    0.0000 </r>
       <r>   22.8464    0.0000 </r>
       <r>   24.3864    0.0000 </r>
       <r>   25.3864    0.0000 </r>
       <r>   28.6710    0.0000 </r>
       <r>   29.6627    0.0000 </r>
       <r>   30.5084    0.0000 </r>
      </set>
      <set comment="kpoint 28">
       <r>  -39.0165    1.0000 </r>
       <r>  -38.9653    1.0000 </r>
       <r>  -38.8783    1.0000 </r>
       <r>  -38.8025    1.0000 </r>
       <r>  -38.5439    1.0000 </r>
       <r>  -38.4739    1.0000 </r>
       <r>    7.4910    1.0000 </r>
       <r>    8.1192    1.0000 </r>
       <r>    8.4676    1.0000 </r>
       <r>    8.8200    1.0000 </r>
       <r>    9.7910    1.0000 </r>
       <r>    9.8293    1.0000 </r>
       <r>   11.0456    1.0000 </r>
       <r>   13.1847    1.0000 </r>
       <r>   13.3230    1.0000 </r>
       <r>   14.1359    1.0000 </r>
       <r>   18.9143    0.0000 </r>
       <r>   20.1708    0.0000 </r>
       <r>   21.7666    0.0000 </r>
       <r>   24.8612    0.0000 </r>
       <r>   27.6646    0.0000 </r>
       <r>   27.7045    0.0000 </r>
       <r>   29.6937    0.0000 </r>
       <r>   30.9713    0.0000 </r>
      </set>
      <set comment="kpoint 29">
       <r>  -38.8382    1.0000 </r>
       <r>  -38.4657    1.0000 </r>
       <r>  -38.4657    1.0000 </r>
       <r>  -38.4142    1.0000 </r>
       <r>  -38.4142    1.0000 </r>
       <r>  -38.4034    1.0000 </r>
       <r>    3.5114    1.0000 </r>
       <r>    5.6073    1.0000 </r>
       <r>    9.2346    1.0000 </r>
       <r>    9.9713    1.0000 </r>
       <r>    9.9713    1.0000 </r>
       <r>   10.3419    1.0000 </r>
       <r>   10.3419    1.0000 </r>
       <r>   11.1507    1.0000 </r>
       <r>   12.5867    1.0000 </r>
       <r>   12.5867    1.0000 </r>
       <r>   14.0566    1.0000 </r>
       <r>   14.0566    1.0000 </r>
       <r>   23.2336    0.0000 </r>
       <r>   28.2641    0.0000 </r>
       <r>   30.5994    0.0000 </r>
       <r>   31.4327    0.0000 </r>
       <r>   35.2778    0.0000 </r>
       <r>   35.2778    0.0000 </r>
      </set>
      <set comment="kpoint 30">
       <r>  -38.8238    1.0000 </r>
       <r>  -38.5285    1.0000 </r>
       <r>  -38.4959    1.0000 </r>
       <r>  -38.4838    1.0000 </r>
       <r>  -38.4281    1.0000 </r>
       <r>  -38.3900    1.0000 </r>
       <r>    3.9236    1.0000 </r>
       <r>    6.0233    1.0000 </r>
       <r>    9.2723    1.0000 </r>
       <r>    9.7257    1.0000 </r>
       <r>    9.8209    1.0000 </r>
       <r>   10.2908    1.0000 </r>
       <r>   10.6614    1.0000 </r>
       <r>   10.7669    1.0000 </r>
       <r>   12.4205    1.0000 </r>
       <r>   12.4237    1.0000 </r>
       <r>   14.0912    1.0000 </r>
       <r>   14.8116    0.0000 </r>
       <r>   23.3482    0.0000 </r>
       <r>   28.9756    0.0000 </r>
       <r>   31.2381    0.0000 </r>
       <r>   31.9823    0.0000 </r>
       <r>   33.9487    0.0000 </r>
       <r>   35.0031    0.0000 </r>
      </set>
      <set comment="kpoint 31">
       <r>  -38.8098    1.0000 </r>
       <r>  -38.6808    1.0000 </r>
       <r>  -38.6567    1.0000 </r>
       <r>  -38.5311    1.0000 </r>
       <r>  -38.4649    1.0000 </r>
       <r>  -38.3911    1.0000 </r>
       <r>    4.9733    1.0000 </r>
       <r>    6.9386    1.0000 </r>
       <r>    8.8025    1.0000 </r>
       <r>    9.1915    1.0000 </r>
       <r>    9.3672    1.0000 </r>
       <r>   10.4407    1.0000 </r>
       <r>   11.0570    1.0000 </r>
       <r>   11.5353    1.0000 </r>
       <r>   12.2393    1.0000 </r>
       <r>   12.2544    1.0000 </r>
       <r>   14.1274    1.0000 </r>
       <r>   16.0547    0.0000 </r>
       <r>   23.6707    0.0000 </r>
       <r>   29.9729    0.0000 </r>
       <r>   31.0328    0.0000 </r>
       <r>   32.0491    0.0000 </r>
       <r>   33.6364    0.0000 </r>
       <r>   34.2510    0.0000 </r>
      </set>
      <set comment="kpoint 32">
       <r>  -38.9466    1.0000 </r>
       <r>  -38.8833    1.0000 </r>
       <r>  -38.6670    1.0000 </r>
       <r>  -38.5872    1.0000 </r>
       <r>  -38.5114    1.0000 </r>
       <r>  -38.4025    1.0000 </r>
       <r>    5.9344    1.0000 </r>
       <r>    7.0455    1.0000 </r>
       <r>    8.1292    1.0000 </r>
       <r>    8.7735    1.0000 </r>
       <r>   10.0226    1.0000 </r>
       <r>   11.0420    1.0000 </r>
       <r>   11.1845    1.0000 </r>
       <r>   12.6804    1.0000 </r>
       <r>   12.7687    1.0000 </r>
       <r>   13.0808    1.0000 </r>
       <r>   14.1824    1.0000 </r>
       <r>   17.1184    0.0000 </r>
       <r>   23.9052    0.0000 </r>
       <r>   27.3919    0.0000 </r>
       <r>   29.6700    0.0000 </r>
       <r>   31.4465    0.0000 </r>
       <r>   32.0624    0.0000 </r>
       <r>   33.3483    0.0000 </r>
      </set>
      <set comment="kpoint 33">
       <r>  -39.1064    1.0000 </r>
       <r>  -39.0466    1.0000 </r>
       <r>  -38.6324    1.0000 </r>
       <r>  -38.6088    1.0000 </r>
       <r>  -38.5487    1.0000 </r>
       <r>  -38.4238    1.0000 </r>
       <r>    6.0859    1.0000 </r>
       <r>    6.5837    1.0000 </r>
       <r>    7.9221    1.0000 </r>
       <r>    8.3931    1.0000 </r>
       <r>   10.9179    1.0000 </r>
       <r>   10.9432    1.0000 </r>
       <r>   12.5381    1.0000 </r>
       <r>   13.5865    1.0000 </r>
       <r>   14.2711    1.0000 </r>
       <r>   14.3537    0.9999 </r>
       <r>   14.6747    0.0000 </r>
       <r>   18.0762    0.0000 </r>
       <r>   22.6858    0.0000 </r>
       <r>   25.0884    0.0000 </r>
       <r>   28.0126    0.0000 </r>
       <r>   29.3610    0.0000 </r>
       <r>   29.8729    0.0000 </r>
       <r>   32.8084    0.0000 </r>
      </set>
      <set comment="kpoint 34">
       <r>  -39.1683    1.0000 </r>
       <r>  -39.1078    1.0000 </r>
       <r>  -38.6489    1.0000 </r>
       <r>  -38.5779    1.0000 </r>
       <r>  -38.5630    1.0000 </r>
       <r>  -38.4386    1.0000 </r>
       <r>    6.0206    1.0000 </r>
       <r>    6.3771    1.0000 </r>
       <r>    7.8013    1.0000 </r>
       <r>    8.3381    1.0000 </r>
       <r>   10.8412    1.0000 </r>
       <r>   11.1491    1.0000 </r>
       <r>   13.4297    1.0000 </r>
       <r>   13.6802    1.0000 </r>
       <r>   14.9746    0.0000 </r>
       <r>   15.1489    0.0000 </r>
       <r>   15.8731    0.0000 </r>
       <r>   18.1786    0.0000 </r>
       <r>   22.4218    0.0000 </r>
       <r>   22.8023    0.0000 </r>
       <r>   27.8253    0.0000 </r>
       <r>   28.4518    0.0000 </r>
       <r>   28.6788    0.0000 </r>
       <r>   32.7991    0.0000 </r>
      </set>
      <set comment="kpoint 35">
       <r>  -38.8057    1.0000 </r>
       <r>  -38.6236    1.0000 </r>
       <r>  -38.6209    1.0000 </r>
       <r>  -38.5153    1.0000 </r>
       <r>  -38.4625    1.0000 </r>
       <r>  -38.3887    1.0000 </r>
       <r>    4.6729    1.0000 </r>
       <r>    6.7586    1.0000 </r>
       <r>    9.0473    1.0000 </r>
       <r>    9.1085    1.0000 </r>
       <r>    9.5274    1.0000 </r>
       <r>   10.3020    1.0000 </r>
       <r>   10.8996    1.0000 </r>
       <r>   11.2838    1.0000 </r>
       <r>   12.2457    1.0000 </r>
       <r>   12.3478    1.0000 </r>
       <r>   14.0594    1.0000 </r>
       <r>   15.7711    0.0000 </r>
       <r>   23.5875    0.0000 </r>
       <r>   30.0339    0.0000 </r>
       <r>   31.8803    0.0000 </r>
       <r>   32.2255    0.0000 </r>
       <r>   32.2903    0.0000 </r>
       <r>   34.2450    0.0000 </r>
      </set>
      <set comment="kpoint 36">
       <r>  -38.8644    1.0000 </r>
       <r>  -38.8063    1.0000 </r>
       <r>  -38.6784    1.0000 </r>
       <r>  -38.5791    1.0000 </r>
       <r>  -38.5168    1.0000 </r>
       <r>  -38.3949    1.0000 </r>
       <r>    5.8116    1.0000 </r>
       <r>    7.5477    1.0000 </r>
       <r>    8.1985    1.0000 </r>
       <r>    8.9365    1.0000 </r>
       <r>    9.3295    1.0000 </r>
       <r>   10.2112    1.0000 </r>
       <r>   11.2238    1.0000 </r>
       <r>   11.9618    1.0000 </r>
       <r>   12.8203    1.0000 </r>
       <r>   12.9266    1.0000 </r>
       <r>   14.0809    1.0000 </r>
       <r>   16.8904    0.0000 </r>
       <r>   24.0306    0.0000 </r>
       <r>   28.8479    0.0000 </r>
       <r>   30.1859    0.0000 </r>
       <r>   31.3027    0.0000 </r>
       <r>   32.4307    0.0000 </r>
       <r>   33.6901    0.0000 </r>
      </set>
      <set comment="kpoint 37">
       <r>  -39.0250    1.0000 </r>
       <r>  -38.9738    1.0000 </r>
       <r>  -38.6572    1.0000 </r>
       <r>  -38.6194    1.0000 </r>
       <r>  -38.5682    1.0000 </r>
       <r>  -38.4120    1.0000 </r>
       <r>    6.3970    1.0000 </r>
       <r>    7.1681    1.0000 </r>
       <r>    7.9578    1.0000 </r>
       <r>    8.6342    1.0000 </r>
       <r>   10.1573    1.0000 </r>
       <r>   10.9351    1.0000 </r>
       <r>   11.1485    1.0000 </r>
       <r>   12.6789    1.0000 </r>
       <r>   13.4286    1.0000 </r>
       <r>   14.2674    1.0000 </r>
       <r>   15.0054    0.0000 </r>
       <r>   18.0456    0.0000 </r>
       <r>   23.6516    0.0000 </r>
       <r>   26.3364    0.0000 </r>
       <r>   27.9706    0.0000 </r>
       <r>   29.6421    0.0000 </r>
       <r>   31.1831    0.0000 </r>
       <r>   32.8217    0.0000 </r>
      </set>
      <set comment="kpoint 38">
       <r>  -39.1327    1.0000 </r>
       <r>  -39.0744    1.0000 </r>
       <r>  -38.6909    1.0000 </r>
       <r>  -38.6064    1.0000 </r>
       <r>  -38.5696    1.0000 </r>
       <r>  -38.4346    1.0000 </r>
       <r>    6.3112    1.0000 </r>
       <r>    6.7867    1.0000 </r>
       <r>    8.0433    1.0000 </r>
       <r>    8.3674    1.0000 </r>
       <r>   10.1624    1.0000 </r>
       <r>   11.4897    1.0000 </r>
       <r>   12.2456    1.0000 </r>
       <r>   13.3808    1.0000 </r>
       <r>   14.0859    1.0000 </r>
       <r>   14.8677    0.0000 </r>
       <r>   16.6519    0.0000 </r>
       <r>   19.0558    0.0000 </r>
       <r>   22.0715    0.0000 </r>
       <r>   24.1290    0.0000 </r>
       <r>   26.8221    0.0000 </r>
       <r>   28.7435    0.0000 </r>
       <r>   29.5418    0.0000 </r>
       <r>   31.9369    0.0000 </r>
      </set>
      <set comment="kpoint 39">
       <r>  -38.9561    1.0000 </r>
       <r>  -38.9443    1.0000 </r>
       <r>  -38.6674    1.0000 </r>
       <r>  -38.6494    1.0000 </r>
       <r>  -38.5907    1.0000 </r>
       <r>  -38.4067    1.0000 </r>
       <r>    6.8656    1.0000 </r>
       <r>    7.6226    1.0000 </r>
       <r>    8.2733    1.0000 </r>
       <r>    8.5669    1.0000 </r>
       <r>    9.7611    1.0000 </r>
       <r>    9.8326    1.0000 </r>
       <r>   10.7595    1.0000 </r>
       <r>   12.2999    1.0000 </r>
       <r>   13.2139    1.0000 </r>
       <r>   14.3437    1.0000 </r>
       <r>   15.1853    0.0000 </r>
       <r>   18.1610    0.0000 </r>
       <r>   24.3141    0.0000 </r>
       <r>   27.0069    0.0000 </r>
       <r>   27.2925    0.0000 </r>
       <r>   30.4218    0.0000 </r>
       <r>   31.0769    0.0000 </r>
       <r>   33.2383    0.0000 </r>
      </set>
      <set comment="kpoint 40">
       <r>  -39.0500    1.0000 </r>
       <r>  -39.0136    1.0000 </r>
       <r>  -38.7614    1.0000 </r>
       <r>  -38.6961    1.0000 </r>
       <r>  -38.5638    1.0000 </r>
       <r>  -38.4302    1.0000 </r>
       <r>    7.0557    1.0000 </r>
       <r>    7.8548    1.0000 </r>
       <r>    7.8878    1.0000 </r>
       <r>    8.8427    1.0000 </r>
       <r>    9.6633    1.0000 </r>
       <r>   10.4550    1.0000 </r>
       <r>   11.0108    1.0000 </r>
       <r>   12.7944    1.0000 </r>
       <r>   13.1626    1.0000 </r>
       <r>   14.8900    0.0000 </r>
       <r>   17.2121    0.0000 </r>
       <r>   20.1712    0.0000 </r>
       <r>   22.3881    0.0000 </r>
       <r>   24.7527    0.0000 </r>
       <r>   26.6600    0.0000 </r>
       <r>   28.9465    0.0000 </r>
       <r>   29.7993    0.0000 </r>
       <r>   32.1229    0.0000 </r>
      </set>
      <set comment="kpoint 41">
       <r>  -39.0872    1.0000 </r>
       <r>  -39.0318    1.0000 </r>
       <r>  -38.8038    1.0000 </r>
       <r>  -38.7242    1.0000 </r>
       <r>  -38.5330    1.0000 </r>
       <r>  -38.4494    1.0000 </r>
       <r>    6.9337    1.0000 </r>
       <r>    7.6793    1.0000 </r>
       <r>    8.3786    1.0000 </r>
       <r>    8.6090    1.0000 </r>
       <r>    9.3317    1.0000 </r>
       <r>   10.9920    1.0000 </r>
       <r>   11.5242    1.0000 </r>
       <r>   12.8779    1.0000 </r>
       <r>   13.7532    1.0000 </r>
       <r>   14.5352    0.1017 </r>
       <r>   18.9857    0.0000 </r>
       <r>   19.5586    0.0000 </r>
       <r>   22.9684    0.0000 </r>
       <r>   23.6627    0.0000 </r>
       <r>   24.9434    0.0000 </r>
       <r>   29.3182    0.0000 </r>
       <r>   30.0171    0.0000 </r>
       <r>   30.5386    0.0000 </r>
      </set>
      <set comment="kpoint 42">
       <r>  -39.0138    1.0000 </r>
       <r>  -38.9840    1.0000 </r>
       <r>  -38.8856    1.0000 </r>
       <r>  -38.8199    1.0000 </r>
       <r>  -38.5131    1.0000 </r>
       <r>  -38.4616    1.0000 </r>
       <r>    7.6066    1.0000 </r>
       <r>    7.9783    1.0000 </r>
       <r>    8.5531    1.0000 </r>
       <r>    8.6814    1.0000 </r>
       <r>    9.6217    1.0000 </r>
       <r>    9.9966    1.0000 </r>
       <r>   11.0663    1.0000 </r>
       <r>   12.6151    1.0000 </r>
       <r>   13.5388    1.0000 </r>
       <r>   14.3817    0.9989 </r>
       <r>   19.2433    0.0000 </r>
       <r>   20.6581    0.0000 </r>
       <r>   22.5976    0.0000 </r>
       <r>   23.4147    0.0000 </r>
       <r>   26.2184    0.0000 </r>
       <r>   27.1686    0.0000 </r>
       <r>   30.5663    0.0000 </r>
       <r>   32.2175    0.0000 </r>
      </set>
      <set comment="kpoint 43">
       <r>  -38.7405    1.0000 </r>
       <r>  -38.5058    1.0000 </r>
       <r>  -38.4542    1.0000 </r>
       <r>  -38.4542    1.0000 </r>
       <r>  -38.4265    1.0000 </r>
       <r>  -38.4265    1.0000 </r>
       <r>    4.1744    1.0000 </r>
       <r>    5.3839    1.0000 </r>
       <r>    9.1796    1.0000 </r>
       <r>    9.9744    1.0000 </r>
       <r>    9.9744    1.0000 </r>
       <r>   10.0154    1.0000 </r>
       <r>   10.1813    1.0000 </r>
       <r>   10.1813    1.0000 </r>
       <r>   13.0258    1.0000 </r>
       <r>   13.0258    1.0000 </r>
       <r>   13.8229    1.0000 </r>
       <r>   13.8229    1.0000 </r>
       <r>   25.5771    0.0000 </r>
       <r>   28.0311    0.0000 </r>
       <r>   29.9679    0.0000 </r>
       <r>   31.1109    0.0000 </r>
       <r>   35.1482    0.0000 </r>
       <r>   35.1482    0.0000 </r>
      </set>
      <set comment="kpoint 44">
       <r>  -38.7361    1.0000 </r>
       <r>  -38.5453    1.0000 </r>
       <r>  -38.5103    1.0000 </r>
       <r>  -38.4712    1.0000 </r>
       <r>  -38.4503    1.0000 </r>
       <r>  -38.4413    1.0000 </r>
       <r>    4.5800    1.0000 </r>
       <r>    5.8090    1.0000 </r>
       <r>    9.1428    1.0000 </r>
       <r>    9.3557    1.0000 </r>
       <r>    9.7225    1.0000 </r>
       <r>   10.2614    1.0000 </r>
       <r>   10.2854    1.0000 </r>
       <r>   10.4955    1.0000 </r>
       <r>   12.9062    1.0000 </r>
       <r>   12.9749    1.0000 </r>
       <r>   13.8031    1.0000 </r>
       <r>   14.1698    1.0000 </r>
       <r>   25.6976    0.0000 </r>
       <r>   28.6342    0.0000 </r>
       <r>   30.6361    0.0000 </r>
       <r>   31.5888    0.0000 </r>
       <r>   33.9704    0.0000 </r>
       <r>   35.0278    0.0000 </r>
      </set>
      <set comment="kpoint 45">
       <r>  -38.7764    1.0000 </r>
       <r>  -38.7050    1.0000 </r>
       <r>  -38.6032    1.0000 </r>
       <r>  -38.5159    1.0000 </r>
       <r>  -38.4805    1.0000 </r>
       <r>  -38.4560    1.0000 </r>
       <r>    5.5501    1.0000 </r>
       <r>    6.7546    1.0000 </r>
       <r>    8.5141    1.0000 </r>
       <r>    8.9610    1.0000 </r>
       <r>    9.4232    1.0000 </r>
       <r>   10.1101    1.0000 </r>
       <r>   11.0697    1.0000 </r>
       <r>   11.3531    1.0000 </r>
       <r>   12.7453    1.0000 </r>
       <r>   12.9942    1.0000 </r>
       <r>   13.7501    1.0000 </r>
       <r>   14.8730    0.0000 </r>
       <r>   25.8850    0.0000 </r>
       <r>   29.6390    0.0000 </r>
       <r>   30.9810    0.0000 </r>
       <r>   31.5663    0.0000 </r>
       <r>   33.1726    0.0000 </r>
       <r>   34.2758    0.0000 </r>
      </set>
      <set comment="kpoint 46">
       <r>  -38.9466    1.0000 </r>
       <r>  -38.9095    1.0000 </r>
       <r>  -38.5918    1.0000 </r>
       <r>  -38.5700    1.0000 </r>
       <r>  -38.5285    1.0000 </r>
       <r>  -38.4521    1.0000 </r>
       <r>    6.1900    1.0000 </r>
       <r>    6.9238    1.0000 </r>
       <r>    8.0487    1.0000 </r>
       <r>    8.5149    1.0000 </r>
       <r>   10.3256    1.0000 </r>
       <r>   10.9500    1.0000 </r>
       <r>   11.5409    1.0000 </r>
       <r>   12.4130    1.0000 </r>
       <r>   13.2752    1.0000 </r>
       <r>   13.3150    1.0000 </r>
       <r>   13.8660    1.0000 </r>
       <r>   15.5940    0.0000 </r>
       <r>   25.3916    0.0000 </r>
       <r>   28.2338    0.0000 </r>
       <r>   29.0477    0.0000 </r>
       <r>   31.3993    0.0000 </r>
       <r>   32.7052    0.0000 </r>
       <r>   33.3217    0.0000 </r>
      </set>
      <set comment="kpoint 47">
       <r>  -39.1061    1.0000 </r>
       <r>  -39.0727    1.0000 </r>
       <r>  -38.6131    1.0000 </r>
       <r>  -38.5678    1.0000 </r>
       <r>  -38.5525    1.0000 </r>
       <r>  -38.4536    1.0000 </r>
       <r>    6.1070    1.0000 </r>
       <r>    6.5391    1.0000 </r>
       <r>    7.8593    1.0000 </r>
       <r>    8.0576    1.0000 </r>
       <r>   11.4536    1.0000 </r>
       <r>   11.6166    1.0000 </r>
       <r>   12.8569    1.0000 </r>
       <r>   13.1478    1.0000 </r>
       <r>   14.1671    1.0000 </r>
       <r>   14.4337    0.9451 </r>
       <r>   14.6148    0.0002 </r>
       <r>   16.4779    0.0000 </r>
       <r>   23.3380    0.0000 </r>
       <r>   24.9323    0.0000 </r>
       <r>   28.5944    0.0000 </r>
       <r>   30.1810    0.0000 </r>
       <r>   30.7276    0.0000 </r>
       <r>   33.3363    0.0000 </r>
      </set>
      <set comment="kpoint 48">
       <r>  -39.1675    1.0000 </r>
       <r>  -39.1338    1.0000 </r>
       <r>  -38.6292    1.0000 </r>
       <r>  -38.5825    1.0000 </r>
       <r>  -38.5322    1.0000 </r>
       <r>  -38.4576    1.0000 </r>
       <r>    5.9964    1.0000 </r>
       <r>    6.3671    1.0000 </r>
       <r>    7.8075    1.0000 </r>
       <r>    7.8654    1.0000 </r>
       <r>   11.3850    1.0000 </r>
       <r>   11.9939    1.0000 </r>
       <r>   12.8931    1.0000 </r>
       <r>   14.5775    0.0068 </r>
       <r>   14.8664    0.0000 </r>
       <r>   15.0183    0.0000 </r>
       <r>   15.1111    0.0000 </r>
       <r>   17.3272    0.0000 </r>
       <r>   22.2865    0.0000 </r>
       <r>   22.4178    0.0000 </r>
       <r>   28.8787    0.0000 </r>
       <r>   29.1749    0.0000 </r>
       <r>   29.8386    0.0000 </r>
       <r>   32.7354    0.0000 </r>
      </set>
      <set comment="kpoint 49">
       <r>  -38.7494    1.0000 </r>
       <r>  -38.6510    1.0000 </r>
       <r>  -38.5829    1.0000 </r>
       <r>  -38.5089    1.0000 </r>
       <r>  -38.4753    1.0000 </r>
       <r>  -38.4521    1.0000 </r>
       <r>    5.2950    1.0000 </r>
       <r>    6.5572    1.0000 </r>
       <r>    8.7000    1.0000 </r>
       <r>    9.0676    1.0000 </r>
       <r>    9.3306    1.0000 </r>
       <r>   10.0099    1.0000 </r>
       <r>   10.8928    1.0000 </r>
       <r>   11.1296    1.0000 </r>
       <r>   12.7819    1.0000 </r>
       <r>   12.9834    1.0000 </r>
       <r>   13.7183    1.0000 </r>
       <r>   14.7190    0.0000 </r>
       <r>   25.8891    0.0000 </r>
       <r>   29.4889    0.0000 </r>
       <r>   31.4904    0.0000 </r>
       <r>   32.1312    0.0000 </r>
       <r>   32.5597    0.0000 </r>
       <r>   33.0693    0.0000 </r>
      </set>
      <set comment="kpoint 50">
       <r>  -38.8632    1.0000 </r>
       <r>  -38.8271    1.0000 </r>
       <r>  -38.6065    1.0000 </r>
       <r>  -38.5679    1.0000 </r>
       <r>  -38.5289    1.0000 </r>
       <r>  -38.4474    1.0000 </r>
       <r>    6.2423    1.0000 </r>
       <r>    7.3209    1.0000 </r>
       <r>    8.1559    1.0000 </r>
       <r>    8.8501    1.0000 </r>
       <r>    9.2812    1.0000 </r>
       <r>    9.9183    1.0000 </r>
       <r>   11.4106    1.0000 </r>
       <r>   12.0943    1.0000 </r>
       <r>   13.1752    1.0000 </r>
       <r>   13.2509    1.0000 </r>
       <r>   13.8138    1.0000 </r>
       <r>   15.4600    0.0000 </r>
       <r>   25.9783    0.0000 </r>
       <r>   29.4356    0.0000 </r>
       <r>   29.9064    0.0000 </r>
       <r>   31.5488    0.0000 </r>
       <r>   31.9507    0.0000 </r>
       <r>   32.4870    0.0000 </r>
      </set>
      <set comment="kpoint 51">
       <r>  -39.0263    1.0000 </r>
       <r>  -38.9970    1.0000 </r>
       <r>  -38.6375    1.0000 </r>
       <r>  -38.5985    1.0000 </r>
       <r>  -38.5497    1.0000 </r>
       <r>  -38.4457    1.0000 </r>
       <r>    6.4766    1.0000 </r>
       <r>    7.0454    1.0000 </r>
       <r>    7.9513    1.0000 </r>
       <r>    8.4660    1.0000 </r>
       <r>   10.4345    1.0000 </r>
       <r>   10.9770    1.0000 </r>
       <r>   11.5145    1.0000 </r>
       <r>   12.5018    1.0000 </r>
       <r>   13.5093    1.0000 </r>
       <r>   14.5378    0.0894 </r>
       <r>   14.9464    0.0000 </r>
       <r>   16.4395    0.0000 </r>
       <r>   24.6112    0.0000 </r>
       <r>   26.7701    0.0000 </r>
       <r>   28.5026    0.0000 </r>
       <r>   30.2835    0.0000 </r>
       <r>   31.1543    0.0000 </r>
       <r>   31.7778    0.0000 </r>
      </set>
      <set comment="kpoint 52">
       <r>  -39.1321    1.0000 </r>
       <r>  -39.0999    1.0000 </r>
       <r>  -38.6745    1.0000 </r>
       <r>  -38.6280    1.0000 </r>
       <r>  -38.5227    1.0000 </r>
       <r>  -38.4508    1.0000 </r>
       <r>    6.3007    1.0000 </r>
       <r>    6.7555    1.0000 </r>
       <r>    7.8922    1.0000 </r>
       <r>    8.1527    1.0000 </r>
       <r>   10.5893    1.0000 </r>
       <r>   12.0924    1.0000 </r>
       <r>   12.2984    1.0000 </r>
       <r>   13.0319    1.0000 </r>
       <r>   14.1174    1.0000 </r>
       <r>   14.8559    0.0000 </r>
       <r>   16.6279    0.0000 </r>
       <r>   18.0094    0.0000 </r>
       <r>   22.3663    0.0000 </r>
       <r>   23.5279    0.0000 </r>
       <r>   28.2397    0.0000 </r>
       <r>   29.4413    0.0000 </r>
       <r>   30.0474    0.0000 </r>
       <r>   31.1242    0.0000 </r>
      </set>
      <set comment="kpoint 53">
       <r>  -38.9660    1.0000 </r>
       <r>  -38.9554    1.0000 </r>
       <r>  -38.6624    1.0000 </r>
       <r>  -38.6414    1.0000 </r>
       <r>  -38.5473    1.0000 </r>
       <r>  -38.4410    1.0000 </r>
       <r>    6.9856    1.0000 </r>
       <r>    7.3969    1.0000 </r>
       <r>    8.4778    1.0000 </r>
       <r>    8.7552    1.0000 </r>
       <r>    9.5593    1.0000 </r>
       <r>    9.5847    1.0000 </r>
       <r>   10.9965    1.0000 </r>
       <r>   12.2478    1.0000 </r>
       <r>   13.4940    1.0000 </r>
       <r>   14.6052    0.0006 </r>
       <r>   15.2116    0.0000 </r>
       <r>   16.5618    0.0000 </r>
       <r>   25.6155    0.0000 </r>
       <r>   27.4779    0.0000 </r>
       <r>   28.5948    0.0000 </r>
       <r>   29.9326    0.0000 </r>
       <r>   30.3455    0.0000 </r>
       <r>   31.8177    0.0000 </r>
      </set>
      <set comment="kpoint 54">
       <r>  -39.0521    1.0000 </r>
       <r>  -39.0328    1.0000 </r>
       <r>  -38.7537    1.0000 </r>
       <r>  -38.7169    1.0000 </r>
       <r>  -38.5144    1.0000 </r>
       <r>  -38.4439    1.0000 </r>
       <r>    7.0366    1.0000 </r>
       <r>    7.5027    1.0000 </r>
       <r>    8.1698    1.0000 </r>
       <r>    8.9130    1.0000 </r>
       <r>    9.6813    1.0000 </r>
       <r>   10.4491    1.0000 </r>
       <r>   11.2295    1.0000 </r>
       <r>   12.0946    1.0000 </r>
       <r>   13.7873    1.0000 </r>
       <r>   14.9653    0.0000 </r>
       <r>   17.4056    0.0000 </r>
       <r>   18.7811    0.0000 </r>
       <r>   23.2491    0.0000 </r>
       <r>   25.0085    0.0000 </r>
       <r>   26.9647    0.0000 </r>
       <r>   28.6664    0.0000 </r>
       <r>   30.0130    0.0000 </r>
       <r>   31.7095    0.0000 </r>
      </set>
      <set comment="kpoint 55">
       <r>  -39.0856    1.0000 </r>
       <r>  -39.0564    1.0000 </r>
       <r>  -38.7930    1.0000 </r>
       <r>  -38.7483    1.0000 </r>
       <r>  -38.4949    1.0000 </r>
       <r>  -38.4505    1.0000 </r>
       <r>    6.9491    1.0000 </r>
       <r>    7.5742    1.0000 </r>
       <r>    8.1289    1.0000 </r>
       <r>    8.8071    1.0000 </r>
       <r>    9.4644    1.0000 </r>
       <r>   10.8909    1.0000 </r>
       <r>   11.8750    1.0000 </r>
       <r>   12.3000    1.0000 </r>
       <r>   14.0218    1.0000 </r>
       <r>   14.5947    0.0016 </r>
       <r>   19.3352    0.0000 </r>
       <r>   19.6568    0.0000 </r>
       <r>   22.4695    0.0000 </r>
       <r>   22.8418    0.0000 </r>
       <r>   25.8084    0.0000 </r>
       <r>   28.3132    0.0000 </r>
       <r>   30.9635    0.0000 </r>
       <r>   31.0080    0.0000 </r>
      </set>
      <set comment="kpoint 56">
       <r>  -39.0129    1.0000 </r>
       <r>  -39.0016    1.0000 </r>
       <r>  -38.8826    1.0000 </r>
       <r>  -38.8429    1.0000 </r>
       <r>  -38.4815    1.0000 </r>
       <r>  -38.4543    1.0000 </r>
       <r>    7.6757    1.0000 </r>
       <r>    7.8073    1.0000 </r>
       <r>    8.6979    1.0000 </r>
       <r>    8.7009    1.0000 </r>
       <r>    9.5562    1.0000 </r>
       <r>    9.9885    1.0000 </r>
       <r>   11.1378    1.0000 </r>
[...]
       </set>
       <set comment="band 12">
        <r>  0.0014  0.0010  0.0000  0.0004  0.0061  0.0376  0.0225  0.0373  0.0040 </r>
        <r>  0.0258  0.0184  0.0000  0.0068  0.1087  0.0021  0.4020  0.0021  0.0713 </r>
       </set>
       <set comment="band 13">
        <r>  0.0001  0.0000  0.0003  0.0000  0.0011  0.2039  0.0000  0.5033  0.0009 </r>
        <r>  0.0054  0.0014  0.0000  0.0006  0.0678  0.0035  0.0008  0.0085  0.0509 </r>
       </set>
       <set comment="band 14">
        <r>  0.0054  0.0014  0.0000  0.0006  0.0678  0.0035  0.0008  0.0085  0.0509 </r>
        <r>  0.0001  0.0000  0.0003  0.0000  0.0011  0.2039  0.0000  0.5033  0.0009 </r>
       </set>
       <set comment="band 15">
        <r>  0.0076  0.0003  0.0006  0.0001  0.1292  0.0296  0.3082  0.0205  0.0473 </r>
        <r>  0.0012  0.0001  0.0037  0.0000  0.0211  0.1810  0.0504  0.1256  0.0077 </r>
       </set>
       <set comment="band 16">
        <r>  0.0012  0.0001  0.0037  0.0000  0.0211  0.1810  0.0504  0.1256  0.0077 </r>
        <r>  0.0076  0.0003  0.0006  0.0001  0.1292  0.0296  0.3082  0.0205  0.0473 </r>
       </set>
       <set comment="band 17">
        <r>  0.0800  0.0283  0.0014  0.0096  0.3043  0.0099  0.0026  0.0039  0.1083 </r>
        <r>  0.0079  0.0028  0.0138  0.0009  0.0300  0.1006  0.0003  0.0393  0.0107 </r>
       </set>
       <set comment="band 18">
        <r>  0.0079  0.0028  0.0138  0.0009  0.0300  0.1006  0.0003  0.0393  0.0107 </r>
        <r>  0.0800  0.0283  0.0014  0.0096  0.3043  0.0099  0.0026  0.0039  0.1083 </r>
       </set>
       <set comment="band 19">
        <r>  0.1878  0.0331  0.0128  0.0117  0.0089  0.0072  0.0043  0.0181  0.0031 </r>
        <r>  0.0820  0.0145  0.0294  0.0051  0.0039  0.0164  0.0019  0.0415  0.0013 </r>
       </set>
       <set comment="band 20">
        <r>  0.0820  0.0145  0.0294  0.0051  0.0039  0.0164  0.0019  0.0415  0.0013 </r>
        <r>  0.1878  0.0331  0.0128  0.0117  0.0089  0.0072  0.0043  0.0181  0.0031 </r>
       </set>
       <set comment="band 21">
        <r>  0.0004  0.0276  0.0480  0.0375  0.0171  0.0045  0.0313  0.0093  0.0511 </r>
        <r>  0.0003  0.0255  0.0521  0.0346  0.0158  0.0048  0.0289  0.0100  0.0471 </r>
       </set>
       <set comment="band 22">
        <r>  0.0003  0.0255  0.0521  0.0346  0.0158  0.0048  0.0289  0.0100  0.0471 </r>
        <r>  0.0004  0.0276  0.0480  0.0375  0.0171  0.0045  0.0313  0.0093  0.0511 </r>
       </set>
       <set comment="band 23">
        <r>  0.0012  0.0334  0.0102  0.0232  0.0124  0.0350  0.0305  0.0134  0.0354 </r>
        <r>  0.0009  0.0253  0.0135  0.0176  0.0094  0.0462  0.0231  0.0177  0.0268 </r>
       </set>
       <set comment="band 24">
        <r>  0.0009  0.0253  0.0135  0.0176  0.0094  0.0462  0.0231  0.0177  0.0268 </r>
        <r>  0.0012  0.0334  0.0102  0.0232  0.0124  0.0350  0.0305  0.0134  0.0354 </r>
       </set>
      </set>
      <set comment="kpoint 68">
       <set comment="band 1">
        <r>  0.0001  0.4421  0.0042  0.4144  0.0000  0.0000  0.0000  0.0000  0.0000 </r>
        <r>  0.0000  0.0300  0.0624  0.0281  0.0000  0.0000  0.0000  0.0000  0.0000 </r>
       </set>
       <set comment="band 2">
        <r>  0.0000  0.0300  0.0624  0.0281  0.0000  0.0000  0.0000  0.0000  0.0000 </r>
        <r>  0.0001  0.4421  0.0042  0.4144  0.0000  0.0000  0.0000  0.0000  0.0000 </r>
       </set>
       <set comment="band 3">
        <r>  0.0000  0.4436  0.0009  0.4738  0.0001  0.0000  0.0000  0.0000  0.0002 </r>
        <r>  0.0000  0.0072  0.0570  0.0077  0.0000  0.0000  0.0000  0.0000  0.0000 </r>
       </set>
       <set comment="band 4">
        <r>  0.0000  0.0072  0.0570  0.0077  0.0000  0.0000  0.0000  0.0000  0.0000 </r>
        <r>  0.0000  0.4436  0.0009  0.4738  0.0001  0.0000  0.0000  0.0000  0.0002 </r>
       </set>
       <set comment="band 5">
        <r>  0.0000  0.0036  0.8181  0.0035  0.0000  0.0000  0.0000  0.0000  0.0000 </r>
        <r>  0.0000  0.0604  0.0482  0.0597  0.0000  0.0000  0.0000  0.0000  0.0000 </r>
       </set>
       <set comment="band 6">
        <r>  0.0000  0.0604  0.0482  0.0597  0.0000  0.0000  0.0000  0.0000  0.0000 </r>
        <r>  0.0000  0.0036  0.8181  0.0035  0.0000  0.0000  0.0000  0.0000  0.0000 </r>
       </set>
       <set comment="band 7">
        <r>  0.0290  0.0028  0.0018  0.0012  0.0358  0.1203  0.0262  0.1102  0.0166 </r>
        <r>  0.0415  0.0040  0.0013  0.0017  0.0514  0.0839  0.0376  0.0769  0.0238 </r>
       </set>
       <set comment="band 8">
        <r>  0.0415  0.0040  0.0013  0.0017  0.0514  0.0839  0.0376  0.0769  0.0238 </r>
        <r>  0.0290  0.0028  0.0018  0.0012  0.0358  0.1203  0.0262  0.1102  0.0166 </r>
       </set>
       <set comment="band 9">
        <r>  0.0094  0.0100  0.0001  0.0060  0.2699  0.0016  0.1274  0.0008  0.2080 </r>
        <r>  0.0002  0.0002  0.0036  0.0001  0.0064  0.0655  0.0030  0.0338  0.0049 </r>
       </set>
       <set comment="band 10">
        <r>  0.0002  0.0002  0.0036  0.0001  0.0064  0.0655  0.0030  0.0338  0.0049 </r>
        <r>  0.0094  0.0100  0.0001  0.0060  0.2699  0.0016  0.1274  0.0008  0.2080 </r>
       </set>
       <set comment="band 11">
        <r>  0.0096  0.0076  0.0029  0.0136  0.0309  0.0524  0.0690  0.0791  0.0802 </r>
        <r>  0.0092  0.0073  0.0030  0.0130  0.0294  0.0549  0.0658  0.0829  0.0765 </r>
       </set>
       <set comment="band 12">
        <r>  0.0092  0.0073  0.0030  0.0130  0.0294  0.0549  0.0658  0.0829  0.0765 </r>
        <r>  0.0096  0.0076  0.0029  0.0136  0.0309  0.0524  0.0690  0.0791  0.0802 </r>
       </set>
       <set comment="band 13">
        <r>  0.0103  0.0015  0.0003  0.0040  0.0448  0.0877  0.0236  0.1091  0.1282 </r>
        <r>  0.0077  0.0011  0.0003  0.0030  0.0335  0.1173  0.0176  0.1459  0.0959 </r>
       </set>
       <set comment="band 14">
        <r>  0.0077  0.0011  0.0003  0.0030  0.0335  0.1173  0.0176  0.1459  0.0959 </r>
        <r>  0.0103  0.0015  0.0003  0.0040  0.0448  0.0877  0.0236  0.1091  0.1282 </r>
       </set>
       <set comment="band 15">
        <r>  0.0046  0.0027  0.0001  0.0009  0.0822  0.0043  0.4744  0.0030  0.0354 </r>
        <r>  0.0001  0.0001  0.0034  0.0000  0.0019  0.1799  0.0112  0.1254  0.0008 </r>
       </set>
       <set comment="band 16">
        <r>  0.0001  0.0001  0.0034  0.0000  0.0019  0.1799  0.0112  0.1254  0.0008 </r>
        <r>  0.0046  0.0027  0.0001  0.0009  0.0822  0.0043  0.4744  0.0030  0.0354 </r>
       </set>
       <set comment="band 17">
        <r>  0.0885  0.0408  0.0005  0.0282  0.2741  0.0012  0.0081  0.0004  0.1362 </r>
        <r>  0.0019  0.0009  0.0247  0.0006  0.0059  0.0539  0.0002  0.0197  0.0029 </r>
       </set>
       <set comment="band 18">
        <r>  0.0019  0.0009  0.0247  0.0006  0.0059  0.0539  0.0002  0.0197  0.0029 </r>
        <r>  0.0885  0.0408  0.0005  0.0282  0.2741  0.0012  0.0081  0.0004  0.1362 </r>
       </set>
       <set comment="band 19">
        <r>  0.1470  0.0123  0.0087  0.0185  0.0101  0.0098  0.0114  0.0542  0.0109 </r>
        <r>  0.1828  0.0152  0.0070  0.0230  0.0126  0.0078  0.0141  0.0436  0.0136 </r>
       </set>
       <set comment="band 20">
        <r>  0.1828  0.0152  0.0070  0.0230  0.0126  0.0078  0.0141  0.0436  0.0136 </r>
        <r>  0.1470  0.0123  0.0087  0.0185  0.0101  0.0098  0.0114  0.0542  0.0109 </r>
       </set>
       <set comment="band 21">
        <r>  0.0158  0.0581  0.0180  0.0419  0.0354  0.0161  0.0054  0.0049  0.0793 </r>
        <r>  0.0072  0.0263  0.0397  0.0190  0.0160  0.0355  0.0024  0.0108  0.0359 </r>
       </set>
       <set comment="band 22">
        <r>  0.0072  0.0263  0.0397  0.0190  0.0160  0.0355  0.0024  0.0108  0.0359 </r>
        <r>  0.0158  0.0581  0.0180  0.0419  0.0354  0.0161  0.0054  0.0049  0.0793 </r>
       </set>
       <set comment="band 23">
        <r>  0.0020  0.0176  0.0424  0.0138  0.0062  0.0262  0.0095  0.0183  0.0097 </r>
        <r>  0.0024  0.0208  0.0360  0.0163  0.0073  0.0222  0.0112  0.0155  0.0115 </r>
       </set>
       <set comment="band 24">
        <r>  0.0024  0.0208  0.0360  0.0163  0.0073  0.0222  0.0112  0.0155  0.0115 </r>
        <r>  0.0020  0.0176  0.0424  0.0138  0.0062  0.0262  0.0095  0.0183  0.0097 </r>
       </set>
      </set>
      <set comment="kpoint 69">
       <set comment="band 1">
        <r>  0.0000  0.2310  0.0002  0.6855  0.0000  0.0000  0.0000  0.0000  0.0001 </r>
        <r>  0.0000  0.0009  0.0605  0.0025  0.0000  0.0000  0.0000  0.0000  0.0000 </r>
       </set>
       <set comment="band 2">
        <r>  0.0000  0.0009  0.0605  0.0025  0.0000  0.0000  0.0000  0.0000  0.0000 </r>
        <r>  0.0000  0.2310  0.0002  0.6855  0.0000  0.0000  0.0000  0.0000  0.0001 </r>
       </set>
       <set comment="band 3">
        <r>  0.0000  0.6550  0.0030  0.2275  0.0002  0.0000  0.0000  0.0000  0.0001 </r>
        <r>  0.0000  0.0406  0.0489  0.0141  0.0000  0.0000  0.0000  0.0000  0.0000 </r>
       </set>
       <set comment="band 4">
        <r>  0.0000  0.0406  0.0489  0.0141  0.0000  0.0000  0.0000  0.0000  0.0000 </r>
        <r>  0.0000  0.6550  0.0030  0.2275  0.0002  0.0000  0.0000  0.0000  0.0001 </r>
       </set>
       <set comment="band 5">
        <r>  0.0000  0.0003  0.8748  0.0002  0.0000  0.0000  0.0000  0.0000  0.0000 </r>
        <r>  0.0000  0.0604  0.0036  0.0543  0.0000  0.0000  0.0000  0.0000  0.0000 </r>
       </set>
       <set comment="band 6">
        <r>  0.0000  0.0604  0.0036  0.0543  0.0000  0.0000  0.0000  0.0000  0.0000 </r>
        <r>  0.0000  0.0003  0.8748  0.0002  0.0000  0.0000  0.0000  0.0000  0.0000 </r>
       </set>
       <set comment="band 7">
        <r>  0.0366  0.0036  0.0004  0.0020  0.0713  0.0416  0.0314  0.1209  0.0246 </r>
        <r>  0.0273  0.0027  0.0006  0.0015  0.0531  0.0559  0.0234  0.1623  0.0183 </r>
       </set>
       <set comment="band 8">
        <r>  0.0273  0.0027  0.0006  0.0015  0.0531  0.0559  0.0234  0.1623  0.0183 </r>
        <r>  0.0366  0.0036  0.0004  0.0020  0.0713  0.0416  0.0314  0.1209  0.0246 </r>
       </set>
       <set comment="band 9">
        <r>  0.0000  0.0105  0.0001  0.0038  0.2952  0.0036  0.1746  0.0038  0.0993 </r>
        <r>  0.0000  0.0006  0.0010  0.0002  0.0160  0.0673  0.0095  0.0707  0.0054 </r>
       </set>
       <set comment="band 10">
        <r>  0.0000  0.0006  0.0010  0.0002  0.0160  0.0673  0.0095  0.0707  0.0054 </r>
        <r>  0.0000  0.0105  0.0001  0.0038  0.2952  0.0036  0.1746  0.0038  0.0993 </r>
       </set>
       <set comment="band 11">
        <r>  0.0006  0.0004  0.0064  0.0011  0.0029  0.3186  0.0008  0.1455  0.0041 </r>
        <r>  0.0125  0.0072  0.0003  0.0217  0.0588  0.0159  0.0166  0.0072  0.0824 </r>
       </set>
       <set comment="band 12">
        <r>  0.0125  0.0072  0.0003  0.0217  0.0588  0.0159  0.0166  0.0072  0.0824 </r>
        <r>  0.0006  0.0004  0.0064  0.0011  0.0029  0.3186  0.0008  0.1455  0.0041 </r>
       </set>
       <set comment="band 13">
        <r>  0.0004  0.0087  0.0001  0.0252  0.1372  0.0023  0.0073  0.0011  0.3793 </r>
        <r>  0.0000  0.0001  0.0034  0.0004  0.0021  0.1467  0.0001  0.0732  0.0059 </r>
       </set>
       <set comment="band 14">
        <r>  0.0000  0.0001  0.0034  0.0004  0.0021  0.1467  0.0001  0.0732  0.0059 </r>
        <r>  0.0004  0.0087  0.0001  0.0252  0.1372  0.0023  0.0073  0.0011  0.3793 </r>
       </set>
       <set comment="band 15">
        <r>  0.0000  0.0010  0.0001  0.0003  0.0308  0.0053  0.5741  0.0068  0.0253 </r>
        <r>  0.0000  0.0000  0.0011  0.0000  0.0014  0.1159  0.0263  0.1491  0.0012 </r>
       </set>
       <set comment="band 16">
        <r>  0.0000  0.0000  0.0011  0.0000  0.0014  0.1159  0.0263  0.1491  0.0012 </r>
        <r>  0.0000  0.0010  0.0001  0.0003  0.0308  0.0053  0.5741  0.0068  0.0253 </r>
       </set>
       <set comment="band 17">
        <r>  0.0173  0.0198  0.0146  0.0564  0.0669  0.0077  0.0111  0.0046  0.1549 </r>
        <r>  0.0084  0.0096  0.0299  0.0275  0.0326  0.0158  0.0054  0.0094  0.0755 </r>
       </set>
       <set comment="band 18">
        <r>  0.0084  0.0096  0.0299  0.0275  0.0326  0.0158  0.0054  0.0094  0.0755 </r>
        <r>  0.0173  0.0198  0.0146  0.0564  0.0669  0.0077  0.0111  0.0046  0.1549 </r>
       </set>
       <set comment="band 19">
        <r>  0.1010  0.0014  0.0005  0.0038  0.0168  0.0382  0.0049  0.0806  0.0094 </r>
        <r>  0.3254  0.0044  0.0002  0.0122  0.0543  0.0118  0.0159  0.0250  0.0304 </r>
       </set>
       <set comment="band 20">
        <r>  0.3254  0.0044  0.0002  0.0122  0.0543  0.0118  0.0159  0.0250  0.0304 </r>
        <r>  0.1010  0.0014  0.0005  0.0038  0.0168  0.0382  0.0049  0.0806  0.0094 </r>
       </set>
       <set comment="band 21">
        <r>  0.0230  0.0755  0.0134  0.0295  0.0684  0.0202  0.0004  0.0083  0.0256 </r>
        <r>  0.0117  0.0384  0.0263  0.0150  0.0348  0.0397  0.0002  0.0162  0.0130 </r>
       </set>
       <set comment="band 22">
        <r>  0.0117  0.0384  0.0263  0.0150  0.0348  0.0397  0.0002  0.0162  0.0130 </r>
        <r>  0.0230  0.0755  0.0134  0.0295  0.0684  0.0202  0.0004  0.0083  0.0256 </r>
       </set>
       <set comment="band 23">
        <r>  0.0054  0.0128  0.0257  0.0333  0.0143  0.0088  0.0053  0.0108  0.0144 </r>
        <r>  0.0022  0.0053  0.0619  0.0138  0.0060  0.0210  0.0022  0.0259  0.0060 </r>
       </set>
       <set comment="band 24">
        <r>  0.0022  0.0053  0.0619  0.0138  0.0060  0.0210  0.0022  0.0259  0.0060 </r>
        <r>  0.0054  0.0128  0.0257  0.0333  0.0143  0.0088  0.0053  0.0108  0.0144 </r>
       </set>
      </set>
      <set comment="kpoint 70">
       <set comment="band 1">
        <r>  0.0000  0.6643  0.0002  0.2406  0.0001  0.0000  0.0000  0.0000  0.0001 </r>
        <r>  0.0000  0.0022  0.0742  0.0008  0.0000  0.0000  0.0000  0.0000  0.0000 </r>
       </set>
       <set comment="band 2">
        <r>  0.0000  0.0022  0.0742  0.0008  0.0000  0.0000  0.0000  0.0000  0.0000 </r>
        <r>  0.0000  0.6643  0.0002  0.2406  0.0001  0.0000  0.0000  0.0000  0.0001 </r>
       </set>
       <set comment="band 3">
        <r>  0.0000  0.2623  0.0002  0.6843  0.0001  0.0000  0.0000  0.0000  0.0002 </r>
        <r>  0.0000  0.0013  0.0353  0.0033  0.0000  0.0000  0.0000  0.0000  0.0000 </r>
       </set>
       <set comment="band 4">
        <r>  0.0000  0.0013  0.0353  0.0033  0.0000  0.0000  0.0000  0.0000  0.0000 </r>
        <r>  0.0000  0.2623  0.0002  0.6843  0.0001  0.0000  0.0000  0.0000  0.0002 </r>
       </set>
       <set comment="band 5">
        <r>  0.0000  0.0022  0.8453  0.0024  0.0000  0.0000  0.0000  0.0000  0.0000 </r>
        <r>  0.0000  0.0526  0.0361  0.0553  0.0000  0.0000  0.0000  0.0000  0.0000 </r>
       </set>
       <set comment="band 6">
        <r>  0.0000  0.0526  0.0361  0.0553  0.0000  0.0000  0.0000  0.0000  0.0000 </r>
        <r>  0.0000  0.0022  0.8453  0.0024  0.0000  0.0000  0.0000  0.0000  0.0000 </r>
       </set>
       <set comment="band 7">
        <r>  0.0180  0.0010  0.0003  0.0010  0.0051  0.2122  0.0522  0.0913  0.0073 </r>
        <r>  0.0341  0.0018  0.0001  0.0020  0.0097  0.1122  0.0988  0.0483  0.0137 </r>
       </set>
       <set comment="band 8">
        <r>  0.0341  0.0018  0.0001  0.0020  0.0097  0.1122  0.0988  0.0483  0.0137 </r>
        <r>  0.0180  0.0010  0.0003  0.0010  0.0051  0.2122  0.0522  0.0913  0.0073 </r>
       </set>
       <set comment="band 9">
        <r>  0.0054  0.0100  0.0000  0.0198  0.0859  0.0005  0.0509  0.0013  0.2263 </r>
        <r>  0.0000  0.0001  0.0009  0.0001  0.0005  0.0790  0.0003  0.2098  0.0014 </r>
       </set>
       <set comment="band 10">
        <r>  0.0000  0.0001  0.0009  0.0001  0.0005  0.0790  0.0003  0.2098  0.0014 </r>
        <r>  0.0054  0.0100  0.0000  0.0198  0.0859  0.0005  0.0509  0.0013  0.2263 </r>
       </set>
       <set comment="band 11">
        <r>  0.0001  0.0010  0.0081  0.0006  0.0092  0.0378  0.0009  0.0676  0.0091 </r>
        <r>  0.0024  0.0272  0.0003  0.0152  0.2459  0.0014  0.0250  0.0025  0.2415 </r>
       </set>
       <set comment="band 12">
        <r>  0.0024  0.0272  0.0003  0.0152  0.2459  0.0014  0.0250  0.0025  0.2415 </r>
        <r>  0.0001  0.0010  0.0081  0.0006  0.0092  0.0378  0.0009  0.0676  0.0091 </r>
       </set>
       <set comment="band 13">
        <r>  0.0062  0.0075  0.0000  0.0030  0.2540  0.0101  0.0133  0.0142  0.1587 </r>
        <r>  0.0004  0.0005  0.0003  0.0002  0.0183  0.1393  0.0010  0.1962  0.0115 </r>
       </set>
       <set comment="band 14">
        <r>  0.0004  0.0005  0.0003  0.0002  0.0183  0.1393  0.0010  0.1962  0.0115 </r>
        <r>  0.0062  0.0075  0.0000  0.0030  0.2540  0.0101  0.0133  0.0142  0.1587 </r>
       </set>
       <set comment="band 15">
        <r>  0.0011  0.0010  0.0000  0.0003  0.0203  0.0075  0.6047  0.0062  0.0079 </r>
        <r>  0.0001  0.0001  0.0006  0.0000  0.0011  0.1397  0.0327  0.1149  0.0004 </r>
       </set>
       <set comment="band 16">
        <r>  0.0001  0.0001  0.0006  0.0000  0.0011  0.1397  0.0327  0.1149  0.0004 </r>
        <r>  0.0011  0.0010  0.0000  0.0003  0.0203  0.0075  0.6047  0.0062  0.0079 </r>
       </set>
       <set comment="band 17">
        <r>  0.1108  0.0563  0.0024  0.0230  0.1998  0.0022  0.0060  0.0008  0.0829 </r>
        <r>  0.0059  0.0030  0.0444  0.0012  0.0106  0.0418  0.0003  0.0145  0.0044 </r>
       </set>
       <set comment="band 18">
        <r>  0.0059  0.0030  0.0444  0.0012  0.0106  0.0418  0.0003  0.0145  0.0044 </r>
        <r>  0.1108  0.0563  0.0024  0.0230  0.1998  0.0022  0.0060  0.0008  0.0829 </r>
       </set>
       <set comment="band 19">
        <r>  0.0042  0.0003  0.0161  0.0002  0.0002  0.0587  0.0001  0.0803  0.0001 </r>
        <r>  0.3826  0.0307  0.0002  0.0136  0.0144  0.0006  0.0130  0.0009  0.0122 </r>
       </set>
       <set comment="band 20">
        <r>  0.3826  0.0307  0.0002  0.0136  0.0144  0.0006  0.0130  0.0009  0.0122 </r>
        <r>  0.0042  0.0003  0.0161  0.0002  0.0002  0.0587  0.0001  0.0803  0.0001 </r>
       </set>
       <set comment="band 21">
        <r>  0.0002  0.0518  0.0012  0.0980  0.0737  0.0026  0.0013  0.0028  0.1635 </r>
        <r>  0.0000  0.0029  0.0217  0.0054  0.0041  0.0470  0.0001  0.0508  0.0090 </r>
       </set>
       <set comment="band 22">
        <r>  0.0000  0.0029  0.0217  0.0054  0.0041  0.0470  0.0001  0.0508  0.0090 </r>
        <r>  0.0002  0.0518  0.0012  0.0980  0.0737  0.0026  0.0013  0.0028  0.1635 </r>
       </set>
       <set comment="band 23">
        <r>  0.0004  0.0141  0.0860  0.0060  0.0072  0.0227  0.0006  0.0192  0.0053 </r>
        <r>  0.0012  0.0430  0.0281  0.0185  0.0219  0.0074  0.0019  0.0063  0.0163 </r>
       </set>
       <set comment="band 24">
        <r>  0.0012  0.0430  0.0281  0.0185  0.0219  0.0074  0.0019  0.0063  0.0163 </r>
        <r>  0.0004  0.0141  0.0860  0.0060  0.0072  0.0227  0.0006  0.0192  0.0053 </r>
       </set>
      </set>
     </set>
    </set>
   </array>
  </projected>
 </calculation>
 <structure name="finalpos" >
  <crystal>
   <varray name="basis" >
    <v>       2.61532352       0.00000000       0.00000000 </v>
    <v>      -1.30766176       2.26493660       0.00000000 </v>
    <v>       0.00000000       0.00000000       4.53098704 </v>
   </varray>
   <i name="volume">     26.83949187 </i>
   <varray name="rec_basis" >
    <v>       0.38236187       0.22075673       0.00000000 </v>
    <v>       0.00000000       0.44151346       0.00000000 </v>
    <v>       0.00000000       0.00000000       0.22070246 </v>
   </varray>
  </crystal>
  <varray name="positions" >
   <v>       0.00000000       0.00000000       0.00000000 </v>
   <v>       0.33333333       0.66666667       0.50000000 </v>
  </varray>
 </structure>
</modeling>
