Pt-hcc                                  
           1
     2.615324    0.000000    0.000000
    -1.307662    2.264937    0.000000
     0.000000    0.000000    4.530987
   Pt
     2
Direct configuration=     1
   0.00000000  0.00000000  0.00000000
   0.33333333  0.66666667  0.50000000
