Co-fcc                                  
   1.00000000000000     
     0.000000    1.719182    1.719182
     1.719182    0.000000    1.719182
     1.719182    1.719182    0.000000
   Co
     1
Direct
  0.000000  0.000000  0.000000
 
   32   32   32
 0.96191003459E+02 0.94146518868E+02 0.88283784320E+02 0.79345392304E+02 0.68367074721E+02
 0.56462414453E+02 0.44645766047E+02 0.33732665417E+02 0.24309776570E+02 0.16737716632E+02
 0.11153964325E+02 0.74695398855E+01 0.53783052866E+01 0.44026091453E+01 0.39836088041E+01
 0.37474724530E+01 0.36678765176E+01 0.37474724530E+01 0.39836088041E+01 0.44026091453E+01
 0.53783052866E+01 0.74695398855E+01 0.11153964325E+02 0.16737716632E+02 0.24309776570E+02
 0.33732665417E+02 0.44645766047E+02 0.56462414453E+02 0.68367074721E+02 0.79345392304E+02
 0.88283784320E+02 0.94146518868E+02 0.94146518868E+02 0.90194125822E+02 0.82802370876E+02
 0.72869207102E+02 0.61475262938E+02 0.49684567436E+02 0.38407029649E+02 0.28337248254E+02
 0.19944378316E+02 0.13475781317E+02 0.89546292691E+01 0.61797359532E+01 0.47514868990E+01
 0.41404874230E+01 0.38320876260E+01 0.36751216062E+01 0.36751216573E+01 0.38320877005E+01
 0.41404873173E+01 0.47514863753E+01 0.61797348511E+01 0.89546275974E+01 0.13475779290E+02
 0.19944376317E+02 0.28337246731E+02 0.38407028974E+02 0.49684567790E+02 0.61475264225E+02
 0.72869208965E+02 0.82802372796E+02 0.90194127247E+02 0.94146519393E+02 0.88283784320E+02
 0.82802370876E+02 0.74435777245E+02 0.64144285303E+02 0.52966968326E+02 0.41859273569E+02
 0.31598647538E+02 0.22751032821E+02 0.15666282634E+02 0.10475063789E+02 0.70838800542E+01
 0.51865051894E+01 0.43127009500E+01 0.39222208122E+01 0.36955015781E+01 0.36193535816E+01
 0.36955016805E+01 0.39222207550E+01 0.43127003251E+01 0.51865036327E+01 0.70838774357E+01
 0.10475060331E+02 0.15666278909E+02 0.22751029615E+02 0.31598645625E+02 0.41859273459E+02
 0.52966970083E+02 0.64144288482E+02 0.74435780995E+02 0.82802374168E+02 0.88283786235E+02
 0.90194127247E+02 0.79345392304E+02 0.72869207102E+02 0.64144285303E+02 0.54107221608E+02
 0.43694644457E+02 0.33724352070E+02 0.24835000134E+02 0.17464899399E+02 0.11842796099E+02
 0.79788514513E+01 0.56659710570E+01 0.45114914999E+01 0.40099897061E+01 0.37252941435E+01
 0.35814231290E+01 0.35814232061E+01 0.37252941965E+01 0.40099892824E+01 0.45114900781E+01
 0.56659683081E+01 0.79788474478E+01 0.11842791394E+02 0.17464894926E+02 0.24834996957E+02
 0.33724351057E+02 0.43694645979E+02 0.54107225377E+02 0.64144290397E+02 0.72869212201E+02
 0.79345396048E+02 0.82802374168E+02 0.82802372796E+02 0.68367074721E+02 0.61475262938E+02
 0.52966968326E+02 0.43694644457E+02 0.34462714469E+02 0.25945603269E+02 0.18646414968E+02
 0.12876048236E+02 0.87380318746E+01 0.61219749318E+01 0.47215618856E+01 0.40905021953E+01
 0.37593210712E+01 0.35596844469E+01 0.34932860362E+01 0.35596847078E+01 0.37593211882E+01
 0.40905015393E+01 0.47215598955E+01 0.61219714086E+01 0.87380271646E+01 0.12876043220E+02
 0.18646410853E+02 0.25945601229E+02 0.34462715255E+02 0.43694648117E+02 0.52966974110E+02
 0.61475269466E+02 0.68367080338E+02 0.72869212201E+02 0.74435780995E+02 0.72869208965E+02
 0.56462414453E+02 0.49684567436E+02 0.41859273569E+02 0.33724352070E+02 0.25945603269E+02
 0.19058246252E+02 0.13431916702E+02 0.92468055509E+01 0.64796337588E+01 0.49105629578E+01
 0.41640377760E+01 0.37921092516E+01 0.35504109443E+01 0.34305141215E+01 0.34305145147E+01
 0.35504118527E+01 0.37921099744E+01 0.41640374790E+01 0.49105610470E+01 0.64796301856E+01
 0.92468009388E+01 0.13431912223E+02 0.19058243295E+02 0.25945602992E+02 0.33724354984E+02
 0.41859279311E+02 0.49684574792E+02 0.56462421663E+02 0.61475269466E+02 0.64144290397E+02
 0.64144288482E+02 0.61475264225E+02 0.44645766047E+02 0.38407029649E+02 0.31598647538E+02
 0.24835000134E+02 0.18646414968E+02 0.13431916702E+02 0.94258313592E+01 0.66762122046E+01
 0.50424335914E+01 0.42229774442E+01 0.38189112280E+01 0.35489471004E+01 0.33895694354E+01
 0.33372790848E+01 0.33895709020E+01 0.35489493680E+01 0.38189132242E+01 0.42229781110E+01
 0.50424323241E+01 0.66762091371E+01 0.94258274014E+01 0.13431913279E+02 0.18646413570E+02
 0.24835001802E+02 0.31598652455E+02 0.38407037012E+02 0.44645774230E+02 0.49684574792E+02
 0.52966974110E+02 0.54107225377E+02 0.52966970083E+02 0.49684567790E+02 0.33732665417E+02
 0.28337248254E+02 0.22751032821E+02 0.17464899399E+02 0.12876048236E+02 0.92468055509E+01
 0.66762122046E+01 0.50897743120E+01 0.42562203044E+01 0.38363006166E+01 0.35508372351E+01
 0.33654711159E+01 0.32755240610E+01 0.32755252464E+01 0.33654742502E+01 0.35508412064E+01
 0.38363040296E+01 0.42562219925E+01 0.50897737865E+01 0.66762098597E+01 0.92468025742E+01
 0.12876046213E+02 0.17464899771E+02 0.22751036361E+02 0.28337254738E+02 0.33732673625E+02
 0.38407037012E+02 0.41859279311E+02 0.43694648117E+02 0.43694645979E+02 0.41859273459E+02
 0.38407028974E+02 0.24309776570E+02 0.19944378316E+02 0.15666282634E+02 0.11842796099E+02
 0.87380318746E+01 0.64796337588E+01 0.50424335914E+01 0.42562203044E+01 0.38423069649E+01
 0.35526876618E+01 0.33533494194E+01 0.32391311113E+01 0.32022044880E+01 0.32391338207E+01
 0.33533540006E+01 0.35526927293E+01 0.38423110742E+01 0.42562224530E+01 0.50424335848E+01
 0.64796322758E+01 0.87380302462E+01 0.11842795836E+02 0.15666284875E+02 0.19944383407E+02
 0.24309783863E+02 0.28337254738E+02 0.31598652455E+02 0.33724354984E+02 0.34462715255E+02
 0.33724351057E+02 0.31598645625E+02 0.28337246731E+02 0.16737716632E+02 0.13475781317E+02
 0.10475063789E+02 0.79788514513E+01 0.61219749318E+01 0.49105629578E+01 0.42229774442E+01
 0.38363006166E+01 0.35526876618E+01 0.33497270647E+01 0.32225552838E+01 0.31621462569E+01
 0.31621475478E+01 0.32225587865E+01 0.33497318030E+01 0.35526923812E+01 0.38363042249E+01
 0.42229793727E+01 0.49105633673E+01 0.61219746354E+01 0.79788516235E+01 0.10475065541E+02
 0.13475785254E+02 0.16737722608E+02 0.19944383407E+02 0.22751036361E+02 0.24835001802E+02
 0.25945602992E+02 0.25945601229E+02 0.24834996957E+02 0.22751029615E+02 0.19944376317E+02
 0.11153964325E+02 0.89546292691E+01 0.70838800542E+01 0.56659710570E+01 0.47215618856E+01
 0.41640377760E+01 0.38189112280E+01 0.35508372351E+01 0.33533494194E+01 0.32225552838E+01
 0.31495197224E+01 0.31262187761E+01 0.31495212809E+01 0.32225579869E+01 0.33533525905E+01
 0.35508401689E+01 0.38189134543E+01 0.41640392183E+01 0.47215628993E+01 0.56659723011E+01
 0.70838822271E+01 0.89546328554E+01 0.11153969350E+02 0.13475785254E+02 0.15666284875E+02
 0.17464899771E+02 0.18646413570E+02 0.19058243295E+02 0.18646410853E+02 0.17464894926E+02
 0.15666278909E+02 0.13475779290E+02 0.74695398855E+01 0.61797359532E+01 0.51865051894E+01
 0.45114914999E+01 0.40905021953E+01 0.37921092516E+01 0.35489471004E+01 0.33654711159E+01
 0.32391311113E+01 0.31621462569E+01 0.31262187761E+01 0.31262188979E+01 0.31621465926E+01
 0.32391315739E+01 0.33654716344E+01 0.35489476653E+01 0.37921099774E+01 0.40905033081E+01
 0.45114932834E+01 0.51865079105E+01 0.61797397197E+01 0.74695445858E+01 0.89546328554E+01
 0.10475065541E+02 0.11842795836E+02 0.12876046213E+02 0.13431913279E+02 0.13431912223E+02
 0.12876043220E+02 0.11842791394E+02 0.10475060331E+02 0.89546275974E+01 0.53783052866E+01
 0.47514868990E+01 0.43127009500E+01 0.40099897061E+01 0.37593210712E+01 0.35504109443E+01
 0.33895694354E+01 0.32755240610E+01 0.32022044880E+01 0.31621475478E+01 0.31495212809E+01
 0.31621465926E+01 0.32022027841E+01 0.32755219826E+01 0.33895674584E+01 0.35504095599E+01
 0.37593206908E+01 0.40099906132E+01 0.43127032102E+01 0.47514903940E+01 0.53783097000E+01
 0.61797397197E+01 0.70838822271E+01 0.79788516235E+01 0.87380302462E+01 0.92468025742E+01
 0.94258274014E+01 0.92468009388E+01 0.87380271646E+01 0.79788474478E+01 0.70838774357E+01
 0.61797348511E+01 0.44026091453E+01 0.41404874230E+01 0.39222208122E+01 0.37252941435E+01
 0.35596844469E+01 0.34305141215E+01 0.33372790848E+01 0.32755252464E+01 0.32391338207E+01
 0.32225587865E+01 0.32225579869E+01 0.32391315739E+01 0.32755219826E+01 0.33372754216E+01
 0.34305107417E+01 0.35596819794E+01 0.37252930306E+01 0.39222212727E+01 0.41404894087E+01
 0.44026123663E+01 0.47514903940E+01 0.51865079105E+01 0.56659723011E+01 0.61219746354E+01
 0.64796322758E+01 0.66762098597E+01 0.66762091371E+01 0.64796301856E+01 0.61219714086E+01
 0.56659683081E+01 0.51865036327E+01 0.47514863753E+01 0.39836088041E+01 0.38320876260E+01
 0.36955015781E+01 0.35814231290E+01 0.34932860362E+01 0.34305145147E+01 0.33895709020E+01
 0.33654742502E+01 0.33533540006E+01 0.33497318030E+01 0.33533525905E+01 0.33654716344E+01
 0.33895674584E+01 0.34305107417E+01 0.34932824714E+01 0.35814202827E+01 0.36954998387E+01
 0.38320872091E+01 0.39836097361E+01 0.41404894087E+01 0.43127032102E+01 0.45114932834E+01
 0.47215628993E+01 0.49105633673E+01 0.50424335848E+01 0.50897737865E+01 0.50424323241E+01
 0.49105610470E+01 0.47215598955E+01 0.45114900781E+01 0.43127003251E+01 0.41404873173E+01
 0.37474724530E+01 0.36751216062E+01 0.36193535816E+01 0.35814232061E+01 0.35596847078E+01
 0.35504118527E+01 0.35489493680E+01 0.35508412064E+01 0.35526927293E+01 0.35526923812E+01
 0.35508401689E+01 0.35489476653E+01 0.35504095599E+01 0.35596819794E+01 0.35814202827E+01
 0.36193507909E+01 0.36751193109E+01 0.37474709647E+01 0.38320872091E+01 0.39222212727E+01
 0.40099906132E+01 0.40905033081E+01 0.41640392183E+01 0.42229793727E+01 0.42562224530E+01
 0.42562219925E+01 0.42229781110E+01 0.41640374790E+01 0.40905015393E+01 0.40099892824E+01
 0.39222207550E+01 0.38320877005E+01 0.36678765176E+01 0.36751216573E+01 0.36955016805E+01
 0.37252941965E+01 0.37593211882E+01 0.37921099744E+01 0.38189132242E+01 0.38363040296E+01
 0.38423110742E+01 0.38363042249E+01 0.38189134543E+01 0.37921099774E+01 0.37593206908E+01
 0.37252930306E+01 0.36954998387E+01 0.36751193109E+01 0.36678739841E+01 0.36751193109E+01
 0.36954998387E+01 0.37252930306E+01 0.37593206908E+01 0.37921099774E+01 0.38189134543E+01
 0.38363042249E+01 0.38423110742E+01 0.38363040296E+01 0.38189132242E+01 0.37921099744E+01
 0.37593211882E+01 0.37252941965E+01 0.36955016805E+01 0.36751216573E+01 0.37474724530E+01
 0.38320877005E+01 0.39222207550E+01 0.40099892824E+01 0.40905015393E+01 0.41640374790E+01
 0.42229781110E+01 0.42562219925E+01 0.42562224530E+01 0.42229793727E+01 0.41640392183E+01
 0.40905033081E+01 0.40099906132E+01 0.39222212727E+01 0.38320872091E+01 0.37474709647E+01
 0.36751193109E+01 0.36193507909E+01 0.35814202827E+01 0.35596819794E+01 0.35504095599E+01
 0.35489476653E+01 0.35508401689E+01 0.35526923812E+01 0.35526927293E+01 0.35508412064E+01
 0.35489493680E+01 0.35504118527E+01 0.35596847078E+01 0.35814232061E+01 0.36193535816E+01
 0.36751216062E+01 0.39836088041E+01 0.41404873173E+01 0.43127003251E+01 0.45114900781E+01
 0.47215598955E+01 0.49105610470E+01 0.50424323241E+01 0.50897737865E+01 0.50424335848E+01
 0.49105633673E+01 0.47215628993E+01 0.45114932834E+01 0.43127032102E+01 0.41404894087E+01
 0.39836097361E+01 0.38320872091E+01 0.36954998387E+01 0.35814202827E+01 0.34932824714E+01
 0.34305107417E+01 0.33895674584E+01 0.33654716344E+01 0.33533525905E+01 0.33497318030E+01
 0.33533540006E+01 0.33654742502E+01 0.33895709020E+01 0.34305145147E+01 0.34932860362E+01
 0.35814231290E+01 0.36955015781E+01 0.38320876260E+01 0.44026091453E+01 0.47514863753E+01
 0.51865036327E+01 0.56659683081E+01 0.61219714086E+01 0.64796301856E+01 0.66762091371E+01
 0.66762098597E+01 0.64796322758E+01 0.61219746354E+01 0.56659723011E+01 0.51865079105E+01
 0.47514903940E+01 0.44026123663E+01 0.41404894087E+01 0.39222212727E+01 0.37252930306E+01
 0.35596819794E+01 0.34305107417E+01 0.33372754216E+01 0.32755219826E+01 0.32391315739E+01
 0.32225579869E+01 0.32225587865E+01 0.32391338207E+01 0.32755252464E+01 0.33372790848E+01
 0.34305141215E+01 0.35596844469E+01 0.37252941435E+01 0.39222208122E+01 0.41404874230E+01
 0.53783052866E+01 0.61797348511E+01 0.70838774357E+01 0.79788474478E+01 0.87380271646E+01
 0.92468009388E+01 0.94258274014E+01 0.92468025742E+01 0.87380302462E+01 0.79788516235E+01
 0.70838822271E+01 0.61797397197E+01 0.53783097000E+01 0.47514903940E+01 0.43127032102E+01
 0.40099906132E+01 0.37593206908E+01 0.35504095599E+01 0.33895674584E+01 0.32755219826E+01
 0.32022027841E+01 0.31621465926E+01 0.31495212809E+01 0.31621475478E+01 0.32022044880E+01
 0.32755240610E+01 0.33895694354E+01 0.35504109443E+01 0.37593210712E+01 0.40099897061E+01
 0.43127009500E+01 0.47514868990E+01 0.74695398855E+01 0.89546275974E+01 0.10475060331E+02
 0.11842791394E+02 0.12876043220E+02 0.13431912223E+02 0.13431913279E+02 0.12876046213E+02
 0.11842795836E+02 0.10475065541E+02 0.89546328554E+01 0.74695445858E+01 0.61797397197E+01
 0.51865079105E+01 0.45114932834E+01 0.40905033081E+01 0.37921099774E+01 0.35489476653E+01
 0.33654716344E+01 0.32391315739E+01 0.31621465926E+01 0.31262188979E+01 0.31262187761E+01
 0.31621462569E+01 0.32391311113E+01 0.33654711159E+01 0.35489471004E+01 0.37921092516E+01
 0.40905021953E+01 0.45114914999E+01 0.51865051894E+01 0.61797359532E+01 0.11153964325E+02
 0.13475779290E+02 0.15666278909E+02 0.17464894926E+02 0.18646410853E+02 0.19058243295E+02
 0.18646413570E+02 0.17464899771E+02 0.15666284875E+02 0.13475785254E+02 0.11153969350E+02
 0.89546328554E+01 0.70838822271E+01 0.56659723011E+01 0.47215628993E+01 0.41640392183E+01
 0.38189134543E+01 0.35508401689E+01 0.33533525905E+01 0.32225579869E+01 0.31495212809E+01
 0.31262187761E+01 0.31495197224E+01 0.32225552838E+01 0.33533494194E+01 0.35508372351E+01
 0.38189112280E+01 0.41640377760E+01 0.47215618856E+01 0.56659710570E+01 0.70838800542E+01
 0.89546292691E+01 0.16737716632E+02 0.19944376317E+02 0.22751029615E+02 0.24834996957E+02
 0.25945601229E+02 0.25945602992E+02 0.24835001802E+02 0.22751036361E+02 0.19944383407E+02
 0.16737722608E+02 0.13475785254E+02 0.10475065541E+02 0.79788516235E+01 0.61219746354E+01
 0.49105633673E+01 0.42229793727E+01 0.38363042249E+01 0.35526923812E+01 0.33497318030E+01
 0.32225587865E+01 0.31621475478E+01 0.31621462569E+01 0.32225552838E+01 0.33497270647E+01
 0.35526876618E+01 0.38363006166E+01 0.42229774442E+01 0.49105629578E+01 0.61219749318E+01
 0.79788514513E+01 0.10475063789E+02 0.13475781317E+02 0.24309776570E+02 0.28337246731E+02
 0.31598645625E+02 0.33724351057E+02 0.34462715255E+02 0.33724354984E+02 0.31598652455E+02
 0.28337254738E+02 0.24309783863E+02 0.19944383407E+02 0.15666284875E+02 0.11842795836E+02
 0.87380302462E+01 0.64796322758E+01 0.50424335848E+01 0.42562224530E+01 0.38423110742E+01
 0.35526927293E+01 0.33533540006E+01 0.32391338207E+01 0.32022044880E+01 0.32391311113E+01
 0.33533494194E+01 0.35526876618E+01 0.38423069649E+01 0.42562203044E+01 0.50424335914E+01
 0.64796337588E+01 0.87380318746E+01 0.11842796099E+02 0.15666282634E+02 0.19944378316E+02
 0.33732665417E+02 0.38407028974E+02 0.41859273459E+02 0.43694645979E+02 0.43694648117E+02
 0.41859279311E+02 0.38407037012E+02 0.33732673625E+02 0.28337254738E+02 0.22751036361E+02
 0.17464899771E+02 0.12876046213E+02 0.92468025742E+01 0.66762098597E+01 0.50897737865E+01
 0.42562219925E+01 0.38363040296E+01 0.35508412064E+01 0.33654742502E+01 0.32755252464E+01
 0.32755240610E+01 0.33654711159E+01 0.35508372351E+01 0.38363006166E+01 0.42562203044E+01
 0.50897743120E+01 0.66762122046E+01 0.92468055509E+01 0.12876048236E+02 0.17464899399E+02
 0.22751032821E+02 0.28337248254E+02 0.44645766047E+02 0.49684567790E+02 0.52966970083E+02
 0.54107225377E+02 0.52966974110E+02 0.49684574792E+02 0.44645774230E+02 0.38407037012E+02
 0.31598652455E+02 0.24835001802E+02 0.18646413570E+02 0.13431913279E+02 0.94258274014E+01
 0.66762091371E+01 0.50424323241E+01 0.42229781110E+01 0.38189132242E+01 0.35489493680E+01
 0.33895709020E+01 0.33372790848E+01 0.33895694354E+01 0.35489471004E+01 0.38189112280E+01
 0.42229774442E+01 0.50424335914E+01 0.66762122046E+01 0.94258313592E+01 0.13431916702E+02
 0.18646414968E+02 0.24835000134E+02 0.31598647538E+02 0.38407029649E+02 0.56462414453E+02
 0.61475264225E+02 0.64144288482E+02 0.64144290397E+02 0.61475269466E+02 0.56462421663E+02
 0.49684574792E+02 0.41859279311E+02 0.33724354984E+02 0.25945602992E+02 0.19058243295E+02
 0.13431912223E+02 0.92468009388E+01 0.64796301856E+01 0.49105610470E+01 0.41640374790E+01
 0.37921099744E+01 0.35504118527E+01 0.34305145147E+01 0.34305141215E+01 0.35504109443E+01
 0.37921092516E+01 0.41640377760E+01 0.49105629578E+01 0.64796337588E+01 0.92468055509E+01
 0.13431916702E+02 0.19058246252E+02 0.25945603269E+02 0.33724352070E+02 0.41859273569E+02
 0.49684567436E+02 0.68367074721E+02 0.72869208965E+02 0.74435780995E+02 0.72869212201E+02
 0.68367080338E+02 0.61475269466E+02 0.52966974110E+02 0.43694648117E+02 0.34462715255E+02
 0.25945601229E+02 0.18646410853E+02 0.12876043220E+02 0.87380271646E+01 0.61219714086E+01
 0.47215598955E+01 0.40905015393E+01 0.37593211882E+01 0.35596847078E+01 0.34932860362E+01
 0.35596844469E+01 0.37593210712E+01 0.40905021953E+01 0.47215618856E+01 0.61219749318E+01
 0.87380318746E+01 0.12876048236E+02 0.18646414968E+02 0.25945603269E+02 0.34462714469E+02
 0.43694644457E+02 0.52966968326E+02 0.61475262938E+02 0.79345392304E+02 0.82802372796E+02
 0.82802374168E+02 0.79345396048E+02 0.72869212201E+02 0.64144290397E+02 0.54107225377E+02
 0.43694645979E+02 0.33724351057E+02 0.24834996957E+02 0.17464894926E+02 0.11842791394E+02
 0.79788474478E+01 0.56659683081E+01 0.45114900781E+01 0.40099892824E+01 0.37252941965E+01
 0.35814232061E+01 0.35814231290E+01 0.37252941435E+01 0.40099897061E+01 0.45114914999E+01
 0.56659710570E+01 0.79788514513E+01 0.11842796099E+02 0.17464899399E+02 0.24835000134E+02
 0.33724352070E+02 0.43694644457E+02 0.54107221608E+02 0.64144285303E+02 0.72869207102E+02
 0.88283784320E+02 0.90194127247E+02 0.88283786235E+02 0.82802374168E+02 0.74435780995E+02
 0.64144288482E+02 0.52966970083E+02 0.41859273459E+02 0.31598645625E+02 0.22751029615E+02
 0.15666278909E+02 0.10475060331E+02 0.70838774357E+01 0.51865036327E+01 0.43127003251E+01
 0.39222207550E+01 0.36955016805E+01 0.36193535816E+01 0.36955015781E+01 0.39222208122E+01
 0.43127009500E+01 0.51865051894E+01 0.70838800542E+01 0.10475063789E+02 0.15666282634E+02
 0.22751032821E+02 0.31598647538E+02 0.41859273569E+02 0.52966968326E+02 0.64144285303E+02
 0.74435777245E+02 0.82802370876E+02 0.94146518868E+02 0.94146519393E+02 0.90194127247E+02
 0.82802372796E+02 0.72869208965E+02 0.61475264225E+02 0.49684567790E+02 0.38407028974E+02
 0.28337246731E+02 0.19944376317E+02 0.13475779290E+02 0.89546275974E+01 0.61797348511E+01
 0.47514863753E+01 0.41404873173E+01 0.38320877005E+01 0.36751216573E+01 0.36751216062E+01
 0.38320876260E+01 0.41404874230E+01 0.47514868990E+01 0.61797359532E+01 0.89546292691E+01
 0.13475781317E+02 0.19944378316E+02 0.28337248254E+02 0.38407029649E+02 0.49684567436E+02
 0.61475262938E+02 0.72869207102E+02 0.82802370876E+02 0.90194125822E+02 0.94146518868E+02
 0.90194125822E+02 0.82802370876E+02 0.72869207102E+02 0.61475262938E+02 0.49684567436E+02
 0.38407029649E+02 0.28337248254E+02 0.19944378316E+02 0.13475781317E+02 0.89546292691E+01
 0.61797359532E+01 0.47514868990E+01 0.41404874230E+01 0.38320876260E+01 0.36751216062E+01
 0.36751216573E+01 0.38320877005E+01 0.41404873173E+01 0.47514863753E+01 0.61797348511E+01
 0.89546275974E+01 0.13475779290E+02 0.19944376317E+02 0.28337246731E+02 0.38407028974E+02
 0.49684567790E+02 0.61475264225E+02 0.72869208965E+02 0.82802372796E+02 0.90194127247E+02
 0.94146519393E+02 0.90194125822E+02 0.84595663904E+02 0.76052231638E+02 0.65545853586E+02
 0.54137414488E+02 0.42800240106E+02 0.32324325489E+02 0.23283708871E+02 0.16033657937E+02
 0.10708789827E+02 0.72180998931E+01 0.52555451024E+01 0.43479715096E+01 0.39481138375E+01
 0.37180096231E+01 0.36406363452E+01 0.37180097127E+01 0.39481137969E+01 0.43479709998E+01
 0.52555438290E+01 0.72180977692E+01 0.10708787076E+02 0.16033655080E+02 0.23283706605E+02
 0.32324324479E+02 0.42800240765E+02 0.54137416823E+02 0.65545857135E+02 0.76052235586E+02
 0.84595667276E+02 0.90194127758E+02 0.92145494322E+02 0.82802370876E+02 0.76052231638E+02
 0.66961843656E+02 0.56508008311E+02 0.45663953003E+02 0.35275680160E+02 0.26001408080E+02
 0.18292890287E+02 0.12388765515E+02 0.83062555071E+01 0.58412871748E+01 0.45984420429E+01
 0.40631475062E+01 0.37702829500E+01 0.36218091947E+01 0.36218091984E+01 0.37702828543E+01
 0.40631470474E+01 0.45984409390E+01 0.58412853006E+01 0.83062530245E+01 0.12388762911E+02
 0.18292888279E+02 0.26001407428E+02 0.35275681416E+02 0.45663956296E+02 0.56508013251E+02
 0.66961849368E+02 0.76052236956E+02 0.82802374642E+02 0.86406649587E+02 0.86406648227E+02
 0.72869207102E+02 0.65545853586E+02 0.56508008311E+02 0.46658977621E+02 0.36846534540E+02
 0.27777951561E+02 0.19980280314E+02 0.13782500736E+02 0.93018186334E+01 0.64359874304E+01
 0.48788467389E+01 0.41747314637E+01 0.38261743646E+01 0.36171250185E+01 0.35473838360E+01
 0.36171248500E+01 0.38261739048E+01 0.41747305487E+01 0.48788452944E+01 0.64359855941E+01
 0.93018168085E+01 0.13782499548E+02 0.19980280460E+02 0.27777953598E+02 0.36846538678E+02
 0.46658983573E+02 0.56508015299E+02 0.65545860462E+02 0.72869212604E+02 0.77655108824E+02
 0.79320813200E+02 0.77655105766E+02 0.61475262938E+02 0.54137414488E+02 0.45663953003E+02
 0.36846534540E+02 0.28395865007E+02 0.20882487913E+02 0.14703955585E+02 0.10062493207E+02
 0.69499421354E+01 0.51517559865E+01 0.42854116801E+01 0.38793590667E+01 0.36228893341E+01
 0.34949384105E+01 0.34949383282E+01 0.36228890502E+01 0.38793585003E+01 0.42854107952E+01
 0.51517548868E+01 0.69499411319E+01 0.10062492804E+02 0.14703956380E+02 0.20882490435E+02
 0.28395869518E+02 0.36846540892E+02 0.45663960579E+02 0.54137422279E+02 0.61475269730E+02
 0.66903243554E+02 0.69793957269E+02 0.69793955626E+02 0.66903238924E+02 0.49684567436E+02
 0.42800240106E+02 0.35275680160E+02 0.27777951561E+02 0.20882487913E+02 0.15026130630E+02
 0.10474388245E+02 0.72985279850E+01 0.53698543847E+01 0.43843109042E+01 0.39241291646E+01
 0.36342739834E+01 0.34616631644E+01 0.34047951776E+01 0.34616632788E+01 0.36342741189E+01
 0.39241291999E+01 0.43843107943E+01 0.53698542530E+01 0.72985281628E+01 0.10474389226E+02
 0.15026132941E+02 0.20882491939E+02 0.27777957364E+02 0.35275687378E+02 0.42800247951E+02
 0.49684574821E+02 0.55241294258E+02 0.58860500181E+02 0.60117751474E+02 0.58860497022E+02
 0.55241288499E+02 0.38407029649E+02 0.32324325489E+02 0.26001408080E+02 0.19980280314E+02
 0.14703955585E+02 0.10474388245E+02 0.74219050199E+01 0.54911172615E+01 0.44538268750E+01
 0.39562245170E+01 0.36464384408E+01 0.34429836488E+01 0.33436056681E+01 0.33436060204E+01
 0.34429845963E+01 0.36464397056E+01 0.39562257768E+01 0.44538279233E+01 0.54911181274E+01
 0.74219060059E+01 0.10474389856E+02 0.14703958355E+02 0.19980284606E+02 0.26001413894E+02
 0.32324332373E+02 0.38407036747E+02 0.43664654902E+02 0.47542952855E+02 0.49603708138E+02
 0.49603706624E+02 0.47542948598E+02 0.43664648688E+02 0.28337248254E+02 0.23283708871E+02
 0.18292890287E+02 0.13782500736E+02 0.10062493207E+02 0.72985279850E+01 0.54911172615E+01
 0.44789342024E+01 0.39731568548E+01 0.36554267070E+01 0.34339711555E+01 0.33059698185E+01
 0.32644080093E+01 0.33059711013E+01 0.34339733779E+01 0.36554293096E+01 0.39731592697E+01
 0.44789360654E+01 0.54911185583E+01 0.72985290600E+01 0.10062494654E+02 0.13782503163E+02
 0.18292894079E+02 0.23283713997E+02 0.28337254198E+02 0.32975819548E+02 0.36720126200E+02
 0.39156187152E+02 0.40001674269E+02 0.39156184519E+02 0.36720121482E+02 0.32975813684E+02
 0.19944378316E+02 0.16033657937E+02 0.12388765515E+02 0.93018186334E+01 0.69499421354E+01
 0.53698543847E+01 0.44538268750E+01 0.39731568548E+01 0.36587102678E+01 0.34305893201E+01
 0.32862119346E+01 0.32172182571E+01 0.32172190875E+01 0.32862142110E+01 0.34305924690E+01
 0.36587135542E+01 0.39731596317E+01 0.44538287983E+01 0.53698555298E+01 0.69499429468E+01
 0.93018197682E+01 0.12388767576E+02 0.16033661231E+02 0.19944382711E+02 0.23753357586E+02
 0.27066230685E+02 0.29516237100E+02 0.30819047501E+02 0.30819046349E+02 0.29516233909E+02
 0.27066226164E+02 0.23753352681E+02 0.13475781317E+02 0.10708789827E+02 0.83062555071E+01
 0.64359874304E+01 0.51517559865E+01 0.43843109042E+01 0.39562245170E+01 0.36554267070E+01
 0.34305893201E+01 0.32801379335E+01 0.31955511467E+01 0.31684706424E+01 0.31955525704E+01
 0.32801404266E+01 0.34305922940E+01 0.36554295323E+01 0.39562267404E+01 0.43843123804E+01
 0.51517569345E+01 0.64359883176E+01 0.83062568837E+01 0.10708792103E+02 0.13475784579E+02
 0.16352731382E+02 0.19037538920E+02 0.21225719668E+02 0.22656559843E+02 0.23154207968E+02
 0.22656557988E+02 0.21225716376E+02 0.19037534905E+02 0.16352727429E+02 0.89546292691E+01
 0.72180998931E+01 0.58412871748E+01 0.48788467389E+01 0.42854116801E+01 0.39241291646E+01
 0.36464384408E+01 0.34339711555E+01 0.32862119346E+01 0.31955511467E+01 0.31530602518E+01
 0.31530606521E+01 0.31955522507E+01 0.32862134828E+01 0.34339728290E+01 0.36464399687E+01
 0.39241304421E+01 0.42854127901E+01 0.48788479449E+01 0.58412888066E+01 0.72181022104E+01
 0.89546323530E+01 0.10907747052E+02 0.12872531572E+02 0.14617955319E+02 0.15925572180E+02
 0.16625700030E+02 0.16625699208E+02 0.15925569870E+02 0.14617951965E+02 0.12872527768E+02
 0.10907743390E+02 0.61797359532E+01 0.52555451024E+01 0.45984420429E+01 0.41747314637E+01
 0.38793590667E+01 0.36342739834E+01 0.34429836488E+01 0.33059698185E+01 0.32172182571E+01
 0.31684706424E+01 0.31530606521E+01 0.31684706014E+01 0.32172181805E+01 0.33059697276E+01
 0.34429836144E+01 0.36342741274E+01 0.38793595803E+01 0.41747325559E+01 0.45984438944E+01
 0.52555478123E+01 0.61797394504E+01 0.73270880974E+01 0.85880632731E+01 0.98114807652E+01
 0.10834678136E+02 0.11514257057E+02 0.11752348063E+02 0.11514255479E+02 0.10834675225E+02
 0.98114769509E+01 0.85880590843E+01 0.73270840506E+01 0.47514868990E+01 0.43479715096E+01
 0.40631475062E+01 0.38261743646E+01 0.36228893341E+01 0.34616631644E+01 0.33436056681E+01
 0.32644080093E+01 0.32172190875E+01 0.31955525704E+01 0.31955522507E+01 0.32172181805E+01
 0.32644066832E+01 0.33436041752E+01 0.34616618361E+01 0.36228885190E+01 0.38261743910E+01
 0.40631486274E+01 0.43479738176E+01 0.47514903252E+01 0.53044525408E+01 0.59801460060E+01
 0.67052945143E+01 0.73798716726E+01 0.79007831284E+01 0.81844906323E+01 0.81844897602E+01
 0.79007806401E+01 0.73798679198E+01 0.67052900116E+01 0.59801413401E+01 0.53044482688E+01
 0.41404874230E+01 0.39481138375E+01 0.37702829500E+01 0.36171250185E+01 0.34949384105E+01
 0.34047951776E+01 0.33436060204E+01 0.33059711013E+01 0.32862142110E+01 0.32801404266E+01
 0.32862134828E+01 0.33059697276E+01 0.33436041752E+01 0.34047931224E+01 0.34949364878E+01
 0.36171236226E+01 0.37702824507E+01 0.39481145394E+01 0.41404894563E+01 0.43650613208E+01
 0.46517793885E+01 0.49927815638E+01 0.53483660801E+01 0.56620272743E+01 0.58775683575E+01
 0.59543366719E+01 0.58775665575E+01 0.56620239733E+01 0.53483618196E+01 0.49927770117E+01
 0.46517752092E+01 0.43650580533E+01 0.38320876260E+01 0.37180096231E+01 0.36218091947E+01
 0.35473838360E+01 0.34949383282E+01 0.34616632788E+01 0.34429845963E+01 0.34339733779E+01
 0.34305924690E+01 0.34305922940E+01 0.34339728290E+01 0.34429836144E+01 0.34616618361E+01
 0.34949364878E+01 0.35473818024E+01 0.36218073185E+01 0.37180083241E+01 0.38320872961E+01
 0.39566878999E+01 0.40825595867E+01 0.42125874354E+01 0.43534309599E+01 0.44923393624E+01
 0.46055109204E+01 0.46692819610E+01 0.46692811634E+01 0.46055087006E+01 0.44923362016E+01
 0.43534275155E+01 0.42125843848E+01 0.40825574676E+01 0.39566870048E+01 0.36751216062E+01
 0.36406363452E+01 0.36218091984E+01 0.36171248500E+01 0.36228890502E+01 0.36342741189E+01
 0.36464397056E+01 0.36554293096E+01 0.36587135542E+01 0.36554295323E+01 0.36464399687E+01
 0.36342741274E+01 0.36228885190E+01 0.36171236226E+01 0.36218073185E+01 0.36406340874E+01
 0.36751194009E+01 0.37239831993E+01 0.37832155136E+01 0.38468564408E+01 0.39082612586E+01
 0.39615733893E+01 0.40044557814E+01 0.40336263101E+01 0.40440933957E+01 0.40336255289E+01
 0.40044544873E+01 0.39615720307E+01 0.39082603312E+01 0.38468563289E+01 0.37832163671E+01
 0.37239848978E+01 0.36751216573E+01 0.37180097127E+01 0.37702828543E+01 0.38261739048E+01
 0.38793585003E+01 0.39241291999E+01 0.39562257768E+01 0.39731592697E+01 0.39731596317E+01
 0.39562267404E+01 0.39241304421E+01 0.38793595803E+01 0.38261743910E+01 0.37702824507E+01
 0.37180083241E+01 0.36751194009E+01 0.36456361867E+01 0.36310320497E+01 0.36300798409E+01
 0.36393685673E+01 0.36542849850E+01 0.36701128595E+01 0.36829087477E+01 0.36899740990E+01
 0.36899743084E+01 0.36829094105E+01 0.36701140523E+01 0.36542867785E+01 0.36393709477E+01
 0.36300826710E+01 0.36310350640E+01 0.36456390153E+01 0.38320877005E+01 0.39481137969E+01
 0.40631470474E+01 0.41747305487E+01 0.42854107952E+01 0.43843107943E+01 0.44538279233E+01
 0.44789360654E+01 0.44538287983E+01 0.43843123804E+01 0.42854127901E+01 0.41747325559E+01
 0.40631486274E+01 0.39481145394E+01 0.38320872961E+01 0.37239831993E+01 0.36310320497E+01
 0.35575133289E+01 0.35043574930E+01 0.34695837478E+01 0.34493232390E+01 0.34390563589E+01
 0.34347374096E+01 0.34336205541E+01 0.34347390926E+01 0.34390594970E+01 0.34493274178E+01
 0.34695884249E+01 0.35043620930E+01 0.35575173173E+01 0.36310350096E+01 0.37239848978E+01
 0.41404873173E+01 0.43479709998E+01 0.45984409390E+01 0.48788452944E+01 0.51517548868E+01
 0.53698542530E+01 0.54911181274E+01 0.54911185583E+01 0.53698555298E+01 0.51517569345E+01
 0.48788479449E+01 0.45984438944E+01 0.43479738176E+01 0.41404894563E+01 0.39566878999E+01
 0.37832155136E+01 0.36300798409E+01 0.35043574930E+01 0.34084469571E+01 0.33406648651E+01
 0.32966757687E+01 0.32712345837E+01 0.32598108134E+01 0.32598120630E+01 0.32712380954E+01
 0.32966808881E+01 0.33406706648E+01 0.34084524519E+01 0.35043618357E+01 0.36300824877E+01