   1   1   1   0
  0.1016239E+02  0.2431291E-09  0.2431291E-09  0.2431291E-09  0.5000000E-15
  1.000000000000000E-004
  CAR 
 Co-fcc                                  
     54.33845071     -0.41675231  301     11.27450760      1.00000000
     -0.417  0.0000E+00  0.0000E+00  0.0000E+00  0.0000E+00
     -0.234  0.0000E+00  0.0000E+00  0.0000E+00  0.0000E+00
     -0.052  0.0000E+00  0.0000E+00  0.0000E+00  0.0000E+00
      0.131  0.0000E+00  0.0000E+00  0.0000E+00  0.0000E+00
      0.313  0.0000E+00  0.0000E+00  0.0000E+00  0.0000E+00
      0.496  0.0000E+00  0.0000E+00  0.0000E+00  0.0000E+00
      0.678  0.0000E+00  0.0000E+00  0.0000E+00  0.0000E+00
      0.861  0.0000E+00  0.0000E+00  0.0000E+00  0.0000E+00
      1.043  0.0000E+00  0.0000E+00  0.0000E+00  0.0000E+00
      1.226  0.0000E+00  0.0000E+00  0.0000E+00  0.0000E+00
      1.408  0.0000E+00  0.0000E+00  0.0000E+00  0.0000E+00
      1.591  0.0000E+00  0.0000E+00  0.0000E+00  0.0000E+00
      1.773  0.0000E+00  0.0000E+00  0.0000E+00  0.0000E+00
      1.956  0.1091E-06  0.8547E-08  0.1991E-07  0.1560E-08
      2.138  0.2074E-03  0.1901E-03  0.3788E-04  0.3470E-04
      2.321  0.6473E-05  0.2390E-04  0.3906E-04  0.3906E-04
      2.504  0.3512E-03  0.1719E-03  0.1032E-03  0.7045E-04
      2.686  0.2909E-03  0.4701E-03  0.1562E-03  0.1562E-03
      2.869  0.7231E-04  0.1160E-04  0.1694E-03  0.1584E-03
      3.051  0.5697E-03  0.6298E-03  0.2734E-03  0.2733E-03
      3.234  0.1565E-04  0.1262E-05  0.2763E-03  0.2735E-03
      3.416  0.8394E-03  0.8328E-03  0.4295E-03  0.4255E-03
      3.599  0.6729E-05  0.2278E-04  0.4307E-03  0.4297E-03
      3.781  0.1271E-02  0.1123E-02  0.6628E-03  0.6346E-03
      3.964  0.2551E-04  0.1613E-03  0.6674E-03  0.6641E-03
      4.146  0.6232E-03  0.5670E-03  0.7812E-03  0.7676E-03
      4.329  0.5770E-04  0.7505E-04  0.7917E-03  0.7813E-03
      4.511  0.1226E-02  0.1052E-02  0.1015E-02  0.9733E-03
      4.694  0.9273E-03  0.2346E-03  0.1185E-02  0.1016E-02
      4.876  0.1001E-02  0.1816E-02  0.1368E-02  0.1348E-02
      5.059  0.7087E-03  0.1185E-03  0.1497E-02  0.1369E-02
      5.241  0.1670E-03  0.6312E-03  0.1527E-02  0.1484E-02
      5.424  0.2673E-02  0.2661E-03  0.2015E-02  0.1533E-02
      5.606  0.1123E-02  0.1259E-02  0.2220E-02  0.1763E-02
      5.789  0.2632E-02  0.1896E-02  0.2701E-02  0.2109E-02
      5.971  0.3895E-02  0.3895E-03  0.3412E-02  0.2180E-02
      6.154  0.7856E-02  0.1548E-02  0.4845E-02  0.2462E-02
      6.336  0.4200E-02  0.1034E-02  0.5612E-02  0.2651E-02
      6.519  0.6693E-02  0.1963E-02  0.6834E-02  0.3009E-02
      6.701  0.9405E-02  0.3018E-02  0.8550E-02  0.3560E-02
      6.884  0.7741E-02  0.4202E-02  0.9963E-02  0.4327E-02
      7.066  0.9798E-02  0.2696E-02  0.1175E-01  0.4819E-02
      7.249  0.6692E-02  0.4545E-02  0.1297E-01  0.5649E-02
      7.431  0.8125E-02  0.5927E-02  0.1446E-01  0.6731E-02
      7.614  0.7360E-02  0.3380E-02  0.1580E-01  0.7348E-02
      7.797  0.7415E-02  0.6158E-02  0.1715E-01  0.8472E-02
      7.979  0.8204E-02  0.6997E-02  0.1865E-01  0.9749E-02
      8.162  0.1087E-01  0.8262E-02  0.2063E-01  0.1126E-01
      8.344  0.1073E-01  0.6386E-02  0.2259E-01  0.1242E-01
      8.527  0.1208E-01  0.5753E-02  0.2480E-01  0.1347E-01
      8.709  0.1540E-01  0.7410E-02  0.2761E-01  0.1482E-01
      8.892  0.1279E-01  0.5267E-02  0.2994E-01  0.1579E-01
      9.074  0.9845E-02  0.7191E-02  0.3174E-01  0.1710E-01
      9.257  0.1090E-01  0.8280E-02  0.3373E-01  0.1861E-01
      9.439  0.8325E-02  0.1041E-01  0.3525E-01  0.2051E-01
      9.622  0.1266E-01  0.7023E-02  0.3756E-01  0.2179E-01
      9.804  0.1032E-01  0.1008E-01  0.3944E-01  0.2363E-01
      9.987  0.1160E-01  0.8580E-02  0.4156E-01  0.2520E-01
     10.169  0.8578E-02  0.1123E-01  0.4313E-01  0.2725E-01
     10.352  0.1122E-01  0.1230E-01  0.4517E-01  0.2949E-01
     10.534  0.1110E-01  0.9608E-02  0.4720E-01  0.3125E-01
     10.717  0.1795E-01  0.6860E-02  0.5048E-01  0.3250E-01
     10.899  0.1001E-01  0.8634E-02  0.5230E-01  0.3407E-01
     11.082  0.2807E-02  0.4895E-02  0.5281E-01  0.3497E-01
     11.264  0.2051E-03  0.1144E-01  0.5285E-01  0.3706E-01
     11.447  0.5118E-03  0.9953E-02  0.5294E-01  0.3887E-01
     11.629  0.2262E-02  0.6753E-02  0.5336E-01  0.4010E-01
     11.812  0.2021E-02  0.1302E-01  0.5373E-01  0.4248E-01
     11.994  0.1626E-02  0.4501E-02  0.5402E-01  0.4330E-01
     12.177  0.2623E-03  0.1242E-01  0.5407E-01  0.4557E-01
     12.359  0.1582E-02  0.1007E-01  0.5436E-01  0.4741E-01
     12.542  0.1879E-02  0.2002E-01  0.5470E-01  0.5106E-01
     12.724  0.1412E-02  0.9432E-02  0.5496E-01  0.5278E-01
     12.907  0.2538E-03  0.3859E-03  0.5501E-01  0.5285E-01
     13.090  0.1797E-02  0.2681E-02  0.5534E-01  0.5334E-01
     13.272  0.1161E-02  0.3879E-02  0.5555E-01  0.5405E-01
     13.455  0.2111E-03  0.1529E-02  0.5559E-01  0.5433E-01
     13.637  0.1835E-02  0.8842E-03  0.5592E-01  0.5449E-01
     13.820  0.1437E-02  0.5574E-03  0.5618E-01  0.5459E-01
     14.002  0.1052E-02  0.1423E-02  0.5637E-01  0.5485E-01
     14.185  0.3441E-02  0.2035E-02  0.5700E-01  0.5522E-01
     14.367  0.3698E-03  0.2091E-02  0.5707E-01  0.5561E-01
     14.550  0.2924E-10  0.2181E-02  0.5707E-01  0.5600E-01
     14.732  0.1269E-03  0.1019E-02  0.5709E-01  0.5619E-01
     14.915  0.1157E-02  0.9700E-03  0.5730E-01  0.5637E-01
     15.097  0.4298E-03  0.1370E-02  0.5738E-01  0.5662E-01
     15.280  0.3421E-02  0.2424E-02  0.5801E-01  0.5706E-01
     15.462  0.9583E-04  0.5716E-04  0.5803E-01  0.5707E-01
     15.645  0.1824E-02  0.4544E-03  0.5836E-01  0.5715E-01
     15.827  0.8100E-05  0.2114E-02  0.5836E-01  0.5754E-01
     16.010  0.4371E-03  0.1457E-02  0.5844E-01  0.5781E-01
     16.192  0.2611E-02  0.1111E-02  0.5892E-01  0.5801E-01
     16.375  0.1620E-03  0.5571E-03  0.5895E-01  0.5811E-01
     16.557  0.2729E-05  0.1427E-02  0.5895E-01  0.5837E-01
     16.740  0.1268E-02  0.5845E-03  0.5918E-01  0.5848E-01
     16.922  0.1365E-04  0.1043E-02  0.5918E-01  0.5867E-01
     17.105  0.2384E-03  0.1525E-02  0.5922E-01  0.5895E-01
     17.287  0.1216E-02  0.9295E-03  0.5945E-01  0.5911E-01
     17.470  0.4852E-03  0.3547E-03  0.5953E-01  0.5918E-01
     17.652  0.1268E-02  0.1462E-09  0.5977E-01  0.5918E-01
     17.835  0.2720E-05  0.3641E-03  0.5977E-01  0.5925E-01
     18.017  0.2536E-08  0.1560E-02  0.5977E-01  0.5953E-01
     18.200  0.5150E-03  0.8765E-04  0.5986E-01  0.5955E-01
     18.383  0.3067E-02  0.1199E-02  0.6042E-01  0.5977E-01
     18.565  0.6575E-03  0.1628E-06  0.6054E-01  0.5977E-01
     18.748  0.1555E-02  0.3290E-09  0.6082E-01  0.5977E-01
     18.930  0.1729E-02  0.7139E-03  0.6114E-01  0.5990E-01
     19.113  0.1280E-02  0.6794E-03  0.6137E-01  0.6002E-01
     19.295  0.1683E-02  0.2395E-02  0.6168E-01  0.6046E-01
     19.478  0.9874E-03  0.2389E-02  0.6186E-01  0.6089E-01
     19.660  0.2245E-02  0.1370E-02  0.6227E-01  0.6114E-01
     19.843  0.6202E-03  0.1500E-02  0.6238E-01  0.6142E-01
     20.025  0.2096E-05  0.1431E-02  0.6238E-01  0.6168E-01
     20.208  0.2392E-02  0.1928E-02  0.6282E-01  0.6203E-01
     20.390  0.1979E-02  0.1523E-02  0.6318E-01  0.6231E-01
     20.573  0.5124E-03  0.4112E-03  0.6327E-01  0.6238E-01
     20.755  0.6491E-03  0.1659E-02  0.6339E-01  0.6269E-01
     20.938  0.2170E-02  0.2141E-02  0.6379E-01  0.6308E-01
     21.120  0.7073E-06  0.5045E-03  0.6379E-01  0.6317E-01
     21.303  0.1184E-02  0.9382E-03  0.6401E-01  0.6334E-01
     21.485  0.1144E-02  0.1632E-02  0.6421E-01  0.6364E-01
     21.668  0.2566E-03  0.8294E-03  0.6426E-01  0.6379E-01
     21.850  0.2542E-02  0.6499E-03  0.6472E-01  0.6391E-01
     22.033  0.1674E-02  0.1323E-02  0.6503E-01  0.6415E-01
     22.215  0.1208E-02  0.5993E-03  0.6525E-01  0.6426E-01
     22.398  0.9810E-03  0.2506E-02  0.6543E-01  0.6472E-01
     22.580  0.1956E-02  0.7490E-04  0.6579E-01  0.6473E-01
     22.763  0.2676E-02  0.1498E-02  0.6627E-01  0.6500E-01
     22.945  0.2432E-02  0.2274E-02  0.6672E-01  0.6542E-01
     23.128  0.1247E-02  0.2341E-02  0.6695E-01  0.6585E-01
     23.311  0.1265E-02  0.9333E-03  0.6718E-01  0.6602E-01
     23.493  0.1357E-02  0.3398E-02  0.6742E-01  0.6664E-01
     23.676  0.1267E-02  0.1704E-02  0.6766E-01  0.6695E-01
     23.858  0.2140E-03  0.1017E-02  0.6770E-01  0.6713E-01
     24.041  0.1671E-02  0.1925E-02  0.6800E-01  0.6748E-01
     24.223  0.4400E-02  0.9456E-03  0.6880E-01  0.6766E-01
     24.406  0.1108E-02  0.2165E-03  0.6901E-01  0.6770E-01
     24.588  0.1806E-02  0.3385E-02  0.6934E-01  0.6831E-01
     24.771  0.8781E-03  0.3006E-02  0.6950E-01  0.6886E-01
     24.953  0.4125E-02  0.1801E-02  0.7025E-01  0.6919E-01
     25.136  0.2028E-02  0.1176E-02  0.7062E-01  0.6941E-01
     25.318  0.4984E-03  0.1364E-02  0.7071E-01  0.6965E-01
     25.501  0.2320E-02  0.4485E-02  0.7113E-01  0.7047E-01
     25.683  0.1070E-02  0.8315E-03  0.7133E-01  0.7063E-01
     25.866  0.5583E-03  0.2379E-02  0.7143E-01  0.7106E-01
     26.048  0.2441E-02  0.1473E-02  0.7188E-01  0.7133E-01
     26.231  0.4604E-02  0.2599E-03  0.7272E-01  0.7138E-01
     26.413  0.1177E-02  0.1851E-02  0.7293E-01  0.7171E-01
     26.596  0.1588E-02  0.4274E-02  0.7322E-01  0.7249E-01
     26.778  0.2389E-02  0.1597E-02  0.7366E-01  0.7278E-01
     26.961  0.1979E-02  0.3889E-02  0.7402E-01  0.7349E-01
     27.143  0.1146E-02  0.5198E-03  0.7423E-01  0.7359E-01
     27.326  0.2628E-02  0.2371E-02  0.7471E-01  0.7402E-01
     27.508  0.8811E-03  0.1155E-02  0.7487E-01  0.7423E-01
     27.691  0.2201E-02  0.2702E-02  0.7527E-01  0.7473E-01
     27.873  0.3640E-02  0.5413E-03  0.7593E-01  0.7483E-01
     28.056  0.2254E-02  0.2605E-02  0.7634E-01  0.7530E-01
     28.238  0.8128E-03  0.3765E-02  0.7649E-01  0.7599E-01
     28.421  0.2677E-02  0.1848E-02  0.7698E-01  0.7633E-01
     28.604  0.1952E-02  0.1269E-02  0.7734E-01  0.7656E-01
     28.786  0.2894E-02  0.2941E-02  0.7787E-01  0.7709E-01
     28.969  0.8610E-03  0.1429E-02  0.7802E-01  0.7735E-01
     29.151  0.3774E-02  0.3204E-02  0.7871E-01  0.7794E-01
     29.334  0.1280E-02  0.1850E-02  0.7895E-01  0.7828E-01
     29.516  0.2154E-02  0.3031E-02  0.7934E-01  0.7883E-01
     29.699  0.4144E-03  0.8300E-03  0.7941E-01  0.7898E-01
     29.881  0.1467E-02  0.2025E-02  0.7968E-01  0.7935E-01
     30.064  0.2594E-02  0.1502E-02  0.8016E-01  0.7963E-01
     30.246  0.1731E-02  0.4572E-03  0.8047E-01  0.7971E-01
     30.429  0.1367E-02  0.2516E-02  0.8072E-01  0.8017E-01
     30.611  0.1786E-02  0.2199E-02  0.8105E-01  0.8057E-01
     30.794  0.1959E-02  0.1589E-02  0.8141E-01  0.8086E-01
     30.976  0.2881E-02  0.1849E-02  0.8193E-01  0.8120E-01
     31.159  0.1790E-02  0.2568E-02  0.8226E-01  0.8167E-01
     31.341  0.1233E-02  0.2227E-02  0.8248E-01  0.8207E-01
     31.524  0.9938E-04  0.1704E-02  0.8250E-01  0.8238E-01
     31.706  0.1513E-02  0.6436E-03  0.8278E-01  0.8250E-01
     31.889  0.1845E-02  0.1588E-02  0.8311E-01  0.8279E-01
     32.071  0.3662E-02  0.1635E-02  0.8378E-01  0.8309E-01
     32.254  0.3809E-03  0.2913E-02  0.8385E-01  0.8362E-01
     32.436  0.2223E-02  0.9257E-03  0.8426E-01  0.8379E-01
     32.619  0.9630E-03  0.2184E-02  0.8443E-01  0.8419E-01
     32.801  0.1003E-02  0.9849E-03  0.8462E-01  0.8437E-01
     32.984  0.3739E-02  0.2080E-02  0.8530E-01  0.8475E-01
     33.166  0.4978E-03  0.1592E-02  0.8539E-01  0.8504E-01
     33.349  0.2087E-02  0.1849E-02  0.8577E-01  0.8538E-01
     33.531  0.2267E-02  0.3432E-02  0.8618E-01  0.8600E-01
     33.714  0.1880E-02  0.2163E-02  0.8653E-01  0.8640E-01
     33.897  0.3022E-02  0.6997E-03  0.8708E-01  0.8652E-01
     34.079  0.8083E-03  0.1300E-02  0.8723E-01  0.8676E-01
     34.262  0.2393E-02  0.2173E-02  0.8766E-01  0.8716E-01
     34.444  0.2631E-02  0.1186E-02  0.8814E-01  0.8737E-01
     34.627  0.1936E-02  0.3169E-02  0.8850E-01  0.8795E-01
     34.809  0.1945E-02  0.3811E-02  0.8885E-01  0.8865E-01
     34.992  0.2275E-02  0.1631E-02  0.8927E-01  0.8895E-01
     35.174  0.4708E-02  0.2407E-02  0.9013E-01  0.8939E-01
     35.357  0.1362E-02  0.2969E-02  0.9038E-01  0.8993E-01
     35.539  0.1602E-02  0.1567E-02  0.9067E-01  0.9021E-01
     35.722  0.2775E-02  0.2484E-02  0.9117E-01  0.9067E-01
     35.904  0.2043E-02  0.1864E-02  0.9155E-01  0.9101E-01
     36.087  0.2551E-02  0.2781E-02  0.9201E-01  0.9151E-01
     36.269  0.2445E-02  0.3386E-02  0.9246E-01  0.9213E-01
     36.452  0.3822E-02  0.9717E-03  0.9316E-01  0.9231E-01
     36.634  0.1105E-02  0.5283E-02  0.9336E-01  0.9327E-01
     36.817  0.2228E-02  0.8955E-03  0.9376E-01  0.9344E-01
     36.999  0.9407E-03  0.1350E-02  0.9394E-01  0.9368E-01
     37.182  0.2526E-02  0.1592E-02  0.9440E-01  0.9397E-01
     37.364  0.3566E-02  0.1966E-02  0.9505E-01  0.9433E-01
     37.547  0.3560E-02  0.2937E-02  0.9570E-01  0.9487E-01
     37.729  0.1675E-02  0.2683E-02  0.9600E-01  0.9536E-01
     37.912  0.2565E-02  0.3373E-02  0.9647E-01  0.9597E-01
     38.094  0.1401E-02  0.1614E-02  0.9673E-01  0.9627E-01
     38.277  0.3113E-02  0.2268E-02  0.9730E-01  0.9668E-01
     38.459  0.3016E-02  0.3469E-02  0.9785E-01  0.9732E-01
     38.642  0.2873E-02  0.3284E-02  0.9837E-01  0.9792E-01
     38.824  0.8017E-03  0.2575E-02  0.9852E-01  0.9839E-01
     39.007  0.6343E-03  0.7112E-03  0.9863E-01  0.9852E-01
     39.190  0.4352E-03  0.1511E-04  0.9871E-01  0.9852E-01
     39.372  0.2766E-02  0.1423E-02  0.9922E-01  0.9878E-01
     39.555  0.2350E-02  0.1129E-02  0.9965E-01  0.9898E-01
     39.737  0.1941E-02  0.3828E-02  0.1000E+00  0.9968E-01
     39.920  0.1662E-03  0.1516E-02  0.1000E+00  0.9996E-01
     40.102  0.1118E-02  0.2220E-03  0.1002E+00  0.1000E+00
     40.285  0.5016E-03  0.1565E-05  0.1003E+00  0.1000E+00
     40.467  0.2460E-02  0.1264E-02  0.1008E+00  0.1002E+00
     40.650  0.2392E-02  0.4016E-02  0.1012E+00  0.1010E+00
     40.832  0.1200E-02  0.1607E-02  0.1014E+00  0.1013E+00
     41.015  0.2308E-02  0.6030E-03  0.1019E+00  0.1014E+00
     41.197  0.9607E-03  0.6340E-03  0.1020E+00  0.1015E+00
     41.380  0.4287E-03  0.1444E-02  0.1021E+00  0.1017E+00
     41.562  0.2854E-02  0.1760E-02  0.1026E+00  0.1021E+00
     41.745  0.1958E-02  0.2889E-02  0.1030E+00  0.1026E+00
     41.927  0.1583E-02  0.6634E-03  0.1033E+00  0.1027E+00
     42.110  0.2931E-02  0.2583E-02  0.1038E+00  0.1032E+00
     42.292  0.5663E-02  0.2137E-02  0.1048E+00  0.1036E+00
     42.475  0.7252E-02  0.6459E-02  0.1062E+00  0.1048E+00
     42.657  0.1613E-02  0.5328E-02  0.1065E+00  0.1057E+00
     42.840  0.2046E-02  0.3018E-02  0.1068E+00  0.1063E+00
     43.022  0.2911E-03  0.2543E-02  0.1069E+00  0.1067E+00
     43.205  0.2616E-02  0.5092E-03  0.1074E+00  0.1068E+00
     43.387  0.2127E-02  0.2289E-02  0.1078E+00  0.1073E+00
     43.570  0.1144E-02  0.1847E-02  0.1080E+00  0.1076E+00
     43.752  0.3850E-02  0.2200E-02  0.1087E+00  0.1080E+00
     43.935  0.3328E-02  0.2590E-02  0.1093E+00  0.1085E+00
     44.117  0.2407E-02  0.4288E-02  0.1097E+00  0.1092E+00
     44.300  0.3079E-03  0.2055E-02  0.1098E+00  0.1096E+00
     44.483  0.3759E-03  0.7751E-03  0.1098E+00  0.1098E+00
     44.665  0.3879E-02  0.2552E-03  0.1105E+00  0.1098E+00
     44.848  0.3994E-02  0.4371E-02  0.1113E+00  0.1106E+00
     45.030  0.2811E-02  0.1270E-02  0.1118E+00  0.1108E+00
     45.213  0.7036E-04  0.3365E-02  0.1118E+00  0.1115E+00
     45.395  0.2244E-02  0.2291E-02  0.1122E+00  0.1119E+00
     45.578  0.1829E-02  0.2137E-02  0.1125E+00  0.1123E+00
     45.760  0.1154E-02  0.1422E-02  0.1128E+00  0.1125E+00
     45.943  0.3897E-02  0.6855E-03  0.1135E+00  0.1126E+00
     46.125  0.1911E-02  0.3134E-02  0.1138E+00  0.1132E+00
     46.308  0.1796E-02  0.1019E-02  0.1141E+00  0.1134E+00
     46.490  0.1153E-02  0.1495E-02  0.1143E+00  0.1137E+00
     46.673  0.2124E-02  0.3002E-02  0.1147E+00  0.1142E+00
     46.855  0.1227E-02  0.1253E-02  0.1150E+00  0.1145E+00
     47.038  0.5969E-03  0.1968E-03  0.1151E+00  0.1145E+00
     47.220  0.2686E-02  0.3437E-03  0.1156E+00  0.1146E+00
     47.403  0.3279E-02  0.1584E-02  0.1162E+00  0.1148E+00
     47.585  0.3758E-02  0.1964E-02  0.1168E+00  0.1152E+00
     47.768  0.2127E-02  0.2608E-02  0.1172E+00  0.1157E+00
     47.950  0.3049E-02  0.1715E-02  0.1178E+00  0.1160E+00
     48.133  0.3197E-02  0.1416E-02  0.1184E+00  0.1162E+00
     48.315  0.6934E-02  0.1435E-04  0.1196E+00  0.1163E+00
     48.498  0.1341E-02  0.2465E-02  0.1199E+00  0.1167E+00
     48.680  0.4013E-07  0.2560E-02  0.1199E+00  0.1172E+00
     48.863  0.5826E-03  0.1744E-02  0.1200E+00  0.1175E+00
     49.045  0.5938E-04  0.9214E-03  0.1200E+00  0.1177E+00
     49.228  0.0000E+00  0.3972E-04  0.1200E+00  0.1177E+00
     49.410  0.0000E+00  0.7049E-03  0.1200E+00  0.1178E+00
     49.593  0.0000E+00  0.2465E-02  0.1200E+00  0.1182E+00
     49.776  0.0000E+00  0.1331E-02  0.1200E+00  0.1185E+00
     49.958  0.0000E+00  0.5966E-03  0.1200E+00  0.1186E+00
     50.141  0.0000E+00  0.6523E-08  0.1200E+00  0.1186E+00
     50.323  0.0000E+00  0.4232E-03  0.1200E+00  0.1187E+00
     50.506  0.0000E+00  0.8609E-03  0.1200E+00  0.1188E+00
     50.688  0.0000E+00  0.1505E-08  0.1200E+00  0.1188E+00
     50.871  0.0000E+00  0.1121E-13  0.1200E+00  0.1188E+00
     51.053  0.0000E+00  0.4616E-04  0.1200E+00  0.1188E+00
     51.236  0.0000E+00  0.1211E-02  0.1200E+00  0.1191E+00
     51.418  0.0000E+00  0.1304E-02  0.1200E+00  0.1193E+00
     51.601  0.0000E+00  0.7675E-05  0.1200E+00  0.1193E+00
     51.783  0.0000E+00  0.1669E-02  0.1200E+00  0.1196E+00
     51.966  0.0000E+00  0.2183E-02  0.1200E+00  0.1200E+00
     52.148  0.0000E+00  0.3293E-06  0.1200E+00  0.1200E+00
     52.331  0.0000E+00  0.0000E+00  0.1200E+00  0.1200E+00
     52.513  0.0000E+00  0.0000E+00  0.1200E+00  0.1200E+00
     52.696  0.0000E+00  0.0000E+00  0.1200E+00  0.1200E+00
     52.878  0.0000E+00  0.0000E+00  0.1200E+00  0.1200E+00
     53.061  0.0000E+00  0.0000E+00  0.1200E+00  0.1200E+00
     53.243  0.0000E+00  0.0000E+00  0.1200E+00  0.1200E+00
     53.426  0.0000E+00  0.0000E+00  0.1200E+00  0.1200E+00
     53.608  0.0000E+00  0.0000E+00  0.1200E+00  0.1200E+00
     53.791  0.0000E+00  0.0000E+00  0.1200E+00  0.1200E+00
     53.973  0.0000E+00  0.0000E+00  0.1200E+00  0.1200E+00
     54.156  0.0000E+00  0.0000E+00  0.1200E+00  0.1200E+00
     54.338  0.0000E+00  0.0000E+00  0.1200E+00  0.1200E+00
     54.33845071     -0.41675231  301     11.27450760      1.00000000
     -0.417  0.0000E+00  0.0000E+00  0.0000E+00  0.0000E+00  0.0000E+00  0.0000E+00  0.0000E+00  0.0000E+00  0.0000E+00  0.0000E+00  0.0000E+00  0.0000E+00  0.0000E+00  0.0000E+00  0.0000E+00  0.0000E+00  0.0000E+00  0.0000E+00
     -0.234  0.0000E+00  0.0000E+00  0.0000E+00  0.0000E+00  0.0000E+00  0.0000E+00  0.0000E+00  0.0000E+00  0.0000E+00  0.0000E+00  0.0000E+00  0.0000E+00  0.0000E+00  0.0000E+00  0.0000E+00  0.0000E+00  0.0000E+00  0.0000E+00
     -0.052  0.0000E+00  0.0000E+00  0.0000E+00  0.0000E+00  0.0000E+00  0.0000E+00  0.0000E+00  0.0000E+00  0.0000E+00  0.0000E+00  0.0000E+00  0.0000E+00  0.0000E+00  0.0000E+00  0.0000E+00  0.0000E+00  0.0000E+00  0.0000E+00
      0.131  0.0000E+00  0.0000E+00  0.0000E+00  0.0000E+00  0.0000E+00  0.0000E+00  0.0000E+00  0.0000E+00  0.0000E+00  0.0000E+00  0.0000E+00  0.0000E+00  0.0000E+00  0.0000E+00  0.0000E+00  0.0000E+00  0.0000E+00  0.0000E+00
      0.313  0.0000E+00  0.0000E+00  0.0000E+00  0.0000E+00  0.0000E+00  0.0000E+00  0.0000E+00  0.0000E+00  0.0000E+00  0.0000E+00  0.0000E+00  0.0000E+00  0.0000E+00  0.0000E+00  0.0000E+00  0.0000E+00  0.0000E+00  0.0000E+00
      0.496  0.0000E+00  0.0000E+00  0.0000E+00  0.0000E+00  0.0000E+00  0.0000E+00  0.0000E+00  0.0000E+00  0.0000E+00  0.0000E+00  0.0000E+00  0.0000E+00  0.0000E+00  0.0000E+00  0.0000E+00  0.0000E+00  0.0000E+00  0.0000E+00
      0.678  0.0000E+00  0.0000E+00  0.0000E+00  0.0000E+00  0.0000E+00  0.0000E+00  0.0000E+00  0.0000E+00  0.0000E+00  0.0000E+00  0.0000E+00  0.0000E+00  0.0000E+00  0.0000E+00  0.0000E+00  0.0000E+00  0.0000E+00  0.0000E+00
      0.861  0.0000E+00  0.0000E+00  0.0000E+00  0.0000E+00  0.0000E+00  0.0000E+00  0.0000E+00  0.0000E+00  0.0000E+00  0.0000E+00  0.0000E+00  0.0000E+00  0.0000E+00  0.0000E+00  0.0000E+00  0.0000E+00  0.0000E+00  0.0000E+00
      1.043  0.0000E+00  0.0000E+00  0.0000E+00  0.0000E+00  0.0000E+00  0.0000E+00  0.0000E+00  0.0000E+00  0.0000E+00  0.0000E+00  0.0000E+00  0.0000E+00  0.0000E+00  0.0000E+00  0.0000E+00  0.0000E+00  0.0000E+00  0.0000E+00
      1.226  0.0000E+00  0.0000E+00  0.0000E+00  0.0000E+00  0.0000E+00  0.0000E+00  0.0000E+00  0.0000E+00  0.0000E+00  0.0000E+00  0.0000E+00  0.0000E+00  0.0000E+00  0.0000E+00  0.0000E+00  0.0000E+00  0.0000E+00  0.0000E+00
      1.408  0.0000E+00  0.0000E+00  0.0000E+00  0.0000E+00  0.0000E+00  0.0000E+00  0.0000E+00  0.0000E+00  0.0000E+00  0.0000E+00  0.0000E+00  0.0000E+00  0.0000E+00  0.0000E+00  0.0000E+00  0.0000E+00  0.0000E+00  0.0000E+00
      1.591  0.0000E+00  0.0000E+00  0.0000E+00  0.0000E+00  0.0000E+00  0.0000E+00  0.0000E+00  0.0000E+00  0.0000E+00  0.0000E+00  0.0000E+00  0.0000E+00  0.0000E+00  0.0000E+00  0.0000E+00  0.0000E+00  0.0000E+00  0.0000E+00
      1.773  0.0000E+00  0.0000E+00  0.0000E+00  0.0000E+00  0.0000E+00  0.0000E+00  0.0000E+00  0.0000E+00  0.0000E+00  0.0000E+00  0.0000E+00  0.0000E+00  0.0000E+00  0.0000E+00  0.0000E+00  0.0000E+00  0.0000E+00  0.0000E+00
      1.956  0.8397E-05  0.6593E-06  0.4327E-07  0.3409E-08  0.4327E-07  0.3409E-08  0.4327E-07  0.3409E-08  0.6692E-09  0.4004E-10  0.6692E-09  0.4004E-10  0.2738E-21  0.5768E-24  0.6692E-09  0.4004E-10  0.2738E-21  0.5768E-24
      2.138  0.1597E-01  0.1466E-01  0.8228E-04  0.7582E-04  0.8228E-04  0.7582E-04  0.8228E-04  0.7582E-04  0.1273E-05  0.8906E-06  0.1273E-05  0.8906E-06  0.5208E-18  0.1283E-19  0.1273E-05  0.8906E-06  0.5208E-18  0.1283E-19
      2.321  0.4983E-03  0.1844E-02  0.2568E-05  0.9534E-05  0.2568E-05  0.9534E-05  0.2568E-05  0.9534E-05  0.3972E-07  0.1120E-06  0.3972E-07  0.1120E-06  0.7890E-11  0.9806E-13  0.3972E-07  0.1120E-06  0.7890E-11  0.9806E-13
      2.504  0.2592E-01  0.1272E-01  0.4966E-03  0.2449E-03  0.4966E-03  0.2449E-03  0.4966E-03  0.2449E-03  0.1421E-04  0.5219E-05  0.1421E-04  0.5219E-05  0.1896E-04  0.7108E-05  0.1421E-04  0.5219E-05  0.1896E-04  0.7108E-05
      2.686  0.2147E-01  0.3477E-01  0.4113E-03  0.6694E-03  0.4113E-03  0.6694E-03  0.4113E-03  0.6694E-03  0.1177E-04  0.1427E-04  0.1177E-04  0.1427E-04  0.1571E-04  0.1943E-04  0.1177E-04  0.1427E-04  0.1571E-04  0.1943E-04
      2.869  0.5108E-02  0.8214E-03  0.1690E-03  0.2744E-04  0.1690E-03  0.2744E-04  0.1690E-03  0.2744E-04  0.1624E-04  0.1908E-05  0.1624E-04  0.1908E-05  0.3632E-05  0.4490E-06  0.1624E-04  0.1908E-05  0.3632E-05  0.4490E-06
      3.051  0.4025E-01  0.4460E-01  0.1332E-02  0.1490E-02  0.1332E-02  0.1490E-02  0.1332E-02  0.1490E-02  0.1280E-03  0.1036E-03  0.1280E-03  0.1036E-03  0.2862E-04  0.2438E-04  0.1280E-03  0.1036E-03  0.2862E-04  0.2438E-04
      3.234  0.1053E-02  0.8755E-04  0.5002E-04  0.3491E-05  0.5002E-04  0.3491E-05  0.5002E-04  0.3491E-05  0.5265E-05  0.2480E-06  0.5265E-05  0.2480E-06  0.5655E-05  0.1754E-06  0.5265E-05  0.2480E-06  0.5655E-05  0.1754E-06
      3.416  0.5643E-01  0.5626E-01  0.2705E-02  0.2726E-02  0.2705E-02  0.2726E-02  0.2705E-02  0.2726E-02  0.2132E-03  0.1509E-03  0.2132E-03  0.1509E-03  0.3768E-03  0.2679E-03  0.2132E-03  0.1509E-03  0.3768E-03  0.2679E-03
      3.599  0.4340E-03  0.1539E-02  0.2614E-04  0.7482E-04  0.2614E-04  0.7482E-04  0.2614E-04  0.7482E-04  0.3780E-05  0.3457E-05  0.3780E-05  0.3457E-05  0.3058E-05  0.8079E-05  0.3780E-05  0.3457E-05  0.3058E-05  0.8079E-05
      3.781  0.8139E-01  0.7239E-01  0.5085E-02  0.4593E-02  0.5085E-02  0.4593E-02  0.5085E-02  0.4593E-02  0.8018E-03  0.5002E-03  0.8018E-03  0.5002E-03  0.5612E-03  0.3580E-03  0.8018E-03  0.5002E-03  0.5612E-03  0.3580E-03
      3.964  0.1568E-02  0.1040E-01  0.1094E-03  0.6597E-03  0.1094E-03  0.6597E-03  0.1094E-03  0.6597E-03  0.3643E-04  0.7186E-04  0.3643E-04  0.7186E-04  0.7886E-05  0.5142E-04  0.3643E-04  0.7186E-04  0.7886E-05  0.5142E-04
      4.146  0.3770E-01  0.3481E-01  0.2740E-02  0.2626E-02  0.2740E-02  0.2626E-02  0.2740E-02  0.2626E-02  0.1078E-02  0.6469E-03  0.1078E-02  0.6469E-03  0.1615E-03  0.1055E-03  0.1078E-02  0.6469E-03  0.1615E-03  0.1055E-03
      4.329  0.3243E-02  0.4608E-02  0.3058E-03  0.3476E-03  0.3058E-03  0.3476E-03  0.3058E-03  0.3476E-03  0.3255E-04  0.8562E-04  0.3255E-04  0.8562E-04  0.1569E-03  0.1400E-04  0.3255E-04  0.8562E-04  0.1569E-03  0.1400E-04
      4.511  0.6943E-01  0.6080E-01  0.6486E-02  0.5814E-02  0.6486E-02  0.5814E-02  0.6486E-02  0.5814E-02  0.1275E-02  0.7034E-03  0.1275E-02  0.7034E-03  0.2282E-02  0.1382E-02  0.1275E-02  0.7034E-03  0.2282E-02  0.1382E-02
      4.694  0.4905E-01  0.1358E-01  0.4867E-02  0.1295E-02  0.4867E-02  0.1295E-02  0.4867E-02  0.1295E-02  0.2895E-02  0.1961E-03  0.2895E-02  0.1961E-03  0.1100E-02  0.2466E-03  0.2895E-02  0.1961E-03  0.1100E-02  0.2466E-03
      4.876  0.5291E-01  0.9929E-01  0.5760E-02  0.1075E-01  0.5760E-02  0.1075E-01  0.5760E-02  0.1075E-01  0.1474E-02  0.2729E-02  0.1474E-02  0.2729E-02  0.2629E-02  0.2257E-02  0.1474E-02  0.2729E-02  0.2629E-02  0.2257E-02
      5.059  0.3431E-01  0.6424E-02  0.3867E-02  0.7266E-03  0.3867E-02  0.7266E-03  0.3867E-02  0.7266E-03  0.2956E-02  0.1246E-03  0.2956E-02  0.1246E-03  0.1354E-02  0.2060E-03  0.2956E-02  0.1246E-03  0.1354E-02  0.2060E-03
      5.241  0.7428E-02  0.3248E-01  0.7379E-03  0.3959E-02  0.7379E-03  0.3959E-02  0.7379E-03  0.3959E-02  0.1375E-02  0.1417E-02  0.1375E-02  0.1417E-02  0.5192E-04  0.9029E-03  0.1375E-02  0.1417E-02  0.5192E-04  0.9029E-03
      5.424  0.1138E+00  0.1290E-01  0.1558E-01  0.1510E-02  0.1558E-01  0.1510E-02  0.1558E-01  0.1510E-02  0.1219E-01  0.1354E-02  0.1219E-01  0.1354E-02  0.1085E-01  0.7213E-04  0.1219E-01  0.1354E-02  0.1085E-01  0.7213E-04
      5.606  0.4045E-01  0.6094E-01  0.4494E-02  0.8928E-02  0.4494E-02  0.8928E-02  0.4494E-02  0.8928E-02  0.1242E-01  0.3148E-02  0.1242E-01  0.3148E-02  0.2137E-02  0.1760E-02  0.1242E-01  0.3148E-02  0.2137E-02  0.1760E-02
      5.789  0.6615E-01  0.8377E-01  0.9062E-02  0.1220E-01  0.9062E-02  0.1220E-01  0.9062E-02  0.1220E-01  0.1711E-01  0.6833E-02  0.1711E-01  0.6833E-02  0.4048E-01  0.6308E-02  0.1711E-01  0.6833E-02  0.4048E-01  0.6308E-02
      5.971  0.7376E-01  0.1550E-01  0.9124E-02  0.2787E-02  0.9124E-02  0.2787E-02  0.9124E-02  0.2787E-02  0.3467E-01  0.6793E-03  0.3467E-01  0.6793E-03  0.6817E-01  0.2738E-02  0.3467E-01  0.6793E-03  0.6817E-01  0.2738E-02
      6.154  0.1376E+00  0.6080E-01  0.2125E-01  0.9634E-02  0.2125E-01  0.9634E-02  0.2125E-01  0.9634E-02  0.7536E-01  0.7654E-02  0.7536E-01  0.7654E-02  0.1317E+00  0.7078E-02  0.7536E-01  0.7654E-02  0.1317E+00  0.7078E-02
      6.336  0.6295E-01  0.3898E-01  0.1177E-01  0.7466E-02  0.1177E-01  0.7466E-02  0.1177E-01  0.7466E-02  0.3738E-01  0.4793E-02  0.3738E-01  0.4793E-02  0.8000E-01  0.4356E-02  0.3738E-01  0.4793E-02  0.8000E-01  0.4356E-02
      6.519  0.5550E-01  0.6472E-01  0.1081E-01  0.1041E-01  0.1081E-01  0.1041E-01  0.1081E-01  0.1041E-01  0.9857E-01  0.1889E-01  0.9857E-01  0.1889E-01  0.1123E+00  0.6532E-02  0.9857E-01  0.1889E-01  0.1123E+00  0.6532E-02
      6.701  0.6752E-01  0.9353E-01  0.2020E-01  0.1860E-01  0.2020E-01  0.1860E-01  0.2020E-01  0.1860E-01  0.1427E+00  0.2048E-01  0.1427E+00  0.2048E-01  0.1490E+00  0.2049E-01  0.1427E+00  0.2048E-01  0.1490E+00  0.2049E-01
      6.884  0.3099E-01  0.8030E-01  0.1187E-01  0.1144E-01  0.1187E-01  0.1144E-01  0.1187E-01  0.1144E-01  0.1515E+00  0.3777E-01  0.1515E+00  0.3777E-01  0.9762E-01  0.6852E-01  0.1515E+00  0.3777E-01  0.9762E-01  0.6852E-01
      7.066  0.2613E-01  0.5132E-01  0.2206E-01  0.8206E-02  0.2206E-01  0.8206E-02  0.2206E-01  0.8206E-02  0.1917E+00  0.3223E-01  0.1917E+00  0.3223E-01  0.1189E+00  0.3177E-01  0.1917E+00  0.3223E-01  0.1189E+00  0.3177E-01
      7.249  0.1088E-01  0.7377E-01  0.1437E-01  0.1707E-01  0.1437E-01  0.1707E-01  0.1437E-01  0.1707E-01  0.1476E+00  0.3062E-01  0.1476E+00  0.3062E-01  0.6329E-01  0.8770E-01  0.1476E+00  0.3062E-01  0.6329E-01  0.8770E-01
      7.431  0.6763E-02  0.8851E-01  0.2203E-01  0.2069E-01  0.2203E-01  0.2069E-01  0.2203E-01  0.2069E-01  0.1561E+00  0.6653E-01  0.1561E+00  0.6653E-01  0.1059E+00  0.8496E-01  0.1561E+00  0.6653E-01  0.1059E+00  0.8496E-01
      7.614  0.2433E-02  0.2373E-01  0.1464E-01  0.8446E-02  0.1464E-01  0.8446E-02  0.1464E-01  0.8446E-02  0.1251E+00  0.2140E-01  0.1251E+00  0.2140E-01  0.1317E+00  0.9201E-01  0.1251E+00  0.2140E-01  0.1317E+00  0.9201E-01
      7.797  0.5134E-02  0.4505E-01  0.1631E-01  0.1499E-01  0.1631E-01  0.1499E-01  0.1631E-01  0.1499E-01  0.1534E+00  0.9797E-01  0.1534E+00  0.9797E-01  0.8934E-01  0.8585E-01  0.1534E+00  0.9797E-01  0.8934E-01  0.8585E-01
      7.979  0.8103E-02  0.3420E-01  0.1481E-01  0.1887E-01  0.1481E-01  0.1887E-01  0.1481E-01  0.1887E-01  0.1610E+00  0.1281E+00  0.1610E+00  0.1281E+00  0.1182E+00  0.8048E-01  0.1610E+00  0.1281E+00  0.1182E+00  0.8048E-01
      8.162  0.9045E-02  0.2193E-01  0.2781E-01  0.2244E-01  0.2781E-01  0.2244E-01  0.2781E-01  0.2244E-01  0.2409E+00  0.1457E+00  0.2409E+00  0.1457E+00  0.1040E+00  0.1135E+00  0.2409E+00  0.1457E+00  0.1040E+00  0.1135E+00
      8.344  0.1903E-01  0.5632E-02  0.2178E-01  0.1812E-01  0.2178E-01  0.1812E-01  0.2178E-01  0.1812E-01  0.2191E+00  0.1509E+00  0.2191E+00  0.1509E+00  0.1374E+00  0.3908E-01  0.2191E+00  0.1509E+00  0.1374E+00  0.3908E-01
      8.527  0.1417E-01  0.6068E-02  0.2530E-01  0.1767E-01  0.2530E-01  0.1767E-01  0.2530E-01  0.1767E-01  0.2294E+00  0.1081E+00  0.2294E+00  0.1081E+00  0.1853E+00  0.7190E-01  0.2294E+00  0.1081E+00  0.1853E+00  0.7190E-01
      8.709  0.2459E-01  0.3115E-02  0.2660E-01  0.2065E-01  0.2660E-01  0.2065E-01  0.2660E-01  0.2065E-01  0.3063E+00  0.1573E+00  0.3063E+00  0.1573E+00  0.2244E+00  0.7389E-01  0.3063E+00  0.1573E+00  0.2244E+00  0.7389E-01