 vasp.6.3.2 27Jun22 (build Aug 12 2022 00:53:59) complex                        
  
 executed on               tv2STD date 2024.11.30  17:12:15
 running   24 mpi-ranks, with    1 threads/rank
 distrk:  each k-point on   24 cores,    1 groups
 distr:  one band on NCORE=   6 cores,    4 groups


--------------------------------------------------------------------------------------------------------


 INCAR:
   SYSTEM = Co-fcc
   NWRITE = 2    write-flag
   ISTART = 0    job   : 0-new, 1-cont, 2-samecut
   ICHARG = 2    charge: 0-wave, 1-file, 2-atom, >10-const
   INIWAV = 1    electr: 0-lowe 1-rand  2-diag
   ENCUT = 400.0     energy cutoff in eV
   PREC = Accurate      normal | accurate
   ADDGRID = .FALSE.  (use fine grid)
   NELM = 100     number of ELM steps
   EDIFF = 1E-06    energy stopping-criterion for ELM
   LREAL = .FALSE.      real-space projection (.FALSE., .TRUE., On, Auto)
   ALGO = Normal     Normal, Fast, Very_Fast
   LWAVE = .TRUE.
   LCHARG = .TRUE.
   NSW = 100       max number of geometry steps
   IBRION = 2     ionic relax: 0-MD, 1-quasi-Newton, 2-CG, 3-Damped MD
   EDIFFG = -0.02  force (eV/A) stopping-criterion for geometry steps
   ISIF = 2     (1:force\=y stress\=trace only ions\=y shape\=n volume\=n)
   ISYM = 1     (1-use symmetry, 0-no symmetry)
   ISMEAR = 0     (-1-Fermi, 1-Methfessel/Paxton)
   SIGMA = 0.05   broadening in eV
   LORBIT = 11
   NPAR = 4
   ISPIN = 2
   MAGMOM = 1*3

 POTCAR:    PAW_PBE Co 02Aug2007                  
 POTCAR:    PAW_PBE Co 02Aug2007                  
   SHA256 =  0e690c60710354995174544f52f9f2c30879afabeffe3b3fbd4001cb294e56d4 Co/POTCAR             
   COPYR  = (c) Copyright 02Aug2007 Georg Kresse                                                    
   COPYR  = This file is part of the software VASP. Any use, copying, and all other rights are regul
   COPYR  = If you do not have a valid VASP license, you may not use, copy or distribute this file. 
   VRHFIN =Co: d8 s1                                                                                
   LEXCH  = PE                                                                                      
   EATOM  =   813.3670 eV,   59.7808 Ry                                                             
                                                                                                    
   TITEL  = PAW_PBE Co 02Aug2007                                                                    
   LULTRA =        F    use ultrasoft PP ?                                                          
   IUNSCR =        1    unscreen: 0-lin 1-nonlin 2-no                                               
   RPACOR =    2.000    partial core radius                                                         
   POMASS =   58.933; ZVAL   =    9.000    mass and valenz                                          
   RCORE  =    2.300    outmost cutoff radius                                                       
   RWIGS  =    2.460; RWIGS  =    1.302    wigner-seitz radius (au A)                               
   ENMAX  =  267.968; ENMIN  =  200.976 eV                                                          
   RCLOC  =    1.203    cutoff for local pot                                                        
   LCOR   =        T    correct aug charges                                                         
   LPAW   =        T    paw PP                                                                      
   EAUG   =  477.818                                                                                
   DEXC   =    0.000                                                                                
   RMAX   =    2.360    core radius for proj-oper                                                   
   RAUG   =    1.300    factor for augmentation sphere                                              
   RDEP   =    2.393    radius for radial grids                                                     
   RDEPT  =    1.864    core radius for aug-charge                                                  
                                                                                                    
   Atomic configuration                                                                             
    9 entries                                                                                       
     n  l   j            E        occ.                                                              
     1  0  0.50     -7587.6674   2.0000                                                             
     2  0  0.50      -893.6084   2.0000                                                             
     2  1  1.50      -764.5805   6.0000                                                             
     3  0  0.50       -97.5973   2.0000                                                             
     3  1  1.50       -60.9648   6.0000                                                             
     3  2  2.50        -4.2382   8.0000                                                             
     4  0  0.50        -4.3746   1.0000                                                             
     4  1  1.50        -4.0817   0.0000                                                             
     4  3  2.50        -1.3606   0.0000                                                             
   Description                                                                                      
     l       E           TYP  RCUT    TYP  RCUT                                                     
     2     -4.2382362     23  2.300                                                                 
     2     -5.5988188     23  2.300                                                                 
     0     -4.3745797     23  2.300                                                                 
     0      5.7660125     23  2.300                                                                 
     1     -2.7211652     23  2.300                                                                 
     1     16.9860234     23  2.300                                                                 
  local pseudopotential read in
  partial core-charges read in
  partial kinetic energy density read in
  atomic valenz-charges read in
  non local Contribution for L=           2  read in
    real space projection operators read in
  non local Contribution for L=           2  read in
    real space projection operators read in
  non local Contribution for L=           0  read in
    real space projection operators read in
  non local Contribution for L=           0  read in
    real space projection operators read in
  non local Contribution for L=           1  read in
    real space projection operators read in
  non local Contribution for L=           1  read in
    real space projection operators read in
    PAW grid and wavefunctions read in
 
   number of l-projection  operators is LMAX  =           6
   number of lm-projection operators is LMMAX =          18
 
  PAW_PBE Co 02Aug2007                  :
 energy of atom  1       EATOM= -813.3670
 kinetic energy error for atom=    0.0093 (will be added to EATOM!!)
 
 
 POSCAR: Co
  positions in cartesian coordinates
  No initial velocities read in
 exchange correlation table for  LEXCH =        8
   RHO(1)=    0.500       N(1)  =     2000
   RHO(2)=  100.500       N(2)  =     4000
 


--------------------------------------------------------------------------------------------------------


 ion  position               nearest neighbor table
   1  0.000  0.000  0.000-
 
  LATTYP: Found a face centered cubic cell.
 ALAT       =     3.4889339496
  
  Lattice vectors:
  
 A1 = (   0.0000000000,   1.7444669748,   1.7444669748)
 A2 = (   1.7444669748,   0.0000000000,   1.7444669748)
 A3 = (   1.7444669748,   1.7444669748,   0.0000000000)


Analysis of symmetry for initial positions (statically):
=====================================================================
 Subroutine PRICEL returns:
 Original cell was already a primitive cell.
 

 Routine SETGRP: Setting up the symmetry group for a 
 face centered cubic supercell.


 Subroutine GETGRP returns: Found 48 space group operations
 (whereof 48 operations were pure point group operations)
 out of a pool of 48 trial point group operations.


The static configuration has the point symmetry O_h .


Analysis of symmetry for dynamics (positions and initial velocities):
=====================================================================
 Subroutine PRICEL returns:
 Original cell was already a primitive cell.
 

 Routine SETGRP: Setting up the symmetry group for a 
 face centered cubic supercell.


 Subroutine GETGRP returns: Found 48 space group operations
 (whereof 48 operations were pure point group operations)
 out of a pool of 48 trial point group operations.


The dynamic configuration has the point symmetry O_h .


Analysis of structural, dynamic, and magnetic symmetry:
=====================================================================
 Subroutine PRICEL returns:
 Original cell was already a primitive cell.
 

 Routine SETGRP: Setting up the symmetry group for a 
 face centered cubic supercell.


 Subroutine GETGRP returns: Found 48 space group operations
 (whereof 48 operations were pure point group operations)
 out of a pool of 48 trial point group operations.


The overall configuration has the point symmetry O_h .


 Subroutine INISYM returns: Found 48 space group operations
 (whereof 48 operations are pure point group operations),
 and found     1 'primitive' translations


----------------------------------------------------------------------------------------

                                     Primitive cell                                     

  volume of cell :      10.6174

  direct lattice vectors                    reciprocal lattice vectors
     0.000000000  1.744466975  1.744466975    -0.286620502  0.286620502  0.286620502
     1.744466975  0.000000000  1.744466975     0.286620502 -0.286620502  0.286620502
     1.744466975  1.744466975  0.000000000     0.286620502  0.286620502 -0.286620502

  length of vectors
     2.467048855  2.467048855  2.467048855     0.496441272  0.496441272  0.496441272

  position of ions in fractional coordinates (direct lattice)
     0.000000000  0.000000000  0.000000000

  ion indices of the primitive-cell ions
   primitive index   ion index
                 1           1

----------------------------------------------------------------------------------------

 
 
 KPOINTS: Automatic mesh                          

Automatic generation of k-mesh.
 Grid dimensions read from file:
 generate k-points for:    8    8    8

 Generating k-lattice:

  Cartesian coordinates                     Fractional coordinates (reciprocal lattice)
    -0.035827563  0.035827563  0.035827563     0.125000000  0.000000000  0.000000000
     0.035827563 -0.035827563  0.035827563     0.000000000  0.125000000  0.000000000
     0.035827563  0.035827563 -0.035827563     0.000000000  0.000000000  0.125000000

  Length of vectors
     0.062055159  0.062055159  0.062055159

  Shift w.r.t. Gamma in fractional coordinates (k-lattice)
     0.500000000  0.500000000  0.500000000

 
 Subroutine IBZKPT returns following result:
 ===========================================
 
 Found     60 irreducible k-points:
 
 Following reciprocal coordinates:
            Coordinates               Weight
  0.062500  0.062500  0.062500      8.000000
  0.187500  0.062500  0.062500     24.000000
  0.312500  0.062500  0.062500     24.000000
  0.437500  0.062500  0.062500     24.000000
 -0.437500  0.062500  0.062500     24.000000
 -0.312500  0.062500  0.062500     24.000000
 -0.187500  0.062500  0.062500     24.000000
 -0.062500  0.062500  0.062500     24.000000
  0.187500  0.187500  0.062500     24.000000
  0.312500  0.187500  0.062500     48.000000
  0.437500  0.187500  0.062500     48.000000
 -0.437500  0.187500  0.062500     48.000000
 -0.312500  0.187500  0.062500     48.000000
 -0.187500  0.187500  0.062500     48.000000
 -0.062500  0.187500  0.062500     48.000000
  0.312500  0.312500  0.062500     24.000000
  0.437500  0.312500  0.062500     48.000000
 -0.437500  0.312500  0.062500     48.000000
 -0.312500  0.312500  0.062500     48.000000
 -0.187500  0.312500  0.062500     48.000000
 -0.062500  0.312500  0.062500     48.000000
  0.437500  0.437500  0.062500     24.000000
 -0.437500  0.437500  0.062500     48.000000
 -0.312500  0.437500  0.062500     48.000000
 -0.187500  0.437500  0.062500     48.000000
 -0.062500  0.437500  0.062500     48.000000
 -0.437500 -0.437500  0.062500     24.000000
 -0.312500 -0.437500  0.062500     48.000000
 -0.187500 -0.437500  0.062500     48.000000
 -0.312500 -0.312500  0.062500     24.000000
 -0.187500 -0.312500  0.062500     48.000000
 -0.187500 -0.187500  0.062500     24.000000
  0.187500  0.187500  0.187500      8.000000
  0.312500  0.187500  0.187500     24.000000
  0.437500  0.187500  0.187500     24.000000
 -0.437500  0.187500  0.187500     24.000000
 -0.312500  0.187500  0.187500     24.000000
 -0.187500  0.187500  0.187500     24.000000
  0.312500  0.312500  0.187500     24.000000
  0.437500  0.312500  0.187500     48.000000
 -0.437500  0.312500  0.187500     48.000000
 -0.312500  0.312500  0.187500     48.000000
 -0.187500  0.312500  0.187500     48.000000
  0.437500  0.437500  0.187500     24.000000
 -0.437500  0.437500  0.187500     48.000000
 -0.312500  0.437500  0.187500     48.000000
 -0.187500  0.437500  0.187500     48.000000
 -0.437500 -0.437500  0.187500     24.000000
 -0.312500 -0.437500  0.187500     48.000000
 -0.312500 -0.312500  0.187500     24.000000
  0.312500  0.312500  0.312500      8.000000
  0.437500  0.312500  0.312500     24.000000
 -0.437500  0.312500  0.312500     24.000000
 -0.312500  0.312500  0.312500     24.000000
  0.437500  0.437500  0.312500     24.000000
 -0.437500  0.437500  0.312500     48.000000
 -0.312500  0.437500  0.312500     48.000000
 -0.437500 -0.437500  0.312500     24.000000
  0.437500  0.437500  0.437500      8.000000
 -0.437500  0.437500  0.437500     24.000000
 
 Following cartesian coordinates:
            Coordinates               Weight
  0.017914  0.017914  0.017914      8.000000
 -0.017914  0.053741  0.053741     24.000000
 -0.053741  0.089569  0.089569     24.000000
 -0.089569  0.125396  0.125396     24.000000
  0.161224 -0.125396 -0.125396     24.000000
  0.125396 -0.089569 -0.089569     24.000000
  0.089569 -0.053741 -0.053741     24.000000
  0.053741 -0.017914 -0.017914     24.000000
  0.017914  0.017914  0.089569     24.000000
 -0.017914  0.053741  0.125396     48.000000
 -0.053741  0.089569  0.161224     48.000000
  0.197052 -0.161224 -0.089569     48.000000
  0.161224 -0.125396 -0.053741     48.000000
  0.125396 -0.089569 -0.017914     48.000000
  0.089569 -0.053741  0.017914     48.000000
  0.017914  0.017914  0.161224     24.000000
 -0.017914  0.053741  0.197052     48.000000
  0.232879 -0.197052 -0.053741     48.000000
  0.197052 -0.161224 -0.017914     48.000000
  0.161224 -0.125396  0.017914     48.000000
  0.125396 -0.089569  0.053741     48.000000
  0.017914  0.017914  0.232879     24.000000
  0.268707 -0.232879 -0.017914     48.000000
  0.232879 -0.197052  0.017914     48.000000
  0.197052 -0.161224  0.053741     48.000000
  0.161224 -0.125396  0.089569     48.000000
  0.017914  0.017914 -0.268707     24.000000
 -0.017914  0.053741 -0.232879     48.000000
 -0.053741  0.089569 -0.197052     48.000000
  0.017914  0.017914 -0.197052     24.000000
 -0.017914  0.053741 -0.161224     48.000000
  0.017914  0.017914 -0.125396     24.000000
  0.053741  0.053741  0.053741      8.000000
  0.017914  0.089569  0.089569     24.000000
 -0.017914  0.125396  0.125396     24.000000
  0.232879 -0.125396 -0.125396     24.000000
  0.197052 -0.089569 -0.089569     24.000000
  0.161224 -0.053741 -0.053741     24.000000
  0.053741  0.053741  0.125396     24.000000
  0.017914  0.089569  0.161224     48.000000
  0.268707 -0.161224 -0.089569     48.000000
  0.232879 -0.125396 -0.053741     48.000000
  0.197052 -0.089569 -0.017914     48.000000
  0.053741  0.053741  0.197052     24.000000
  0.304534 -0.197052 -0.053741     48.000000
  0.268707 -0.161224 -0.017914     48.000000
  0.232879 -0.125396  0.017914     48.000000
  0.053741  0.053741 -0.304534     24.000000
  0.017914  0.089569 -0.268707     48.000000
  0.053741  0.053741 -0.232879     24.000000
  0.089569  0.089569  0.089569      8.000000
  0.053741  0.125396  0.125396     24.000000
  0.304534 -0.125396 -0.125396     24.000000
  0.268707 -0.089569 -0.089569     24.000000
  0.089569  0.089569  0.161224     24.000000
  0.340362 -0.161224 -0.089569     48.000000
  0.304534 -0.125396 -0.053741     48.000000
  0.089569  0.089569 -0.340362     24.000000
  0.125396  0.125396  0.125396      8.000000
  0.376189 -0.125396 -0.125396     24.000000
 


--------------------------------------------------------------------------------------------------------




 Dimension of arrays:
   k-points           NKPTS =     60   k-points in BZ     NKDIM =     60   number of bands    NBANDS=     12
   number of dos      NEDOS =    301   number of ions     NIONS =      1
   non local maximal  LDIM  =      6   non local SUM 2l+1 LMDIM =     18
   total plane-waves  NPLWV =   4096
   max r-space proj   IRMAX =      1   max aug-charges    IRDMAX=  15413
   dimension x,y,z NGX =    16 NGY =   16 NGZ =   16
   dimension x,y,z NGXF=    32 NGYF=   32 NGZF=   32
   support grid    NGXF=    32 NGYF=   32 NGZF=   32
   ions per type =               1
   NGX,Y,Z   is equivalent  to a cutoff of  10.78, 10.78, 10.78 a.u.
   NGXF,Y,Z  is equivalent  to a cutoff of  21.56, 21.56, 21.56 a.u.

 SYSTEM =  Co-fcc                                  
 POSCAR =  Co                                      

 Startparameter for this run:
   NWRITE =      2    write-flag & timer
   PREC   = accura    normal or accurate (medium, high low for compatibility)
   ISTART =      0    job   : 0-new  1-cont  2-samecut
   ICHARG =      2    charge: 1-file 2-atom 10-const
   ISPIN  =      2    spin polarized calculation?
   LNONCOLLINEAR =      F non collinear calculations
   LSORBIT =      F    spin-orbit coupling
   INIWAV =      1    electr: 0-lowe 1-rand  2-diag
   LASPH  =      F    aspherical Exc in radial PAW
 Electronic Relaxation 1
   ENCUT  =  400.0 eV  29.40 Ry    5.42 a.u.   4.02  4.02  4.02*2*pi/ulx,y,z
   ENINI  =  400.0     initial cutoff
   ENAUG  =  477.8 eV  augmentation charge cutoff
   NELM   =    100;   NELMIN=  2; NELMDL= -5     # of ELM steps 
   EDIFF  = 0.1E-05   stopping-criterion for ELM
   LREAL  =      F    real-space projection
   NLSPLINE    = F    spline interpolate recip. space projectors
   LCOMPAT=      F    compatible to vasp.4.4
   GGA_COMPAT  = T    GGA compatible to vasp.4.4-vasp.4.6
   LMAXPAW     = -100 max onsite density
   LMAXMIX     =    2 max onsite mixed and CHGCAR
   VOSKOWN=      0    Vosko Wilk Nusair interpolation
   ROPT   =    0.00000
 Ionic relaxation
   EDIFFG = -.2E-01   stopping-criterion for IOM
   NSW    =    100    number of steps for IOM
   NBLOCK =      1;   KBLOCK =    100    inner block; outer block 
   IBRION =      2    ionic relax: 0-MD 1-quasi-New 2-CG
   NFREE  =      1    steps in history (QN), initial steepest desc. (CG)
   ISIF   =      2    stress and relaxation
   IWAVPR =     11    prediction:  0-non 1-charg 2-wave 3-comb
   ISYM   =      1    0-nonsym 1-usesym 2-fastsym
   LCORR  =      T    Harris-Foulkes like correction to forces

   POTIM  = 0.5000    time-step for ionic-motion
   TEIN   =    0.0    initial temperature
   TEBEG  =    0.0;   TEEND  =   0.0 temperature during run
   SMASS  =  -3.00    Nose mass-parameter (am)
   estimated Nose-frequenzy (Omega)   =  0.10E-29 period in steps = 0.13E+47 mass=  -0.139E-27a.u.
   SCALEE = 1.0000    scale energy and forces
   NPACO  =    256;   APACO  = 10.0  distance and # of slots for P.C.
   PSTRESS=    0.0 pullay stress

  Mass of Ions in am
   POMASS =  58.93
  Ionic Valenz
   ZVAL   =   9.00
  Atomic Wigner-Seitz radii
   RWIGS  =  -1.00
  virtual crystal weights 
   VCA    =   1.00
   NELECT =       9.0000    total number of electrons
   NUPDOWN=      -1.0000    fix difference up-down

 DOS related values:
   EMIN   =  10.00;   EMAX   =-10.00  energy-range for DOS
   EFERMI =   0.00
   ISMEAR =     0;   SIGMA  =   0.05  broadening in eV -4-tet -1-fermi 0-gaus

 Electronic relaxation 2 (details)
   IALGO  =     38    algorithm
   LDIAG  =      T    sub-space diagonalisation (order eigenvalues)
   LSUBROT=      F    optimize rotation matrix (better conditioning)
   TURBO    =      0    0=normal 1=particle mesh
   IRESTART =      0    0=no restart 2=restart with 2 vectors
   NREBOOT  =      0    no. of reboots
   NMIN     =      0    reboot dimension
   EREF     =   0.00    reference energy to select bands
   IMIX   =      4    mixing-type and parameters
     AMIX     =   0.40;   BMIX     =  1.00
     AMIX_MAG =   1.60;   BMIX_MAG =  1.00
     AMIN     =   0.10
     WC   =   100.;   INIMIX=   1;  MIXPRE=   1;  MAXMIX= -45

 Intra band minimization:
   WEIMIN = 0.0010     energy-eigenvalue tresh-hold
   EBREAK =  0.21E-07  absolut break condition
   DEPER  =   0.30     relativ break condition  

   TIME   =   0.40     timestep for ELM

  volume/ion in A,a.u.               =      10.62        71.65
  Fermi-wavevector in a.u.,A,eV,Ry     =   1.549350  2.927847 32.660594  2.400486
  Thomas-Fermi vector in A             =   2.654170
 
 Write flags
   LWAVE        =      T    write WAVECAR
   LDOWNSAMPLE  =      F    k-point downsampling of WAVECAR
   LCHARG       =      T    write CHGCAR
   LVTOT        =      F    write LOCPOT, total local potential
   LVHAR        =      F    write LOCPOT, Hartree potential only
   LELF         =      F    write electronic localiz. function (ELF)
   LORBIT       =     11    0 simple, 1 ext, 2 COOP (PROOUT), +10 PAW based schemes


 Dipole corrections
   LMONO  =      F    monopole corrections only (constant potential shift)
   LDIPOL =      F    correct potential (dipole corrections)
   IDIPOL =      0    1-x, 2-y, 3-z, 4-all directions 
   EPSILON=  1.0000000 bulk dielectric constant

 Exchange correlation treatment:
   GGA     =    --    GGA type
   LEXCH   =     8    internal setting for exchange type
   LIBXC   =     F    Libxc                    
   VOSKOWN =     0    Vosko Wilk Nusair interpolation
   LHFCALC =     F    Hartree Fock is set to
   LHFONE  =     F    Hartree Fock one center treatment
   AEXX    =    0.0000 exact exchange contribution

 Linear response parameters
   LEPSILON=     F    determine dielectric tensor
   LRPA    =     F    only Hartree local field effects (RPA)
   LNABLA  =     F    use nabla operator in PAW spheres
   LVEL    =     F    velocity operator in full k-point grid
   CSHIFT  =0.1000    complex shift for real part using Kramers Kronig
   OMEGAMAX=  -1.0    maximum frequency
   DEG_THRESHOLD= 0.2000000E-02 threshold for treating states as degnerate
   RTIME   =   -0.100 relaxation time in fs
  (WPLASMAI=    0.000 imaginary part of plasma frequency in eV, 0.658/RTIME)
   DFIELD  = 0.0000000 0.0000000 0.0000000 field for delta impulse in time
 
  Optional k-point grid parameters
   LKPOINTS_OPT  =     F    use optional k-point grid
   KPOINTS_OPT_MODE=     1    mode for optional k-point grid
 
 Orbital magnetization related:
   ORBITALMAG=     F  switch on orbital magnetization
   LCHIMAG   =     F  perturbation theory with respect to B field
   DQ        =  0.001000  dq finite difference perturbation B field
   LLRAUG    =     F  two centre corrections for induced B field



--------------------------------------------------------------------------------------------------------


 conjugate gradient relaxation of ions
 charge density and potential will be updated during run
 spin polarized calculation
 Variant of blocked Davidson
 Davidson routine will perform the subspace rotation
 perform sub-space diagonalisation
    after iterative eigenvector-optimisation
 modified Broyden-mixing scheme, WC =      100.0
 initial mixing is a Kerker type mixing with AMIX =  0.4000 and BMIX =      1.0000
 Hartree-type preconditioning will be used
 using additional bands            7
 reciprocal scheme for non local part
 use partial core corrections
 calculate Harris-corrections to forces 
   (improved forces if not selfconsistent)
 use gradient corrections 
 use of overlap-Matrix (Vanderbilt PP)
 Gauss-broadening in eV      SIGMA  =   0.05


--------------------------------------------------------------------------------------------------------


  energy-cutoff  :      400.00
  volume of cell :       10.62
      direct lattice vectors                 reciprocal lattice vectors
     0.000000000  1.744466975  1.744466975    -0.286620502  0.286620502  0.286620502
     1.744466975  0.000000000  1.744466975     0.286620502 -0.286620502  0.286620502
     1.744466975  1.744466975  0.000000000     0.286620502  0.286620502 -0.286620502

  length of vectors
     2.467048855  2.467048855  2.467048855     0.496441272  0.496441272  0.496441272


 
 k-points in units of 2pi/SCALE and weight: Automatic mesh                          
   0.01791378  0.01791378  0.01791378       0.004
  -0.01791378  0.05374134  0.05374134       0.012
  -0.05374134  0.08956891  0.08956891       0.012
  -0.08956891  0.12539647  0.12539647       0.012
   0.16122403 -0.12539647 -0.12539647       0.012
   0.12539647 -0.08956891 -0.08956891       0.012
   0.08956891 -0.05374134 -0.05374134       0.012
   0.05374134 -0.01791378 -0.01791378       0.012
   0.01791378  0.01791378  0.08956891       0.012
  -0.01791378  0.05374134  0.12539647       0.023
  -0.05374134  0.08956891  0.16122403       0.023
   0.19705160 -0.16122403 -0.08956891       0.023
   0.16122403 -0.12539647 -0.05374134       0.023
   0.12539647 -0.08956891 -0.01791378       0.023
   0.08956891 -0.05374134  0.01791378       0.023
   0.01791378  0.01791378  0.16122403       0.012
  -0.01791378  0.05374134  0.19705160       0.023
   0.23287916 -0.19705160 -0.05374134       0.023
   0.19705160 -0.16122403 -0.01791378       0.023
   0.16122403 -0.12539647  0.01791378       0.023
   0.12539647 -0.08956891  0.05374134       0.023
   0.01791378  0.01791378  0.23287916       0.012
   0.26870672 -0.23287916 -0.01791378       0.023
   0.23287916 -0.19705160  0.01791378       0.023
   0.19705160 -0.16122403  0.05374134       0.023
   0.16122403 -0.12539647  0.08956891       0.023
   0.01791378  0.01791378 -0.26870672       0.012
  -0.01791378  0.05374134 -0.23287916       0.023
  -0.05374134  0.08956891 -0.19705160       0.023
   0.01791378  0.01791378 -0.19705160       0.012
  -0.01791378  0.05374134 -0.16122403       0.023
   0.01791378  0.01791378 -0.12539647       0.012
   0.05374134  0.05374134  0.05374134       0.004
   0.01791378  0.08956891  0.08956891       0.012
  -0.01791378  0.12539647  0.12539647       0.012
   0.23287916 -0.12539647 -0.12539647       0.012
   0.19705160 -0.08956891 -0.08956891       0.012
   0.16122403 -0.05374134 -0.05374134       0.012
   0.05374134  0.05374134  0.12539647       0.012
   0.01791378  0.08956891  0.16122403       0.023
   0.26870672 -0.16122403 -0.08956891       0.023
   0.23287916 -0.12539647 -0.05374134       0.023
   0.19705160 -0.08956891 -0.01791378       0.023
   0.05374134  0.05374134  0.19705160       0.012
   0.30453428 -0.19705160 -0.05374134       0.023
   0.26870672 -0.16122403 -0.01791378       0.023
   0.23287916 -0.12539647  0.01791378       0.023
   0.05374134  0.05374134 -0.30453428       0.012
   0.01791378  0.08956891 -0.26870672       0.023
   0.05374134  0.05374134 -0.23287916       0.012
   0.08956891  0.08956891  0.08956891       0.004
   0.05374134  0.12539647  0.12539647       0.012
   0.30453428 -0.12539647 -0.12539647       0.012
   0.26870672 -0.08956891 -0.08956891       0.012
   0.08956891  0.08956891  0.16122403       0.012
   0.34036185 -0.16122403 -0.08956891       0.023
   0.30453428 -0.12539647 -0.05374134       0.023
   0.08956891  0.08956891 -0.34036185       0.012
   0.12539647  0.12539647  0.12539647       0.004
   0.37618941 -0.12539647 -0.12539647       0.012
 
 k-points in reciprocal lattice and weights: Automatic mesh                          
   0.06250000  0.06250000  0.06250000       0.004
   0.18750000  0.06250000  0.06250000       0.012
   0.31250000  0.06250000  0.06250000       0.012
   0.43750000  0.06250000  0.06250000       0.012
  -0.43750000  0.06250000  0.06250000       0.012
  -0.31250000  0.06250000  0.06250000       0.012
  -0.18750000  0.06250000  0.06250000       0.012
  -0.06250000  0.06250000  0.06250000       0.012
   0.18750000  0.18750000  0.06250000       0.012
   0.31250000  0.18750000  0.06250000       0.023
   0.43750000  0.18750000  0.06250000       0.023
  -0.43750000  0.18750000  0.06250000       0.023
  -0.31250000  0.18750000  0.06250000       0.023
  -0.18750000  0.18750000  0.06250000       0.023
  -0.06250000  0.18750000  0.06250000       0.023
   0.31250000  0.31250000  0.06250000       0.012
   0.43750000  0.31250000  0.06250000       0.023
  -0.43750000  0.31250000  0.06250000       0.023
  -0.31250000  0.31250000  0.06250000       0.023
  -0.18750000  0.31250000  0.06250000       0.023
  -0.06250000  0.31250000  0.06250000       0.023
   0.43750000  0.43750000  0.06250000       0.012
  -0.43750000  0.43750000  0.06250000       0.023
  -0.31250000  0.43750000  0.06250000       0.023
  -0.18750000  0.43750000  0.06250000       0.023
  -0.06250000  0.43750000  0.06250000       0.023
  -0.43750000 -0.43750000  0.06250000       0.012
  -0.31250000 -0.43750000  0.06250000       0.023
  -0.18750000 -0.43750000  0.06250000       0.023
  -0.31250000 -0.31250000  0.06250000       0.012
  -0.18750000 -0.31250000  0.06250000       0.023
  -0.18750000 -0.18750000  0.06250000       0.012
   0.18750000  0.18750000  0.18750000       0.004
   0.31250000  0.18750000  0.18750000       0.012
   0.43750000  0.18750000  0.18750000       0.012
  -0.43750000  0.18750000  0.18750000       0.012
  -0.31250000  0.18750000  0.18750000       0.012
  -0.18750000  0.18750000  0.18750000       0.012
   0.31250000  0.31250000  0.18750000       0.012
   0.43750000  0.31250000  0.18750000       0.023
  -0.43750000  0.31250000  0.18750000       0.023
  -0.31250000  0.31250000  0.18750000       0.023
  -0.18750000  0.31250000  0.18750000       0.023
   0.43750000  0.43750000  0.18750000       0.012
  -0.43750000  0.43750000  0.18750000       0.023
  -0.31250000  0.43750000  0.18750000       0.023
  -0.18750000  0.43750000  0.18750000       0.023
  -0.43750000 -0.43750000  0.18750000       0.012
  -0.31250000 -0.43750000  0.18750000       0.023
  -0.31250000 -0.31250000  0.18750000       0.012
   0.31250000  0.31250000  0.31250000       0.004
   0.43750000  0.31250000  0.31250000       0.012
  -0.43750000  0.31250000  0.31250000       0.012
  -0.31250000  0.31250000  0.31250000       0.012
   0.43750000  0.43750000  0.31250000       0.012
  -0.43750000  0.43750000  0.31250000       0.023
  -0.31250000  0.43750000  0.31250000       0.023
  -0.43750000 -0.43750000  0.31250000       0.012
   0.43750000  0.43750000  0.43750000       0.004
  -0.43750000  0.43750000  0.43750000       0.012
 
 position of ions in fractional coordinates (direct lattice) 
   0.00000000  0.00000000  0.00000000
 
 position of ions in cartesian coordinates  (Angst):
   0.00000000  0.00000000  0.00000000
 


--------------------------------------------------------------------------------------------------------


 k-point   1 :   0.0625 0.0625 0.0625  plane waves:     178
 k-point   2 :   0.1875 0.0625 0.0625  plane waves:     180
 k-point   3 :   0.3125 0.0625 0.0625  plane waves:     192
 k-point   4 :   0.4375 0.0625 0.0625  plane waves:     193
 k-point   5 :  -0.4375 0.0625 0.0625  plane waves:     192
 k-point   6 :  -0.3125 0.0625 0.0625  plane waves:     192
 k-point   7 :  -0.1875 0.0625 0.0625  plane waves:     189
 k-point   8 :  -0.0625 0.0625 0.0625  plane waves:     176
 k-point   9 :   0.1875 0.1875 0.0625  plane waves:     183
 k-point  10 :   0.3125 0.1875 0.0625  plane waves:     192
 k-point  11 :   0.4375 0.1875 0.0625  plane waves:     194
 k-point  12 :  -0.4375 0.1875 0.0625  plane waves:     192
 k-point  13 :  -0.3125 0.1875 0.0625  plane waves:     194
 k-point  14 :  -0.1875 0.1875 0.0625  plane waves:     192
 k-point  15 :  -0.0625 0.1875 0.0625  plane waves:     185
 k-point  16 :   0.3125 0.3125 0.0625  plane waves:     191
 k-point  17 :   0.4375 0.3125 0.0625  plane waves:     194
 k-point  18 :  -0.4375 0.3125 0.0625  plane waves:     195
 k-point  19 :  -0.3125 0.3125 0.0625  plane waves:     195
 k-point  20 :  -0.1875 0.3125 0.0625  plane waves:     191
 k-point  21 :  -0.0625 0.3125 0.0625  plane waves:     190
 k-point  22 :   0.4375 0.4375 0.0625  plane waves:     196
 k-point  23 :  -0.4375 0.4375 0.0625  plane waves:     199
 k-point  24 :  -0.3125 0.4375 0.0625  plane waves:     195
 k-point  25 :  -0.1875 0.4375 0.0625  plane waves:     192
 k-point  26 :  -0.0625 0.4375 0.0625  plane waves:     191
 k-point  27 :  -0.4375-0.4375 0.0625  plane waves:     193
 k-point  28 :  -0.3125-0.4375 0.0625  plane waves:     199
 k-point  29 :  -0.1875-0.4375 0.0625  plane waves:     192
 k-point  30 :  -0.3125-0.3125 0.0625  plane waves:     197
 k-point  31 :  -0.1875-0.3125 0.0625  plane waves:     192
 k-point  32 :  -0.1875-0.1875 0.0625  plane waves:     191
 k-point  33 :   0.1875 0.1875 0.1875  plane waves:     187
 k-point  34 :   0.3125 0.1875 0.1875  plane waves:     192
 k-point  35 :   0.4375 0.1875 0.1875  plane waves:     191
 k-point  36 :  -0.4375 0.1875 0.1875  plane waves:     192
 k-point  37 :  -0.3125 0.1875 0.1875  plane waves:     190
 k-point  38 :  -0.1875 0.1875 0.1875  plane waves:     190
 k-point  39 :   0.3125 0.3125 0.1875  plane waves:     193
 k-point  40 :   0.4375 0.3125 0.1875  plane waves:     194
 k-point  41 :  -0.4375 0.3125 0.1875  plane waves:     195
 k-point  42 :  -0.3125 0.3125 0.1875  plane waves:     194
 k-point  43 :  -0.1875 0.3125 0.1875  plane waves:     195
 k-point  44 :   0.4375 0.4375 0.1875  plane waves:     193
 k-point  45 :  -0.4375 0.4375 0.1875  plane waves:     196
 k-point  46 :  -0.3125 0.4375 0.1875  plane waves:     200
 k-point  47 :  -0.1875 0.4375 0.1875  plane waves:     195
 k-point  48 :  -0.4375-0.4375 0.1875  plane waves:     196
 k-point  49 :  -0.3125-0.4375 0.1875  plane waves:     199
 k-point  50 :  -0.3125-0.3125 0.1875  plane waves:     194
 k-point  51 :   0.3125 0.3125 0.3125  plane waves:     192
 k-point  52 :   0.4375 0.3125 0.3125  plane waves:     191
 k-point  53 :  -0.4375 0.3125 0.3125  plane waves:     194
 k-point  54 :  -0.3125 0.3125 0.3125  plane waves:     186
 k-point  55 :   0.4375 0.4375 0.3125  plane waves:     188
 k-point  56 :  -0.4375 0.4375 0.3125  plane waves:     193
 k-point  57 :  -0.3125 0.4375 0.3125  plane waves:     196
 k-point  58 :  -0.4375-0.4375 0.3125  plane waves:     191
 k-point  59 :   0.4375 0.4375 0.4375  plane waves:     189
 k-point  60 :  -0.4375 0.4375 0.4375  plane waves:     187

 maximum and minimum number of plane-waves per node :        37       27

 maximum number of plane-waves:       200
 maximum index in each direction: 
   IXMAX=    4   IYMAX=    4   IZMAX=    3
   IXMIN=   -4   IYMIN=   -4   IZMIN=   -4


 parallel 3D FFT for wavefunctions:
    minimum data exchange during FFTs selected (reduces bandwidth)
 parallel 3D FFT for charge:
    minimum data exchange during FFTs selected (reduces bandwidth)


 total amount of memory used by VASP MPI-rank0    30973. kBytes
=======================================================================

   base      :      30000. kBytes
   nonl-proj :        311. kBytes
   fftplans  :         92. kBytes
   grid      :        217. kBytes
   one-center:         31. kBytes
   wavefun   :        322. kBytes
 
     INWAV:  cpu time      0.0000: real time      0.0001
 Broyden mixing: mesh for mixing (old mesh)
   NGX =  9   NGY =  9   NGZ =  9
  (NGX  = 32   NGY  = 32   NGZ  = 32)
  gives a total of    729 points

 initial charge density was supplied:
 charge density of overlapping atoms calculated
 number of electron       9.0000000 magnetization       3.0000000
 keeping initial charge density in first step


--------------------------------------------------------------------------------------------------------


 Maximum index for augmentation-charges         1183 (set IRDMAX)


--------------------------------------------------------------------------------------------------------


 First call to EWALD:  gamma=   0.806
 Maximum number of real-space cells 3x 3x 3
 Maximum number of reciprocal cells 3x 3x 3

    FEWALD:  cpu time      0.0014: real time      0.0014


--------------------------------------- Iteration      1(   1)  ---------------------------------------


    POTLOK:  cpu time      0.0047: real time      0.0048
    SETDIJ:  cpu time      0.0052: real time      0.0052
     EDDAV:  cpu time      0.2673: real time      0.2690
       DOS:  cpu time      0.0012: real time      0.0012
    --------------------------------------------
      LOOP:  cpu time      0.2785: real time      0.2803

 eigenvalue-minimisations  :  2972
 total energy-change (2. order) : 0.2188605E+02  (-0.3555465E+03)
 number of electron       9.0000000 magnetization       3.0000000
 augmentation part        9.0000000 magnetization       3.0000000

 Free energy of the ion-electron system (eV)
  ---------------------------------------------------
  alpha Z        PSCENC =        39.89459173
  Ewald energy   TEWEN  =      -766.38081418
  -Hartree energ DENC   =      -147.67538347
  -exchange      EXHF   =         0.00000000
  -V(xc)+E(xc)   XCENC  =        17.88527836
  PAW double counting   =       719.99081943     -772.94345096
  entropy T*S    EENTRO =        -0.00090562
  eigenvalues    EBANDS =       117.75818526
  atomic energy  EATOM  =       813.35773410
  Solvation  Ediel_sol  =         0.00000000
  ---------------------------------------------------
  free energy    TOTEN  =        21.88605465 eV

  energy without entropy =       21.88696028  energy(sigma->0) =       21.88650746


--------------------------------------------------------------------------------------------------------




--------------------------------------- Iteration      1(   2)  ---------------------------------------


     EDDAV:  cpu time      0.2599: real time      0.2620
       DOS:  cpu time      0.0008: real time      0.0008
    --------------------------------------------
      LOOP:  cpu time      0.2608: real time      0.2629

 eigenvalue-minimisations  :  3076
 total energy-change (2. order) :-0.2887558E+02  (-0.2651464E+02)
 number of electron       9.0000000 magnetization       3.0000000
 augmentation part        9.0000000 magnetization       3.0000000

 Free energy of the ion-electron system (eV)
  ---------------------------------------------------
  alpha Z        PSCENC =        39.89459173
  Ewald energy   TEWEN  =      -766.38081418
  -Hartree energ DENC   =      -147.67538347
  -exchange      EXHF   =         0.00000000
  -V(xc)+E(xc)   XCENC  =        17.88527836
  PAW double counting   =       719.99081943     -772.94345096
  entropy T*S    EENTRO =        -0.00081250
  eigenvalues    EBANDS =        88.88251394
  atomic energy  EATOM  =       813.35773410
  Solvation  Ediel_sol  =         0.00000000
  ---------------------------------------------------
  free energy    TOTEN  =        -6.98952354 eV

  energy without entropy =       -6.98871105  energy(sigma->0) =       -6.98911729


--------------------------------------------------------------------------------------------------------




--------------------------------------- Iteration      1(   3)  ---------------------------------------


     EDDAV:  cpu time      0.2721: real time      0.2736
       DOS:  cpu time      0.0008: real time      0.0008
    --------------------------------------------
      LOOP:  cpu time      0.2729: real time      0.2745

 eigenvalue-minimisations  :  3332
 total energy-change (2. order) :-0.7899356E+00  (-0.7858690E+00)
 number of electron       9.0000000 magnetization       3.0000000
 augmentation part        9.0000000 magnetization       3.0000000

 Free energy of the ion-electron system (eV)
  ---------------------------------------------------
  alpha Z        PSCENC =        39.89459173
  Ewald energy   TEWEN  =      -766.38081418
  -Hartree energ DENC   =      -147.67538347
  -exchange      EXHF   =         0.00000000
  -V(xc)+E(xc)   XCENC  =        17.88527836
  PAW double counting   =       719.99081943     -772.94345096
  entropy T*S    EENTRO =        -0.00102717
  eigenvalues    EBANDS =        88.09279300
  atomic energy  EATOM  =       813.35773410
  Solvation  Ediel_sol  =         0.00000000
  ---------------------------------------------------
  free energy    TOTEN  =        -7.77945916 eV

  energy without entropy =       -7.77843199  energy(sigma->0) =       -7.77894558


--------------------------------------------------------------------------------------------------------




--------------------------------------- Iteration      1(   4)  ---------------------------------------


     EDDAV:  cpu time      0.2844: real time      0.2860
       DOS:  cpu time      0.0009: real time      0.0009
    --------------------------------------------
      LOOP:  cpu time      0.2852: real time      0.2868

 eigenvalue-minimisations  :  3548
 total energy-change (2. order) :-0.7932392E-02  (-0.7930134E-02)
 number of electron       9.0000000 magnetization       3.0000000
 augmentation part        9.0000000 magnetization       3.0000000

 Free energy of the ion-electron system (eV)
  ---------------------------------------------------
  alpha Z        PSCENC =        39.89459173
  Ewald energy   TEWEN  =      -766.38081418
  -Hartree energ DENC   =      -147.67538347
  -exchange      EXHF   =         0.00000000
  -V(xc)+E(xc)   XCENC  =        17.88527836
  PAW double counting   =       719.99081943     -772.94345096
  entropy T*S    EENTRO =        -0.00102800
  eigenvalues    EBANDS =        88.08486143
  atomic energy  EATOM  =       813.35773410
  Solvation  Ediel_sol  =         0.00000000
  ---------------------------------------------------
  free energy    TOTEN  =        -7.78739156 eV

  energy without entropy =       -7.78636356  energy(sigma->0) =       -7.78687756


--------------------------------------------------------------------------------------------------------




--------------------------------------- Iteration      1(   5)  ---------------------------------------


     EDDAV:  cpu time      0.3023: real time      0.3040
       DOS:  cpu time      0.0009: real time      0.0009
    CHARGE:  cpu time      0.0104: real time      0.0104
    MIXING:  cpu time      0.0002: real time      0.0002
    --------------------------------------------
      LOOP:  cpu time      0.3138: real time      0.3155

 eigenvalue-minimisations  :  3608
 total energy-change (2. order) :-0.1939833E-03  (-0.1939814E-03)
 number of electron       8.9999996 magnetization       1.4017693
 augmentation part        4.5917005 magnetization       1.0061797

 Broyden mixing:
  rms(total) = 0.11618E+01    rms(broyden)= 0.11618E+01
  rms(prec ) = 0.32260E+01
  weight for this iteration     100.00

 Free energy of the ion-electron system (eV)
  ---------------------------------------------------
  alpha Z        PSCENC =        39.89459173
  Ewald energy   TEWEN  =      -766.38081418
  -Hartree energ DENC   =      -147.67538347
  -exchange      EXHF   =         0.00000000
  -V(xc)+E(xc)   XCENC  =        17.88527836
  PAW double counting   =       719.99081943     -772.94345096
  entropy T*S    EENTRO =        -0.00102803
  eigenvalues    EBANDS =        88.08466748
  atomic energy  EATOM  =       813.35773410
  Solvation  Ediel_sol  =         0.00000000
  ---------------------------------------------------
  free energy    TOTEN  =        -7.78758554 eV

  energy without entropy =       -7.78655751  energy(sigma->0) =       -7.78707153


--------------------------------------------------------------------------------------------------------




--------------------------------------- Iteration      1(   6)  ---------------------------------------


    POTLOK:  cpu time      0.0032: real time      0.0034
    SETDIJ:  cpu time      0.0049: real time      0.0049
     EDDAV:  cpu time      0.2982: real time      0.2998
       DOS:  cpu time      0.0009: real time      0.0009
    CHARGE:  cpu time      0.0097: real time      0.0097
    MIXING:  cpu time      0.0002: real time      0.0002
    --------------------------------------------
      LOOP:  cpu time      0.3172: real time      0.3190

 eigenvalue-minimisations  :  3732
 total energy-change (2. order) : 0.6017050E+00  (-0.1131597E+01)
 number of electron       8.9999995 magnetization       1.6009058
 augmentation part        5.3151385 magnetization       1.4616961

 Broyden mixing:
  rms(total) = 0.42025E+00    rms(broyden)= 0.42023E+00
  rms(prec ) = 0.84300E+00
  weight for this iteration     100.00

 eigenvalues of (default mixing * dielectric matrix)
  average eigenvalue GAMMA=   0.8963
  0.8963

 Free energy of the ion-electron system (eV)
  ---------------------------------------------------
  alpha Z        PSCENC =        39.89459173
  Ewald energy   TEWEN  =      -766.38081418
  -Hartree energ DENC   =      -129.54229499
  -exchange      EXHF   =         0.00000000
  -V(xc)+E(xc)   XCENC  =        16.36341635
  PAW double counting   =       799.23205918     -847.25626784
  entropy T*S    EENTRO =        -0.00167801
  eigenvalues    EBANDS =        67.14737309
  atomic energy  EATOM  =       813.35773410
  Solvation  Ediel_sol  =         0.00000000
  ---------------------------------------------------
  free energy    TOTEN  =        -7.18588058 eV

  energy without entropy =       -7.18420257  energy(sigma->0) =       -7.18504157


--------------------------------------------------------------------------------------------------------




--------------------------------------- Iteration      1(   7)  ---------------------------------------


    POTLOK:  cpu time      0.0029: real time      0.0031
    SETDIJ:  cpu time      0.0046: real time      0.0046
     EDDAV:  cpu time      0.2865: real time      0.2880
       DOS:  cpu time      0.0009: real time      0.0009
    CHARGE:  cpu time      0.0097: real time      0.0098
    MIXING:  cpu time      0.0002: real time      0.0002
    --------------------------------------------
      LOOP:  cpu time      0.3048: real time      0.3065

 eigenvalue-minimisations  :  3576
 total energy-change (2. order) : 0.1515659E+00  (-0.1222565E+00)
 number of electron       8.9999995 magnetization       1.5924758
 augmentation part        5.0915984 magnetization       1.4350183

 Broyden mixing:
  rms(total) = 0.24625E+00    rms(broyden)= 0.24625E+00
  rms(prec ) = 0.39552E+00
  weight for this iteration     100.00

 eigenvalues of (default mixing * dielectric matrix)
  average eigenvalue GAMMA=   0.7519
  1.0123  0.4915

 Free energy of the ion-electron system (eV)
  ---------------------------------------------------
  alpha Z        PSCENC =        39.89459173
  Ewald energy   TEWEN  =      -766.38081418
  -Hartree energ DENC   =      -133.00793395
  -exchange      EXHF   =         0.00000000
  -V(xc)+E(xc)   XCENC  =        16.61286363
  PAW double counting   =       834.89368264     -886.17262014
  entropy T*S    EENTRO =        -0.00138775
  eigenvalues    EBANDS =        73.76956928
  atomic energy  EATOM  =       813.35773410
  Solvation  Ediel_sol  =         0.00000000
  ---------------------------------------------------
  free energy    TOTEN  =        -7.03431464 eV

  energy without entropy =       -7.03292688  energy(sigma->0) =       -7.03362076


--------------------------------------------------------------------------------------------------------




--------------------------------------- Iteration      1(   8)  ---------------------------------------


    POTLOK:  cpu time      0.0028: real time      0.0030
    SETDIJ:  cpu time      0.0045: real time      0.0046
     EDDAV:  cpu time      0.3026: real time      0.3042
       DOS:  cpu time      0.0009: real time      0.0009
    CHARGE:  cpu time      0.0096: real time      0.0097
    MIXING:  cpu time      0.0003: real time      0.0003
    --------------------------------------------
      LOOP:  cpu time      0.3208: real time      0.3226

 eigenvalue-minimisations  :  3840
 total energy-change (2. order) : 0.1165901E-01  (-0.1442565E-02)
 number of electron       8.9999995 magnetization       1.5795363
 augmentation part        5.1082529 magnetization       1.4211964

 Broyden mixing:
  rms(total) = 0.11577E+00    rms(broyden)= 0.11577E+00
  rms(prec ) = 0.20493E+00
  weight for this iteration     100.00

 eigenvalues of (default mixing * dielectric matrix)
  average eigenvalue GAMMA=   1.0677
  1.8635  0.7641  0.5756

 Free energy of the ion-electron system (eV)
  ---------------------------------------------------
  alpha Z        PSCENC =        39.89459173
  Ewald energy   TEWEN  =      -766.38081418
  -Hartree energ DENC   =      -131.72102351
  -exchange      EXHF   =         0.00000000
  -V(xc)+E(xc)   XCENC  =        16.53925986
  PAW double counting   =       864.95748584     -916.96311591
  entropy T*S    EENTRO =        -0.00137650
  eigenvalues    EBANDS =        73.29460294
  atomic energy  EATOM  =       813.35773410
  Solvation  Ediel_sol  =         0.00000000
  ---------------------------------------------------
  free energy    TOTEN  =        -7.02265563 eV

  energy without entropy =       -7.02127913  energy(sigma->0) =       -7.02196738


--------------------------------------------------------------------------------------------------------




--------------------------------------- Iteration      1(   9)  ---------------------------------------


    POTLOK:  cpu time      0.0030: real time      0.0031
    SETDIJ:  cpu time      0.0047: real time      0.0047
     EDDAV:  cpu time      0.3555: real time      0.3573
       DOS:  cpu time      0.0009: real time      0.0009
    CHARGE:  cpu time      0.0095: real time      0.0096
    MIXING:  cpu time      0.0002: real time      0.0002
    --------------------------------------------
      LOOP:  cpu time      0.3738: real time      0.3759

 eigenvalue-minimisations  :  4628
 total energy-change (2. order) : 0.5820337E-02  (-0.5144782E-03)
 number of electron       8.9999995 magnetization       1.5729497
 augmentation part        5.1221352 magnetization       1.4152485

 Broyden mixing:
  rms(total) = 0.24761E-01    rms(broyden)= 0.24761E-01
  rms(prec ) = 0.47989E-01
  weight for this iteration     100.00

 eigenvalues of (default mixing * dielectric matrix)
  average eigenvalue GAMMA=   1.1561
  2.2971  0.9823  0.7168  0.6284

 Free energy of the ion-electron system (eV)
  ---------------------------------------------------
  alpha Z        PSCENC =        39.89459173
  Ewald energy   TEWEN  =      -766.38081418
  -Hartree energ DENC   =      -130.51090345
  -exchange      EXHF   =         0.00000000
  -V(xc)+E(xc)   XCENC  =        16.47875480
  PAW double counting   =       897.17786113     -949.93100704
  entropy T*S    EENTRO =        -0.00134628
  eigenvalues    EBANDS =        72.89829389
  atomic energy  EATOM  =       813.35773410
  Solvation  Ediel_sol  =         0.00000000
  ---------------------------------------------------
  free energy    TOTEN  =        -7.01683529 eV

  energy without entropy =       -7.01548901  energy(sigma->0) =       -7.01616215


--------------------------------------------------------------------------------------------------------




--------------------------------------- Iteration      1(  10)  ---------------------------------------


    POTLOK:  cpu time      0.0028: real time      0.0030
    SETDIJ:  cpu time      0.0047: real time      0.0047
     EDDAV:  cpu time      0.3350: real time      0.3367
       DOS:  cpu time      0.0009: real time      0.0009
    CHARGE:  cpu time      0.0095: real time      0.0095
    MIXING:  cpu time      0.0002: real time      0.0002
    --------------------------------------------
      LOOP:  cpu time      0.3531: real time      0.3550

 eigenvalue-minimisations  :  4364
 total energy-change (2. order) : 0.5612023E-03  (-0.3119182E-04)
 number of electron       8.9999995 magnetization       1.5760989
 augmentation part        5.1245124 magnetization       1.4190261

 Broyden mixing:
  rms(total) = 0.34771E-02    rms(broyden)= 0.34770E-02
  rms(prec ) = 0.59153E-02
  weight for this iteration     100.00

 eigenvalues of (default mixing * dielectric matrix)
  average eigenvalue GAMMA=   1.1409
  2.3914  1.1513  0.8421  0.6598  0.6598

 Free energy of the ion-electron system (eV)
  ---------------------------------------------------
  alpha Z        PSCENC =        39.89459173
  Ewald energy   TEWEN  =      -766.38081418
  -Hartree energ DENC   =      -130.09359320
  -exchange      EXHF   =         0.00000000
  -V(xc)+E(xc)   XCENC  =        16.45973249
  PAW double counting   =       911.70916468     -964.79218317
  entropy T*S    EENTRO =        -0.00134230
  eigenvalues    EBANDS =        72.83043576
  atomic energy  EATOM  =       813.35773410
  Solvation  Ediel_sol  =         0.00000000
  ---------------------------------------------------
  free energy    TOTEN  =        -7.01627409 eV

  energy without entropy =       -7.01493179  energy(sigma->0) =       -7.01560294


--------------------------------------------------------------------------------------------------------




--------------------------------------- Iteration      1(  11)  ---------------------------------------


    POTLOK:  cpu time      0.0028: real time      0.0030
    SETDIJ:  cpu time      0.0045: real time      0.0046
     EDDAV:  cpu time      0.2865: real time      0.2880
       DOS:  cpu time      0.0009: real time      0.0009
    CHARGE:  cpu time      0.0095: real time      0.0095
    MIXING:  cpu time      0.0003: real time      0.0003
    --------------------------------------------
      LOOP:  cpu time      0.3045: real time      0.3063

 eigenvalue-minimisations  :  3592
 total energy-change (2. order) :-0.2498979E-05  (-0.1750033E-05)
 number of electron       8.9999995 magnetization       1.5745996
 augmentation part        5.1249465 magnetization       1.4172654

 Broyden mixing:
  rms(total) = 0.31124E-02    rms(broyden)= 0.31124E-02
  rms(prec ) = 0.32468E-02
  weight for this iteration     100.00

 eigenvalues of (default mixing * dielectric matrix)
  average eigenvalue GAMMA=   1.2177
  2.2968  1.9139  1.0185  0.7264  0.7264  0.6242

 Free energy of the ion-electron system (eV)
  ---------------------------------------------------
  alpha Z        PSCENC =        39.89459173
  Ewald energy   TEWEN  =      -766.38081418
  -Hartree energ DENC   =      -130.04895746
  -exchange      EXHF   =         0.00000000
  -V(xc)+E(xc)   XCENC  =        16.45842875
  PAW double counting   =       914.22913353     -967.34102211
  entropy T*S    EENTRO =        -0.00134491
  eigenvalues    EBANDS =        72.81597396
  atomic energy  EATOM  =       813.35773410
  Solvation  Ediel_sol  =         0.00000000
  ---------------------------------------------------
  free energy    TOTEN  =        -7.01627659 eV

  energy without entropy =       -7.01493168  energy(sigma->0) =       -7.01560413


--------------------------------------------------------------------------------------------------------




--------------------------------------- Iteration      1(  12)  ---------------------------------------


    POTLOK:  cpu time      0.0028: real time      0.0030
    SETDIJ:  cpu time      0.0046: real time      0.0046
     EDDAV:  cpu time      0.2896: real time      0.2911
       DOS:  cpu time      0.0009: real time      0.0009
    --------------------------------------------
      LOOP:  cpu time      0.2979: real time      0.2996

 eigenvalue-minimisations  :  3492
 total energy-change (2. order) :-0.6916821E-08  (-0.1698534E-06)
 number of electron       8.9999995 magnetization       1.5745996
 augmentation part        5.1249465 magnetization       1.4172654

 Free energy of the ion-electron system (eV)
  ---------------------------------------------------
  alpha Z        PSCENC =        39.89459173
  Ewald energy   TEWEN  =      -766.38081418
  -Hartree energ DENC   =      -130.06190698
  -exchange      EXHF   =         0.00000000
  -V(xc)+E(xc)   XCENC  =        16.45852923
  PAW double counting   =       914.68569165     -967.78277174
  entropy T*S    EENTRO =        -0.00134452
  eigenvalues    EBANDS =        72.81401410
  atomic energy  EATOM  =       813.35773410
  Solvation  Ediel_sol  =         0.00000000
  ---------------------------------------------------
  free energy    TOTEN  =        -7.01627660 eV

  energy without entropy =       -7.01493208  energy(sigma->0) =       -7.01560434


--------------------------------------------------------------------------------------------------------




 average (electrostatic) potential at core
  the test charge radii are     1.0452
  (the norm of the test charge is              1.0000)
       1 -77.9990
 
 
 
 E-fermi :  10.6369     XC(G=0): -13.5335     alpha+bet :-18.1159

 Fermi energy:        10.6369361199

 spin component 1

 k-point     1 :       0.0625    0.0625    0.0625
  band No.  band energies     occupation 
      1       1.6849      1.00000
      2       7.8794      1.00000
      3       7.9634      1.00000
      4       7.9634      1.00000
      5       9.0297      1.00000
      6       9.0297      1.00000
      7      33.5585      0.00000
      8      36.6291      0.00000
      9      38.1467      0.00000
     10      38.1467      0.00000
     11      42.1226      0.00000
     12      42.1226      0.00000

 k-point     2 :       0.1875    0.0625    0.0625
  band No.  band energies     occupation 
      1       2.4978      1.00000
      2       7.6586      1.00000
      3       8.1272      1.00000
      4       8.1323      1.00000
      5       8.8686      1.00000
      6       9.1219      1.00000
      7      30.8085      0.00000
      8      33.4608      0.00000
      9      37.0055      0.00000
     10      39.1767      0.00000
     11      40.9400      0.00000
     12      42.2388      0.00000

 k-point     3 :       0.3125    0.0625    0.0625
  band No.  band energies     occupation 
      1       4.1966      1.00000
      2       7.5426      1.00000
      3       8.0712      1.00000
      4       8.1484      1.00000
      5       9.0869      1.00000
      6       9.5363      1.00000
      7      24.6901      0.00000
      8      32.3477      0.00000
      9      35.9524      0.00000
     10      38.7859      0.00000
     11      39.9584      0.00000
     12      40.9307      0.00000

 k-point     4 :       0.4375    0.0625    0.0625
  band No.  band energies     occupation 
      1       5.3273      1.00000
      2       7.8334      1.00000
      3       7.9357      1.00000
      4       8.6329      1.00000
      5       9.6602      1.00000
      6      10.3427      1.00000
      7      19.2945      0.00000
      8      31.8175      0.00000
      9      34.7264      0.00000
     10      36.6201      0.00000
     11      39.0956      0.00000
     12      40.6768      0.00000

 k-point     5 :      -0.4375    0.0625    0.0625
  band No.  band energies     occupation 
      1       5.4483      1.00000
      2       7.7342      1.00000
      3       7.8807      1.00000
      4       9.2253      1.00000
      5       9.9525      1.00000
      6      11.1261      0.00000
      7      17.1281      0.00000
      8      31.8909      0.00000
      9      34.7322      0.00000
     10      34.9028      0.00000
     11      39.9318      0.00000
     12      39.9523      0.00000

 k-point     6 :      -0.3125    0.0625    0.0625
  band No.  band energies     occupation 
      1       5.1153      1.00000
      2       7.8716      1.00000
      3       8.0279      1.00000
      4       8.0937      1.00000
      5       9.7392      1.00000
      6       9.7963      1.00000
      7      20.9282      0.00000
      8      32.6210      0.00000
      9      34.1901      0.00000
     10      36.6541      0.00000
     11      39.7573      0.00000
     12      41.6582      0.00000

 k-point     7 :      -0.1875    0.0625    0.0625
  band No.  band energies     occupation 
      1       3.5883      1.00000
      2       7.4935      1.00000
      3       8.1372      1.00000
      4       8.1977      1.00000
      5       9.0142      1.00000
      6       9.2847      1.00000
      7      26.7138      0.00000
      8      33.7222      0.00000
      9      34.7422      0.00000
     10      39.2862      0.00000
     11      39.5716      0.00000
     12      43.9041      0.00000

 k-point     8 :      -0.0625    0.0625    0.0625
  band No.  band energies     occupation 
      1       2.0983      1.00000
      2       7.7310      1.00000
      3       8.0770      1.00000
      4       8.0815      1.00000
      5       8.8893      1.00000
      6       9.0987      1.00000
      7      32.5734      0.00000
      8      35.0343      0.00000
      9      36.1349      0.00000
     10      37.9720      0.00000
     11      42.0525      0.00000
     12      43.8663      0.00000

 k-point     9 :       0.1875    0.1875    0.0625
  band No.  band energies     occupation 
      1       2.8855      1.00000
      2       7.4444      1.00000
      3       8.2797      1.00000
      4       8.3108      1.00000
      5       8.6973      1.00000
      6       9.2270      1.00000
      7      31.1211      0.00000
      8      33.5864      0.00000
      9      33.8240      0.00000
     10      36.0135      0.00000
     11      41.8435      0.00000
     12      44.3898      0.00000

 k-point    10 :       0.3125    0.1875    0.0625
  band No.  band energies     occupation 
      1       4.2569      1.00000
      2       7.1323      1.00000
      3       8.0567      1.00000
      4       8.5790      1.00000
      5       8.9742      1.00000
      6       9.6183      1.00000
      7      27.2675      0.00000
      8      29.8894      0.00000
      9      33.6818      0.00000
     10      35.7126      0.00000
     11      40.6791      0.00000
     12      44.1413      0.00000

 k-point    11 :       0.4375    0.1875    0.0625
  band No.  band energies     occupation 
      1       5.6337      1.00000
      2       7.2574      1.00000
      3       7.7389      1.00000
      4       8.4171      1.00000
      5       9.7049      1.00000
      6      10.8421      0.00000
      7      21.4361      0.00000
      8      29.2599      0.00000
      9      31.3012      0.00000
     10      35.3740      0.00000
     11      42.1283      0.00000
     12      44.6518      0.00000

 k-point    12 :      -0.4375    0.1875    0.0625
  band No.  band energies     occupation 
      1       5.9335      1.00000
      2       7.2937      1.00000
      3       8.1902      1.00000
      4       8.2609      1.00000
      5       9.9140      1.00000
      6      13.0212      0.00000
      7      17.3134      0.00000
      8      28.6547      0.00000
      9      30.5972      0.00000
     10      35.1448      0.00000
     11      41.2697      0.00000
     12      44.9420      0.00000

 k-point    13 :      -0.3125    0.1875    0.0625
  band No.  band energies     occupation 
      1       5.8696      1.00000
      2       7.4469      1.00000
      3       7.8090      1.00000
      4       8.3018      1.00000
      5       9.5818      1.00000
      6      11.7062      0.00000
      7      19.7611      0.00000
      8      27.8539      0.00000
      9      32.1519      0.00000
     10      36.2619      0.00000
     11      40.6273      0.00000
     12      44.3277      0.00000

 k-point    14 :      -0.1875    0.1875    0.0625
  band No.  band energies     occupation 
      1       4.8451      1.00000
      2       7.2094      1.00000
      3       7.8758      1.00000
      4       8.5108      1.00000
      5       8.9035      1.00000
      6      10.1333      1.00000
      7      25.2574      0.00000
      8      28.0114      0.00000
      9      34.6867      0.00000
     10      38.2223      0.00000
     11      40.0819      0.00000
     12      43.1879      0.00000

 k-point    15 :      -0.0625    0.1875    0.0625
  band No.  band energies     occupation 
      1       3.2556      1.00000
      2       7.4422      1.00000
      3       8.1739      1.00000
      4       8.3139      1.00000
      5       8.7780      1.00000
      6       9.3173      1.00000
      7      28.9733      0.00000
      8      31.6277      0.00000
      9      36.0761      0.00000
     10      37.8857      0.00000
     11      41.5222      0.00000
     12      42.9418      0.00000

 k-point    16 :       0.3125    0.3125    0.0625
  band No.  band energies     occupation 
      1       4.9283      1.00000
      2       6.7001      1.00000
      3       8.3906      1.00000
      4       9.0202      1.00000
      5       9.3654      1.00000
      6       9.5910      1.00000
      7      27.8546      0.00000
      8      29.5720      0.00000
      9      29.6090      0.00000
     10      32.4672      0.00000
     11      37.2266      0.00000
     12      47.5963      0.00000

 k-point    17 :       0.4375    0.3125    0.0625
  band No.  band energies     occupation 
      1       5.6599      1.00000
      2       6.4873      1.00000
      3       8.3287      1.00000
      4       9.2739      1.00000
      5       9.7545      1.00000
      6      11.1039      0.00000
      7      24.4139      0.00000
      8      26.3744      0.00000
      9      27.4000      0.00000
     10      33.7293      0.00000
     11      38.3445      0.00000
     12      47.2917      0.00000

 k-point    18 :      -0.4375    0.3125    0.0625
  band No.  band energies     occupation 
      1       6.1519      1.00000
      2       6.6266      1.00000
      3       8.0161      1.00000
      4       8.9835      1.00000
      5       9.9798      1.00000
      6      14.3139      0.00000
      7      19.2739      0.00000
      8      24.1929      0.00000
      9      27.5760      0.00000
     10      34.1811      0.00000
     11      43.2429      0.00000
     12      45.9806      0.00000

 k-point    19 :      -0.3125    0.3125    0.0625
  band No.  band energies     occupation 
      1       6.6467      1.00000
      2       6.8025      1.00000
      3       7.5469      1.00000
      4       8.7783      1.00000
      5       9.6523      1.00000
      6      14.6368      0.00000
      7      19.1145      0.00000
      8      22.8710      0.00000
      9      29.3203      0.00000
     10      35.0543      0.00000
     11      43.8556      0.00000
     12      47.1083      0.00000

 k-point    20 :      -0.1875    0.3125    0.0625
  band No.  band energies     occupation 
      1       6.1727      1.00000
      2       7.2260      1.00000
      3       7.3867      1.00000
      4       8.5952      1.00000
      5       9.2645      1.00000
      6      11.8097      0.00000
      7      21.9703      0.00000
      8      25.0012      0.00000
      9      31.9114      0.00000
     10      36.8267      0.00000
     11      41.0772      0.00000
     12      45.7922      0.00000

 k-point    21 :      -0.0625    0.3125    0.0625
  band No.  band energies     occupation 
      1       4.9483      1.00000
      2       7.4977      1.00000
      3       7.8924      1.00000
      4       8.2166      1.00000
      5       9.3259      1.00000
      6       9.9969      1.00000
      7      22.9327      0.00000
      8      30.7625      0.00000
      9      34.3355      0.00000
     10      37.0502      0.00000
     11      40.7177      0.00000
     12      42.2837      0.00000

 k-point    22 :       0.4375    0.4375    0.0625
  band No.  band energies     occupation 
      1       5.4262      1.00000
      2       6.1090      1.00000
      3       9.6232      1.00000
      4       9.6741      1.00000
      5      10.0041      1.00000
      6      11.7542      0.00000
      7      23.1031      0.00000
      8      25.4998      0.00000
      9      26.6806      0.00000
     10      31.6072      0.00000
     11      35.7614      0.00000
     12      47.6679      0.00000

 k-point    23 :      -0.4375    0.4375    0.0625
  band No.  band energies     occupation 
      1       5.5745      1.00000
      2       6.1346      1.00000
      3       9.1914      1.00000
      4       9.6206      1.00000
      5      10.1477      1.00000
      6      14.3273      0.00000
      7      20.9472      0.00000
      8      23.0559      0.00000
      9      25.5317      0.00000
     10      33.0906      0.00000
     11      37.6668      0.00000
     12      47.6334      0.00000

 k-point    24 :      -0.3125    0.4375    0.0625
  band No.  band energies     occupation 
      1       6.0985      1.00000
      2       6.5301      1.00000
      3       8.1944      1.00000
      4       9.1690      1.00000
      5       9.9674      1.00000
      6      16.3710      0.00000
      7      18.6019      0.00000
      8      21.7060      0.00000
      9      27.0925      0.00000
     10      34.0179      0.00000
     11      43.2228      0.00000
     12      47.1013      0.00000

 k-point    25 :      -0.1875    0.4375    0.0625
  band No.  band energies     occupation 
      1       6.3152      1.00000
      2       6.9814      1.00000
      3       7.8566      1.00000
      4       8.5278      1.00000
      5       9.8110      1.00000
      6      14.2866      0.00000
      7      17.5591      0.00000
      8      25.6369      0.00000
      9      29.6942      0.00000
     10      35.0628      0.00000
     11      42.6063      0.00000
     12      46.9874      0.00000

 k-point    26 :      -0.0625    0.4375    0.0625
  band No.  band energies     occupation 
      1       5.5972      1.00000
      2       7.6169      1.00000
      3       8.0254      1.00000
      4       8.5407      1.00000
      5       9.8557      1.00000
      6      11.4597      0.00000
      7      18.0545      0.00000
      8      30.6141      0.00000
      9      32.8584      0.00000
     10      35.4566      0.00000
     11      40.1949      0.00000
     12      42.3597      0.00000

 k-point    27 :      -0.4375   -0.4375    0.0625
  band No.  band energies     occupation 
      1       5.3580      1.00000
      2       5.9751      1.00000
      3       9.7971      1.00000
      4       9.9210      1.00000
      5      10.1606      1.00000
      6      13.2970      0.00000
      7      20.8677      0.00000
      8      24.8940      0.00000
      9      26.0349      0.00000
     10      31.4707      0.00000
     11      35.5805      0.00000
     12      47.7335      0.00000

 k-point    28 :      -0.3125   -0.4375    0.0625
  band No.  band energies     occupation 
      1       5.6564      1.00000
      2       6.2566      1.00000
      3       8.8436      1.00000
      4       9.5401      1.00000
      5       9.9930      1.00000
      6      12.7098      0.00000
      7      23.0695      0.00000
      8      23.8056      0.00000
      9      26.1099      0.00000
     10      33.2921      0.00000
     11      37.8648      0.00000
     12      47.5396      0.00000

 k-point    29 :      -0.1875   -0.4375    0.0625
  band No.  band energies     occupation 
      1       6.0502      1.00000
      2       6.8925      1.00000
      3       7.8063      1.00000
      4       8.6993      1.00000
      5       9.9186      1.00000
      6      12.3301      0.00000
      7      20.2070      0.00000
      8      27.2388      0.00000
      9      28.6593      0.00000
     10      34.5759      0.00000
     11      43.0161      0.00000
     12      45.1126      0.00000

 k-point    30 :      -0.3125   -0.3125    0.0625
  band No.  band energies     occupation 
      1       5.4047      1.00000
      2       6.3610      1.00000
      3       9.0151      1.00000
      4       9.3996      1.00000
      5       9.7938      1.00000
      6      10.2326      1.00000
      7      26.0093      0.00000
      8      26.7765      0.00000
      9      27.8973      0.00000
     10      31.9073      0.00000
     11      36.2351      0.00000
     12      47.6036      0.00000

 k-point    31 :      -0.1875   -0.3125    0.0625
  band No.  band energies     occupation 
      1       5.2107      1.00000
      2       6.7953      1.00000
      3       7.9920      1.00000
      4       8.9133      1.00000
      5       9.4004      1.00000
      6      10.1027      1.00000
      7      25.7344      0.00000
      8      28.2501      0.00000
      9      30.3585      0.00000
     10      34.4776      0.00000
     11      39.2406      0.00000
     12      46.0904      0.00000

 k-point    32 :      -0.1875   -0.1875    0.0625
  band No.  band energies     occupation 
      1       3.9312      1.00000
      2       7.0803      1.00000
      3       8.2869      1.00000
      4       8.6354      1.00000
      5       8.8525      1.00000
      6       9.3976      1.00000
      7      29.4905      0.00000
      8      31.5867      0.00000
      9      32.1591      0.00000
     10      33.7560      0.00000
     11      39.0651      0.00000
     12      46.8716      0.00000

 k-point    33 :       0.1875    0.1875    0.1875
  band No.  band energies     occupation 
      1       2.8764      1.00000
      2       7.6293      1.00000
      3       8.1355      1.00000
      4       8.1355      1.00000
      5       9.0316      1.00000
      6       9.0316      1.00000
      7      28.6860      0.00000
      8      34.6877      0.00000
      9      37.0964      0.00000
     10      37.0964      0.00000
     11      42.5159      0.00000
     12      42.9921      0.00000

 k-point    34 :       0.3125    0.1875    0.1875
  band No.  band energies     occupation 
      1       3.9489      1.00000
      2       7.3747      1.00000
      3       8.0798      1.00000
      4       8.3771      1.00000
      5       8.7330      1.00000
      6       9.6431      1.00000
      7      27.0028      0.00000
      8      29.7099      0.00000
      9      37.3464      0.00000
     10      39.3166      0.00000
     11      39.5105      0.00000
     12      41.5783      0.00000

 k-point    35 :       0.4375    0.1875    0.1875
  band No.  band energies     occupation 
      1       5.5510      1.00000
      2       7.2605      1.00000
      3       7.6961      1.00000
      4       8.4396      1.00000
      5       8.9871      1.00000
      6      10.8246      0.00000
      7      23.4922      0.00000
      8      26.3626      0.00000
      9      35.3814      0.00000
     10      36.0386      0.00000
     11      41.2828      0.00000
     12      43.1515      0.00000

 k-point    36 :      -0.4375    0.1875    0.1875
  band No.  band energies     occupation 
      1       6.0859      1.00000
      2       7.2862      1.00000
      3       7.9554      1.00000
      4       8.3190      1.00000
      5       9.6463      1.00000
      6      12.8574      0.00000
      7      18.4305      0.00000
      8      26.6021      0.00000
      9      32.9109      0.00000
     10      33.7455      0.00000
     11      43.3832      0.00000
     12      43.4422      0.00000

 k-point    37 :      -0.3125    0.1875    0.1875
  band No.  band energies     occupation 
      1       5.9818      1.00000
      2       7.1385      1.00000
      3       7.9970      1.00000
      4       8.3979      1.00000
      5       9.9871      1.00000
      6      12.6884      0.00000
      7      18.3891      0.00000
      8      27.9406      0.00000
      9      30.9826      0.00000
     10      33.3090      0.00000
     11      44.3991      0.00000
     12      44.5577      0.00000

 k-point    38 :      -0.1875    0.1875    0.1875
  band No.  band energies     occupation 
      1       5.3831      1.00000
      2       6.9492      1.00000
      3       7.8814      1.00000
      4       8.5930      1.00000
      5       9.8050      1.00000
      6      10.2051      1.00000
      7      23.4417      0.00000
      8      30.0592      0.00000
      9      30.5652      0.00000
     10      33.7530      0.00000
     11      41.6282      0.00000
     12      45.6280      0.00000

 k-point    39 :       0.3125    0.3125    0.1875
  band No.  band energies     occupation 
      1       4.5135      1.00000
      2       7.2533      1.00000
      3       7.9880      1.00000
      4       8.3505      1.00000
      5       9.3769      1.00000
      6       9.5602      1.00000
      7      24.9638      0.00000
      8      32.3603      0.00000
      9      32.5174      0.00000
     10      35.9081      0.00000
     11      42.1584      0.00000
     12      43.4262      0.00000

 k-point    40 :       0.4375    0.3125    0.1875
  band No.  band energies     occupation 
      1       5.6891      1.00000
      2       6.9807      1.00000
      3       7.6300      1.00000
      4       8.7802      1.00000
      5       9.2784      1.00000
      6      10.8797      0.00000
      7      23.7429      0.00000
      8      26.5450      0.00000
      9      31.0085      0.00000
     10      37.2758      0.00000
     11      40.5089      0.00000
     12      43.9616      0.00000

 k-point    41 :      -0.4375    0.3125    0.1875
  band No.  band energies     occupation 
      1       6.5306      1.00000
      2       6.9734      1.00000
      3       7.2904      1.00000
      4       8.8477      1.00000
      5       9.6158      1.00000
      6      13.2829      0.00000
      7      20.7058      0.00000
      8      23.9457      0.00000
      9      28.2555      0.00000
     10      38.1690      0.00000
     11      40.4749      0.00000
     12      45.8756      0.00000

 k-point    42 :      -0.3125    0.3125    0.1875
  band No.  band energies     occupation 
      1       6.5049      1.00000
      2       6.7512      1.00000
      3       7.6463      1.00000
      4       8.7956      1.00000
      5       9.9121      1.00000
      6      15.2522      0.00000
      7      17.8853      0.00000
      8      24.8954      0.00000
      9      26.4584      0.00000
     10      36.9828      0.00000
     11      41.8708      0.00000
     12      46.7004      0.00000

 k-point    43 :      -0.1875    0.3125    0.1875
  band No.  band energies     occupation 
      1       6.0921      1.00000
      2       6.7340      1.00000
      3       7.6890      1.00000
      4       9.0898      1.00000
      5       9.6539      1.00000
      6      12.1323      0.00000
      7      22.4818      0.00000
      8      25.3049      0.00000
      9      27.4603      0.00000
     10      36.5370      0.00000
     11      40.6565      0.00000
     12      44.6346      0.00000

 k-point    44 :       0.4375    0.4375    0.1875
  band No.  band energies     occupation 
      1       5.8199      1.00000
      2       6.6311      1.00000
      3       8.1153      1.00000
      4       8.8967      1.00000
      5       9.9762      1.00000
      6      11.5456      0.00000
      7      22.1679      0.00000
      8      26.8558      0.00000
      9      28.9850      0.00000
     10      32.9210      0.00000
     11      40.8129      0.00000
     12      47.2661      0.00000

 k-point    45 :      -0.4375    0.4375    0.1875
  band No.  band energies     occupation 
      1       6.0446      1.00000
      2       6.5463      1.00000
[...]
      5      11.8344      0.00000
      6      15.7211      0.00000
      7      20.8769      0.00000
      8      22.1701      0.00000
      9      27.5107      0.00000
     10      32.7450      0.00000
     11      40.4613      0.00000
     12      50.7775      0.00000

 k-point    49 :      -0.3125   -0.4375    0.1875
  band No.  band energies     occupation 
      1       7.1039      1.00000
      2       7.6712      1.00000
      3       9.5811      1.00000
      4      11.1465      0.00000
      5      11.9355      0.00000
      6      16.3591      0.00000
      7      21.2738      0.00000
      8      22.1873      0.00000
      9      24.6302      0.00000
     10      36.0047      0.00000
     11      41.0393      0.00000
     12      47.0248      0.00000

 k-point    50 :      -0.3125   -0.3125    0.1875
  band No.  band energies     occupation 
      1       6.9015      1.00000
      2       7.6073      1.00000
      3       9.7593      1.00000
      4      11.0022      0.00000
      5      11.8910      0.00000
      6      14.2330      0.00000
      7      21.6254      0.00000
      8      24.2409      0.00000
      9      28.1114      0.00000
     10      32.8599      0.00000
     11      40.6755      0.00000
     12      49.7075      0.00000

 k-point    51 :       0.3125    0.3125    0.3125
  band No.  band energies     occupation 
      1       4.8637      1.00000
      2       8.9017      1.00000
      3       9.6550      1.00000
      4       9.6550      1.00000
      5      11.2563      0.00000
      6      11.2563      0.00000
      7      23.1828      0.00000
      8      33.2565      0.00000
      9      36.6947      0.00000
     10      36.6947      0.00000
     11      40.8349      0.00000
     12      40.8349      0.00000

 k-point    52 :       0.4375    0.3125    0.3125
  band No.  band energies     occupation 
      1       5.8941      1.00000
      2       8.7612      1.00000
      3       9.3384      1.00000
      4       9.8250      1.00000
      5      11.1004      0.00000
      6      12.2776      0.00000
      7      21.7877      0.00000
      8      29.4223      0.00000
      9      34.9292      0.00000
     10      36.6236      0.00000
     11      41.2060      0.00000
     12      41.3875      0.00000

 k-point    53 :      -0.4375    0.3125    0.3125
  band No.  band energies     occupation 
      1       7.2502      1.00000
      2       8.4521      1.00000
      3       8.7070      1.00000
      4      10.3416      1.00000
      5      11.1239      0.00000
      6      14.1676      0.00000
      7      21.0051      0.00000
      8      24.2120      0.00000
      9      32.8779      0.00000
     10      33.8781      0.00000
     11      44.3279      0.00000
     12      45.2693      0.00000

 k-point    54 :      -0.3125    0.3125    0.3125
  band No.  band energies     occupation 
      1       7.6305      1.00000
      2       7.7531      1.00000
      3       9.1373      1.00000
      4      10.7506      0.00065
      5      11.5379      0.00000
      6      16.9046      0.00000
      7      18.4505      0.00000
      8      22.7116      0.00000
      9      29.8418      0.00000
     10      33.1310      0.00000
     11      46.7392      0.00000
     12      47.7040      0.00000

 k-point    55 :       0.4375    0.4375    0.3125
  band No.  band energies     occupation 
      1       6.2854      1.00000
      2       8.7509      1.00000
      3       9.3472      1.00000
      4       9.8108      1.00000
      5      11.7886      0.00000
      6      12.2827      0.00000
      7      20.1814      0.00000
      8      30.9090      0.00000
      9      32.7005      0.00000
     10      34.5289      0.00000
     11      42.3888      0.00000
     12      43.1823      0.00000

 k-point    56 :      -0.4375    0.4375    0.3125
  band No.  band energies     occupation 
      1       7.1817      1.00000
      2       8.2827      1.00000
      3       8.9931      1.00000
      4      10.2495      1.00000
      5      11.6090      0.00000
      6      14.2865      0.00000
      7      19.3180      0.00000
      8      27.0454      0.00000
      9      29.0267      0.00000
     10      36.8377      0.00000
     11      41.0431      0.00000
     12      47.8819      0.00000

 k-point    57 :      -0.3125    0.4375    0.3125
  band No.  band energies     occupation 
      1       7.6684      1.00000
      2       7.9599      1.00000
      3       8.8002      1.00000
      4      10.7355      0.00264
      5      11.7080      0.00000
      6      17.3112      0.00000
      7      18.7783      0.00000
      8      22.8215      0.00000
      9      26.3322      0.00000
     10      37.1837      0.00000
     11      43.2684      0.00000
     12      46.9007      0.00000

 k-point    58 :      -0.4375   -0.4375    0.3125
  band No.  band energies     occupation 
      1       7.3818      1.00000
      2       7.9631      1.00000
      3       9.1775      1.00000
      4      10.4327      1.00000
      5      11.7285      0.00000
      6      15.4905      0.00000
      7      18.4035      0.00000
      8      25.1996      0.00000
      9      30.3269      0.00000
     10      33.1930      0.00000
     11      45.9844      0.00000
     12      46.3871      0.00000

 k-point    59 :       0.4375    0.4375    0.4375
  band No.  band energies     occupation 
      1       6.1306      1.00000
      2       9.4660      1.00000
      3       9.4660      1.00000
      4       9.9233      1.00000
      5      11.7252      0.00000
      6      11.7252      0.00000
      7      18.7637      0.00000
      8      32.2825      0.00000
      9      36.3164      0.00000
     10      36.3164      0.00000
     11      39.1029      0.00000
     12      39.1029      0.00000

 k-point    60 :      -0.4375    0.4375    0.4375
  band No.  band energies     occupation 
      1       6.6338      1.00000
      2       8.9536      1.00000
      3       9.5634      1.00000
      4       9.7058      1.00000
      5      11.6958      0.00000
      6      13.2441      0.00000
      7      18.1367      0.00000
      8      29.7856      0.00000
      9      33.9359      0.00000
     10      33.9664      0.00000
     11      41.7651      0.00000
     12      42.1415      0.00000


--------------------------------------------------------------------------------------------------------


 soft charge-density along one line, spin component           1
         0         1         2         3         4         5         6         7         8         9
 total charge-density along one line
 
 soft charge-density along one line, spin component           2
         0         1         2         3         4         5         6         7         8         9
 total charge-density along one line
 
 pseudopotential strength for first ion, spin component:           1
 -0.383  -0.000  -0.000  -0.000   0.000  -1.026  -0.000  -0.000
 -0.000  -0.383   0.000  -0.000  -0.000  -0.000  -1.026   0.000
 -0.000   0.000  -0.442   0.000  -0.000  -0.000   0.000  -1.082
 -0.000  -0.000   0.000  -0.383   0.000  -0.000  -0.000   0.000
  0.000  -0.000  -0.000   0.000  -0.442   0.000  -0.000  -0.000
 -1.026  -0.000  -0.000  -0.000   0.000  -1.609  -0.000  -0.000
 -0.000  -1.026   0.000  -0.000  -0.000  -0.000  -1.609   0.000
 -0.000   0.000  -1.082   0.000  -0.000  -0.000   0.000  -1.663
 -0.000  -0.000   0.000  -1.026   0.000  -0.000  -0.000   0.000
  0.000  -0.000  -0.000   0.000  -1.082   0.000  -0.000  -0.000
 -0.000  -0.000  -0.000  -0.000  -0.000  -0.000  -0.000  -0.000
 -0.000  -0.000  -0.000  -0.000  -0.000  -0.000  -0.000  -0.000
  0.000   0.000  -0.000  -0.000  -0.000   0.000   0.000  -0.000
 -0.000  -0.000   0.000   0.000  -0.000   0.000   0.000   0.000
  0.000  -0.000   0.000  -0.000   0.000   0.000  -0.000  -0.000
  0.000  -0.000  -0.000  -0.000  -0.000   0.000   0.000  -0.000
 -0.000   0.000   0.000  -0.000  -0.000  -0.000   0.000   0.000
  0.000  -0.000  -0.000   0.000  -0.000   0.000  -0.000   0.000
 pseudopotential strength for first ion, spin component:           2
  0.875   0.000  -0.000   0.000   0.000   0.180   0.000  -0.000
  0.000   0.875   0.000   0.000  -0.000   0.000   0.180   0.000
 -0.000   0.000   0.936   0.000  -0.000  -0.000   0.000   0.239
  0.000   0.000   0.000   0.875   0.000   0.000   0.000   0.000
  0.000  -0.000  -0.000   0.000   0.936   0.000  -0.000  -0.000
  0.180   0.000  -0.000   0.000   0.000  -0.455   0.000  -0.000
  0.000   0.180   0.000   0.000  -0.000   0.000  -0.455   0.000
 -0.000   0.000   0.239   0.000  -0.000  -0.000   0.000  -0.397
  0.000   0.000   0.000   0.180   0.000   0.000   0.000   0.000
  0.000  -0.000  -0.000   0.000   0.239   0.000  -0.000  -0.000
 -0.000  -0.000   0.000  -0.000  -0.000  -0.000  -0.000   0.000
 -0.000  -0.000   0.000  -0.000  -0.000  -0.000  -0.000   0.000
  0.000  -0.000   0.000  -0.000  -0.000   0.000  -0.000  -0.000
 -0.000  -0.000  -0.000   0.000  -0.000  -0.000   0.000  -0.000
  0.000  -0.000  -0.000  -0.000   0.000   0.000  -0.000  -0.000
  0.000  -0.000  -0.000  -0.000  -0.000   0.000   0.000   0.000
 -0.000   0.000  -0.000   0.000  -0.000  -0.000  -0.000  -0.000
  0.000  -0.000  -0.000  -0.000   0.000  -0.000  -0.000  -0.000
 total augmentation occupancy for first ion, spin component:           1
  2.807   0.000   0.000   0.000   0.000  -1.556  -0.000   0.000   0.000   0.000  -0.000   0.000   0.000   0.000   0.000   0.000
  0.000   2.807   0.000   0.000  -0.000   0.000  -1.556   0.000   0.000  -0.000  -0.000   0.000   0.000   0.000   0.000   0.000
  0.000   0.000   3.179   0.000  -0.000   0.000  -0.000  -1.747   0.000   0.000   0.000   0.000   0.000   0.000   0.000   0.000
  0.000   0.000   0.000   2.807  -0.000  -0.000   0.000  -0.000  -1.556  -0.000  -0.000  -0.000   0.000   0.000   0.000   0.000
 -0.000   0.000   0.000  -0.000   3.179   0.000   0.000   0.000  -0.000  -1.747   0.000   0.000   0.000   0.000   0.000   0.000
 -1.556  -0.000   0.000  -0.000   0.000   1.880  -0.000  -0.000   0.000   0.000   0.000   0.000   0.000   0.000   0.000   0.000
  0.000  -1.556  -0.000   0.000   0.000  -0.000   1.880  -0.000  -0.000   0.000   0.000  -0.000   0.000   0.000   0.000   0.000
 -0.000   0.000  -1.747   0.000   0.000   0.000  -0.000   1.831  -0.000   0.000  -0.000   0.000   0.000   0.000   0.000   0.000
 -0.000   0.000   0.000  -1.556  -0.000   0.000   0.000  -0.000   1.880  -0.000  -0.000   0.000   0.000   0.000   0.000   0.000
  0.000  -0.000   0.000  -0.000  -1.747   0.000  -0.000  -0.000   0.000   1.831   0.000   0.000   0.000   0.000   0.000   0.000
  0.000   0.000   0.000  -0.000   0.000   0.000   0.000  -0.000  -0.000   0.000   2.365  -0.283   0.000   0.000   0.000   0.000
  0.000   0.000   0.000  -0.000   0.000   0.000   0.000   0.000   0.000   0.000  -0.283   0.042   0.000   0.000   0.000   0.000
  0.000   0.000   0.000   0.000   0.000   0.000   0.000   0.000   0.000   0.000   0.000   0.000   0.326   0.000   0.000  -0.031
  0.000   0.000   0.000   0.000   0.000   0.000   0.000   0.000   0.000   0.000   0.000   0.000   0.000   0.326   0.000   0.000
  0.000   0.000   0.000   0.000   0.000   0.000   0.000   0.000   0.000   0.000   0.000   0.000   0.000   0.000   0.326   0.000
  0.000   0.000   0.000   0.000   0.000   0.000   0.000   0.000   0.000   0.000   0.000   0.000  -0.031  -0.000   0.000   0.003
  0.000   0.000   0.000   0.000   0.000   0.000   0.000   0.000   0.000   0.000   0.000   0.000   0.000  -0.031   0.000   0.000
  0.000   0.000   0.000   0.000   0.000   0.000   0.000   0.000   0.000   0.000   0.000   0.000  -0.000  -0.000  -0.031   0.000
 total augmentation occupancy for first ion, spin component:           2
  1.980   0.000   0.000   0.000   0.000  -0.961   0.000  -0.000   0.000  -0.000   0.000  -0.000   0.000   0.000   0.000   0.000
  0.000   1.980  -0.000   0.000   0.000   0.000  -0.961   0.000   0.000   0.000   0.000   0.000   0.000   0.000   0.000   0.000
 -0.000  -0.000   2.102   0.000  -0.000   0.000   0.000  -0.976   0.000   0.000  -0.000   0.000   0.000   0.000   0.000   0.000
  0.000   0.000  -0.000   1.980  -0.000   0.000   0.000   0.000  -0.961   0.000   0.000   0.000   0.000   0.000   0.000   0.000
  0.000  -0.000   0.000  -0.000   2.102  -0.000   0.000   0.000  -0.000  -0.976  -0.000   0.000   0.000   0.000   0.000   0.000
 -0.961   0.000   0.000   0.000  -0.000   0.267  -0.000   0.000   0.000  -0.000   0.000   0.000   0.000   0.000   0.000   0.000
 -0.000  -0.961   0.000  -0.000   0.000   0.000   0.267  -0.000   0.000   0.000  -0.000   0.000   0.000   0.000   0.000   0.000
  0.000  -0.000  -0.976  -0.000   0.000  -0.000  -0.000   0.276   0.000   0.000   0.000  -0.000   0.000   0.000   0.000   0.000
 -0.000   0.000  -0.000  -0.961   0.000   0.000  -0.000  -0.000   0.267  -0.000  -0.000  -0.000   0.000   0.000   0.000   0.000
  0.000   0.000   0.000  -0.000  -0.976  -0.000   0.000   0.000   0.000   0.276  -0.000   0.000   0.000   0.000   0.000   0.000
  0.000   0.000  -0.000  -0.000  -0.000   0.000  -0.000   0.000  -0.000   0.000  -0.298   0.090   0.000   0.000   0.000   0.000
 -0.000   0.000   0.000  -0.000   0.000   0.000   0.000  -0.000  -0.000   0.000   0.090  -0.016   0.000   0.000   0.000   0.000
  0.000   0.000   0.000   0.000   0.000   0.000   0.000   0.000   0.000   0.000   0.000   0.000  -0.035   0.000   0.000   0.005
  0.000   0.000   0.000   0.000   0.000   0.000   0.000   0.000   0.000   0.000   0.000   0.000   0.000  -0.035  -0.000   0.000
  0.000   0.000   0.000   0.000   0.000   0.000   0.000   0.000   0.000   0.000   0.000   0.000  -0.000  -0.000  -0.035   0.000
  0.000   0.000   0.000   0.000   0.000   0.000   0.000   0.000   0.000   0.000   0.000   0.000   0.005   0.000   0.000  -0.001
  0.000   0.000   0.000   0.000   0.000   0.000   0.000   0.000   0.000   0.000   0.000   0.000   0.000   0.005   0.000   0.000
  0.000   0.000   0.000   0.000   0.000   0.000   0.000   0.000   0.000   0.000   0.000   0.000  -0.000   0.000   0.005  -0.000


------------------------ aborting loop because EDIFF is reached ----------------------------------------





 total charge

# of ion       s       p       d       tot
------------------------------------------
    1        0.498   0.542   7.273   8.312



 magnetization (x)

# of ion       s       p       d       tot
------------------------------------------
    1       -0.015  -0.052   1.657   1.590
 
    CHARGE:  cpu time      0.0096: real time      0.0097
    FORLOC:  cpu time      0.0001: real time      0.0001
    FORNL :  cpu time      0.0070: real time      0.0071
    STRESS:  cpu time      0.0248: real time      0.0248
    FORCOR:  cpu time      0.0028: real time      0.0028
    FORHAR:  cpu time      0.0003: real time      0.0003
    MIXING:  cpu time      0.0002: real time      0.0003
    OFIELD:  cpu time      0.0000: real time      0.0000

  FORCE on cell =-STRESS in cart. coord.  units (eV):
  Direction    XX          YY          ZZ          XY          YZ          ZX
  --------------------------------------------------------------------------------------
  Alpha Z    39.89459    39.89459    39.89459
  Ewald    -255.46028  -255.46028  -255.46028     0.00000    -0.00000    -0.00000
  Hartree    43.35299    43.35299    43.35299     0.00000     0.00000     0.00000
  E(xc)     -46.32006   -46.32006   -46.32006    -0.00000    -0.00000    -0.00000
  Local      -8.33680    -8.33680    -8.33680     0.00005     0.00005     0.00005
  n-local    -4.06180    -3.16552    -6.32854     1.87486    -2.06607    -0.04883
  augment   155.36394   155.36394   155.36394    -0.00005    -0.00005    -0.00005
  Kinetic    75.46986    74.92885    78.42732    -0.72385     0.73982    -0.12271
  Fock        0.00000     0.00000     0.00000     0.00000     0.00000     0.00000
  -------------------------------------------------------------------------------------
  Total       0.25109     0.25109     0.25109    -0.00000     0.00000     0.00000
  in kB      37.89032    37.89032    37.89032    -0.00000     0.00000     0.00000
  external pressure =       37.89 kB  Pullay stress =        0.00 kB


 VOLUME and BASIS-vectors are now :
 -----------------------------------------------------------------------------
  energy-cutoff  :      400.00
  volume of cell :       10.62
      direct lattice vectors                 reciprocal lattice vectors
     0.000000000  1.744466975  1.744466975    -0.286620502  0.286620502  0.286620502
     1.744466975  0.000000000  1.744466975     0.286620502 -0.286620502  0.286620502
     1.744466975  1.744466975  0.000000000     0.286620502  0.286620502 -0.286620502

  length of vectors
     2.467048855  2.467048855  2.467048855     0.496441272  0.496441272  0.496441272


 FORCES acting on ions
    electron-ion (+dipol)            ewald-force                    non-local-force                 convergence-correction
 -----------------------------------------------------------------------------------------------
   0.113E-14 0.220E-14 0.100E-14   0.129E-14 -.187E-14 -.273E-15   0.000E+00 0.000E+00 0.000E+00   -.308E-14 0.516E-15 0.124E-14
 -----------------------------------------------------------------------------------------------
   0.113E-14 0.220E-14 0.100E-14   0.129E-14 -.187E-14 -.273E-15   0.000E+00 0.000E+00 0.000E+00   -.308E-14 0.516E-15 0.124E-14
 
 
 POSITION                                       TOTAL-FORCE (eV/Angst)
 -----------------------------------------------------------------------------------
      0.00000      0.00000      0.00000        -0.000000      0.000000     -0.000000
 -----------------------------------------------------------------------------------
    total drift:                               -0.000000      0.000000      0.000000


--------------------------------------------------------------------------------------------------------



  FREE ENERGIE OF THE ION-ELECTRON SYSTEM (eV)
  ---------------------------------------------------
  free  energy   TOTEN  =        -7.01627660 eV

  energy  without entropy=       -7.01493208  energy(sigma->0) =       -7.01560434
 


--------------------------------------------------------------------------------------------------------


    POTLOK:  cpu time      0.0078: real time      0.0079


--------------------------------------------------------------------------------------------------------




--------------------------------------------------------------------------------------------------------


  
 reached required accuracy - stopping structural energy minimisation
 writing wavefunctions
     LOOP+:  cpu time      3.8084: real time      3.8727
    4ORBIT:  cpu time      0.0000: real time      0.0000



 total charge

# of ion       s       p       d       tot
------------------------------------------
    1        0.498   0.542   7.273   8.312



 magnetization (x)

# of ion       s       p       d       tot
------------------------------------------
    1       -0.015  -0.052   1.657   1.590
 

 total amount of memory used by VASP MPI-rank0    30973. kBytes
=======================================================================

   base      :      30000. kBytes
   nonl-proj :        311. kBytes
   fftplans  :         92. kBytes
   grid      :        217. kBytes
   one-center:         31. kBytes
   wavefun   :        322. kBytes
 
  
  
 General timing and accounting informations for this job:
 ========================================================
  
                  Total CPU time used (sec):        4.679
                            User time (sec):        4.194
                          System time (sec):        0.485
                         Elapsed time (sec):        6.064
  
                   Maximum memory used (kb):      220332.
                   Average memory used (kb):          N/A
  
                          Minor page faults:        18418
                          Major page faults:           83
                 Voluntary context switches:         2164
