PROCAR lm decomposed
# of k-points:   60         # of bands:   12         # of ions:    1

 k-point     1 :    0.06250000 0.06250000 0.06250000     weight = 0.00390625

band     1 # energy    2.07212056 # occ.  1.00000000
 
ion      s     py     pz     px    dxy    dyz    dz2    dxz  x2-y2    tot
    1  0.770  0.004  0.004  0.004  0.000  0.000  0.000  0.000  0.000  0.782
 
band     2 # energy    8.44662454 # occ.  1.00000000
 
ion      s     py     pz     px    dxy    dyz    dz2    dxz  x2-y2    tot
    1  0.000  0.001  0.001  0.001  0.325  0.325  0.000  0.325  0.000  0.977
 
band     3 # energy    8.53691398 # occ.  1.00000000
 
ion      s     py     pz     px    dxy    dyz    dz2    dxz  x2-y2    tot
    1  0.000  0.000  0.000  0.000  0.512  0.010  0.001  0.455  0.000  0.978
 
band     4 # energy    8.53691398 # occ.  1.00000000
 
ion      s     py     pz     px    dxy    dyz    dz2    dxz  x2-y2    tot
    1  0.000  0.000  0.000  0.000  0.140  0.641  0.000  0.196  0.001  0.978
 
band     5 # energy    9.68743080 # occ.  1.00000000
 
ion      s     py     pz     px    dxy    dyz    dz2    dxz  x2-y2    tot
    1  0.000  0.000  0.000  0.000  0.000  0.001  0.009  0.001  0.977  0.987
 
band     6 # energy    9.68743080 # occ.  1.00000000
 
ion      s     py     pz     px    dxy    dyz    dz2    dxz  x2-y2    tot
    1  0.000  0.000  0.000  0.000  0.001  0.000  0.977  0.000  0.009  0.987
 
band     7 # energy   34.61061929 # occ.  0.00000000
 
ion      s     py     pz     px    dxy    dyz    dz2    dxz  x2-y2    tot
    1  0.000  0.005  0.005  0.005  0.046  0.046  0.000  0.046  0.000  0.153
 
band     8 # energy   37.94332791 # occ.  0.00000000
 
ion      s     py     pz     px    dxy    dyz    dz2    dxz  x2-y2    tot
    1  0.021  0.081  0.081  0.081  0.045  0.045  0.000  0.045  0.000  0.400
 
band     9 # energy   39.52307269 # occ.  0.00000000
 
ion      s     py     pz     px    dxy    dyz    dz2    dxz  x2-y2    tot
    1  0.000  0.040  0.053  0.182  0.028  0.095  0.006  0.021  0.014  0.439
 
band    10 # energy   39.52307270 # occ.  0.00000000
 
ion      s     py     pz     px    dxy    dyz    dz2    dxz  x2-y2    tot
    1  0.000  0.144  0.130  0.001  0.068  0.001  0.014  0.075  0.006  0.439
 
band    11 # energy   43.67260343 # occ.  0.00000000
 
ion      s     py     pz     px    dxy    dyz    dz2    dxz  x2-y2    tot
    1  0.000  0.001  0.001  0.002  0.180  0.841  0.001  0.257  0.005  1.288
 
band    12 # energy   43.67280061 # occ.  0.00000000
 
ion      s     py     pz     px    dxy    dyz    dz2    dxz  x2-y2    tot
    1  0.000  0.002  0.002  0.000  0.658  0.011  0.005  0.609  0.001  1.288
 

 k-point     2 :    0.18750000 0.06250000 0.06250000     weight = 0.01171875

band     1 # energy    2.91143647 # occ.  1.00000000
 
ion      s     py     pz     px    dxy    dyz    dz2    dxz  x2-y2    tot
    1  0.706  0.033  0.033  0.004  0.001  0.005  0.000  0.001  0.001  0.784
 
band     2 # energy    8.20845219 # occ.  1.00000000
 
ion      s     py     pz     px    dxy    dyz    dz2    dxz  x2-y2    tot
    1  0.001  0.001  0.001  0.008  0.462  0.034  0.000  0.462  0.000  0.968
 
band     3 # energy    8.71242670 # occ.  1.00000000
 
ion      s     py     pz     px    dxy    dyz    dz2    dxz  x2-y2    tot
    1  0.000  0.003  0.003  0.000  0.017  0.849  0.022  0.017  0.065  0.976
 
band     4 # energy    8.71704858 # occ.  1.00000000
 
ion      s     py     pz     px    dxy    dyz    dz2    dxz  x2-y2    tot
    1  0.000  0.000  0.000  0.000  0.478  0.000  0.016  0.478  0.005  0.978
 
band     5 # energy    9.51302239 # occ.  1.00000000
 
ion      s     py     pz     px    dxy    dyz    dz2    dxz  x2-y2    tot
    1  0.000  0.000  0.000  0.000  0.011  0.000  0.720  0.011  0.240  0.982
 
band     6 # energy    9.78486395 # occ.  1.00000000
 
ion      s     py     pz     px    dxy    dyz    dz2    dxz  x2-y2    tot
    1  0.001  0.001  0.001  0.000  0.002  0.083  0.224  0.002  0.673  0.985
 
band     7 # energy   32.01071056 # occ.  0.00000000
 
ion      s     py     pz     px    dxy    dyz    dz2    dxz  x2-y2    tot
    1  0.024  0.041  0.041  0.111  0.194  0.087  0.001  0.194  0.002  0.695
 
band     8 # energy   34.68704305 # occ.  0.00000000
 
ion      s     py     pz     px    dxy    dyz    dz2    dxz  x2-y2    tot
    1  0.041  0.074  0.074  0.021  0.055  0.140  0.007  0.055  0.022  0.487
 
band     9 # energy   38.30249944 # occ.  0.00000000
 
ion      s     py     pz     px    dxy    dyz    dz2    dxz  x2-y2    tot
    1  0.001  0.008  0.008  0.226  0.020  0.079  0.002  0.020  0.005  0.367
 
band    10 # energy   40.57581303 # occ.  0.00000000
 
ion      s     py     pz     px    dxy    dyz    dz2    dxz  x2-y2    tot
    1  0.000  0.093  0.093  0.000  0.089  0.000  0.152  0.089  0.051  0.567
 
band    11 # energy   42.35120314 # occ.  0.00000000
 
ion      s     py     pz     px    dxy    dyz    dz2    dxz  x2-y2    tot
    1  0.000  0.065  0.065  0.010  0.000  0.334  0.012  0.000  0.036  0.521
 
band    12 # energy   43.76493234 # occ.  0.00000000
 
ion      s     py     pz     px    dxy    dyz    dz2    dxz  x2-y2    tot
    1  0.000  0.004  0.004  0.000  0.530  0.000  0.081  0.530  0.027  1.175
 

 k-point     3 :    0.31250000 0.06250000 0.06250000     weight = 0.01171875

band     1 # energy    4.64937910 # occ.  1.00000000
 
ion      s     py     pz     px    dxy    dyz    dz2    dxz  x2-y2    tot
    1  0.529  0.064  0.064  0.018  0.034  0.059  0.001  0.034  0.003  0.808
 
band     2 # energy    8.08431247 # occ.  1.00000000
 
ion      s     py     pz     px    dxy    dyz    dz2    dxz  x2-y2    tot
    1  0.025  0.026  0.026  0.037  0.380  0.058  0.001  0.380  0.002  0.934
 
band     3 # energy    8.65343528 # occ.  1.00000000
 
ion      s     py     pz     px    dxy    dyz    dz2    dxz  x2-y2    tot
    1  0.000  0.004  0.004  0.000  0.035  0.479  0.104  0.035  0.311  0.971
 
band     4 # energy    8.73651838 # occ.  1.00000000
 
ion      s     py     pz     px    dxy    dyz    dz2    dxz  x2-y2    tot
    1  0.000  0.000  0.000  0.000  0.273  0.000  0.322  0.273  0.107  0.974
 
band     5 # energy    9.74277965 # occ.  1.00000000
 
ion      s     py     pz     px    dxy    dyz    dz2    dxz  x2-y2    tot
    1  0.000  0.001  0.001  0.000  0.216  0.000  0.410  0.216  0.137  0.980
 
band     6 # energy   10.22459280 # occ.  1.00000000
 
ion      s     py     pz     px    dxy    dyz    dz2    dxz  x2-y2    tot
    1  0.010  0.006  0.006  0.000  0.017  0.368  0.140  0.017  0.419  0.982
 
band     7 # energy   25.83825458 # occ.  0.00000000
 
ion      s     py     pz     px    dxy    dyz    dz2    dxz  x2-y2    tot
    1  0.122  0.078  0.078  0.135  0.152  0.121  0.001  0.152  0.003  0.843
 
band     8 # energy   33.53317108 # occ.  0.00000000
 
ion      s     py     pz     px    dxy    dyz    dz2    dxz  x2-y2    tot
    1  0.026  0.022  0.022  0.099  0.108  0.057  0.017  0.108  0.052  0.512
 
band     9 # energy   37.25290830 # occ.  0.00000000
 
ion      s     py     pz     px    dxy    dyz    dz2    dxz  x2-y2    tot
    1  0.001  0.070  0.070  0.142  0.008  0.164  0.002  0.008  0.006  0.469
 
band    10 # energy   40.28569765 # occ.  0.00000000
 
ion      s     py     pz     px    dxy    dyz    dz2    dxz  x2-y2    tot
    1  0.000  0.115  0.115  0.000  0.261  0.000  0.147  0.261  0.049  0.948
 
band    11 # energy   41.45518702 # occ.  0.00000000
 
ion      s     py     pz     px    dxy    dyz    dz2    dxz  x2-y2    tot
    1  0.000  0.114  0.114  0.000  0.007  0.000  0.455  0.007  0.152  0.849
 
band    12 # energy   42.35220995 # occ.  0.00000000
 
ion      s     py     pz     px    dxy    dyz    dz2    dxz  x2-y2    tot
    1  0.079  0.057  0.057  0.011  0.010  0.012  0.069  0.010  0.207  0.511
 

 k-point     4 :    0.43750000 0.06250000 0.06250000     weight = 0.01171875

band     1 # energy    5.76732317 # occ.  1.00000000
 
ion      s     py     pz     px    dxy    dyz    dz2    dxz  x2-y2    tot
    1  0.242  0.022  0.022  0.002  0.196  0.214  0.000  0.196  0.001  0.897
 
band     2 # energy    8.39899687 # occ.  1.00000000
 
ion      s     py     pz     px    dxy    dyz    dz2    dxz  x2-y2    tot
    1  0.000  0.003  0.003  0.000  0.045  0.289  0.145  0.045  0.436  0.966
 
band     3 # energy    8.50979228 # occ.  1.00000000
 
ion      s     py     pz     px    dxy    dyz    dz2    dxz  x2-y2    tot
    1  0.000  0.000  0.000  0.000  0.187  0.000  0.447  0.187  0.149  0.971
 
band     4 # energy    9.23075083 # occ.  1.00000000
 
ion      s     py     pz     px    dxy    dyz    dz2    dxz  x2-y2    tot
    1  0.063  0.112  0.112  0.111  0.184  0.022  0.018  0.184  0.054  0.859
 
band     5 # energy   10.35637771 # occ.  1.00000000
 
ion      s     py     pz     px    dxy    dyz    dz2    dxz  x2-y2    tot
    1  0.000  0.001  0.001  0.000  0.304  0.000  0.283  0.304  0.094  0.986
 
band     6 # energy   11.06525110 # occ.  1.00000000
 
ion      s     py     pz     px    dxy    dyz    dz2    dxz  x2-y2    tot
    1  0.041  0.051  0.051  0.031  0.012  0.425  0.081  0.012  0.242  0.944
 
band     7 # energy   20.35835217 # occ.  0.00000000
 
ion      s     py     pz     px    dxy    dyz    dz2    dxz  x2-y2    tot
    1  0.296  0.046  0.046  0.099  0.146  0.118  0.001  0.146  0.002  0.900
 
band     8 # energy   32.92210408 # occ.  0.00000000
 
ion      s     py     pz     px    dxy    dyz    dz2    dxz  x2-y2    tot
    1  0.011  0.002  0.002  0.097  0.054  0.033  0.026  0.054  0.078  0.358
 
band     9 # energy   36.05990246 # occ.  0.00000000
 
ion      s     py     pz     px    dxy    dyz    dz2    dxz  x2-y2    tot
    1  0.017  0.105  0.105  0.202  0.021  0.039  0.006  0.021  0.017  0.532
 
band    10 # energy   38.10086190 # occ.  0.00000000
 
ion      s     py     pz     px    dxy    dyz    dz2    dxz  x2-y2    tot
    1  0.000  0.250  0.250  0.000  0.001  0.000  0.162  0.001  0.054  0.718
 
band    11 # energy   40.56390818 # occ.  0.00000000
 
ion      s     py     pz     px    dxy    dyz    dz2    dxz  x2-y2    tot
    1  0.000  0.031  0.031  0.000  0.227  0.000  0.453  0.227  0.151  1.119
 
band    12 # energy   42.14794246 # occ.  0.00000000
 
ion      s     py     pz     px    dxy    dyz    dz2    dxz  x2-y2    tot
    1  0.067  0.016  0.016  0.013  0.000  0.226  0.147  0.000  0.440  0.926
 

 k-point     5 :   -0.43750000 0.06250000 0.06250000     weight = 0.01171875

band     1 # energy    5.87992783 # occ.  1.00000000
 
ion      s     py     pz     px    dxy    dyz    dz2    dxz  x2-y2    tot
    1  0.174  0.000  0.000  0.007  0.239  0.260  0.000  0.239  0.000  0.920
 
band     2 # energy    8.29296588 # occ.  1.00000000
 
ion      s     py     pz     px    dxy    dyz    dz2    dxz  x2-y2    tot
    1  0.000  0.003  0.003  0.000  0.063  0.200  0.158  0.063  0.473  0.964
 
band     3 # energy    8.45102455 # occ.  1.00000000
 
ion      s     py     pz     px    dxy    dyz    dz2    dxz  x2-y2    tot
    1  0.000  0.001  0.001  0.000  0.185  0.000  0.450  0.185  0.150  0.970
 
band     4 # energy    9.86086773 # occ.  1.00000000
 
ion      s     py     pz     px    dxy    dyz    dz2    dxz  x2-y2    tot
    1  0.003  0.089  0.089  0.088  0.059  0.342  0.042  0.059  0.126  0.897
 
band     5 # energy   10.67050053 # occ.  1.00000000
 
ion      s     py     pz     px    dxy    dyz    dz2    dxz  x2-y2    tot
    1  0.000  0.000  0.000  0.000  0.308  0.000  0.282  0.308  0.094  0.992
 
band     6 # energy   11.82894944 # occ.  0.00000000
 
ion      s     py     pz     px    dxy    dyz    dz2    dxz  x2-y2    tot
    1  0.006  0.144  0.144  0.163  0.057  0.099  0.044  0.057  0.133  0.848
 
band     7 # energy   18.17546358 # occ.  0.00000000
 
ion      s     py     pz     px    dxy    dyz    dz2    dxz  x2-y2    tot
    1  0.444  0.011  0.011  0.000  0.153  0.167  0.000  0.153  0.000  0.940
 
band     8 # energy   32.92904724 # occ.  0.00000000
 
ion      s     py     pz     px    dxy    dyz    dz2    dxz  x2-y2    tot
    1  0.000  0.002  0.002  0.042  0.009  0.042  0.027  0.009  0.080  0.213
 
band     9 # energy   36.15153221 # occ.  0.00000000
 
ion      s     py     pz     px    dxy    dyz    dz2    dxz  x2-y2    tot
    1  0.000  0.248  0.248  0.000  0.040  0.000  0.130  0.040  0.043  0.749
 
band    10 # energy   36.31786027 # occ.  0.00000000
 
ion      s     py     pz     px    dxy    dyz    dz2    dxz  x2-y2    tot
    1  0.038  0.089  0.089  0.311  0.016  0.003  0.019  0.016  0.056  0.636
 
band    11 # energy   41.41387410 # occ.  0.00000000
 
ion      s     py     pz     px    dxy    dyz    dz2    dxz  x2-y2    tot
    1  0.014  0.004  0.004  0.029  0.030  0.298  0.157  0.030  0.472  1.039
 
band    12 # energy   41.42230221 # occ.  0.00000000
 
ion      s     py     pz     px    dxy    dyz    dz2    dxz  x2-y2    tot
    1  0.000  0.051  0.051  0.000  0.156  0.000  0.470  0.156  0.157  1.041
 

 k-point     6 :   -0.31250000 0.06250000 0.06250000     weight = 0.01171875

band     1 # energy    5.56274234 # occ.  1.00000000
 
ion      s     py     pz     px    dxy    dyz    dz2    dxz  x2-y2    tot
    1  0.323  0.016  0.016  0.056  0.150  0.152  0.002  0.150  0.005  0.868
 
band     2 # energy    8.43905662 # occ.  1.00000000
 
ion      s     py     pz     px    dxy    dyz    dz2    dxz  x2-y2    tot
    1  0.002  0.008  0.008  0.006  0.118  0.078  0.155  0.118  0.464  0.958
 
band     3 # energy    8.60809042 # occ.  1.00000000
 
ion      s     py     pz     px    dxy    dyz    dz2    dxz  x2-y2    tot
    1  0.000  0.001  0.001  0.000  0.228  0.000  0.386  0.228  0.129  0.972
 
band     4 # energy    8.66847392 # occ.  1.00000000
 
ion      s     py     pz     px    dxy    dyz    dz2    dxz  x2-y2    tot
    1  0.071  0.078  0.078  0.081  0.009  0.559  0.000  0.009  0.001  0.886
 
band     5 # energy   10.44225033 # occ.  1.00000000
 
ion      s     py     pz     px    dxy    dyz    dz2    dxz  x2-y2    tot
    1  0.000  0.001  0.001  0.000  0.262  0.000  0.348  0.262  0.116  0.989
 
band     6 # energy   10.49330464 # occ.  1.00000000
 
ion      s     py     pz     px    dxy    dyz    dz2    dxz  x2-y2    tot
    1  0.031  0.016  0.016  0.037  0.184  0.146  0.087  0.184  0.260  0.961
 
band     7 # energy   22.01558902 # occ.  0.00000000
 
ion      s     py     pz     px    dxy    dyz    dz2    dxz  x2-y2    tot
    1  0.227  0.100  0.100  0.050  0.123  0.155  0.001  0.123  0.002  0.881
 
band     8 # energy   33.67289690 # occ.  0.00000000
 
ion      s     py     pz     px    dxy    dyz    dz2    dxz  x2-y2    tot
    1  0.006  0.007  0.007  0.004  0.000  0.104  0.022  0.000  0.066  0.217
 
band     9 # energy   35.59693546 # occ.  0.00000000
 
ion      s     py     pz     px    dxy    dyz    dz2    dxz  x2-y2    tot
    1  0.000  0.224  0.224  0.000  0.136  0.000  0.087  0.136  0.029  0.837
 
band    10 # energy   38.15316697 # occ.  0.00000000
 
ion      s     py     pz     px    dxy    dyz    dz2    dxz  x2-y2    tot
    1  0.050  0.042  0.042  0.376  0.000  0.094  0.032  0.000  0.097  0.733
 
band    11 # energy   41.18547139 # occ.  0.00000000
 
ion      s     py     pz     px    dxy    dyz    dz2    dxz  x2-y2    tot
    1  0.000  0.003  0.003  0.018  0.072  0.205  0.147  0.072  0.441  0.963
 
band    12 # energy   43.16043984 # occ.  0.00000000
 
ion      s     py     pz     px    dxy    dyz    dz2    dxz  x2-y2    tot
    1  0.000  0.061  0.061  0.000  0.043  0.000  0.483  0.043  0.161  0.852
 

 k-point     7 :   -0.18750000 0.06250000 0.06250000     weight = 0.01171875

band     1 # energy    4.03078255 # occ.  1.00000000
 
ion      s     py     pz     px    dxy    dyz    dz2    dxz  x2-y2    tot
    1  0.605  0.026  0.026  0.080  0.020  0.012  0.001  0.020  0.004  0.794
 
band     2 # energy    8.03147886 # occ.  1.00000000
 
ion      s     py     pz     px    dxy    dyz    dz2    dxz  x2-y2    tot
    1  0.010  0.016  0.016  0.010  0.136  0.626  0.000  0.136  0.001  0.951
 
band     3 # energy    8.72383312 # occ.  1.00000000
 
ion      s     py     pz     px    dxy    dyz    dz2    dxz  x2-y2    tot
    1  0.000  0.001  0.001  0.001  0.199  0.217  0.089  0.199  0.267  0.973
 
band     4 # energy    8.78847104 # occ.  1.00000000
 
ion      s     py     pz     px    dxy    dyz    dz2    dxz  x2-y2    tot
    1  0.000  0.002  0.002  0.000  0.359  0.000  0.190  0.359  0.063  0.976
 
band     5 # energy    9.66533876 # occ.  1.00000000
 
ion      s     py     pz     px    dxy    dyz    dz2    dxz  x2-y2    tot
    1  0.007  0.001  0.001  0.006  0.123  0.104  0.153  0.123  0.460  0.977
 
band     6 # energy    9.95730953 # occ.  1.00000000
 
ion      s     py     pz     px    dxy    dyz    dz2    dxz  x2-y2    tot
    1  0.000  0.001  0.001  0.000  0.127  0.000  0.547  0.127  0.182  0.985
 
band     7 # energy   27.89149524 # occ.  0.00000000
 
ion      s     py     pz     px    dxy    dyz    dz2    dxz  x2-y2    tot
    1  0.084  0.112  0.112  0.060  0.136  0.173  0.001  0.136  0.003  0.816
 
band     8 # energy   34.83100078 # occ.  0.00000000
 
ion      s     py     pz     px    dxy    dyz    dz2    dxz  x2-y2    tot
    1  0.025  0.001  0.001  0.010  0.001  0.178  0.015  0.001  0.044  0.274
 
band     9 # energy   36.15083431 # occ.  0.00000000
 
ion      s     py     pz     px    dxy    dyz    dz2    dxz  x2-y2    tot
    1  0.000  0.190  0.190  0.000  0.210  0.000  0.046  0.210  0.015  0.863
 
band    10 # energy   40.69827781 # occ.  0.00000000
 
ion      s     py     pz     px    dxy    dyz    dz2    dxz  x2-y2    tot
    1  0.026  0.013  0.013  0.096  0.002  0.030  0.105  0.002  0.314  0.600
 
band    11 # energy   41.05290953 # occ.  0.00000000
 
ion      s     py     pz     px    dxy    dyz    dz2    dxz  x2-y2    tot
    1  0.010  0.029  0.029  0.233  0.083  0.264  0.010  0.083  0.031  0.772
 
band    12 # energy   45.38540158 # occ.  0.00000000
 
ion      s     py     pz     px    dxy    dyz    dz2    dxz  x2-y2    tot
    1  0.000  0.036  0.036  0.000  0.019  0.000  0.361  0.020  0.119  0.591
 

 k-point     8 :   -0.06250000 0.06250000 0.06250000     weight = 0.01171875

band     1 # energy    2.49935091 # occ.  1.00000000
 
ion      s     py     pz     px    dxy    dyz    dz2    dxz  x2-y2    tot
    1  0.738  0.004  0.004  0.035  0.001  0.000  0.000  0.001  0.001  0.783
 
band     2 # energy    8.28671895 # occ.  1.00000000
 
ion      s     py     pz     px    dxy    dyz    dz2    dxz  x2-y2    tot
    1  0.000  0.001  0.001  0.000  0.058  0.853  0.000  0.058  0.000  0.972
 
band     3 # energy    8.65806761 # occ.  1.00000000
 
ion      s     py     pz     px    dxy    dyz    dz2    dxz  x2-y2    tot
    1  0.000  0.001  0.001  0.001  0.424  0.118  0.002  0.424  0.007  0.977
 
band     4 # energy    8.66289444 # occ.  1.00000000
 
ion      s     py     pz     px    dxy    dyz    dz2    dxz  x2-y2    tot
    1  0.000  0.001  0.001  0.000  0.482  0.000  0.009  0.482  0.003  0.978
 
band     5 # energy    9.53566704 # occ.  1.00000000
 
ion      s     py     pz     px    dxy    dyz    dz2    dxz  x2-y2    tot
    1  0.001  0.000  0.000  0.000  0.004  0.001  0.243  0.004  0.729  0.983
 
band     6 # energy    9.76096541 # occ.  1.00000000
 
ion      s     py     pz     px    dxy    dyz    dz2    dxz  x2-y2    tot
    1  0.000  0.000  0.000  0.000  0.006  0.000  0.732  0.006  0.244  0.987
 
band     7 # energy   33.71910263 # occ.  0.00000000
 
ion      s     py     pz     px    dxy    dyz    dz2    dxz  x2-y2    tot
    1  0.005  0.037  0.037  0.010  0.072  0.243  0.000  0.072  0.001  0.478
 
band     8 # energy   36.26263493 # occ.  0.00000000
 
ion      s     py     pz     px    dxy    dyz    dz2    dxz  x2-y2    tot
    1  0.036  0.048  0.048  0.068  0.052  0.024  0.007  0.052  0.020  0.356
 
band     9 # energy   37.53626948 # occ.  0.00000000
 
ion      s     py     pz     px    dxy    dyz    dz2    dxz  x2-y2    tot
    1  0.000  0.161  0.161  0.000  0.203  0.000  0.008  0.203  0.003  0.739
 
band    10 # energy   39.30064843 # occ.  0.00000000
 
ion      s     py     pz     px    dxy    dyz    dz2    dxz  x2-y2    tot
    1  0.008  0.079  0.079  0.044  0.037  0.005  0.027  0.037  0.080  0.396
 
band    11 # energy   43.57979354 # occ.  0.00000000
 
ion      s     py     pz     px    dxy    dyz    dz2    dxz  x2-y2    tot
    1  0.001  0.000  0.000  0.065  0.268  0.448  0.000  0.268  0.001  1.052
 
band    12 # energy   45.34271458 # occ.  0.00000000
 
ion      s     py     pz     px    dxy    dyz    dz2    dxz  x2-y2    tot
    1  0.000  0.000  0.000  0.000  0.355  0.001  0.026  0.369  0.008  0.760
 

 k-point     9 :    0.18750000 0.18750000 0.06250000     weight = 0.01171875

band     1 # energy    3.31054238 # occ.  1.00000000
 
ion      s     py     pz     px    dxy    dyz    dz2    dxz  x2-y2    tot
    1  0.672  0.003  0.091  0.003  0.000  0.002  0.012  0.002  0.000  0.785
 
band     2 # energy    7.97872767 # occ.  1.00000000
 
ion      s     py     pz     px    dxy    dyz    dz2    dxz  x2-y2    tot
    1  0.000  0.001  0.000  0.001  0.925  0.019  0.000  0.019  0.000  0.966
 
band     3 # energy    8.87520730 # occ.  1.00000000
 
ion      s     py     pz     px    dxy    dyz    dz2    dxz  x2-y2    tot
    1  0.000  0.003  0.000  0.003  0.036  0.400  0.133  0.400  0.000  0.975
 
band     4 # energy    8.90836630 # occ.  1.00000000
 
ion      s     py     pz     px    dxy    dyz    dz2    dxz  x2-y2    tot
    1  0.000  0.004  0.000  0.004  0.000  0.468  0.000  0.468  0.034  0.977
 
band     5 # energy    9.32795876 # occ.  1.00000000
 
ion      s     py     pz     px    dxy    dyz    dz2    dxz  x2-y2    tot
    1  0.008  0.001  0.004  0.001  0.005  0.063  0.830  0.063  0.000  0.975
 
band     6 # energy    9.89810039 # occ.  1.00000000
 
ion      s     py     pz     px    dxy    dyz    dz2    dxz  x2-y2    tot
    1  0.000  0.000  0.000  0.000  0.000  0.017  0.000  0.017  0.953  0.987
 
band     7 # energy   32.33502406 # occ.  0.00000000
 
ion      s     py     pz     px    dxy    dyz    dz2    dxz  x2-y2    tot
    1  0.017  0.091  0.013  0.091  0.286  0.103  0.011  0.103  0.000  0.717
 
band     8 # energy   34.75535919 # occ.  0.00000000
 
ion      s     py     pz     px    dxy    dyz    dz2    dxz  x2-y2    tot
    1  0.032  0.020  0.018  0.020  0.202  0.021  0.100  0.021  0.000  0.434
 
band     9 # energy   35.19697458 # occ.  0.00000000
 
ion      s     py     pz     px    dxy    dyz    dz2    dxz  x2-y2    tot
    1  0.000  0.198  0.000  0.198  0.000  0.207  0.000  0.207  0.008  0.817
 
band    10 # energy   37.29276112 # occ.  0.00000000
 
ion      s     py     pz     px    dxy    dyz    dz2    dxz  x2-y2    tot
    1  0.002  0.078  0.001  0.078  0.042  0.067  0.206  0.067  0.000  0.540
 
band    11 # energy   43.64982543 # occ.  0.00000000
 
ion      s     py     pz     px    dxy    dyz    dz2    dxz  x2-y2    tot
    1  0.339  0.015  0.549  0.015  0.013  0.000  0.142  0.000  0.000  1.073
 
band    12 # energy   45.89982389 # occ.  0.00000000
 
ion      s     py     pz     px    dxy    dyz    dz2    dxz  x2-y2    tot
    1  0.109  0.001  0.006  0.001  0.384  0.163  0.092  0.163  0.000  0.918
 

 k-point    10 :    0.31250000 0.18750000 0.06250000     weight = 0.02343750

band     1 # energy    4.71497343 # occ.  1.00000000
 
ion      s     py     pz     px    dxy    dyz    dz2    dxz  x2-y2    tot
    1  0.528  0.026  0.146  0.002  0.003  0.031  0.056  0.004  0.001  0.797
 
band     2 # energy    7.64429847 # occ.  1.00000000
 
ion      s     py     pz     px    dxy    dyz    dz2    dxz  x2-y2    tot
    1  0.001  0.002  0.001  0.013  0.853  0.006  0.003  0.076  0.000  0.956
 
band     3 # energy    8.63817974 # occ.  1.00000000
 
ion      s     py     pz     px    dxy    dyz    dz2    dxz  x2-y2    tot
    1  0.007  0.004  0.002  0.000  0.017  0.352  0.530  0.016  0.037  0.965
 
band     4 # energy    9.19623596 # occ.  1.00000000
 
ion      s     py     pz     px    dxy    dyz    dz2    dxz  x2-y2    tot
    1  0.002  0.002  0.002  0.005  0.044  0.121  0.048  0.572  0.179  0.975
 
band     5 # energy    9.62113740 # occ.  1.00000000
 
ion      s     py     pz     px    dxy    dyz    dz2    dxz  x2-y2    tot
    1  0.017  0.004  0.016  0.003  0.035  0.120  0.262  0.289  0.224  0.971
 
band     6 # energy   10.31331198 # occ.  1.00000000
 
ion      s     py     pz     px    dxy    dyz    dz2    dxz  x2-y2    tot
    1  0.014  0.005  0.009  0.000  0.001  0.339  0.068  0.003  0.544  0.983
 
band     7 # energy   28.45444740 # occ.  0.00000000
 
ion      s     py     pz     px    dxy    dyz    dz2    dxz  x2-y2    tot
    1  0.056  0.103  0.019  0.191  0.207  0.088  0.022  0.134  0.003  0.823
 
band     8 # energy   31.10568837 # occ.  0.00000000
 
ion      s     py     pz     px    dxy    dyz    dz2    dxz  x2-y2    tot
    1  0.038  0.135  0.008  0.130  0.126  0.121  0.067  0.082  0.020  0.728
 
band     9 # energy   34.94330184 # occ.  0.00000000
 
ion      s     py     pz     px    dxy    dyz    dz2    dxz  x2-y2    tot
    1  0.011  0.081  0.090  0.031  0.029  0.043  0.335  0.023  0.007  0.649
 
band    10 # energy   37.03947370 # occ.  0.00000000
 
ion      s     py     pz     px    dxy    dyz    dz2    dxz  x2-y2    tot
    1  0.026  0.001  0.068  0.107  0.325  0.000  0.070  0.071  0.000  0.668
 
band    11 # energy   42.41224739 # occ.  0.00000000
 
ion      s     py     pz     px    dxy    dyz    dz2    dxz  x2-y2    tot
    1  0.269  0.179  0.328  0.022  0.010  0.056  0.011  0.005  0.000  0.881
 
band    12 # energy   45.60361275 # occ.  0.00000000
 
ion      s     py     pz     px    dxy    dyz    dz2    dxz  x2-y2    tot
    1  0.088  0.022  0.022  0.001  0.066  0.011  0.199  0.029  0.159  0.598
 

 k-point    11 :    0.43750000 0.18750000 0.06250000     weight = 0.02343750

band     1 # energy    6.09757448 # occ.  1.00000000
 
ion      s     py     pz     px    dxy    dyz    dz2    dxz  x2-y2    tot
    1  0.254  0.020  0.101  0.001  0.171  0.144  0.092  0.087  0.001  0.870
 
band     2 # energy    7.77891294 # occ.  1.00000000
 
ion      s     py     pz     px    dxy    dyz    dz2    dxz  x2-y2    tot
    1  0.016  0.044  0.028  0.045  0.351  0.024  0.333  0.061  0.011  0.914
 
band     3 # energy    8.29864360 # occ.  1.00000000
 
ion      s     py     pz     px    dxy    dyz    dz2    dxz  x2-y2    tot
    1  0.028  0.001  0.025  0.008  0.313  0.280  0.252  0.007  0.042  0.955
 
band     4 # energy    9.02449160 # occ.  1.00000000
 
ion      s     py     pz     px    dxy    dyz    dz2    dxz  x2-y2    tot
    1  0.002  0.004  0.006  0.001  0.038  0.077  0.051  0.300  0.490  0.971
 
band     5 # energy   10.40324073 # occ.  1.00000000
 
ion      s     py     pz     px    dxy    dyz    dz2    dxz  x2-y2    tot
    1  0.003  0.001  0.009  0.005  0.037  0.058  0.056  0.467  0.346  0.983
 
band     6 # energy   11.59360448 # occ.  0.00000000
 
ion      s     py     pz     px    dxy    dyz    dz2    dxz  x2-y2    tot
    1  0.088  0.036  0.094  0.018  0.017  0.389  0.180  0.030  0.088  0.939
 
band     7 # energy   22.52303343 # occ.  0.00000000
 
ion      s     py     pz     px    dxy    dyz    dz2    dxz  x2-y2    tot
    1  0.187  0.104  0.019  0.178  0.175  0.081  0.016  0.104  0.004  0.868
 
band     8 # energy   30.43242681 # occ.  0.00000000
 
ion      s     py     pz     px    dxy    dyz    dz2    dxz  x2-y2    tot
    1  0.013  0.092  0.004  0.156  0.115  0.072  0.149  0.041  0.059  0.702
 
band     9 # energy   32.59516966 # occ.  0.00000000
 
ion      s     py     pz     px    dxy    dyz    dz2    dxz  x2-y2    tot
    1  0.072  0.034  0.211  0.091  0.000  0.002  0.248  0.046  0.031  0.735
 
band    10 # energy   36.74523478 # occ.  0.00000000
 
ion      s     py     pz     px    dxy    dyz    dz2    dxz  x2-y2    tot
    1  0.066  0.136  0.111  0.026  0.249  0.022  0.012  0.016  0.007  0.645
 
band    11 # energy   43.61615014 # occ.  0.00000000
 
ion      s     py     pz     px    dxy    dyz    dz2    dxz  x2-y2    tot
    1  0.027  0.102  0.002  0.002  0.209  0.018  0.126  0.047  0.226  0.759
 
band    12 # energy   46.22157727 # occ.  0.00000000
 
ion      s     py     pz     px    dxy    dyz    dz2    dxz  x2-y2    tot
    1  0.565  0.108  0.094  0.042  0.001  0.000  0.225  0.006  0.000  1.040
 

 k-point    12 :   -0.43750000 0.18750000 0.06250000     weight = 0.02343750

band     1 # energy    6.38847206 # occ.  1.00000000
 
ion      s     py     pz     px    dxy    dyz    dz2    dxz  x2-y2    tot
    1  0.127  0.000  0.027  0.010  0.341  0.239  0.010  0.169  0.000  0.925
 
band     2 # energy    7.81664633 # occ.  1.00000000
 
ion      s     py     pz     px    dxy    dyz    dz2    dxz  x2-y2    tot
    1  0.000  0.033  0.004  0.014  0.030  0.075  0.684  0.011  0.075  0.927
 
band     3 # energy    8.77310004 # occ.  1.00000000
 
ion      s     py     pz     px    dxy    dyz    dz2    dxz  x2-y2    tot
    1  0.003  0.036  0.051  0.060  0.287  0.333  0.065  0.009  0.088  0.932
 
band     4 # energy    8.85482007 # occ.  1.00000000
 
ion      s     py     pz     px    dxy    dyz    dz2    dxz  x2-y2    tot
    1  0.001  0.015  0.026  0.003  0.139  0.000  0.025  0.252  0.499  0.960
 
band     5 # energy   10.62821793 # occ.  1.00000000
 
ion      s     py     pz     px    dxy    dyz    dz2    dxz  x2-y2    tot
    1  0.000  0.000  0.000  0.000  0.037  0.170  0.031  0.464  0.288  0.990
 
band     6 # energy   13.80753201 # occ.  0.00000000
 
ion      s     py     pz     px    dxy    dyz    dz2    dxz  x2-y2    tot
    1  0.011  0.135  0.193  0.137  0.064  0.113  0.167  0.015  0.022  0.857
 
band     7 # energy   18.34903059 # occ.  0.00000000
 
ion      s     py     pz     px    dxy    dyz    dz2    dxz  x2-y2    tot
    1  0.411  0.015  0.012  0.057  0.173  0.127  0.001  0.125  0.001  0.922
 
band     8 # energy   29.79590778 # occ.  0.00000000
 
ion      s     py     pz     px    dxy    dyz    dz2    dxz  x2-y2    tot