<?xml version="1.0" encoding="ISO-8859-1"?>
<modeling>
 <generator>
  <i name="program" type="string">vasp </i>
  <i name="version" type="string">6.3.2  </i>
  <i name="subversion" type="string">27Jun22 (build Aug 12 2022 00:53:59) complex                          parallel </i>
  <i name="platform" type="string">tv2STD </i>
  <i name="date" type="string">2024 12 03 </i>
  <i name="time" type="string">02:19:08 </i>
 </generator>
 <incar>
  <i type="string" name="SYSTEM">Co-fcc</i>
  <i type="int" name="ISTART">     0</i>
  <i type="string" name="PREC">Accurate      normal | accurate</i>
  <i type="string" name="ALGO">Normal     Normal, Fast, Very_Fast</i>
  <i type="logical" name="ADDGRID"> F  </i>
  <i type="int" name="ISPIN">     2</i>
  <i type="int" name="ICHARG">     2</i>
  <i type="int" name="INIWAV">     1</i>
  <i type="int" name="NELM">   100</i>
  <i type="int" name="IBRION">     2</i>
  <i name="EDIFF">      0.00000100</i>
  <i name="EDIFFG">     -0.02000000</i>
  <i type="int" name="NSW">   100</i>
  <i type="int" name="ISIF">     2</i>
  <i type="int" name="ISYM">     1</i>
  <i name="ENCUT">    400.00000000</i>
  <v name="MAGMOM">      3.00000000</v>
  <i type="logical" name="LREAL"> F  </i>
  <i type="int" name="ISMEAR">     0</i>
  <i name="SIGMA">      0.05000000</i>
  <i type="int" name="NWRITE">     2</i>
  <i type="logical" name="LWAVE"> T  </i>
  <i type="logical" name="LCHARG"> T  </i>
  <i type="int" name="LORBIT">    11</i>
 </incar>
 <primitive_cell>
  <structure name="primitive_cell" >
   <crystal>
    <varray name="basis" >
     <v>       0.00000000       1.71918221       1.71918221 </v>
     <v>       1.71918221       0.00000000       1.71918221 </v>
     <v>       1.71918221       1.71918221       0.00000000 </v>
    </varray>
    <i name="volume">     10.16238672 </i>
    <varray name="rec_basis" >
     <v>      -0.29083596       0.29083596       0.29083596 </v>
     <v>       0.29083596      -0.29083596       0.29083596 </v>
     <v>       0.29083596       0.29083596      -0.29083596 </v>
    </varray>
   </crystal>
   <varray name="positions" >
    <v>       0.00000000       0.00000000       0.00000000 </v>
   </varray>
  </structure>
  <varray name="primitive_index" >
   <v type="int" >        1 </v>
  </varray>
 </primitive_cell>
 <kpoints>
  <generation param="Monkhorst-Pack">
   <v type="int" name="divisions">       8        8        8 </v>
   <v name="usershift">      0.00000000       0.00000000       0.00000000 </v>
   <v name="genvec1">      0.12500000       0.00000000       0.00000000 </v>
   <v name="genvec2">      0.00000000       0.12500000       0.00000000 </v>
   <v name="genvec3">      0.00000000       0.00000000       0.12500000 </v>
   <v name="shift">      0.50000000       0.50000000       0.50000000 </v>
  </generation>
  <varray name="kpointlist" >
   <v>       0.06250000       0.06250000       0.06250000 </v>
   <v>       0.18750000       0.06250000       0.06250000 </v>
   <v>       0.31250000       0.06250000       0.06250000 </v>
   <v>       0.43750000       0.06250000       0.06250000 </v>
   <v>      -0.43750000       0.06250000       0.06250000 </v>
   <v>      -0.31250000       0.06250000       0.06250000 </v>
   <v>      -0.18750000       0.06250000       0.06250000 </v>
   <v>      -0.06250000       0.06250000       0.06250000 </v>
   <v>       0.18750000       0.18750000       0.06250000 </v>
   <v>       0.31250000       0.18750000       0.06250000 </v>
   <v>       0.43750000       0.18750000       0.06250000 </v>
   <v>      -0.43750000       0.18750000       0.06250000 </v>
   <v>      -0.31250000       0.18750000       0.06250000 </v>
   <v>      -0.18750000       0.18750000       0.06250000 </v>
   <v>      -0.06250000       0.18750000       0.06250000 </v>
   <v>       0.31250000       0.31250000       0.06250000 </v>
   <v>       0.43750000       0.31250000       0.06250000 </v>
   <v>      -0.43750000       0.31250000       0.06250000 </v>
   <v>      -0.31250000       0.31250000       0.06250000 </v>
   <v>      -0.18750000       0.31250000       0.06250000 </v>
   <v>      -0.06250000       0.31250000       0.06250000 </v>
   <v>       0.43750000       0.43750000       0.06250000 </v>
   <v>      -0.43750000       0.43750000       0.06250000 </v>
   <v>      -0.31250000       0.43750000       0.06250000 </v>
   <v>      -0.18750000       0.43750000       0.06250000 </v>
   <v>      -0.06250000       0.43750000       0.06250000 </v>
   <v>      -0.43750000      -0.43750000       0.06250000 </v>
   <v>      -0.31250000      -0.43750000       0.06250000 </v>
   <v>      -0.18750000      -0.43750000       0.06250000 </v>
   <v>      -0.31250000      -0.31250000       0.06250000 </v>
   <v>      -0.18750000      -0.31250000       0.06250000 </v>
   <v>      -0.18750000      -0.18750000       0.06250000 </v>
   <v>       0.18750000       0.18750000       0.18750000 </v>
   <v>       0.31250000       0.18750000       0.18750000 </v>
   <v>       0.43750000       0.18750000       0.18750000 </v>
   <v>      -0.43750000       0.18750000       0.18750000 </v>
   <v>      -0.31250000       0.18750000       0.18750000 </v>
   <v>      -0.18750000       0.18750000       0.18750000 </v>
   <v>       0.31250000       0.31250000       0.18750000 </v>
   <v>       0.43750000       0.31250000       0.18750000 </v>
   <v>      -0.43750000       0.31250000       0.18750000 </v>
   <v>      -0.31250000       0.31250000       0.18750000 </v>
   <v>      -0.18750000       0.31250000       0.18750000 </v>
   <v>       0.43750000       0.43750000       0.18750000 </v>
   <v>      -0.43750000       0.43750000       0.18750000 </v>
   <v>      -0.31250000       0.43750000       0.18750000 </v>
   <v>      -0.18750000       0.43750000       0.18750000 </v>
   <v>      -0.43750000      -0.43750000       0.18750000 </v>
   <v>      -0.31250000      -0.43750000       0.18750000 </v>
   <v>      -0.31250000      -0.31250000       0.18750000 </v>
   <v>       0.31250000       0.31250000       0.31250000 </v>
   <v>       0.43750000       0.31250000       0.31250000 </v>
   <v>      -0.43750000       0.31250000       0.31250000 </v>
   <v>      -0.31250000       0.31250000       0.31250000 </v>
   <v>       0.43750000       0.43750000       0.31250000 </v>
   <v>      -0.43750000       0.43750000       0.31250000 </v>
   <v>      -0.31250000       0.43750000       0.31250000 </v>
   <v>      -0.43750000      -0.43750000       0.31250000 </v>
   <v>       0.43750000       0.43750000       0.43750000 </v>
   <v>      -0.43750000       0.43750000       0.43750000 </v>
  </varray>
  <varray name="weights" >
   <v>       0.00390625 </v>
   <v>       0.01171875 </v>
   <v>       0.01171875 </v>
   <v>       0.01171875 </v>
   <v>       0.01171875 </v>
   <v>       0.01171875 </v>
   <v>       0.01171875 </v>
   <v>       0.01171875 </v>
   <v>       0.01171875 </v>
   <v>       0.02343750 </v>
   <v>       0.02343750 </v>
   <v>       0.02343750 </v>
   <v>       0.02343750 </v>
   <v>       0.02343750 </v>
   <v>       0.02343750 </v>
   <v>       0.01171875 </v>
   <v>       0.02343750 </v>
   <v>       0.02343750 </v>
   <v>       0.02343750 </v>
   <v>       0.02343750 </v>
   <v>       0.02343750 </v>
   <v>       0.01171875 </v>
   <v>       0.02343750 </v>
   <v>       0.02343750 </v>
   <v>       0.02343750 </v>
   <v>       0.02343750 </v>
   <v>       0.01171875 </v>
   <v>       0.02343750 </v>
   <v>       0.02343750 </v>
   <v>       0.01171875 </v>
   <v>       0.02343750 </v>
   <v>       0.01171875 </v>
   <v>       0.00390625 </v>
   <v>       0.01171875 </v>
   <v>       0.01171875 </v>
   <v>       0.01171875 </v>
   <v>       0.01171875 </v>
   <v>       0.01171875 </v>
   <v>       0.01171875 </v>
   <v>       0.02343750 </v>
   <v>       0.02343750 </v>
   <v>       0.02343750 </v>
   <v>       0.02343750 </v>
   <v>       0.01171875 </v>
   <v>       0.02343750 </v>
   <v>       0.02343750 </v>
   <v>       0.02343750 </v>
   <v>       0.01171875 </v>
   <v>       0.02343750 </v>
   <v>       0.01171875 </v>
   <v>       0.00390625 </v>
   <v>       0.01171875 </v>
   <v>       0.01171875 </v>
   <v>       0.01171875 </v>
   <v>       0.01171875 </v>
   <v>       0.02343750 </v>
   <v>       0.02343750 </v>
   <v>       0.01171875 </v>
   <v>       0.00390625 </v>
   <v>       0.01171875 </v>
  </varray>
 </kpoints>
 <parameters>
  <separator name="general" >
   <i type="string" name="SYSTEM">Co-fcc</i>
   <i type="logical" name="LCOMPAT"> F  </i>
  </separator>
  <separator name="electronic" >
   <i type="string" name="PREC">accura</i>
   <i name="ENMAX">    400.00000000</i>
   <i name="ENAUG">    477.81800000</i>
   <i name="EDIFF">      0.00000100</i>
   <i type="int" name="IALGO">    38</i>
   <i type="int" name="IWAVPR">    11</i>
   <i type="int" name="NBANDS">    12</i>
   <i type="int" name="NBANDSLOW">    -1</i>
   <i type="int" name="NBANDSHIGH">    -1</i>
   <i name="NELECT">      9.00000000</i>
   <i type="int" name="TURBO">     0</i>
   <i type="int" name="IRESTART">     0</i>
   <i type="int" name="NREBOOT">     0</i>
   <i type="int" name="NMIN">     0</i>
   <i name="EREF">      0.00000000</i>
   <separator name="electronic smearing" >
    <i type="int" name="ISMEAR">     0</i>
    <i name="SIGMA">      0.05000000</i>
    <i name="KSPACING">      0.50000000</i>
    <i type="logical" name="KGAMMA"> T  </i>
    <i type="logical" name="KBLOWUP"> T  </i>
   </separator>
   <separator name="electronic projectors" >
    <i type="logical" name="LREAL"> F  </i>
    <v name="ROPT">      0.00000000</v>
    <i type="int" name="LMAXPAW">  -100</i>
    <i type="int" name="LMAXMIX">     2</i>
    <i type="logical" name="NLSPLINE"> F  </i>
   </separator>
   <separator name="electronic startup" >
    <i type="int" name="ISTART">     0</i>
    <i type="int" name="ICHARG">     2</i>
    <i type="int" name="INIWAV">     1</i>
   </separator>
   <separator name="electronic spin" >
    <i type="int" name="ISPIN">     2</i>
    <i type="logical" name="LNONCOLLINEAR"> F  </i>
    <v name="MAGMOM">      3.00000000</v>
    <i name="NUPDOWN">     -1.00000000</i>
    <i type="logical" name="LSORBIT"> F  </i>
    <v name="SAXIS">      0.00000000      0.00000000      1.00000000</v>
    <i type="logical" name="LSPIRAL"> F  </i>
    <v name="QSPIRAL">      0.00000000      0.00000000      0.00000000</v>
    <i type="logical" name="LZEROZ"> F  </i>
   </separator>
   <separator name="electronic exchange-correlation" >
    <i type="logical" name="LASPH"> F  </i>
    <i type="logical" name="LMETAGGA"> F  </i>
   </separator>
   <separator name="electronic convergence" >
    <i type="int" name="NELM">   100</i>
    <i type="int" name="NELMDL">    -5</i>
    <i type="int" name="NELMIN">     2</i>
    <i name="ENINI">    400.00000000</i>
    <separator name="electronic convergence detail" >
     <i type="logical" name="LDIAG"> T  </i>
     <i type="logical" name="LSUBROT"> F  </i>
     <i name="WEIMIN">      0.00100000</i>
     <i name="EBREAK">      0.00000002</i>
     <i name="DEPER">      0.30000000</i>
     <i type="int" name="NRMM">     4</i>
     <i name="TIME">      0.40000000</i>
    </separator>
   </separator>
   <separator name="electronic mixer" >
    <i name="AMIX">      0.40000000</i>
    <i name="BMIX">      1.00000000</i>
    <i name="AMIN">      0.10000000</i>
    <i name="AMIX_MAG">      1.60000000</i>
    <i name="BMIX_MAG">      1.00000000</i>
    <separator name="electronic mixer details" >
     <i type="int" name="IMIX">     4</i>
     <i type="logical" name="MIXFIRST"> F  </i>
     <i type="int" name="MAXMIX">   -45</i>
     <i name="WC">    100.00000000</i>
     <i type="int" name="INIMIX">     1</i>
     <i type="int" name="MIXPRE">     1</i>
     <i type="int" name="MREMOVE">     5</i>
    </separator>
   </separator>
   <separator name="electronic dipolcorrection" >
    <i type="logical" name="LDIPOL"> F  </i>
    <i type="logical" name="LMONO"> F  </i>
    <i type="int" name="IDIPOL">     0</i>
    <i name="EPSILON">      1.00000000</i>
    <v name="DIPOL">   -100.00000000   -100.00000000   -100.00000000</v>
    <i name="EFIELD">      0.00000000</i>
   </separator>
  </separator>
  <separator name="grids" >
   <i type="int" name="NGX">    16</i>
   <i type="int" name="NGY">    16</i>
   <i type="int" name="NGZ">    16</i>
   <i type="int" name="NGXF">    32</i>
   <i type="int" name="NGYF">    32</i>
   <i type="int" name="NGZF">    32</i>
   <i type="logical" name="ADDGRID"> F  </i>
  </separator>
  <separator name="ionic" >
   <i type="int" name="NSW">   100</i>
   <i type="int" name="IBRION">     2</i>
   <i type="int" name="MDALGO">     0</i>
   <i type="int" name="ISIF">     2</i>
   <i name="PSTRESS">      0.00000000</i>
   <i name="EDIFFG">     -0.02000000</i>
   <i type="int" name="NFREE">     1</i>
   <i name="POTIM">      0.50000000</i>
   <i name="SMASS">     -3.00000000</i>
   <i name="SCALEE">      1.00000000</i>
  </separator>
  <separator name="ionic md" >
   <i name="TEBEG">      0.00010000</i>
   <i name="TEEND">      0.00010000</i>
   <i type="int" name="NBLOCK">     1</i>
   <i type="int" name="KBLOCK">   100</i>
   <i type="int" name="NPACO">   256</i>
   <i name="APACO">     10.00000000</i>
  </separator>
  <separator name="symmetry" >
   <i type="int" name="ISYM">     1</i>
   <i name="SYMPREC">      0.00001000</i>
  </separator>
  <separator name="dos" >
   <i type="int" name="LORBIT">    11</i>
   <v name="RWIGS">     -1.00000000</v>
   <i type="int" name="NEDOS">   301</i>
   <i name="EMIN">     10.00000000</i>
   <i name="EMAX">    -10.00000000</i>
   <i name="EFERMI">      0.00000000</i>
  </separator>
  <separator name="writing" >
   <i type="int" name="NWRITE">     2</i>
   <i type="logical" name="LWAVE"> T  </i>
   <i type="logical" name="LDOWNSAMPLE"> F  </i>
   <i type="logical" name="LCHARG"> T  </i>
   <i type="logical" name="LPARD"> F  </i>
   <i type="logical" name="LVTOT"> F  </i>
   <i type="logical" name="LVHAR"> F  </i>
   <i type="logical" name="LELF"> F  </i>
   <i type="logical" name="LOPTICS"> F  </i>
   <v name="STM">      0.00000000      0.00000000      0.00000000      0.00000000      0.00000000      0.00000000      0.00000000</v>
  </separator>
  <separator name="performance" >
   <i type="int" name="NPAR">     4</i>
   <i type="int" name="NSIM">     4</i>
   <i type="int" name="NBLK">    -1</i>
   <i type="logical" name="LPLANE"> T  </i>
   <i type="logical" name="LSCALAPACK"> T  </i>
   <i type="logical" name="LSCAAWARE"> T  </i>
   <i type="logical" name="LSCALU"> F  </i>
   <i type="logical" name="LASYNC"> F  </i>
   <i type="logical" name="LORBITALREAL"> F  </i>
  </separator>
  <separator name="miscellaneous" >
   <i type="int" name="IDIOT">     3</i>
   <i type="int" name="PHON_NSTRUCT">    -1</i>
   <i type="logical" name="LMUSIC"> F  </i>
   <v name="POMASS">     58.93300000</v>
   <v name="DARWINR">      0.00000000</v>
   <v name="DARWINV">      1.00000000</v>
   <i type="logical" name="LCORR"> T  </i>
  </separator>
  <i type="logical" name="GGA_COMPAT"> T  </i>
  <i type="logical" name="LBERRY"> F  </i>
  <i type="int" name="ICORELEVEL">     0</i>
  <i type="logical" name="LDAU"> F  </i>
  <i type="int" name="I_CONSTRAINED_M">     0</i>
  <separator name="electronic exchange-correlation" >
   <i type="string" name="GGA">--</i>
   <i type="int" name="VOSKOWN">     0</i>
   <i type="logical" name="LHFCALC"> F  </i>
   <i type="string" name="PRECFOCK"></i>
   <i type="logical" name="LSYMGRAD"> F  </i>
   <i type="logical" name="LHFONE"> F  </i>
   <i type="logical" name="LRHFCALC"> F  </i>
   <i type="logical" name="LTHOMAS"> F  </i>
   <i type="logical" name="LMODELHF"> F  </i>
   <i type="logical" name="LFOCKACE"> F  </i>
   <i name="ENCUT4O">     -1.00000000</i>
   <i type="int" name="EXXOEP">     0</i>
   <i type="int" name="FOURORBIT">     0</i>
   <i name="AEXX">      0.00000000</i>
   <i name="HFALPHA">      0.00000000</i>
   <i name="MCALPHA">      0.00000000</i>
   <i name="ALDAX">      1.00000000</i>
   <i name="AGGAX">      1.00000000</i>
   <i name="ALDAC">      1.00000000</i>
   <i name="AGGAC">      1.00000000</i>
   <i type="int" name="NKREDX">     1</i>
   <i type="int" name="NKREDY">     1</i>
   <i type="int" name="NKREDZ">     1</i>
   <i type="logical" name="SHIFTRED"> F  </i>
   <i type="logical" name="ODDONLY"> F  </i>
   <i type="logical" name="EVENONLY"> F  </i>
   <i type="int" name="LMAXFOCK">     0</i>
   <i type="int" name="NMAXFOCKAE">     0</i>
   <i type="logical" name="LFOCKAEDFT"> F  </i>
   <i name="HFSCREEN">      0.00000000</i>
   <i name="HFSCREENC">      0.00000000</i>
   <i type="int" name="NBANDSGWLOW">     0</i>
  </separator>
  <separator name="vdW DFT" >
   <i type="logical" name="LUSE_VDW"> F  </i>
   <i name="Zab_VDW">     -0.84910000</i>
   <i name="PARAM1">      0.12340000</i>
   <i name="PARAM2">      1.00000000</i>
   <i name="PARAM3">      0.00000000</i>
  </separator>
  <separator name="model GW" >
   <i type="int" name="MODEL_GW">     0</i>
   <i name="MODEL_EPS0">      6.09743203</i>
   <i name="MODEL_ALPHA">      1.00000000</i>
  </separator>
  <separator name="linear response parameters" >
   <i type="logical" name="LEPSILON"> F  </i>
   <i type="logical" name="LRPA"> F  </i>
   <i type="logical" name="LNABLA"> F  </i>
   <i type="logical" name="LVEL"> F  </i>
   <i name="CSHIFT">      0.10000000</i>
   <i name="OMEGAMAX">     -1.00000000</i>
   <i name="DEG_THRESHOLD">      0.00200000</i>
   <i name="RTIME">     -0.10000000</i>
   <i name="WPLASMAI">      0.00000000</i>
   <v name="DFIELD">      0.00000000      0.00000000      0.00000000</v>
   <v name="WPLASMA">      0.00000000      0.00000000      0.00000000      0.00000000      0.00000000      0.00000000      0.00000000      0.00000000      0.00000000</v>
  </separator>
  <separator name="orbital magnetization" >
   <i type="logical" name="NUCIND"> F  </i>
   <v name="MAGPOS">      0.00000000      0.00000000      0.00000000</v>
   <i type="logical" name="LNICSALL"> T  </i>
   <i type="logical" name="ORBITALMAG"> F  </i>
   <i type="logical" name="LMAGBLOCH"> F  </i>
   <i type="logical" name="LCHIMAG"> F  </i>
   <i type="logical" name="LGAUGE"> T  </i>
   <i type="int" name="MAGATOM">     0</i>
   <v name="MAGDIPOL">      0.00000000      0.00000000      0.00000000</v>
   <v name="AVECCONST">      0.00000000      0.00000000      0.00000000</v>
  </separator>
  <separator name="response functions" >
   <i type="logical" name="LFINITE_TEMPERATURE"> F  </i>
   <i type="logical" name="LADDER"> F  </i>
   <i type="logical" name="LRPAFORCE"> F  </i>
   <i type="logical" name="LFXC"> F  </i>
   <i type="logical" name="LHARTREE"> T  </i>
   <i type="int" name="IBSE">     0</i>
   <v type="int" name="KPOINT">    -1     0     0     0</v>
   <i type="logical" name="LTCTC"> F  </i>
   <i type="logical" name="LTCTE"> F  </i>
   <i type="logical" name="LTETE"> F  </i>
   <i type="logical" name="LTRIPLET"> F  </i>
   <i type="logical" name="LFXCEPS"> F  </i>
   <i type="logical" name="LFXHEG"> F  </i>
   <i type="int" name="NATURALO">     2</i>
   <i type="logical" name="LHOLEGF"> F  </i>
   <i type="logical" name="L2ORDER"> F  </i>
   <i type="logical" name="LDMP1"> F  </i>
   <i type="logical" name="LMP2LT"> F  </i>
   <i type="logical" name="LSMP2LT"> F  </i>
   <i type="logical" name="LGWLF"> F  </i>
   <i name="ENCUTGW">     -2.00000000</i>
   <i name="ENCUTGWSOFT">     -2.00000000</i>
   <i name="ENCUTLF">     -1.00000000</i>
   <i type="logical" name="LESF_SPLINES"> F  </i>
   <i type="int" name="LMAXMP2">    -1</i>
   <i name="SCISSOR">      0.00000000</i>
   <i type="int" name="NOMEGA">     0</i>
   <i type="int" name="NOMEGAR">     0</i>
   <i type="int" name="NBANDSGW">    -1</i>
   <i type="int" name="NBANDSO">    -1</i>
   <i type="int" name="NBANDSV">    -1</i>
   <i type="int" name="NELMGW">     1</i>
   <i type="int" name="NELMHF">     1</i>
   <i type="int" name="DIM">     3</i>
   <i type="int" name="IESPILON">     4</i>
   <i type="int" name="ANTIRES">     0</i>
   <i name="OMEGAMAX">    -30.00000000</i>
   <i name="OMEGAMIN">    -30.00000000</i>
   <i name="OMEGATL">   -200.00000000</i>
   <i type="int" name="OMEGAGRID">     0</i>
   <i name="CSHIFT">     -0.10000000</i>
   <i type="logical" name="LSELFENERGY"> F  </i>
   <i type="logical" name="LSPECTRAL"> F  </i>
   <i type="logical" name="LSPECTRALGW"> F  </i>
   <i type="logical" name="LSINGLES"> F  </i>
   <i type="logical" name="LFERMIGW"> F  </i>
   <i type="logical" name="ODDONLYGW"> F  </i>
   <i type="logical" name="EVENONLYGW"> F  </i>
   <i type="int" name="NKREDLFX">     1</i>
   <i type="int" name="NKREDLFY">     1</i>
   <i type="int" name="NKREDLFZ">     1</i>
   <i type="int" name="MAXMEM">  2800</i>
   <i type="int" name="TELESCOPE">     0</i>
   <i type="int" name="NTAUPAR">    -1</i>
   <i type="int" name="NOMEGAPAR">    -1</i>
   <i name="DAMP_NEWTON">      0.80000001</i>
   <i name="LAMBDA">      1.00000000</i>
  </separator>
  <separator name="External order field" >
   <i name="OFIELD_KAPPA">      0.00000000</i>
   <v name="OFIELD_K">      0.00000000      0.00000000      0.00000000</v>
   <i name="OFIELD_Q6_NEAR">      0.00000000</i>
   <i name="OFIELD_Q6_FAR">      0.00000000</i>
   <i name="OFIELD_A">      0.00000000</i>
  </separator>
  <separator name="optional k-points parameters" >
   <i type="int" name="KPOINTS_OPT_MODE">     1</i>
   <i type="logical" name="LKPOINTS_OPT"> F  </i>
  </separator>
 </parameters>
 <atominfo>
  <atoms>       1 </atoms>
  <types>       1 </types>
  <array name="atoms" >
   <dimension dim="1">ion</dimension>
   <field type="string">element</field>
   <field type="int">atomtype</field>
   <set>
    <rc><c>Co</c><c>   1</c></rc>
   </set>
  </array>
  <array name="atomtypes" >
   <dimension dim="1">type</dimension>
   <field type="int">atomspertype</field>
   <field type="string">element</field>
   <field>mass</field>
   <field>valence</field>
   <field type="string">pseudopotential</field>
   <set>
    <rc><c>   1</c><c>Co</c><c>     58.93300000</c><c>      9.00000000</c><c>  PAW_PBE Co 02Aug2007                  </c></rc>
   </set>
  </array>
 </atominfo>
 <structure name="initialpos" >
  <crystal>
   <varray name="basis" >
    <v>       0.00000000       1.71918221       1.71918221 </v>
    <v>       1.71918221       0.00000000       1.71918221 </v>
    <v>       1.71918221       1.71918221       0.00000000 </v>
   </varray>
   <i name="volume">     10.16238672 </i>
   <varray name="rec_basis" >
    <v>      -0.29083596       0.29083596       0.29083596 </v>
    <v>       0.29083596      -0.29083596       0.29083596 </v>
    <v>       0.29083596       0.29083596      -0.29083596 </v>
   </varray>
  </crystal>
  <varray name="positions" >
   <v>       0.00000000       0.00000000       0.00000000 </v>
  </varray>
 </structure>
 <calculation>
  <scstep>
   <time name="dav">    0.27    0.27</time>
   <time name="total">    0.28    0.28</time>
   <energy>
    <i name="alphaZ">     41.68084925 </i>
    <i name="ewald">   -777.65231406 </i>
    <i name="hartreedc">   -143.05580265 </i>
    <i name="XCdc">     18.03319471 </i>
    <i name="pawpsdc">    719.99081943 </i>
    <i name="pawaedc">   -772.94345096 </i>
    <i name="eentropy">     -0.00084343 </i>
    <i name="bandstr">    122.90164772 </i>
    <i name="atom">    813.35773410 </i>
    <i name="e_fr_energy">     22.31183411 </i>
    <i name="e_wo_entrp">     22.31267754 </i>
    <i name="e_0_energy">     22.31225582 </i>
   </energy>
  </scstep>
  <scstep>
   <time name="dav">    0.26    0.26</time>
   <time name="total">    0.26    0.26</time>
   <energy>
    <i name="e_fr_energy">     -6.94340398 </i>
    <i name="e_wo_entrp">     -6.94237695 </i>
    <i name="e_0_energy">     -6.94289047 </i>
   </energy>
  </scstep>
  <scstep>
   <time name="dav">    0.26    0.27</time>
   <time name="total">    0.26    0.27</time>
   <energy>
    <i name="e_fr_energy">     -7.70053653 </i>
    <i name="e_wo_entrp">     -7.69954333 </i>
    <i name="e_0_energy">     -7.70003993 </i>
   </energy>
  </scstep>
  <scstep>
   <time name="dav">    0.28    0.28</time>
   <time name="total">    0.28    0.28</time>
   <energy>
    <i name="e_fr_energy">     -7.70925611 </i>
    <i name="e_wo_entrp">     -7.70825488 </i>
    <i name="e_0_energy">     -7.70875550 </i>
   </energy>
  </scstep>
  <scstep>
   <time name="dav">    0.30    0.30</time>
   <time name="total">    0.31    0.32</time>
   <energy>
    <i name="e_fr_energy">     -7.70946100 </i>
    <i name="e_wo_entrp">     -7.70845954 </i>
    <i name="e_0_energy">     -7.70896027 </i>
   </energy>
  </scstep>
  <scstep>
   <time name="dav">    0.29    0.29</time>
   <time name="total">    0.31    0.31</time>
   <energy>
    <i name="e_fr_energy">     -7.12523626 </i>
    <i name="e_wo_entrp">     -7.12358399 </i>
    <i name="e_0_energy">     -7.12441012 </i>
   </energy>
  </scstep>
  <scstep>
   <time name="dav">    0.28    0.28</time>
   <time name="total">    0.30    0.30</time>
   <energy>
    <i name="e_fr_energy">     -7.00704245 </i>
    <i name="e_wo_entrp">     -7.00596980 </i>
    <i name="e_0_energy">     -7.00650612 </i>
   </energy>
  </scstep>
  <scstep>
   <time name="dav">    0.30    0.30</time>
   <time name="total">    0.32    0.32</time>
   <energy>
    <i name="e_fr_energy">     -6.99391667 </i>
    <i name="e_wo_entrp">     -6.99283515 </i>
    <i name="e_0_energy">     -6.99337591 </i>
   </energy>
  </scstep>
  <scstep>
   <time name="dav">    0.34    0.34</time>
   <time name="total">    0.36    0.36</time>
   <energy>
    <i name="e_fr_energy">     -6.98842091 </i>
    <i name="e_wo_entrp">     -6.98732672 </i>
    <i name="e_0_energy">     -6.98787381 </i>
   </energy>
  </scstep>
  <scstep>
   <time name="dav">    0.30    0.31</time>
   <time name="total">    0.32    0.32</time>
   <energy>
    <i name="e_fr_energy">     -6.98790740 </i>
    <i name="e_wo_entrp">     -6.98680927 </i>
    <i name="e_0_energy">     -6.98735833 </i>
   </energy>
  </scstep>
  <scstep>
   <time name="dav">    0.27    0.27</time>
   <time name="total">    0.29    0.29</time>
   <energy>
    <i name="e_fr_energy">     -6.98791258 </i>
    <i name="e_wo_entrp">     -6.98681461 </i>
    <i name="e_0_energy">     -6.98736360 </i>
   </energy>
  </scstep>
  <scstep>
   <time name="dav">    0.27    0.27</time>
   <time name="total">    0.28    0.28</time>
   <energy>
    <i name="alphaZ">     41.68084925 </i>
    <i name="ewald">   -777.65231406 </i>
    <i name="hartreedc">   -125.45429746 </i>
    <i name="XCdc">     16.59242852 </i>
    <i name="pawpsdc">    942.12949445 </i>
    <i name="pawaedc">   -995.46656825 </i>
    <i name="eentropy">     -0.00109874 </i>
    <i name="bandstr">     77.82585921 </i>
    <i name="atom">    813.35773410 </i>
    <i name="e_fr_energy">     -6.98791298 </i>
    <i name="e_wo_entrp">     -6.98681424 </i>
    <i name="e_0_energy">     -6.98736361 </i>
   </energy>
  </scstep>
  <structure>
   <crystal>
    <varray name="basis" >
     <v>       0.00000000       1.71918221       1.71918221 </v>
     <v>       1.71918221       0.00000000       1.71918221 </v>
     <v>       1.71918221       1.71918221       0.00000000 </v>
    </varray>
    <i name="volume">     10.16238672 </i>
    <varray name="rec_basis" >
     <v>      -0.29083596       0.29083596       0.29083596 </v>
     <v>       0.29083596      -0.29083596       0.29083596 </v>
     <v>       0.29083596       0.29083596      -0.29083596 </v>
    </varray>
   </crystal>
   <varray name="positions" >
    <v>       0.00000000       0.00000000       0.00000000 </v>
   </varray>
  </structure>
  <varray name="forces" >
   <v>       0.00000000       0.00000000       0.00000000 </v>
  </varray>
  <varray name="stress" >
   <v>     154.83914954      -0.00000000      -0.00000000 </v>
   <v>       0.00000000     154.83914954       0.00000000 </v>
   <v>      -0.00000000      -0.00000000     154.83914954 </v>
  </varray>
  <energy>
   <i name="e_fr_energy">     -6.98791298 </i>
   <i name="e_wo_entrp">     -6.98681424 </i>
   <i name="e_0_energy">     -6.98736361 </i>
  </energy>
  <time name="totalsc">    3.69    3.75</time>
  <eigenvalues>
   <array>
    <dimension dim="1">band</dimension>
    <dimension dim="2">kpoint</dimension>
    <dimension dim="3">spin</dimension>
    <field>eigene</field>
    <field>occ</field>
    <set>
     <set comment="spin 1">
      <set comment="kpoint 1">
       <r>    2.0721    1.0000 </r>
       <r>    8.4466    1.0000 </r>
       <r>    8.5369    1.0000 </r>
       <r>    8.5369    1.0000 </r>
       <r>    9.6874    1.0000 </r>
       <r>    9.6874    1.0000 </r>
       <r>   34.6106    0.0000 </r>
       <r>   37.9433    0.0000 </r>
       <r>   39.5231    0.0000 </r>
       <r>   39.5231    0.0000 </r>
       <r>   43.6726    0.0000 </r>
       <r>   43.6728    0.0000 </r>
      </set>
      <set comment="kpoint 2">
       <r>    2.9114    1.0000 </r>
       <r>    8.2085    1.0000 </r>
       <r>    8.7124    1.0000 </r>
       <r>    8.7170    1.0000 </r>
       <r>    9.5130    1.0000 </r>
       <r>    9.7849    1.0000 </r>
       <r>   32.0107    0.0000 </r>
       <r>   34.6870    0.0000 </r>
       <r>   38.3025    0.0000 </r>
       <r>   40.5758    0.0000 </r>
       <r>   42.3512    0.0000 </r>
       <r>   43.7649    0.0000 </r>
      </set>
      <set comment="kpoint 3">
       <r>    4.6494    1.0000 </r>
       <r>    8.0843    1.0000 </r>
       <r>    8.6534    1.0000 </r>
       <r>    8.7365    1.0000 </r>
       <r>    9.7428    1.0000 </r>
       <r>   10.2246    1.0000 </r>
       <r>   25.8383    0.0000 </r>
       <r>   33.5332    0.0000 </r>
       <r>   37.2529    0.0000 </r>
       <r>   40.2857    0.0000 </r>
       <r>   41.4552    0.0000 </r>
       <r>   42.3522    0.0000 </r>
      </set>
      <set comment="kpoint 4">
       <r>    5.7673    1.0000 </r>
       <r>    8.3990    1.0000 </r>
       <r>    8.5098    1.0000 </r>
       <r>    9.2308    1.0000 </r>
       <r>   10.3564    1.0000 </r>
       <r>   11.0653    1.0000 </r>
       <r>   20.3584    0.0000 </r>
       <r>   32.9221    0.0000 </r>
       <r>   36.0599    0.0000 </r>
       <r>   38.1009    0.0000 </r>
       <r>   40.5639    0.0000 </r>
       <r>   42.1479    0.0000 </r>
      </set>
      <set comment="kpoint 5">
       <r>    5.8799    1.0000 </r>
       <r>    8.2930    1.0000 </r>
       <r>    8.4510    1.0000 </r>
       <r>    9.8609    1.0000 </r>
       <r>   10.6705    1.0000 </r>
       <r>   11.8289    0.0000 </r>
       <r>   18.1755    0.0000 </r>
       <r>   32.9290    0.0000 </r>
       <r>   36.1515    0.0000 </r>
       <r>   36.3179    0.0000 </r>
       <r>   41.4139    0.0000 </r>
       <r>   41.4223    0.0000 </r>
      </set>
      <set comment="kpoint 6">
       <r>    5.5627    1.0000 </r>
       <r>    8.4391    1.0000 </r>
       <r>    8.6081    1.0000 </r>
       <r>    8.6685    1.0000 </r>
       <r>   10.4423    1.0000 </r>
       <r>   10.4933    1.0000 </r>
       <r>   22.0156    0.0000 </r>
       <r>   33.6729    0.0000 </r>
       <r>   35.5969    0.0000 </r>
       <r>   38.1532    0.0000 </r>
       <r>   41.1855    0.0000 </r>
       <r>   43.1604    0.0000 </r>
      </set>
      <set comment="kpoint 7">
       <r>    4.0308    1.0000 </r>
       <r>    8.0315    1.0000 </r>
       <r>    8.7238    1.0000 </r>
       <r>    8.7885    1.0000 </r>
       <r>    9.6653    1.0000 </r>
       <r>    9.9573    1.0000 </r>
       <r>   27.8915    0.0000 </r>
       <r>   34.8310    0.0000 </r>
       <r>   36.1508    0.0000 </r>
       <r>   40.6983    0.0000 </r>
       <r>   41.0529    0.0000 </r>
       <r>   45.3854    0.0000 </r>
      </set>
      <set comment="kpoint 8">
       <r>    2.4994    1.0000 </r>
       <r>    8.2867    1.0000 </r>
       <r>    8.6581    1.0000 </r>
       <r>    8.6629    1.0000 </r>
       <r>    9.5357    1.0000 </r>
       <r>    9.7610    1.0000 </r>
       <r>   33.7191    0.0000 </r>
       <r>   36.2626    0.0000 </r>
       <r>   37.5363    0.0000 </r>
       <r>   39.3006    0.0000 </r>
       <r>   43.5798    0.0000 </r>
       <r>   45.3427    0.0000 </r>
      </set>
      <set comment="kpoint 9">
       <r>    3.3105    1.0000 </r>
       <r>    7.9787    1.0000 </r>
       <r>    8.8752    1.0000 </r>
       <r>    8.9084    1.0000 </r>
       <r>    9.3280    1.0000 </r>
       <r>    9.8981    1.0000 </r>
       <r>   32.3350    0.0000 </r>
       <r>   34.7554    0.0000 </r>
       <r>   35.1970    0.0000 </r>
       <r>   37.2928    0.0000 </r>
       <r>   43.6498    0.0000 </r>
       <r>   45.8998    0.0000 </r>
      </set>
      <set comment="kpoint 10">
       <r>    4.7150    1.0000 </r>
       <r>    7.6443    1.0000 </r>
       <r>    8.6382    1.0000 </r>
       <r>    9.1962    1.0000 </r>
       <r>    9.6211    1.0000 </r>
       <r>   10.3133    1.0000 </r>
       <r>   28.4544    0.0000 </r>
       <r>   31.1057    0.0000 </r>
       <r>   34.9433    0.0000 </r>
       <r>   37.0395    0.0000 </r>
       <r>   42.4122    0.0000 </r>
       <r>   45.6036    0.0000 </r>
      </set>
      <set comment="kpoint 11">
       <r>    6.0976    1.0000 </r>
       <r>    7.7789    1.0000 </r>
       <r>    8.2986    1.0000 </r>
       <r>    9.0245    1.0000 </r>
       <r>   10.4032    1.0000 </r>
       <r>   11.5936    0.0000 </r>
       <r>   22.5230    0.0000 </r>
       <r>   30.4324    0.0000 </r>
       <r>   32.5952    0.0000 </r>
       <r>   36.7452    0.0000 </r>
       <r>   43.6162    0.0000 </r>
       <r>   46.2216    0.0000 </r>
      </set>
      <set comment="kpoint 12">
       <r>    6.3885    1.0000 </r>
       <r>    7.8166    1.0000 </r>
       <r>    8.7731    1.0000 </r>
       <r>    8.8548    1.0000 </r>
       <r>   10.6282    1.0000 </r>
       <r>   13.8075    0.0000 </r>
       <r>   18.3490    0.0000 </r>
       <r>   29.7959    0.0000 </r>
       <r>   31.9207    0.0000 </r>
       <r>   36.4646    0.0000 </r>
       <r>   42.7632    0.0000 </r>
       <r>   46.4660    0.0000 </r>
      </set>
      <set comment="kpoint 13">
       <r>    6.3334    1.0000 </r>
       <r>    7.9805    1.0000 </r>
       <r>    8.3690    1.0000 </r>
       <r>    8.9009    1.0000 </r>
       <r>   10.2707    1.0000 </r>
       <r>   12.4902    0.0000 </r>
       <r>   20.8217    0.0000 </r>
       <r>   29.0255    0.0000 </r>
       <r>   33.4505    0.0000 </r>
       <r>   37.6153    0.0000 </r>
       <r>   42.0989    0.0000 </r>
       <r>   45.8449    0.0000 </r>
      </set>
      <set comment="kpoint 14">
       <r>    5.3164    1.0000 </r>
       <r>    7.7277    1.0000 </r>
       <r>    8.4426    1.0000 </r>
       <r>    9.1251    1.0000 </r>
       <r>    9.5440    1.0000 </r>
       <r>   10.8594    1.0000 </r>
       <r>   26.4131    0.0000 </r>
       <r>   29.2011    0.0000 </r>
       <r>   35.9913    0.0000 </r>
       <r>   39.5920    0.0000 </r>
       <r>   41.5222    0.0000 </r>
       <r>   44.7962    0.0000 </r>
      </set>
      <set comment="kpoint 15">
       <r>    3.6911    1.0000 </r>
       <r>    7.9762    1.0000 </r>
       <r>    8.7625    1.0000 </r>
       <r>    8.9117    1.0000 </r>
       <r>    9.4139    1.0000 </r>
       <r>    9.9930    1.0000 </r>
       <r>   30.1780    0.0000 </r>
       <r>   32.8552    0.0000 </r>
       <r>   37.3630    0.0000 </r>
       <r>   39.2060    0.0000 </r>
       <r>   43.0692    0.0000 </r>
       <r>   44.5309    0.0000 </r>
      </set>
      <set comment="kpoint 16">
       <r>    5.3823    1.0000 </r>
       <r>    7.1818    1.0000 </r>
       <r>    8.9985    1.0000 </r>
       <r>    9.6681    1.0000 </r>
       <r>   10.0353    1.0000 </r>
       <r>   10.2870    1.0000 </r>
       <r>   29.0397    0.0000 </r>
       <r>   30.7843    0.0000 </r>
       <r>   30.8288    0.0000 </r>
       <r>   33.7280    0.0000 </r>
       <r>   38.9070    0.0000 </r>
       <r>   48.2465    0.0000 </r>
      </set>
      <set comment="kpoint 17">
       <r>    6.1044    1.0000 </r>
       <r>    6.9558    1.0000 </r>
       <r>    8.9287    1.0000 </r>
       <r>    9.9420    1.0000 </r>
       <r>   10.4568    1.0000 </r>
       <r>   11.8624    0.0000 </r>
       <r>   25.5290    0.0000 </r>
       <r>   27.5118    0.0000 </r>
       <r>   28.6417    0.0000 </r>
       <r>   35.0334    0.0000 </r>
       <r>   39.9595    0.0000 </r>
       <r>   48.0803    0.0000 </r>
      </set>
      <set comment="kpoint 18">
       <r>    6.6046    1.0000 </r>
       <r>    7.1066    1.0000 </r>
       <r>    8.5914    1.0000 </r>
       <r>    9.6319    1.0000 </r>
       <r>   10.6979    1.0000 </r>
       <r>   15.1715    0.0000 </r>
       <r>   20.2921    0.0000 </r>
       <r>   25.3309    0.0000 </r>
       <r>   28.7944    0.0000 </r>
       <r>   35.5095    0.0000 </r>
       <r>   44.8411    0.0000 </r>
       <r>   47.2792    0.0000 </r>
      </set>
      <set comment="kpoint 19">
       <r>    7.1365    1.0000 </r>
       <r>    7.2934    1.0000 </r>
       <r>    8.0889    1.0000 </r>
       <r>    9.4129    1.0000 </r>
       <r>   10.3446    1.0000 </r>
       <r>   15.5138    0.0000 </r>
       <r>   20.1294    0.0000 </r>
       <r>   23.9926    0.0000 </r>
       <r>   30.5812    0.0000 </r>
       <r>   36.3857    0.0000 </r>
       <r>   45.3234    0.0000 </r>
       <r>   47.8005    0.0000 </r>
      </set>
      <set comment="kpoint 20">
       <r>    6.6628    1.0000 </r>
       <r>    7.7459    1.0000 </r>
       <r>    7.9176    1.0000 </r>
       <r>    9.2160    1.0000 </r>
       <r>    9.9289    1.0000 </r>
       <r>   12.6114    0.0000 </r>
       <r>   23.0612    0.0000 </r>
       <r>   26.1461    0.0000 </r>
       <r>   33.2084    0.0000 </r>
       <r>   38.2008    0.0000 </r>
       <r>   42.4841    0.0000 </r>
       <r>   47.3043    0.0000 </r>
      </set>
      <set comment="kpoint 21">
       <r>    5.4093    1.0000 </r>
       <r>    8.0366    1.0000 </r>
       <r>    8.4617    1.0000 </r>
       <r>    8.8098    1.0000 </r>
       <r>    9.9968    1.0000 </r>
       <r>   10.7127    1.0000 </r>
       <r>   24.0510    0.0000 </r>
       <r>   31.9570    0.0000 </r>
       <r>   35.6102    0.0000 </r>
       <r>   38.5121    0.0000 </r>
       <r>   42.1688    0.0000 </r>
       <r>   43.7894    0.0000 </r>
      </set>
      <set comment="kpoint 22">
       <r>    5.8377    1.0000 </r>
       <r>    6.5514    1.0000 </r>
       <r>   10.3066    1.0000 </r>
       <r>   10.3748    1.0000 </r>
       <r>   10.7240    1.0000 </r>
       <r>   12.4982    0.0000 </r>
       <r>   24.2200    0.0000 </r>
       <r>   26.6382    0.0000 </r>
       <r>   27.8289    0.0000 </r>
       <r>   32.8826    0.0000 </r>
       <r>   37.3565    0.0000 </r>
       <r>   48.2811    0.0000 </r>
      </set>
      <set comment="kpoint 23">
       <r>    5.9868    1.0000 </r>
       <r>    6.5804    1.0000 </r>
       <r>    9.8428    1.0000 </r>
       <r>   10.3180    1.0000 </r>
       <r>   10.8762    1.0000 </r>
       <r>   15.1458    0.0000 </r>
       <r>   22.0348    0.0000 </r>
       <r>   24.1535    0.0000 </r>
       <r>   26.6708    0.0000 </r>
       <r>   34.3961    0.0000 </r>
       <r>   39.2648    0.0000 </r>
       <r>   48.3026    0.0000 </r>
      </set>
      <set comment="kpoint 24">
       <r>    6.5420    1.0000 </r>
       <r>    7.0053    1.0000 </r>
       <r>    8.7791    1.0000 </r>
       <r>    9.8321    1.0000 </r>
       <r>   10.6828    1.0000 </r>
       <r>   17.2754    0.0000 </r>
       <r>   19.5770    0.0000 </r>
       <r>   22.8338    0.0000 </r>
       <r>   28.2905    0.0000 </r>
       <r>   35.3477    0.0000 </r>
       <r>   44.8293    0.0000 </r>
       <r>   48.1793    0.0000 </r>
      </set>
      <set comment="kpoint 25">
       <r>    6.7886    1.0000 </r>
       <r>    7.4820    1.0000 </r>
       <r>    8.4180    1.0000 </r>
       <r>    9.1434    1.0000 </r>
       <r>   10.5166    1.0000 </r>
       <r>   15.1231    0.0000 </r>
       <r>   18.5835    0.0000 </r>
       <r>   26.7841    0.0000 </r>
       <r>   30.9672    0.0000 </r>
       <r>   36.3842    0.0000 </r>
       <r>   44.0923    0.0000 </r>
       <r>   47.8392    0.0000 </r>
      </set>
      <set comment="kpoint 26">
       <r>    6.0400    1.0000 </r>
       <r>    8.1653    1.0000 </r>
       <r>    8.6055    1.0000 </r>
       <r>    9.1383    1.0000 </r>
       <r>   10.5656    1.0000 </r>
       <r>   12.2062    0.0000 </r>
       <r>   19.1009    0.0000 </r>
       <r>   31.7376    0.0000 </r>
       <r>   34.2110    0.0000 </r>
       <r>   36.8242    0.0000 </r>
       <r>   41.6823    0.0000 </r>
       <r>   43.8549    0.0000 </r>
      </set>
      <set comment="kpoint 27">
       <r>    5.7578    1.0000 </r>
       <r>    6.4090    1.0000 </r>
       <r>   10.5087    1.0000 </r>
       <r>   10.6273    1.0000 </r>
       <r>   10.8902    1.0000 </r>
       <r>   14.0563    0.0000 </r>
       <r>   21.9761    0.0000 </r>
       <r>   26.0033    0.0000 </r>
       <r>   27.1556    0.0000 </r>
       <r>   32.7520    0.0000 </r>
       <r>   37.1690    0.0000 </r>
       <r>   48.3131    0.0000 </r>
      </set>
      <set comment="kpoint 28">
       <r>    6.0805    1.0000 </r>
       <r>    6.7102    1.0000 </r>
       <r>    9.4737    1.0000 </r>
       <r>   10.2293    1.0000 </r>
       <r>   10.7113    1.0000 </r>
       <r>   13.5076    0.0000 </r>
       <r>   24.1364    0.0000 </r>
       <r>   24.9591    0.0000 </r>
       <r>   27.2775    0.0000 </r>
       <r>   34.5968    0.0000 </r>
       <r>   39.4655    0.0000 </r>
       <r>   48.2502    0.0000 </r>
      </set>
      <set comment="kpoint 29">
       <r>    6.5117    1.0000 </r>
       <r>    7.3885    1.0000 </r>
       <r>    8.3702    1.0000 </r>
       <r>    9.3264    1.0000 </r>
       <r>   10.6331    1.0000 </r>
       <r>   13.1322    0.0000 </r>
       <r>   21.2603    0.0000 </r>
       <r>   28.3800    0.0000 </r>
       <r>   29.9358    0.0000 </r>
       <r>   35.9107    0.0000 </r>
       <r>   44.5678    0.0000 </r>
       <r>   46.5288    0.0000 </r>
      </set>
      <set comment="kpoint 30">
       <r>    5.8374    1.0000 </r>
       <r>    6.8200    1.0000 </r>
       <r>    9.6580    1.0000 </r>
       <r>   10.0768    1.0000 </r>
       <r>   10.5021    1.0000 </r>
       <r>   10.9438    1.0000 </r>
       <r>   27.1271    0.0000 </r>
       <r>   27.9773    0.0000 </r>
       <r>   29.0940    0.0000 </r>
       <r>   33.1733    0.0000 </r>
       <r>   37.8552    0.0000 </r>
       <r>   48.2887    0.0000 </r>
      </set>
      <set comment="kpoint 31">
       <r>    5.6743    1.0000 </r>
       <r>    7.2843    1.0000 </r>
       <r>    8.5705    1.0000 </r>
       <r>    9.5549    1.0000 </r>
       <r>   10.0768    1.0000 </r>
       <r>   10.8235    1.0000 </r>
       <r>   26.8910    0.0000 </r>
       <r>   29.4318    0.0000 </r>
       <r>   31.6169    0.0000 </r>
       <r>   35.7889    0.0000 </r>
       <r>   40.8967    0.0000 </r>
       <r>   47.4467    0.0000 </r>
      </set>
      <set comment="kpoint 32">
       <r>    4.3807    1.0000 </r>
       <r>    7.5884    1.0000 </r>
       <r>    8.8864    1.0000 </r>
       <r>    9.2554    1.0000 </r>
       <r>    9.4893    1.0000 </r>
       <r>   10.0806    1.0000 </r>
       <r>   30.7116    0.0000 </r>
       <r>   32.9060    0.0000 </r>
       <r>   33.3026    0.0000 </r>
       <r>   35.0269    0.0000 </r>
       <r>   40.8351    0.0000 </r>
       <r>   48.1903    0.0000 </r>
      </set>
      <set comment="kpoint 33">
       <r>    3.3008    1.0000 </r>
       <r>    8.1774    1.0000 </r>
       <r>    8.7216    1.0000 </r>
       <r>    8.7216    1.0000 </r>
       <r>    9.6870    1.0000 </r>
       <r>    9.6870    1.0000 </r>
       <r>   29.8849    0.0000 </r>
       <r>   35.7793    0.0000 </r>
       <r>   38.5377    0.0000 </r>
       <r>   38.5377    0.0000 </r>
       <r>   43.9529    0.0000 </r>
       <r>   44.4606    0.0000 </r>
      </set>
      <set comment="kpoint 34">
       <r>    4.4022    1.0000 </r>
       <r>    7.9043    1.0000 </r>
       <r>    8.6617    1.0000 </r>
       <r>    8.9804    1.0000 </r>
       <r>    9.3644    1.0000 </r>
       <r>   10.3394    1.0000 </r>
       <r>   28.1851    0.0000 </r>
       <r>   30.9207    0.0000 </r>
       <r>   38.6365    0.0000 </r>
       <r>   40.6396    0.0000 </r>
       <r>   40.9242    0.0000 </r>
       <r>   43.1995    0.0000 </r>
      </set>
      <set comment="kpoint 35">
       <r>    6.0342    1.0000 </r>
       <r>    7.7832    1.0000 </r>
       <r>    8.2484    1.0000 </r>
       <r>    9.0498    1.0000 </r>
       <r>    9.6323    1.0000 </r>
       <r>   11.5875    0.0000 </r>
       <r>   24.6166    0.0000 </r>
       <r>   27.5293    0.0000 </r>
       <r>   36.6509    0.0000 </r>
       <r>   37.4825    0.0000 </r>
       <r>   42.6322    0.0000 </r>
       <r>   44.7093    0.0000 </r>
      </set>
      <set comment="kpoint 36">
       <r>    6.5526    1.0000 </r>
       <r>    7.8081    1.0000 </r>
       <r>    8.5219    1.0000 </r>
       <r>    8.9202    1.0000 </r>
       <r>   10.3401    1.0000 </r>
       <r>   13.6685    0.0000 </r>
       <r>   19.4691    0.0000 </r>
       <r>   27.7628    0.0000 </r>
       <r>   34.2790    0.0000 </r>
       <r>   35.0003    0.0000 </r>
       <r>   44.8902    0.0000 </r>
       <r>   44.9352    0.0000 </r>
      </set>
      <set comment="kpoint 37">
       <r>    6.4389    1.0000 </r>
       <r>    7.6503    1.0000 </r>
       <r>    8.5697    1.0000 </r>
       <r>    9.0040    1.0000 </r>
       <r>   10.7073    1.0000 </r>
       <r>   13.4849    0.0000 </r>
       <r>   19.4235    0.0000 </r>
       <r>   29.1026    0.0000 </r>
       <r>   32.2885    0.0000 </r>
       <r>   34.6131    0.0000 </r>
       <r>   45.8825    0.0000 </r>
       <r>   46.1144    0.0000 </r>
      </set>
      <set comment="kpoint 38">
       <r>    5.8474    1.0000 </r>
       <r>    7.4497    1.0000 </r>
       <r>    8.4517    1.0000 </r>
       <r>    9.2122    1.0000 </r>
       <r>   10.5136    1.0000 </r>
       <r>   10.9228    1.0000 </r>
       <r>   24.5606    0.0000 </r>
       <r>   31.2119    0.0000 </r>
       <r>   31.8570    0.0000 </r>
       <r>   35.1207    0.0000 </r>
       <r>   43.2666    0.0000 </r>
       <r>   47.0554    0.0000 </r>
      </set>
      <set comment="kpoint 39">
       <r>    4.9735    1.0000 </r>
       <r>    7.7748    1.0000 </r>
       <r>    8.5646    1.0000 </r>
       <r>    8.9525    1.0000 </r>
       <r>   10.0492    1.0000 </r>
       <r>   10.2519    1.0000 </r>
       <r>   26.1148    0.0000 </r>
       <r>   33.4728    0.0000 </r>
       <r>   33.8701    0.0000 </r>
       <r>   37.3380    0.0000 </r>
       <r>   43.7356    0.0000 </r>
       <r>   44.9856    0.0000 </r>
      </set>
      <set comment="kpoint 40">
       <r>    6.1676    1.0000 </r>
       <r>    7.4836    1.0000 </r>
       <r>    8.1809    1.0000 </r>
       <r>    9.4136    1.0000 </r>
       <r>    9.9447    1.0000 </r>
       <r>   11.6420    0.0000 </r>
       <r>   24.8676    0.0000 </r>
       <r>   27.7079    0.0000 </r>
       <r>   32.2862    0.0000 </r>
       <r>   38.6329    0.0000 </r>
       <r>   42.0154    0.0000 </r>
       <r>   45.5222    0.0000 </r>
      </set>
      <set comment="kpoint 41">
       <r>    7.0181    1.0000 </r>
       <r>    7.4755    1.0000 </r>
       <r>    7.8184    1.0000 </r>
       <r>    9.4862    1.0000 </r>
       <r>   10.3054    1.0000 </r>
       <r>   14.1271    0.0000 </r>
       <r>   21.7611    0.0000 </r>
       <r>   25.0683    0.0000 </r>
       <r>   29.4987    0.0000 </r>
       <r>   39.5624    0.0000 </r>
       <r>   41.8894    0.0000 </r>
       <r>   47.1052    0.0000 </r>
      </set>
      <set comment="kpoint 42">
       <r>    6.9812    1.0000 </r>
       <r>    7.2401    1.0000 </r>
       <r>    8.1953    1.0000 </r>
       <r>    9.4306    1.0000 </r>
       <r>   10.6243    1.0000 </r>
       <r>   16.1231    0.0000 </r>
       <r>   18.8986    0.0000 </r>
       <r>   26.0103    0.0000 </r>
       <r>   27.6919    0.0000 </r>
       <r>   38.3454    0.0000 </r>
       <r>   43.3420    0.0000 </r>
       <r>   47.5814    0.0000 </r>
      </set>
      <set comment="kpoint 43">
       <r>    6.5572    1.0000 </r>
       <r>    7.2201    1.0000 </r>
       <r>    8.2464    1.0000 </r>
       <r>    9.7454    1.0000 </r>
       <r>   10.3470    1.0000 </r>
       <r>   12.9372    0.0000 </r>
       <r>   23.5716    0.0000 </r>
       <r>   26.4283    0.0000 </r>
       <r>   28.7042    0.0000 </r>
       <r>   37.8849    0.0000 </r>
       <r>   42.2218    0.0000 </r>
       <r>   46.0978    0.0000 </r>
      </set>
      <set comment="kpoint 44">
       <r>    6.2709    1.0000 </r>
       <r>    7.1099    1.0000 </r>
       <r>    8.7010    1.0000 </r>
       <r>    9.5383    1.0000 </r>
       <r>   10.6964    1.0000 </r>
       <r>   12.3192    0.0000 </r>
       <r>   23.2499    0.0000 </r>
       <r>   28.0233    0.0000 </r>
       <r>   30.2224    0.0000 </r>
       <r>   34.2447    0.0000 </r>
       <r>   42.4263    0.0000 </r>
       <r>   48.0363    0.0000 </r>
      </set>
      <set comment="kpoint 45">
       <r>    6.4897    1.0000 </r>
       <r>    7.0204    1.0000 </r>
       <r>    8.6185    1.0000 </r>
       <r>    9.9447    1.0000 </r>
       <r>   10.6693    1.0000 </r>
       <r>   14.7777    0.0000 </r>
       <r>   22.5738    0.0000 </r>
       <r>   24.8036    0.0000 </r>
       <r>   26.1302    0.0000 </r>
       <r>   37.3956    0.0000 </r>
       <r>   42.2800    0.0000 </r>
       <r>   47.0581    0.0000 </r>
      </set>
      <set comment="kpoint 46">
       <r>    6.7022    1.0000 </r>
       <r>    7.4190    1.0000 </r>
       <r>    8.1006    1.0000 </r>
       <r>    9.6705    1.0000 </r>
       <r>   10.8703    1.0000 </r>
       <r>   18.3203    0.0000 </r>
       <r>   20.1680    0.0000 </r>
       <r>   22.7895    0.0000 </r>
       <r>   24.4531    0.0000 </r>
       <r>   40.4458    0.0000 </r>
       <r>   44.0136    0.0000 </r>
       <r>   45.9254    0.0000 </r>
      </set>
      <set comment="kpoint 47">
       <r>    6.8825    1.0000 </r>
       <r>    7.4244    1.0000 </r>
       <r>    7.9377    1.0000 </r>
       <r>    9.6423    1.0000 </r>
       <r>   10.6504    1.0000 </r>
       <r>   16.1472    0.0000 </r>
       <r>   20.7759    0.0000 </r>
       <r>   24.2239    0.0000 </r>
       <r>   26.1781    0.0000 </r>
       <r>   40.4440    0.0000 </r>
       <r>   42.3124    0.0000 </r>
       <r>   46.7008    0.0000 </r>
      </set>
      <set comment="kpoint 48">
       <r>    6.1911    1.0000 </r>
       <r>    6.7299    1.0000 </r>
       <r>    9.4474    1.0000 </r>
       <r>   10.1134    1.0000 </r>
       <r>   10.7602    1.0000 </r>
       <r>   15.9933    0.0000 </r>
       <r>   21.3544    0.0000 </r>
       <r>   22.7064    0.0000 </r>
       <r>   28.4582    0.0000 </r>
       <r>   33.7638    0.0000 </r>
       <r>   41.7049    0.0000 </r>
       <r>   48.3073    0.0000 </r>
      </set>
      <set comment="kpoint 49">
       <r>    6.3661    1.0000 </r>
       <r>    6.9202    1.0000 </r>
       <r>    8.9236    1.0000 </r>
       <r>    9.9766    1.0000 </r>
       <r>   10.8717    1.0000 </r>
       <r>   16.6584    0.0000 </r>
       <r>   21.7533    0.0000 </r>
       <r>   22.7206    0.0000 </r>
       <r>   25.4409    0.0000 </r>
       <r>   37.1565    0.0000 </r>
       <r>   42.3026    0.0000 </r>
       <r>   48.0044    0.0000 </r>
      </set>
      <set comment="kpoint 50">
       <r>    6.2761    1.0000 </r>
       <r>    6.8543    1.0000 </r>
       <r>    9.1487    1.0000 </r>
       <r>    9.8718    1.0000 </r>
       <r>   10.7721    1.0000 </r>
       <r>   14.1782    0.0000 </r>
       <r>   22.2196    0.0000 </r>
       <r>   24.8677    0.0000 </r>
       <r>   29.0625    0.0000 </r>
       <r>   33.8957    0.0000 </r>
       <r>   41.9247    0.0000 </r>
       <r>   48.2143    0.0000 </r>
      </set>
      <set comment="kpoint 51">
       <r>    5.0729    1.0000 </r>
       <r>    8.4239    1.0000 </r>
       <r>    8.6042    1.0000 </r>
       <r>    8.6042    1.0000 </r>
       <r>   10.1233    1.0000 </r>
       <r>   10.1233    1.0000 </r>
       <r>   23.7717    0.0000 </r>
       <r>   34.5599    0.0000 </r>
       <r>   37.8209    0.0000 </r>
       <r>   37.8209    0.0000 </r>
       <r>   42.1075    0.0000 </r>
       <r>   42.1075    0.0000 </r>
      </set>
      <set comment="kpoint 52">
       <r>    5.8922    1.0000 </r>
       <r>    8.3024    1.0000 </r>
       <r>    8.3286    1.0000 </r>
       <r>    8.7441    1.0000 </r>
       <r>   10.0055    1.0000 </r>
       <r>   11.4175    0.0000 </r>
       <r>   22.2892    0.0000 </r>
       <r>   30.3817    0.0000 </r>
       <r>   36.1905    0.0000 </r>
       <r>   37.7556    0.0000 </r>
       <r>   42.4622    0.0000 </r>
       <r>   42.7318    0.0000 </r>
      </set>
      <set comment="kpoint 53">
       <r>    6.9762    1.0000 </r>
       <r>    7.6390    1.0000 </r>
       <r>    7.9851    1.0000 </r>
       <r>    9.2080    1.0000 </r>
       <r>   10.0736    1.0000 </r>
       <r>   13.8550    0.0000 </r>
       <r>   21.4741    0.0000 </r>
       <r>   24.8984    0.0000 </r>
       <r>   33.9000    0.0000 </r>
       <r>   35.0672    0.0000 </r>
       <r>   45.8007    0.0000 </r>
       <r>   46.6579    0.0000 </r>
      </set>
      <set comment="kpoint 54">
       <r>    6.8243    1.0000 </r>
       <r>    7.1731    1.0000 </r>
       <r>    8.4750    1.0000 </r>
       <r>    9.5988    1.0000 </r>
       <r>   10.4747    1.0000 </r>
       <r>   17.1165    0.0000 </r>
       <r>   18.8003    0.0000 </r>
       <r>   23.2618    0.0000 </r>
       <r>   30.8059    0.0000 </r>
       <r>   34.2317    0.0000 </r>
       <r>   47.3416    0.0000 </r>
       <r>   48.8161    0.0000 </r>
      </set>
      <set comment="kpoint 55">
       <r>    6.0329    1.0000 </r>
       <r>    8.0860    1.0000 </r>
       <r>    8.6488    1.0000 </r>
       <r>    8.7485    1.0000 </r>
       <r>   10.6477    1.0000 </r>
       <r>   11.6963    0.0000 </r>
       <r>   20.5630    0.0000 </r>
       <r>   31.9934    0.0000 </r>
       <r>   33.7335    0.0000 </r>
       <r>   35.6655    0.0000 </r>
       <r>   43.7448    0.0000 </r>
       <r>   44.5185    0.0000 </r>
      </set>
      <set comment="kpoint 56">
       <r>    6.7162    1.0000 </r>
       <r>    7.5490    1.0000 </r>
       <r>    8.2968    1.0000 </r>
       <r>    9.1685    1.0000 </r>
       <r>   10.5164    1.0000 </r>
       <r>   14.1135    0.0000 </r>
       <r>   19.6578    0.0000 </r>
       <r>   27.8692    0.0000 </r>
       <r>   29.9565    0.0000 </r>
       <r>   38.0975    0.0000 </r>
       <r>   42.3278    0.0000 </r>
       <r>   47.7217    0.0000 </r>
      </set>
      <set comment="kpoint 57">
       <r>    6.9034    1.0000 </r>
       <r>    7.3212    1.0000 </r>
       <r>    8.1131    1.0000 </r>
       <r>    9.5927    1.0000 </r>
       <r>   10.6525    1.0000 </r>
       <r>   17.5513    0.0000 </r>
       <r>   19.1677    0.0000 </r>
       <r>   23.3835    0.0000 </r>
       <r>   27.1573    0.0000 </r>
       <r>   38.4131    0.0000 </r>
       <r>   44.6564    0.0000 </r>
       <r>   47.4997    0.0000 </r>
      </set>
      <set comment="kpoint 58">
       <r>    6.7287    1.0000 </r>
       <r>    7.3035    1.0000 </r>
       <r>    8.5061    1.0000 </r>
       <r>    9.3243    1.0000 </r>
       <r>   10.6236    1.0000 </r>
       <r>   15.5654    0.0000 </r>
       <r>   18.6870    0.0000 </r>
       <r>   25.9136    0.0000 </r>
       <r>   31.3040    0.0000 </r>
       <r>   34.3097    0.0000 </r>
       <r>   47.4624    0.0000 </r>
       <r>   47.8006    0.0000 </r>
      </set>
      <set comment="kpoint 59">
       <r>    5.7518    1.0000 </r>
       <r>    8.4067    1.0000 </r>
       <r>    8.4067    1.0000 </r>
       <r>   10.3853    1.0000 </r>
       <r>   10.5936    1.0000 </r>
       <r>   10.5936    1.0000 </r>
       <r>   18.9516    0.0000 </r>
       <r>   33.5786    0.0000 </r>
       <r>   37.4744    0.0000 </r>
       <r>   37.4744    0.0000 </r>
       <r>   40.2899    0.0000 </r>
       <r>   40.2899    0.0000 </r>
      </set>
      <set comment="kpoint 60">
       <r>    6.1554    1.0000 </r>
       <r>    8.0660    1.0000 </r>
       <r>    8.6341    1.0000 </r>
       <r>    9.1727    1.0000 </r>
       <r>   10.5752    1.0000 </r>
       <r>   13.0254    0.0000 </r>
       <r>   18.2599    0.0000 </r>
       <r>   30.7905    0.0000 </r>
       <r>   35.0366    0.0000 </r>
       <r>   35.1315    0.0000 </r>
       <r>   43.0478    0.0000 </r>
       <r>   43.4713    0.0000 </r>
      </set>
     </set>
     <set comment="spin 2">
      <set comment="kpoint 1">
       <r>    2.0954    1.0000 </r>
       <r>    9.9770    1.0000 </r>
       <r>   10.0841    1.0000 </r>
       <r>   10.0841    1.0000 </r>
       <r>   11.5509    0.0000 </r>
       <r>   11.5509    0.0000 </r>
       <r>   34.3975    0.0000 </r>
       <r>   38.0547    0.0000 </r>
       <r>   39.7010    0.0000 </r>
       <r>   39.7010    0.0000 </r>
       <r>   43.9472    0.0000 </r>
       <r>   43.9478    0.0000 </r>
      </set>
      <set comment="kpoint 2">
       <r>    2.9426    1.0000 </r>
       <r>    9.6762    1.0000 </r>
       <r>   10.2771    1.0000 </r>
       <r>   10.2854    1.0000 </r>
       <r>   11.3426    0.0271 </r>
       <r>   11.6365    0.0000 </r>
       <r>   32.2102    0.0000 </r>
       <r>   34.7589    0.0000 </r>
       <r>   38.3851    0.0000 </r>
       <r>   40.7570    0.0000 </r>
       <r>   42.3678    0.0000 </r>
       <r>   44.0129    0.0000 </r>
      </set>
      <set comment="kpoint 3">
       <r>    4.7873    1.0000 </r>
       <r>    9.3348    1.0000 </r>
       <r>   10.2549    1.0000 </r>
       <r>   10.3669    1.0000 </r>
       <r>   11.5184    0.0000 </r>
       <r>   12.0271    0.0000 </r>
       <r>   26.3028    0.0000 </r>
       <r>   33.5848    0.0000 </r>
       <r>   37.3671    0.0000 </r>
       <r>   40.6005    0.0000 </r>
       <r>   41.7347    0.0000 </r>
       <r>   42.4336    0.0000 </r>
      </set>
      <set comment="kpoint 4">
       <r>    6.4490    1.0000 </r>
       <r>    9.8426    1.0000 </r>
       <r>   10.0456    1.0000 </r>
       <r>   10.1402    1.0000 </r>
       <r>   12.1663    0.0000 </r>
       <r>   12.6883    0.0000 </r>
       <r>   21.1012    0.0000 </r>
       <r>   32.8565    0.0000 </r>
       <r>   36.2570    0.0000 </r>
       <r>   38.4307    0.0000 </r>
       <r>   40.8581    0.0000 </r>
       <r>   42.3656    0.0000 </r>
      </set>
      <set comment="kpoint 5">
       <r>    6.7726    1.0000 </r>
       <r>    9.8585    1.0000 </r>
       <r>   10.0735    1.0000 </r>
       <r>   10.5853    1.0000 </r>
       <r>   12.5178    0.0000 </r>
       <r>   12.9794    0.0000 </r>
       <r>   19.1480    0.0000 </r>
       <r>   32.7636    0.0000 </r>
       <r>   36.4747    0.0000 </r>
       <r>   36.6068    0.0000 </r>
       <r>   41.6546    0.0000 </r>
       <r>   41.6992    0.0000 </r>
      </set>
      <set comment="kpoint 6">
       <r>    6.0376    1.0000 </r>
       <r>    9.5094    1.0000 </r>
       <r>   10.0760    1.0000 </r>
       <r>   10.2338    1.0000 </r>
       <r>   12.1644    0.0000 </r>
       <r>   12.2806    0.0000 </r>
       <r>   22.6492    0.0000 </r>
       <r>   33.5086    0.0000 </r>
       <r>   35.9467    0.0000 </r>
       <r>   38.4973    0.0000 </r>
       <r>   41.3933    0.0000 </r>
       <r>   43.3785    0.0000 </r>
      </set>
      <set comment="kpoint 7">
       <r>    4.1041    1.0000 </r>
       <r>    9.3883    1.0000 </r>
       <r>   10.3320    1.0000 </r>
       <r>   10.3912    1.0000 </r>
       <r>   11.4262    0.0000 </r>
       <r>   11.7963    0.0000 </r>
       <r>   28.2806    0.0000 </r>
       <r>   34.7106    0.0000 </r>
       <r>   36.5002    0.0000 </r>
       <r>   40.7959    0.0000 </r>
       <r>   41.3505    0.0000 </r>
       <r>   45.4984    0.0000 </r>
      </set>
      <set comment="kpoint 8">
       <r>    2.5254    1.0000 </r>
       <r>    9.7868    1.0000 </r>
       <r>   10.2136    1.0000 </r>
       <r>   10.2193    1.0000 </r>
       <r>   11.3707    0.0032 </r>
       <r>   11.6300    0.0000 </r>
       <r>   33.7170    0.0000 </r>
       <r>   36.2909    0.0000 </r>
       <r>   37.8237    0.0000 </r>
       <r>   39.3976    0.0000 </r>
       <r>   43.7846    0.0000 </r>
       <r>   45.4639    0.0000 </r>
      </set>
      <set comment="kpoint 9">
       <r>    3.3492    1.0000 </r>
       <r>    9.4272    1.0000 </r>
       <r>   10.4592    1.0000 </r>
       <r>   10.4849    1.0000 </r>
       <r>   11.0880    1.0000 </r>
       <r>   11.7770    0.0000 </r>
       <r>   32.5417    0.0000 </r>
       <r>   34.7560    0.0000 </r>
       <r>   35.5310    0.0000 </r>
       <r>   37.3872    0.0000 </r>
       <r>   44.3362    0.0000 </r>
       <r>   46.0597    0.0000 </r>
      </set>
      <set comment="kpoint 10">
       <r>    4.8268    1.0000 </r>
       <r>    9.0083    1.0000 </r>
       <r>   10.2436    1.0000 </r>
       <r>   10.8242    1.0000 </r>
       <r>   11.2943    0.2877 </r>
       <r>   12.1345    0.0000 </r>
       <r>   28.8276    0.0000 </r>
       <r>   31.3660    0.0000 </r>
       <r>   35.1030    0.0000 </r>
       <r>   37.2013    0.0000 </r>
       <r>   42.9861    0.0000 </r>
       <r>   45.6901    0.0000 </r>
      </set>
      <set comment="kpoint 11">
       <r>    6.6346    1.0000 </r>
       <r>    8.9246    1.0000 </r>
       <r>    9.7794    1.0000 </r>
       <r>   10.6811    1.0000 </r>
       <r>   12.1742    0.0000 </r>
       <r>   13.0777    0.0000 </r>
       <r>   23.0993    0.0000 </r>
       <r>   30.6638    0.0000 </r>
       <r>   32.8831    0.0000 </r>
       <r>   36.9641    0.0000 </r>
       <r>   43.7646    0.0000 </r>
       <r>   46.5556    0.0000 </r>
      </set>
      <set comment="kpoint 12">
       <r>    7.3489    1.0000 </r>
       <r>    9.1200    1.0000 </r>
       <r>    9.9203    1.0000 </r>
       <r>   10.5031    1.0000 </r>
       <r>   12.4575    0.0000 </r>
       <r>   14.7223    0.0000 </r>
       <r>   19.2375    0.0000 </r>
       <r>   30.0181    0.0000 </r>
       <r>   32.2678    0.0000 </r>
       <r>   36.5971    0.0000 </r>
       <r>   42.9974    0.0000 </r>
       <r>   46.5991    0.0000 </r>
      </set>
      <set comment="kpoint 13">
       <r>    7.0634    1.0000 </r>
       <r>    9.1885    1.0000 </r>
       <r>    9.6611    1.0000 </r>
       <r>   10.5606    1.0000 </r>
       <r>   12.0402    0.0000 </r>
       <r>   13.8255    0.0000 </r>
       <r>   21.4986    0.0000 </r>
       <r>   29.3212    0.0000 </r>
       <r>   33.6928    0.0000 </r>
       <r>   37.7616    0.0000 </r>
       <r>   42.3170    0.0000 </r>
       <r>   45.9900    0.0000 </r>
      </set>
      <set comment="kpoint 14">
       <r>    5.4849    1.0000 </r>
       <r>    9.0456    1.0000 </r>
       <r>   10.0132    1.0000 </r>
       <r>   10.7979    1.0000 </r>
       <r>   11.2444    0.8030 </r>
       <r>   12.5924    0.0000 </r>
       <r>   26.8580    0.0000 </r>
       <r>   29.5154    0.0000 </r>
       <r>   36.1355    0.0000 </r>
       <r>   39.7010    0.0000 </r>
       <r>   41.6672    0.0000 </r>
       <r>   45.1246    0.0000 </r>
      </set>
      <set comment="kpoint 15">
       <r>    3.7406    1.0000 </r>
       <r>    9.3958    1.0000 </r>
       <r>   10.3523    1.0000 </r>
       <r>   10.5028    1.0000 </r>
       <r>   11.1836    0.9949 </r>
       <r>   11.8363    0.0000 </r>
       <r>   30.4875    0.0000 </r>
       <r>   33.0311    0.0000 </r>
       <r>   37.4577    0.0000 </r>
       <r>   39.2696    0.0000 </r>
       <r>   43.3000    0.0000 </r>
       <r>   44.7919    0.0000 </r>
      </set>
      <set comment="kpoint 16">
       <r>    5.6764    1.0000 </r>
       <r>    8.5097    1.0000 </r>
       <r>   10.4092    1.0000 </r>
       <r>   11.3304    0.0571 </r>
       <r>   11.6116    0.0000 </r>
       <r>   12.1839    0.0000 </r>
       <r>   29.3630    0.0000 </r>
       <r>   31.0422    0.0000 </r>
       <r>   31.1407    0.0000 </r>
       <r>   33.9839    0.0000 </r>
       <r>   39.4568    0.0000 </r>
       <r>   51.1048    0.0000 </r>
      </set>
      <set comment="kpoint 17">
       <r>    6.8297    1.0000 </r>
       <r>    8.2229    1.0000 </r>
       <r>   10.1889    1.0000 </r>
       <r>   11.6711    0.0000 </r>
       <r>   12.2392    0.0000 </r>
       <r>   13.1959    0.0000 </r>
       <r>   25.9304    0.0000 </r>
       <r>   27.8933    0.0000 </r>
       <r>   28.9968    0.0000 </r>
       <r>   35.2838    0.0000 </r>
       <r>   40.3918    0.0000 </r>
       <r>   49.7195    0.0000 </r>
      </set>
      <set comment="kpoint 18">
       <r>    7.7171    1.0000 </r>
       <r>    8.2693    1.0000 </r>
       <r>    9.8182    1.0000 </r>
       <r>   11.3866    0.0008 </r>
       <r>   12.5117    0.0000 </r>
       <r>   16.0341    0.0000 </r>
       <r>   20.8760    0.0000 </r>
       <r>   25.8273    0.0000 </r>
       <r>   29.1247    0.0000 </r>
       <r>   35.7315    0.0000 </r>
       <r>   45.1807    0.0000 </r>
       <r>   47.9696    0.0000 </r>
      </set>
      <set comment="kpoint 19">
       <r>    8.1449    1.0000 </r>
       <r>    8.5371    1.0000 </r>
       <r>    9.3135    1.0000 </r>
       <r>   11.1757    0.9974 </r>
       <r>   12.0868    0.0000 </r>
       <r>   16.4167    0.0000 </r>
       <r>   20.7604    0.0000 </r>
       <r>   24.5135    0.0000 </r>
       <r>   30.9165    0.0000 </r>
       <r>   36.5530    0.0000 </r>
       <r>   45.4120    0.0000 </r>
       <r>   50.3387    0.0000 </r>
      </set>
      <set comment="kpoint 20">
       <r>    7.2001    1.0000 </r>
       <r>    8.9562    1.0000 </r>
       <r>    9.3885    1.0000 </r>
       <r>   10.9363    1.0000 </r>
       <r>   11.6324    0.0000 </r>
       <r>   14.0094    0.0000 </r>
       <r>   23.6178    0.0000 </r>
       <r>   26.5555    0.0000 </r>
       <r>   33.4689    0.0000 </r>
       <r>   38.3587    0.0000 </r>
       <r>   42.5650    0.0000 </r>
       <r>   47.5109    0.0000 </r>
      </set>
      <set comment="kpoint 21">
       <r>    5.6898    1.0000 </r>
       <r>    9.1890    1.0000 </r>
       <r>   10.0567    1.0000 </r>
       <r>   10.4497    1.0000 </r>
       <r>   11.7312    0.0000 </r>
       <r>   12.4507    0.0000 </r>
       <r>   24.5816    0.0000 </r>
       <r>   32.1210    0.0000 </r>
       <r>   35.7415    0.0000 </r>
       <r>   38.7981    0.0000 </r>
       <r>   42.3568    0.0000 </r>
       <r>   43.9626    0.0000 </r>
      </set>
      <set comment="kpoint 22">
       <r>    6.8274    1.0000 </r>
       <r>    7.7950    1.0000 </r>
       <r>   11.6429    0.0000 </r>
       <r>   12.2278    0.0000 </r>
       <r>   12.5628    0.0000 </r>
       <r>   13.2856    0.0000 </r>
       <r>   24.8336    0.0000 </r>
       <r>   26.9151    0.0000 </r>
       <r>   28.0471    0.0000 </r>
       <r>   33.2578    0.0000 </r>
       <r>   37.8131    0.0000 </r>
       <r>   51.8054    0.0000 </r>
      </set>
      <set comment="kpoint 23">
       <r>    7.1038    1.0000 </r>
       <r>    7.8005    1.0000 </r>
       <r>   11.1692    0.9986 </r>
       <r>   12.2101    0.0000 </r>
       <r>   12.6701    0.0000 </r>
       <r>   15.6908    0.0000 </r>
       <r>   22.8088    0.0000 </r>
       <r>   24.5040    0.0000 </r>
       <r>   26.9317    0.0000 </r>
       <r>   34.7031    0.0000 </r>
       <r>   39.6872    0.0000 </r>
       <r>   51.7813    0.0000 </r>
      </set>
      <set comment="kpoint 24">
       <r>    7.7438    1.0000 </r>
       <r>    8.1584    1.0000 </r>
       <r>   10.0077    1.0000 </r>
       <r>   11.6506    0.0000 </r>
       <r>   12.4595    0.0000 </r>
       <r>   17.9154    0.0000 </r>
       <r>   20.1527    0.0000 </r>
       <r>   23.4794    0.0000 </r>
       <r>   28.6132    0.0000 </r>
       <r>   35.5864    0.0000 </r>
       <r>   45.2741    0.0000 </r>
       <r>   48.8825    0.0000 </r>
      </set>
      <set comment="kpoint 25">
       <r>    7.8146    1.0000 </r>
       <r>    8.7072    1.0000 </r>
       <r>    9.6250    1.0000 </r>
       <r>   10.8503    1.0000 </r>
       <r>   12.3130    0.0000 </r>
       <r>   15.9666    0.0000 </r>
       <r>   19.3953    0.0000 </r>
       <r>   27.1801    0.0000 </r>
       <r>   31.2952    0.0000 </r>
       <r>   36.5289    0.0000 </r>
       <r>   44.2676    0.0000 </r>
       <r>   48.7769    0.0000 </r>
      </set>
      <set comment="kpoint 26">
       <r>    6.8866    1.0000 </r>
       <r>    9.5938    1.0000 </r>
       <r>   10.0774    1.0000 </r>
       <r>   10.2503    1.0000 </r>
       <r>   12.3867    0.0000 </r>
       <r>   13.4244    0.0000 </r>
       <r>   19.9394    0.0000 </r>
       <r>   31.7932    0.0000 </r>
       <r>   34.5042    0.0000 </r>
       <r>   37.0277    0.0000 </r>
       <r>   41.9510    0.0000 </r>
       <r>   44.0364    0.0000 </r>
      </set>
      <set comment="kpoint 27">
       <r>    6.8500    1.0000 </r>
       <r>    7.6347    1.0000 </r>
       <r>   12.1586    0.0000 </r>
       <r>   12.4430    0.0000 </r>
       <r>   12.6896    0.0000 </r>
       <r>   14.3939    0.0000 </r>
       <r>   22.7946    0.0000 </r>
       <r>   26.2413    0.0000 </r>
       <r>   27.3400    0.0000 </r>
       <r>   33.1540    0.0000 </r>
       <r>   37.6222    0.0000 </r>
       <r>   51.8496    0.0000 </r>
      </set>
      <set comment="kpoint 28">
       <r>    7.0988    1.0000 </r>
       <r>    7.9464    1.0000 </r>
       <r>   10.7276    1.0000 </r>
       <r>   12.0463    0.0000 </r>
       <r>   12.5150    0.0000 </r>
       <r>   14.4043    0.0000 </r>
       <r>   24.6354    0.0000 </r>
       <r>   25.4159    0.0000 </r>
       <r>   27.5658    0.0000 </r>
       <r>   34.8834    0.0000 </r>
       <r>   39.8862    0.0000 </r>
       <r>   51.2376    0.0000 </r>
      </set>
      <set comment="kpoint 29">
       <r>    7.3749    1.0000 </r>
       <r>    8.5680    1.0000 </r>
       <r>    9.6748    1.0000 </r>
       <r>   11.0209    1.0000 </r>
       <r>   12.4570    0.0000 </r>
       <r>   14.2755    0.0000 </r>
       <r>   21.8535    0.0000 </r>
       <r>   28.7098    0.0000 </r>
       <r>   30.2950    0.0000 </r>
       <r>   36.1144    0.0000 </r>
       <r>   44.7425    0.0000 </r>
       <r>   47.2810    0.0000 </r>
      </set>
      <set comment="kpoint 30">
       <r>    6.5368    1.0000 </r>
       <r>    8.0985    1.0000 </r>
       <r>   10.8110    1.0000 </r>
       <r>   11.8178    0.0000 </r>
       <r>   12.3059    0.0000 </r>
       <r>   12.3881    0.0000 </r>
       <r>   27.5133    0.0000 </r>
       <r>   28.3386    0.0000 </r>
       <r>   29.3616    0.0000 </r>
       <r>   33.4966    0.0000 </r>
       <r>   38.3352    0.0000 </r>
       <r>   51.7804    0.0000 </r>
      </set>
      <set comment="kpoint 31">
       <r>    5.9914    1.0000 </r>
       <r>    8.5949    1.0000 </r>
       <r>   10.0449    1.0000 </r>
       <r>   11.2247    0.9206 </r>
       <r>   11.7584    0.0000 </r>
       <r>   12.5182    0.0000 </r>
       <r>   27.2930    0.0000 </r>
       <r>   29.7346    0.0000 </r>
       <r>   31.9135    0.0000 </r>
       <r>   35.9973    0.0000 </r>
       <r>   41.3756    0.0000 </r>
       <r>   47.8224    0.0000 </r>
      </set>
      <set comment="kpoint 32">
       <r>    4.4730    1.0000 </r>
       <r>    8.9756    1.0000 </r>
       <r>   10.5108    1.0000 </r>
       <r>   10.8656    1.0000 </r>
       <r>   11.1087    1.0000 </r>
       <r>   11.9707    0.0000 </r>
       <r>   31.0152    0.0000 </r>
       <r>   33.2435    0.0000 </r>
       <r>   33.3729    0.0000 </r>
       <r>   35.2082    0.0000 </r>
       <r>   41.4944    0.0000 </r>
       <r>   48.3870    0.0000 </r>
      </set>
      <set comment="kpoint 33">
       <r>    3.3425    1.0000 </r>
       <r>    9.5977    1.0000 </r>
       <r>   10.3044    1.0000 </r>
       <r>   10.3044    1.0000 </r>
       <r>   11.5171    0.0000 </r>
       <r>   11.5171    0.0000 </r>
       <r>   30.1953    0.0000 </r>
       <r>   35.5773    0.0000 </r>
       <r>   38.8460    0.0000 </r>
       <r>   38.8460    0.0000 </r>
       <r>   43.8943    0.0000 </r>
       <r>   44.5964    0.0000 </r>
      </set>
      <set comment="kpoint 34">
       <r>    4.4840    1.0000 </r>
       <r>    9.2750    1.0000 </r>
       <r>   10.2399    1.0000 </r>
       <r>   10.6087    1.0000 </r>
       <r>   11.1280    1.0000 </r>
       <r>   12.1358    0.0000 </r>
       <r>   28.5701    0.0000 </r>
       <r>   31.1732    0.0000 </r>
       <r>   38.6311    0.0000 </r>
       <r>   40.6235    0.0000 </r>
       <r>   41.1155    0.0000 </r>
       <r>   43.5706    0.0000 </r>
      </set>
      <set comment="kpoint 35">
       <r>    6.3359    1.0000 </r>
       <r>    9.0415    1.0000 </r>
       <r>    9.7644    1.0000 </r>
       <r>   10.7714    1.0000 </r>
       <r>   11.3227    0.0866 </r>
       <r>   13.2060    0.0000 </r>
       <r>   25.1268    0.0000 </r>
       <r>   27.8953    0.0000 </r>
       <r>   36.6723    0.0000 </r>
       <r>   37.8275    0.0000 </r>
       <r>   42.5976    0.0000 </r>
       <r>   44.9604    0.0000 </r>
      </set>
      <set comment="kpoint 36">
       <r>    7.4510    1.0000 </r>
       <r>    9.0988    1.0000 </r>
       <r>    9.6729    1.0000 </r>
       <r>   10.6063    1.0000 </r>
       <r>   12.1235    0.0000 </r>
       <r>   14.7538    0.0000 </r>
       <r>   20.2342    0.0000 </r>
       <r>   28.1119    0.0000 </r>
       <r>   34.6271    0.0000 </r>
       <r>   35.0760    0.0000 </r>
       <r>   44.9908    0.0000 </r>
       <r>   45.1690    0.0000 </r>
      </set>
      <set comment="kpoint 37">
       <r>    7.3750    1.0000 </r>
       <r>    8.8464    1.0000 </r>
       <r>    9.8104    1.0000 </r>
       <r>   10.6812    1.0000 </r>
       <r>   12.5547    0.0000 </r>
       <r>   14.5034    0.0000 </r>
       <r>   20.1660    0.0000 </r>
       <r>   29.3939    0.0000 </r>
       <r>   32.6136    0.0000 </r>
       <r>   34.8018    0.0000 </r>
       <r>   45.9901    0.0000 </r>
       <r>   46.3141    0.0000 </r>
      </set>
      <set comment="kpoint 38">
       <r>    6.2341    1.0000 </r>
       <r>    8.6982    1.0000 </r>
       <r>    9.9365    1.0000 </r>
       <r>   10.8810    1.0000 </r>
       <r>   12.3772    0.0000 </r>
       <r>   12.3960    0.0000 </r>
       <r>   25.0421    0.0000 </r>
       <r>   31.3973    0.0000 </r>
       <r>   32.1837    0.0000 </r>
       <r>   35.4065    0.0000 </r>
       <r>   43.6870    0.0000 </r>
       <r>   47.2248    0.0000 </r>
      </set>
      <set comment="kpoint 39">
       <r>    5.1341    1.0000 </r>
       <r>    9.0694    1.0000 </r>
       <r>   10.1725    1.0000 </r>
       <r>   10.5826    1.0000 </r>
       <r>   11.6866    0.0000 </r>
       <r>   12.1047    0.0000 </r>
       <r>   26.5630    0.0000 </r>
       <r>   33.4592    0.0000 </r>
       <r>   34.2185    0.0000 </r>
       <r>   37.6155    0.0000 </r>
       <r>   44.0304    0.0000 </r>
       <r>   45.2128    0.0000 </r>
      </set>
      <set comment="kpoint 40">
       <r>    6.5507    1.0000 </r>
       <r>    8.7555    1.0000 </r>
       <r>    9.6811    1.0000 </r>
       <r>   11.1024    1.0000 </r>
       <r>   11.6456    0.0000 </r>
       <r>   13.2024    0.0000 </r>
       <r>   25.3497    0.0000 </r>
       <r>   28.0627    0.0000 </r>
       <r>   32.5668    0.0000 </r>
       <r>   38.7755    0.0000 </r>
       <r>   42.2006    0.0000 </r>
       <r>   46.1169    0.0000 </r>
      </set>
      <set comment="kpoint 41">
       <r>    7.8559    1.0000 </r>
       <r>    8.7452    1.0000 </r>
       <r>    9.1187    1.0000 </r>
       <r>   11.2267    0.9117 </r>
       <r>   12.0383    0.0000 </r>
       <r>   15.2196    0.0000 </r>
       <r>   22.3347    0.0000 </r>
       <r>   25.5130    0.0000 </r>
       <r>   29.8593    0.0000 </r>
       <r>   39.6847    0.0000 </r>
       <r>   42.0174    0.0000 </r>
       <r>   48.4451    0.0000 </r>
      </set>
      <set comment="kpoint 42">
       <r>    8.1106    1.0000 </r>
       <r>    8.3993    1.0000 </r>
       <r>    9.4278    1.0000 </r>
       <r>   11.1699    0.9985 </r>
       <r>   12.4123    0.0000 </r>
       <r>   16.9036    0.0000 </r>
       <r>   19.6192    0.0000 </r>
       <r>   26.4449    0.0000 </r>
       <r>   28.0860    0.0000 </r>
       <r>   38.4822    0.0000 </r>
       <r>   43.5041    0.0000 </r>
       <r>   49.4668    0.0000 </r>
      </set>
      <set comment="kpoint 43">
       <r>    7.3328    1.0000 </r>
       <r>    8.4656    1.0000 </r>
       <r>    9.5603    1.0000 </r>
       <r>   11.4779    0.0000 </r>
       <r>   12.0917    0.0000 </r>
       <r>   14.1737    0.0000 </r>
       <r>   24.0622    0.0000 </r>
       <r>   26.8076    0.0000 </r>
       <r>   29.0974    0.0000 </r>
       <r>   38.0579    0.0000 </r>
       <r>   42.4877    0.0000 </r>
       <r>   46.6826    0.0000 </r>
      </set>
      <set comment="kpoint 44">
       <r>    7.0470    1.0000 </r>
       <r>    8.3365    1.0000 </r>
       <r>    9.9727    1.0000 </r>
       <r>   11.2599    0.6607 </r>
       <r>   12.5588    0.0000 </r>
       <r>   13.5316    0.0000 </r>
       <r>   23.7344    0.0000 </r>
       <r>   28.4073    0.0000 </r>
       <r>   30.5180    0.0000 </r>
       <r>   34.5234    0.0000 </r>
       <r>   42.8231    0.0000 </r>
       <r>   49.8074    0.0000 </r>
      </set>
      <set comment="kpoint 45">
       <r>    7.5599    1.0000 </r>
       <r>    8.2436    1.0000 </r>
       <r>    9.8421    1.0000 </r>
       <r>   11.7416    0.0000 </r>
       <r>   12.4413    0.0000 </r>
       <r>   15.6678    0.0000 </r>
       <r>   23.0540    0.0000 </r>
       <r>   25.3074    0.0000 </r>
       <r>   26.5262    0.0000 </r>
       <r>   37.5935    0.0000 </r>
       <r>   42.6348    0.0000 </r>
       <r>   47.6417    0.0000 </r>
      </set>
      <set comment="kpoint 46">
       <r>    7.8966    1.0000 </r>
       <r>    8.6236    1.0000 </r>
       <r>    9.3172    1.0000 </r>
       <r>   11.4555    0.0000 </r>
       <r>   12.6593    0.0000 </r>
       <r>   18.9251    0.0000 </r>
       <r>   20.7187    0.0000 </r>
       <r>   23.4000    0.0000 </r>
       <r>   24.9118    0.0000 </r>
       <r>   40.5892    0.0000 </r>
       <r>   44.1349    0.0000 </r>
       <r>   46.3436    0.0000 </r>
      </set>
      <set comment="kpoint 47">
       <r>    8.0167    1.0000 </r>
       <r>    8.6262    1.0000 </r>
       <r>    9.1486    1.0000 </r>
       <r>   11.4155    0.0000 </r>
       <r>   12.4141    0.0000 </r>
       <r>   16.9658    0.0000 </r>
       <r>   21.3391    0.0000 </r>
       <r>   24.7086    0.0000 </r>
       <r>   26.6241    0.0000 </r>
       <r>   40.5712    0.0000 </r>
       <r>   42.4460    0.0000 </r>
       <r>   47.6153    0.0000 </r>
      </set>
      <set comment="kpoint 48">
       <r>    7.3403    1.0000 </r>
       <r>    7.9263    1.0000 </r>
       <r>   10.7065    1.0000 </r>
       <r>   11.9749    0.0000 </r>
       <r>   12.5528    0.0000 </r>
       <r>   16.6048    0.0000 </r>
       <r>   21.8995    0.0000 </r>
[...]
       </set>
       <set comment="band 5">
        <r>  0.0001  0.0000  0.0005  0.0007  0.0025  0.0310  0.0001  0.9522  0.0063 </r>
       </set>
       <set comment="band 6">
        <r>  0.0252  0.0072  0.4994  0.0011  0.0002  0.3061  0.0311  0.0153  0.0020 </r>
       </set>
       <set comment="band 7">
        <r>  0.0017  0.1413  0.0120  0.2834  0.1548  0.0086  0.2108  0.0049  0.0196 </r>
       </set>
       <set comment="band 8">
        <r>  0.2959  0.0149  0.0344  0.1132  0.0883  0.0050  0.3018  0.0005  0.0002 </r>
       </set>
       <set comment="band 9">
        <r>  0.2568  0.1828  0.0039  0.1544  0.0538  0.0014  0.0054  0.0014  0.0976 </r>
       </set>
       <set comment="band 10">
        <r>  0.0230  0.0285  0.0005  0.0690  0.6687  0.0000  0.0148  0.0011  0.0046 </r>
       </set>
       <set comment="band 11">
        <r>  0.2306  0.2553  0.0049  0.0145  0.0716  0.0000  0.1659  0.0002  0.0090 </r>
       </set>
       <set comment="band 12">
        <r>  0.0723  0.0018  0.0297  0.0002  0.0001  0.3822  0.0192  0.0023  0.0291 </r>
       </set>
      </set>
      <set comment="kpoint 50">
       <set comment="band 1">
        <r>  0.0869  0.0100  0.0496  0.0100  0.0582  0.0079  0.6369  0.0079  0.0000 </r>
       </set>
       <set comment="band 2">
        <r>  0.0005  0.0268  0.0002  0.0268  0.8158  0.0080  0.0521  0.0080  0.0000 </r>
       </set>
       <set comment="band 3">
        <r>  0.0380  0.0000  0.1850  0.0000  0.0324  0.2928  0.0841  0.2928  0.0000 </r>
       </set>
       <set comment="band 4">
        <r>  0.0000  0.0056  0.0000  0.0056  0.0000  0.1650  0.0000  0.1650  0.6360 </r>
       </set>
       <set comment="band 5">
        <r>  0.0000  0.0000  0.0000  0.0000  0.0000  0.3271  0.0000  0.3271  0.3396 </r>
       </set>
       <set comment="band 6">
        <r>  0.0750  0.0161  0.2978  0.0161  0.0048  0.1872  0.1273  0.1872  0.0000 </r>
       </set>
       <set comment="band 7">
        <r>  0.1060  0.2004  0.0018  0.2004  0.1721  0.0341  0.0711  0.0341  0.0000 </r>
       </set>
       <set comment="band 8">
        <r>  0.2252  0.0000  0.1715  0.0000  0.0217  0.0049  0.4063  0.0049  0.0000 </r>
       </set>
       <set comment="band 9">
        <r>  0.0000  0.2951  0.0000  0.2951  0.0000  0.0222  0.0000  0.0222  0.0879 </r>
       </set>
       <set comment="band 10">
        <r>  0.1370  0.0012  0.0203  0.0012  0.6457  0.0001  0.0354  0.0001  0.0000 </r>
       </set>
       <set comment="band 11">
        <r>  0.2250  0.0997  0.0311  0.0997  0.1958  0.0056  0.1122  0.0056  0.0000 </r>
       </set>
       <set comment="band 12">
        <r>  0.0072  0.0204  0.0000  0.0185  0.0000  0.1172  0.0001  0.1125  0.2138 </r>
       </set>
      </set>
      <set comment="kpoint 51">
       <set comment="band 1">
        <r>  0.4844  0.0531  0.0531  0.0531  0.0576  0.0576  0.0000  0.0576  0.0000 </r>
       </set>
       <set comment="band 2">
        <r>  0.0227  0.0584  0.0584  0.0584  0.2357  0.2357  0.0000  0.2357  0.0000 </r>
       </set>
       <set comment="band 3">
        <r>  0.0000  0.0003  0.0006  0.0002  0.2840  0.1190  0.3340  0.1422  0.0934 </r>
       </set>
       <set comment="band 4">
        <r>  0.0000  0.0005  0.0002  0.0005  0.0795  0.2445  0.0934  0.2213  0.3340 </r>
       </set>
       <set comment="band 5">
        <r>  0.0000  0.0011  0.0002  0.0008  0.0407  0.1653  0.0774  0.2269  0.4718 </r>
       </set>
       <set comment="band 6">
        <r>  0.0000  0.0003  0.0012  0.0006  0.2479  0.1233  0.4718  0.0617  0.0774 </r>
       </set>
       <set comment="band 7">
        <r>  0.1765  0.0848  0.0848  0.0848  0.1434  0.1434  0.0000  0.1434  0.0000 </r>
       </set>
       <set comment="band 8">
        <r>  0.0094  0.0034  0.0034  0.0034  0.0219  0.0219  0.0000  0.0219  0.0000 </r>
       </set>
       <set comment="band 9">
        <r>  0.0000  0.1257  0.0229  0.2263  0.0246  0.2427  0.0092  0.1348  0.0912 </r>
       </set>
       <set comment="band 10">
        <r>  0.0000  0.1242  0.2270  0.0236  0.2435  0.0253  0.0912  0.1333  0.0092 </r>
       </set>
       <set comment="band 11">
        <r>  0.0000  0.0224  0.0228  0.0889  0.0033  0.0130  0.1693  0.0033  0.4937 </r>
       </set>
       <set comment="band 12">
        <r>  0.0000  0.0670  0.0666  0.0005  0.0097  0.0001  0.4937  0.0098  0.1693 </r>
       </set>
      </set>
      <set comment="kpoint 52">
       <set comment="band 1">
        <r>  0.3551  0.0838  0.0838  0.0036  0.0728  0.1564  0.0032  0.0728  0.0097 </r>
       </set>
       <set comment="band 2">
        <r>  0.0187  0.0612  0.0612  0.0850  0.2919  0.0152  0.0172  0.2919  0.0516 </r>
       </set>
       <set comment="band 3">
        <r>  0.0012  0.0023  0.0023  0.0029  0.0631  0.3438  0.1204  0.0631  0.3611 </r>
       </set>
       <set comment="band 4">
        <r>  0.0000  0.0006  0.0006  0.0000  0.1904  0.0000  0.4415  0.1904  0.1472 </r>
       </set>
       <set comment="band 5">
        <r>  0.0000  0.0011  0.0011  0.0000  0.2999  0.0000  0.2841  0.2999  0.0947 </r>
       </set>
       <set comment="band 6">
        <r>  0.0369  0.0272  0.0272  0.0070  0.0071  0.4497  0.1025  0.0071  0.3076 </r>
       </set>
       <set comment="band 7">
        <r>  0.2046  0.0459  0.0459  0.1601  0.1545  0.0976  0.0042  0.1545  0.0126 </r>
       </set>
       <set comment="band 8">
        <r>  0.0455  0.0265  0.0265  0.1743  0.0931  0.0707  0.0341  0.0931  0.1022 </r>
       </set>
       <set comment="band 9">
        <r>  0.0365  0.1003  0.1003  0.0762  0.0027  0.0010  0.0031  0.0027  0.0093 </r>
       </set>
       <set comment="band 10">
        <r>  0.0000  0.1744  0.1744  0.0000  0.0010  0.0000  0.3842  0.0010  0.1281 </r>
       </set>
       <set comment="band 11">
        <r>  0.0000  0.0761  0.0761  0.0000  0.2826  0.0000  0.1917  0.2826  0.0639 </r>
       </set>
       <set comment="band 12">
        <r>  0.0648  0.0093  0.0093  0.0253  0.0155  0.1424  0.0653  0.0155  0.1960 </r>
       </set>
      </set>
      <set comment="kpoint 53">
       <set comment="band 1">
        <r>  0.1691  0.1036  0.1036  0.0018  0.0287  0.4007  0.0090  0.0287  0.0270 </r>
       </set>
       <set comment="band 2">
        <r>  0.0005  0.0326  0.0326  0.0254  0.0595  0.1076  0.1459  0.0595  0.4378 </r>
       </set>
       <set comment="band 3">
        <r>  0.0037  0.0012  0.0012  0.0858  0.3235  0.1139  0.0223  0.3235  0.0669 </r>
       </set>
       <set comment="band 4">
        <r>  0.0000  0.0044  0.0044  0.0000  0.0450  0.0000  0.6517  0.0450  0.2172 </r>
       </set>
       <set comment="band 5">
        <r>  0.0000  0.0003  0.0003  0.0000  0.4461  0.0000  0.0669  0.4461  0.0223 </r>
       </set>
       <set comment="band 6">
        <r>  0.1212  0.0862  0.0862  0.0055  0.0002  0.3869  0.0603  0.0002  0.1808 </r>
       </set>
       <set comment="band 7">
        <r>  0.1063  0.0100  0.0100  0.3576  0.1811  0.0270  0.0073  0.1811  0.0220 </r>
       </set>
       <set comment="band 8">
        <r>  0.2224  0.0458  0.0458  0.1144  0.0383  0.0677  0.0532  0.0383  0.1597 </r>
       </set>
       <set comment="band 9">
        <r>  0.0000  0.2231  0.2231  0.0000  0.0009  0.0000  0.3010  0.0009  0.1003 </r>
       </set>
       <set comment="band 10">
        <r>  0.1050  0.0651  0.0651  0.0050  0.0000  0.1503  0.0222  0.0000  0.0667 </r>
       </set>
       <set comment="band 11">
        <r>  0.0153  0.0001  0.0001  0.0795  0.0492  0.0329  0.0074  0.0492  0.0221 </r>
       </set>
       <set comment="band 12">
        <r>  0.0000  0.0122  0.0122  0.0000  0.3646  0.0000  0.0433  0.3646  0.0144 </r>
       </set>
      </set>
      <set comment="kpoint 54">
       <set comment="band 1">
        <r>  0.0474  0.0001  0.0001  0.0065  0.0092  0.4636  0.0965  0.0092  0.2896 </r>
       </set>
       <set comment="band 2">
        <r>  0.0079  0.0875  0.0875  0.0001  0.0040  0.3057  0.0968  0.0040  0.2903 </r>
       </set>
       <set comment="band 3">
        <r>  0.0014  0.0013  0.0013  0.1624  0.3653  0.0303  0.0013  0.3653  0.0039 </r>
       </set>
       <set comment="band 4">
        <r>  0.0000  0.0062  0.0062  0.0000  0.0362  0.0000  0.6648  0.0362  0.2216 </r>
       </set>
       <set comment="band 5">
        <r>  0.0000  0.0001  0.0001  0.0000  0.4572  0.0000  0.0545  0.4572  0.0182 </r>
       </set>
       <set comment="band 6">
        <r>  0.0730  0.1572  0.1572  0.0736  0.0155  0.2075  0.0412  0.0155  0.1237 </r>
       </set>
       <set comment="band 7">
        <r>  0.1203  0.0091  0.0091  0.3806  0.1668  0.0496  0.0002  0.1668  0.0005 </r>
       </set>
       <set comment="band 8">
        <r>  0.3298  0.0182  0.0182  0.0652  0.0106  0.0373  0.0834  0.0106  0.2502 </r>
       </set>
       <set comment="band 9">
        <r>  0.0000  0.2697  0.2697  0.0000  0.0017  0.0000  0.1743  0.0017  0.0581 </r>
       </set>
       <set comment="band 10">
        <r>  0.1425  0.0265  0.0265  0.0033  0.0000  0.3959  0.0201  0.0000  0.0602 </r>
       </set>
       <set comment="band 11">
        <r>  0.3549  0.0966  0.0966  0.0116  0.0016  0.3321  0.0173  0.0016  0.0520 </r>
       </set>
       <set comment="band 12">
        <r>  0.0000  0.0057  0.0057  0.0000  0.2672  0.0000  0.0330  0.2677  0.0109 </r>
       </set>
      </set>
      <set comment="kpoint 55">
       <set comment="band 1">
        <r>  0.2691  0.0084  0.0897  0.0084  0.1749  0.1469  0.0301  0.1469  0.0000 </r>
       </set>
       <set comment="band 2">
        <r>  0.0128  0.0875  0.0618  0.0875  0.1867  0.0474  0.3412  0.0474  0.0000 </r>
       </set>
       <set comment="band 3">
        <r>  0.0148  0.0111  0.0324  0.0111  0.4464  0.0750  0.2891  0.0750  0.0000 </r>
       </set>
       <set comment="band 4">
        <r>  0.0000  0.0030  0.0000  0.0030  0.0000  0.2238  0.0000  0.2238  0.5179 </r>
       </set>
       <set comment="band 5">
        <r>  0.0000  0.0002  0.0000  0.0002  0.0000  0.2667  0.0000  0.2667  0.4586 </r>
       </set>
       <set comment="band 6">
        <r>  0.0362  0.0332  0.0792  0.0332  0.0948  0.1812  0.3047  0.1812  0.0000 </r>
       </set>
       <set comment="band 7">
        <r>  0.2721  0.0919  0.0131  0.0919  0.1820  0.1176  0.0090  0.1176  0.0000 </r>
       </set>
       <set comment="band 8">
        <r>  0.0026  0.0002  0.0799  0.0002  0.0889  0.0072  0.2731  0.0072  0.0000 </r>
       </set>
       <set comment="band 9">
        <r>  0.0000  0.2421  0.0000  0.2421  0.0000  0.0839  0.0000  0.0839  0.1463 </r>
       </set>
       <set comment="band 10">
        <r>  0.1069  0.0393  0.2533  0.0393  0.1474  0.0063  0.0601  0.0063  0.0000 </r>
       </set>
       <set comment="band 11">
        <r>  0.0214  0.0002  0.0142  0.0002  0.3022  0.0230  0.4409  0.0230  0.0000 </r>
       </set>
       <set comment="band 12">
        <r>  0.0000  0.0533  0.0000  0.0533  0.0000  0.0793  0.0000  0.0793  0.5387 </r>
       </set>
      </set>
      <set comment="kpoint 56">
       <set comment="band 1">
        <r>  0.1425  0.0180  0.0830  0.0071  0.2420  0.2452  0.0638  0.0966  0.0018 </r>
       </set>
       <set comment="band 2">
        <r>  0.0001  0.0777  0.0247  0.0531  0.0939  0.0308  0.4621  0.0250  0.1136 </r>
       </set>
       <set comment="band 3">
        <r>  0.0114  0.0082  0.0487  0.0428  0.3990  0.3309  0.0600  0.0043  0.0377 </r>
       </set>
       <set comment="band 4">
        <r>  0.0000  0.0016  0.0127  0.0024  0.0323  0.0101  0.1483  0.2420  0.5185 </r>
       </set>
       <set comment="band 5">
        <r>  0.0006  0.0004  0.0026  0.0018  0.0869  0.0628  0.0638  0.5488  0.2192 </r>
       </set>
       <set comment="band 6">
        <r>  0.0664  0.0706  0.1612  0.0473  0.0222  0.2972  0.1620  0.0110  0.0721 </r>
       </set>
       <set comment="band 7">
        <r>  0.2709  0.0374  0.0000  0.1796  0.2011  0.0760  0.0124  0.1089  0.0119 </r>
       </set>
       <set comment="band 8">
        <r>  0.0337  0.0946  0.0049  0.1741  0.0939  0.0582  0.1549  0.0185  0.1152 </r>
       </set>
       <set comment="band 9">
        <r>  0.1609  0.0008  0.2667  0.0708  0.0010  0.0191  0.1911  0.0278  0.0334 </r>
       </set>
       <set comment="band 10">
        <r>  0.0044  0.2499  0.0397  0.0331  0.1031  0.0050  0.0017  0.0030  0.0002 </r>
       </set>
       <set comment="band 11">
        <r>  0.0569  0.0202  0.0007  0.0053  0.2725  0.1591  0.0762  0.0391  0.2343 </r>
       </set>
       <set comment="band 12">
        <r>  0.0061  0.0339  0.0176  0.0005  0.0885  0.0775  0.2398  0.0250  0.0419 </r>
       </set>
      </set>
      <set comment="kpoint 57">
       <set comment="band 1">
        <r>  0.0010  0.0750  0.0193  0.0032  0.0003  0.0001  0.4502  0.0000  0.3245 </r>
       </set>
       <set comment="band 2">
        <r>  0.0383  0.0088  0.0814  0.0064  0.0363  0.7393  0.0000  0.0125  0.0095 </r>
       </set>
       <set comment="band 3">
        <r>  0.0008  0.0011  0.0053  0.1325  0.6770  0.0511  0.0045  0.0619  0.0010 </r>
       </set>
       <set comment="band 4">
        <r>  0.0081  0.0011  0.0078  0.0016  0.0004  0.0034  0.3881  0.0274  0.5298 </r>
       </set>
       <set comment="band 5">
        <r>  0.0008  0.0000  0.0000  0.0028  0.1101  0.0059  0.0110  0.8440  0.0145 </r>
       </set>
       <set comment="band 6">
        <r>  0.0639  0.1023  0.2426  0.0605  0.0245  0.2155  0.1048  0.0007  0.0558 </r>
       </set>
       <set comment="band 7">
        <r>  0.1138  0.0000  0.0227  0.3946  0.2449  0.0445  0.0002  0.0719  0.0043 </r>
       </set>
       <set comment="band 8">
        <r>  0.2611  0.0829  0.0003  0.0739  0.0239  0.0359  0.1173  0.0038  0.2189 </r>
       </set>
       <set comment="band 9">
        <r>  0.1849  0.0747  0.2526  0.0034  0.0004  0.0673  0.1950  0.0021  0.0079 </r>
       </set>
       <set comment="band 10">
        <r>  0.0341  0.1547  0.0350  0.0022  0.0003  0.3271  0.0032  0.0004  0.0719 </r>
       </set>
       <set comment="band 11">
        <r>  0.0055  0.0180  0.0004  0.0465  0.4372  0.0349  0.0120  0.0150  0.0177 </r>
       </set>
       <set comment="band 12">
        <r>  0.1955  0.2573  0.0250  0.0004  0.0417  0.2671  0.0310  0.0001  0.0554 </r>
       </set>
      </set>
      <set comment="kpoint 58">
       <set comment="band 1">
        <r>  0.0906  0.0024  0.0405  0.0024  0.4821  0.0810  0.1411  0.0810  0.0000 </r>
       </set>
       <set comment="band 2">
        <r>  0.0001  0.0774  0.0084  0.0774  0.1161  0.0099  0.5761  0.0099  0.0000 </r>
       </set>
       <set comment="band 3">
        <r>  0.0096  0.0091  0.1247  0.0091  0.2153  0.2622  0.0434  0.2622  0.0000 </r>
       </set>
       <set comment="band 4">
        <r>  0.0000  0.0053  0.0000  0.0053  0.0000  0.1377  0.0000  0.1377  0.6843 </r>
       </set>
       <set comment="band 5">
        <r>  0.0000  0.0002  0.0000  0.0002  0.0000  0.3550  0.0000  0.3550  0.2799 </r>
       </set>
       <set comment="band 6">
        <r>  0.0077  0.0954  0.2294  0.0954  0.0684  0.0922  0.2022  0.0922  0.0000 </r>
       </set>
       <set comment="band 7">
        <r>  0.3189  0.0669  0.0437  0.0669  0.1913  0.1017  0.0072  0.1017  0.0000 </r>
       </set>
       <set comment="band 8">
        <r>  0.1567  0.0138  0.1982  0.0138  0.0266  0.0271  0.3314  0.0271  0.0000 </r>
       </set>
       <set comment="band 9">
        <r>  0.0000  0.2656  0.0000  0.2656  0.0000  0.0156  0.0000  0.0156  0.2134 </r>
       </set>
       <set comment="band 10">
        <r>  0.1378  0.0297  0.0318  0.0297  0.3538  0.0002  0.0462  0.0002  0.0000 </r>
       </set>
       <set comment="band 11">
        <r>  0.0003  0.0526  0.0322  0.0526  0.3647  0.0050  0.0283  0.0050  0.0000 </r>
       </set>
       <set comment="band 12">
        <r>  0.0000  0.0291  0.0000  0.0291  0.0000  0.1960  0.0000  0.1960  0.2456 </r>
       </set>
      </set>
      <set comment="kpoint 59">
       <set comment="band 1">
        <r>  0.2499  0.0091  0.0091  0.0091  0.2079  0.2079  0.0000  0.2079  0.0000 </r>
       </set>
       <set comment="band 2">
        <r>  0.0000  0.0000  0.0001  0.0000  0.2694  0.0378  0.5403  0.1083  0.0151 </r>
       </set>
       <set comment="band 3">
        <r>  0.0000  0.0001  0.0000  0.0001  0.0075  0.2392  0.0151  0.1687  0.5403 </r>
       </set>
       <set comment="band 4">
        <r>  0.0296  0.2058  0.2058  0.2058  0.0413  0.0413  0.0000  0.0413  0.0000 </r>
       </set>
       <set comment="band 5">
        <r>  0.0000  0.0002  0.0000  0.0002  0.0100  0.2694  0.0110  0.2911  0.4088 </r>
       </set>
       <set comment="band 6">
        <r>  0.0000  0.0001  0.0003  0.0001  0.3704  0.1109  0.4088  0.0892  0.0110 </r>
       </set>
       <set comment="band 7">
        <r>  0.3672  0.0253  0.0253  0.0253  0.1633  0.1633  0.0000  0.1633  0.0000 </r>
       </set>
       <set comment="band 8">
        <r>  0.0009  0.0099  0.0099  0.0099  0.0028  0.0028  0.0000  0.0028  0.0000 </r>
       </set>
       <set comment="band 9">
        <r>  0.0000  0.1071  0.0971  0.3450  0.0144  0.0510  0.0053  0.0158  0.0147 </r>
       </set>
       <set comment="band 10">
        <r>  0.0000  0.2590  0.2691  0.0211  0.0398  0.0031  0.0147  0.0383  0.0053 </r>
       </set>
       <set comment="band 11">
        <r>  0.0000  0.0087  0.0023  0.0184  0.0239  0.1933  0.0908  0.0915  0.6926 </r>
       </set>
       <set comment="band 12">
        <r>  0.0000  0.0109  0.0174  0.0012  0.1819  0.0125  0.6926  0.1142  0.0908 </r>
       </set>
      </set>
      <set comment="kpoint 60">
       <set comment="band 1">
        <r>  0.1839  0.0108  0.0108  0.0110  0.2071  0.2843  0.0000  0.2071  0.0000 </r>
       </set>
       <set comment="band 2">
        <r>  0.0002  0.0568  0.0568  0.0259  0.0090  0.0603  0.1695  0.0090  0.5086 </r>
       </set>
       <set comment="band 3">
        <r>  0.0010  0.0839  0.0839  0.1145  0.1464  0.3165  0.0009  0.1464  0.0026 </r>
       </set>
       <set comment="band 4">
        <r>  0.0000  0.0017  0.0017  0.0000  0.1823  0.0000  0.4511  0.1823  0.1504 </r>
       </set>
       <set comment="band 5">
        <r>  0.0000  0.0003  0.0003  0.0000  0.3106  0.0000  0.2761  0.3106  0.0920 </r>
       </set>
       <set comment="band 6">
        <r>  0.0075  0.0956  0.0956  0.0935  0.0335  0.2522  0.0740  0.0335  0.2219 </r>
       </set>
       <set comment="band 7">
        <r>  0.3992  0.0000  0.0000  0.0451  0.1707  0.1527  0.0005  0.1707  0.0016 </r>
       </set>
       <set comment="band 8">
        <r>  0.0253  0.0065  0.0065  0.1624  0.0429  0.0529  0.0573  0.0429  0.1719 </r>
       </set>
       <set comment="band 9">
        <r>  0.0725  0.0846  0.0846  0.1476  0.0078  0.0401  0.0002  0.0078  0.0005 </r>
       </set>
       <set comment="band 10">
        <r>  0.0000  0.2323  0.2323  0.0000  0.0219  0.0000  0.2133  0.0219  0.0711 </r>
       </set>
       <set comment="band 11">
        <r>  0.0000  0.0574  0.0574  0.0000  0.1914  0.0000  0.3337  0.1914  0.1112 </r>
       </set>
       <set comment="band 12">
        <r>  0.0600  0.0003  0.0003  0.0009  0.0000  0.3176  0.1114  0.0000  0.3341 </r>
       </set>
      </set>
     </set>
    </set>
   </array>
  </projected>
 </calculation>
 <structure name="finalpos" >
  <crystal>
   <varray name="basis" >
    <v>       0.00000000       1.71918221       1.71918221 </v>
    <v>       1.71918221       0.00000000       1.71918221 </v>
    <v>       1.71918221       1.71918221       0.00000000 </v>
   </varray>
   <i name="volume">     10.16238672 </i>
   <varray name="rec_basis" >
    <v>      -0.29083596       0.29083596       0.29083596 </v>
    <v>       0.29083596      -0.29083596       0.29083596 </v>
    <v>       0.29083596       0.29083596      -0.29083596 </v>
   </varray>
  </crystal>
  <varray name="positions" >
   <v>       0.00000000       0.00000000       0.00000000 </v>
  </varray>
 </structure>
</modeling>
