Co-fcc                                  
   1.00000000000000     
     0.000000    1.789353    1.789353
     1.789353    0.000000    1.789353
     1.789353    1.789353    0.000000
   Co
     1
Direct
  0.000000  0.000000  0.000000
 
   36   36   36
  108.74      106.76      101.03      92.194      81.137      68.862      56.321      44.321      33.487      24.252    
  16.872      11.416      7.7666      5.6269      4.5590      4.0541      3.7304      3.5390      3.4761      3.5390    
  3.7304      4.0541      4.5590      5.6269      7.7666      11.416      16.872      24.252      33.487      44.321    
  56.321      68.862      81.137      92.194      101.03      106.76      106.76      102.91      95.629      85.699    
  74.070      61.718      49.520      38.187      28.243      20.030      13.711      9.2595      6.4662      4.9574    
  4.2512      3.8626      3.6075      3.4823      3.4823      3.6075      3.8626      4.2512      4.9574      6.4662    
  9.2595      13.711      20.030      28.243      38.187      49.520      61.718      74.070      85.699      95.629    
  102.91      106.76      101.03      95.629      87.278      76.819      65.194      53.303      41.917      31.640    
  22.895      15.930      10.810      7.4132      5.4441      4.4703      3.9963      3.6838      3.4998      3.4394    
  3.4998      3.6838      3.9963      4.4703      5.4440      7.4132      10.810      15.930      22.895      31.640    
  41.917      53.303      65.194      76.819      87.278      95.629      101.03      102.91      92.194      85.699    
  76.819      66.394      55.295      44.317      34.116      25.185      17.848      12.255      8.3703      5.9812    
  4.7199      4.1236      3.7624      3.5259      3.4105      3.4105      3.5259      3.7624      4.1236      4.7199    
  5.9812      8.3703      12.255      17.848      25.185      34.116      44.317      55.295      66.394      76.819    
  85.699      92.194      95.629      95.629      81.137      74.070      65.194      55.295      45.146      35.422    
  26.664      19.260      13.431      9.2239      6.5069      4.9843      4.2434      3.8372      3.5568      3.3936    
  3.3403      3.3936      3.5568      3.8372      4.2434      4.9843      6.5069      9.2239      13.431      19.260    
  26.664      35.422      45.146      55.295      65.194      74.070      81.137      85.699      87.278      85.699    
  68.862      61.718      53.303      44.317      35.422      27.175      20.007      14.199      9.8651      6.9499    
  5.2312      4.3560      3.9029      3.5882      3.3858      3.2881      3.2881      3.3858      3.5882      3.9029    
  4.3560      5.2312      6.9499      9.8651      14.199      20.007      27.175      35.422      44.317      53.303    
  61.718      68.862      74.070      76.819      76.819      74.070      56.321      49.520      41.917      34.116    
  26.664      20.007      14.466      10.209      7.2457      5.4232      4.4518      3.9551      3.6162      3.3841    
  3.2511      3.2081      3.2511      3.3841      3.6162      3.9551      4.4518      5.4232      7.2457      10.209    
  14.466      20.007      26.664      34.116      41.917      49.520      56.321      61.718      65.194      66.394    
  65.194      61.718      44.321      38.187      31.640      25.185      19.260      14.199      10.209      7.3496    
  5.5283      4.5168      3.9911      3.6381      3.3853      3.2263      3.1505      3.1505      3.2263      3.3853    
  3.6381      3.9911      4.5168      5.5283      7.3496      10.209      14.199      19.260      25.185      31.640    
  38.187      44.321      49.520      53.303      55.295      55.295      53.303      49.520      33.487      28.243    
  22.895      17.848      13.431      9.8651      7.2457      5.5283      4.5400      4.0096      3.6518      3.3872    
  3.2108      3.1115      3.0797      3.1115      3.2108      3.3872      3.6518      4.0096      4.5400      5.5283    
  7.2457      9.8651      13.431      17.848      22.895      28.243      33.487      38.187      41.917      44.317    
  45.146      44.317      41.917      38.187      24.252      20.030      15.930      12.255      9.2239      6.9499    
  5.4232      4.5168      4.0096      3.6565      3.3886      3.2025      3.0878      3.0338      3.0338      3.0878    
  3.2025      3.3886      3.6565      4.0096      4.5168      5.4232      6.9499      9.2239      12.255      15.930    
  20.030      24.252      28.243      31.640      34.116      35.422      35.422      34.116      31.640      28.243    
  16.872      13.711      10.810      8.3703      6.5069      5.2312      4.4518      3.9911      3.6518      3.3886    
  3.1998      3.0766      3.0083      2.9865      3.0083      3.0766      3.1998      3.3886      3.6518      3.9911    
  4.4518      5.2312      6.5069      8.3703      10.810      13.711      16.872      20.030      22.895      25.185    
  26.664      27.175      26.664      25.185      22.895      20.030      11.416      9.2595      7.4132      5.9812    
  4.9843      4.3560      3.9551      3.6381      3.3872      3.2025      3.0766      3.0001      2.9643      2.9643    
  3.0001      3.0766      3.2025      3.3872      3.6381      3.9551      4.3560      4.9843      5.9812      7.4132    
  9.2595      11.416      13.711      15.930      17.848      19.260      20.007      20.007      19.260      17.848    
  15.930      13.711      7.7666      6.4662      5.4441      4.7199      4.2434      3.9029      3.6162      3.3853    
  3.2108      3.0878      3.0083      2.9643      2.9504      2.9643      3.0083      3.0878      3.2108      3.3853    
  3.6162      3.9029      4.2434      4.7199      5.4440      6.4662      7.7665      9.2595      10.810      12.255    
  13.431      14.199      14.466      14.199      13.431      12.255      10.810      9.2595      5.6269      4.9574    
  4.4703      4.1236      3.8372      3.5882      3.3841      3.2263      3.1115      3.0338      2.9865      2.9643    
  2.9643      2.9865      3.0338      3.1115      3.2263      3.3841      3.5882      3.8372      4.1236      4.4703    
  4.9574      5.6269      6.4662      7.4132      8.3703      9.2239      9.8651      10.209      10.209      9.8651    
  9.2239      8.3703      7.4132      6.4662      4.5590      4.2512      3.9963      3.7624      3.5568      3.3858    
  3.2511      3.1505      3.0797      3.0338      3.0083      3.0001      3.0083      3.0338      3.0797      3.1504    
  3.2511      3.3858      3.5568      3.7624      3.9963      4.2512      4.5591      4.9574      5.4440      5.9812    
  6.5069      6.9499      7.2457      7.3496      7.2457      6.9499      6.5069      5.9812      5.4440      4.9574    
  4.0541      3.8626      3.6838      3.5259      3.3936      3.2881      3.2081      3.1505      3.1115      3.0878    
  3.0766      3.0766      3.0878      3.1115      3.1504      3.2081      3.2881      3.3936      3.5259      3.6838    
  3.8626      4.0541      4.2512      4.4703      4.7199      4.9843      5.2312      5.4232      5.5283      5.5283    
  5.4232      5.2312      4.9843      4.7199      4.4703      4.2512      3.7304      3.6075      3.4998      3.4105    
  3.3403      3.2881      3.2511      3.2263      3.2108      3.2025      3.1998      3.2025      3.2108      3.2263    
  3.2511      3.2881      3.3403      3.4105      3.4998      3.6075      3.7304      3.8626      3.9963      4.1236    
  4.2434      4.3560      4.4518      4.5168      4.5400      4.5168      4.4518      4.3560      4.2434      4.1236    
  3.9963      3.8626      3.5390      3.4823      3.4394      3.4105      3.3936      3.3858      3.3841      3.3853    
  3.3872      3.3886      3.3886      3.3872      3.3853      3.3841      3.3858      3.3936      3.4105      3.4394    
  3.4823      3.5390      3.6075      3.6838      3.7624      3.8372      3.9029      3.9551      3.9911      4.0096    
  4.0096      3.9911      3.9551      3.9029      3.8372      3.7624      3.6838      3.6075      3.4761      3.4823    
  3.4998      3.5259      3.5568      3.5882      3.6162      3.6381      3.6518      3.6565      3.6518      3.6381    
  3.6162      3.5882      3.5568      3.5259      3.4998      3.4823      3.4761      3.4823      3.4998      3.5259    
  3.5568      3.5882      3.6162      3.6381      3.6518      3.6565      3.6518      3.6381      3.6162      3.5882    
  3.5568      3.5259      3.4998      3.4823      3.5390      3.6075      3.6838      3.7624      3.8372      3.9029    
  3.9551      3.9911      4.0096      4.0096      3.9911      3.9551      3.9029      3.8372      3.7624      3.6838    
  3.6075      3.5390      3.4823      3.4394      3.4105      3.3936      3.3858      3.3841      3.3853      3.3872    
  3.3886      3.3886      3.3872      3.3853      3.3841      3.3858      3.3936      3.4105      3.4394      3.4823    
  3.7304      3.8626      3.9963      4.1236      4.2434      4.3560      4.4518      4.5168      4.5400      4.5168    
  4.4518      4.3560      4.2434      4.1236      3.9963      3.8626      3.7304      3.6075      3.4998      3.4105    
  3.3403      3.2881      3.2511      3.2263      3.2108      3.2025      3.1998      3.2025      3.2108      3.2263    
  3.2511      3.2881      3.3403      3.4105      3.4998      3.6075      4.0541      4.2512      4.4703      4.7199    
  4.9843      5.2312      5.4232      5.5283      5.5283      5.4232      5.2312      4.9843      4.7199      4.4703    
  4.2512      4.0541      3.8626      3.6838      3.5259      3.3936      3.2881      3.2081      3.1504      3.1115    
  3.0878      3.0766      3.0766      3.0878      3.1115      3.1505      3.2081      3.2881      3.3936      3.5259    
  3.6838      3.8626      4.5590      4.9574      5.4440      5.9812      6.5069      6.9499      7.2457      7.3496    
  7.2457      6.9499      6.5069      5.9812      5.4440      4.9574      4.5591      4.2512      3.9963      3.7624    
  3.5568      3.3858      3.2511      3.1504      3.0797      3.0338      3.0083      3.0001      3.0083      3.0338    
  3.0797      3.1505      3.2511      3.3858      3.5568      3.7624      3.9963      4.2512      5.6269      6.4662    
  7.4132      8.3703      9.2239      9.8651      10.209      10.209      9.8651      9.2239      8.3703      7.4132    
  6.4662      5.6269      4.9574      4.4703      4.1236      3.8372      3.5882      3.3841      3.2263      3.1115    
  3.0338      2.9865      2.9643      2.9643      2.9865      3.0338      3.1115      3.2263      3.3841      3.5882    
  3.8372      4.1236      4.4703      4.9574      7.7666      9.2595      10.810      12.255      13.431      14.199    
  14.466      14.199      13.431      12.255      10.810      9.2595      7.7665      6.4662      5.4440      4.7199    
  4.2434      3.9029      3.6162      3.3853      3.2108      3.0878      3.0083      2.9643      2.9504      2.9643    
  3.0083      3.0878      3.2108      3.3853      3.6162      3.9029      4.2434      4.7199      5.4441      6.4662    
  11.416      13.711      15.930      17.848      19.260      20.007      20.007      19.260      17.848      15.930    
  13.711      11.416      9.2595      7.4132      5.9812      4.9843      4.3560      3.9551      3.6381      3.3872    
  3.2025      3.0766      3.0001      2.9643      2.9643      3.0001      3.0766      3.2025      3.3872      3.6381    
  3.9551      4.3560      4.9843      5.9812      7.4132      9.2595      16.872      20.030      22.895      25.185    
  26.664      27.175      26.664      25.185      22.895      20.030      16.872      13.711      10.810      8.3703    
  6.5069      5.2312      4.4518      3.9911      3.6518      3.3886      3.1998      3.0766      3.0083      2.9865    
  3.0083      3.0766      3.1998      3.3886      3.6518      3.9911      4.4518      5.2312      6.5069      8.3703    
  10.810      13.711      24.252      28.243      31.640      34.116      35.422      35.422      34.116      31.640    
  28.243      24.252      20.030      15.930      12.255      9.2239      6.9499      5.4232      4.5168      4.0096    
  3.6565      3.3886      3.2025      3.0878      3.0338      3.0338      3.0878      3.2025      3.3886      3.6565    
  4.0096      4.5168      5.4232      6.9499      9.2239      12.255      15.930      20.030      33.487      38.187    
  41.917      44.317      45.146      44.317      41.917      38.187      33.487      28.243      22.895      17.848    
  13.431      9.8651      7.2457      5.5283      4.5400      4.0096      3.6518      3.3872      3.2108      3.1115    
  3.0797      3.1115      3.2108      3.3872      3.6518      4.0096      4.5400      5.5283      7.2457      9.8651    
  13.431      17.848      22.895      28.243      44.321      49.520      53.303      55.295      55.295      53.303    
  49.520      44.321      38.187      31.640      25.185      19.260      14.199      10.209      7.3496      5.5283    
  4.5168      3.9911      3.6381      3.3853      3.2263      3.1505      3.1505      3.2263      3.3853      3.6381    
  3.9911      4.5168      5.5283      7.3496      10.209      14.199      19.260      25.185      31.640      38.187    
  56.321      61.718      65.194      66.394      65.194      61.718      56.321      49.520      41.917      34.116    
  26.664      20.007      14.466      10.209      7.2457      5.4232      4.4518      3.9551      3.6162      3.3841    
  3.2511      3.2081      3.2511      3.3841      3.6162      3.9551      4.4518      5.4232      7.2457      10.209    
  14.466      20.007      26.664      34.116      41.917      49.520      68.862      74.070      76.819      76.819    
  74.070      68.862      61.718      53.303      44.317      35.422      27.175      20.007      14.199      9.8651    
  6.9499      5.2312      4.3560      3.9029      3.5882      3.3858      3.2881      3.2881      3.3858      3.5882    
  3.9029      4.3560      5.2312      6.9499      9.8651      14.199      20.007      27.175      35.422      44.317    
  53.303      61.718      81.137      85.699      87.278      85.699      81.137      74.070      65.194      55.295    
  45.146      35.422      26.664      19.260      13.431      9.2239      6.5069      4.9843      4.2434      3.8372    
  3.5568      3.3936      3.3403      3.3936      3.5568      3.8372      4.2434      4.9843      6.5069      9.2239    
  13.431      19.260      26.664      35.422      45.146      55.295      65.194      74.070      92.194      95.629    
  95.629      92.194      85.699      76.819      66.394      55.295      44.317      34.116      25.185      17.848    
  12.255      8.3703      5.9812      4.7199      4.1236      3.7624      3.5259      3.4105      3.4105      3.5259    
  3.7624      4.1236      4.7199      5.9812      8.3703      12.255      17.848      25.185      34.116      44.317    
  55.295      66.394      76.819      85.699      101.03      102.91      101.03      95.629      87.278      76.819    
  65.194      53.303      41.917      31.640      22.895      15.930      10.810      7.4132      5.4440      4.4703    
  3.9963      3.6838      3.4998      3.4394      3.4998      3.6838      3.9963      4.4703      5.4441      7.4132    
  10.810      15.930      22.895      31.640      41.917      53.303      65.194      76.819      87.278      95.629    
  106.76      106.76      102.91      95.629      85.699      74.070      61.718      49.520      38.187      28.243    
  20.030      13.711      9.2595      6.4662      4.9574      4.2512      3.8626      3.6075      3.4823      3.4823    
  3.6075      3.8626      4.2512      4.9574      6.4662      9.2595      13.711      20.030      28.243      38.187    
  49.520      61.718      74.070      85.699      95.629      102.91      106.76      102.91      95.629      85.699    
  74.070      61.718      49.520      38.187      28.243      20.030      13.711      9.2595      6.4662      4.9574    
  4.2512      3.8626      3.6075      3.4823      3.4823      3.6075      3.8626      4.2512      4.9574      6.4662    
  9.2595      13.711      20.030      28.243      38.187      49.520      61.718      74.070      85.699      95.629    
  102.91      106.76      102.91      97.404      88.904      78.261      66.431      54.331      42.744      32.279    
  23.367      16.258      11.022      7.5377      5.5103      4.5048      4.0204      3.7038      3.5171      3.4558    
  3.5171      3.7038      4.0204      4.5048      5.5103      7.5377      11.022      16.258      23.367      32.279    
  42.744      54.331      66.431      78.261      88.904      97.404      102.91      104.81      95.629      88.904    
  79.710      68.919      57.431      46.064      35.493      26.225      18.591      12.751      8.6741      6.1493    
  4.8064      4.1749      3.8042      3.5611      3.4421      3.4421      3.5611      3.8042      4.1749      4.8064    
  6.1493      8.6741      12.751      18.592      26.225      35.493      46.064      57.431      68.919      79.710    
  88.904      95.629      99.188      99.188      85.699      78.261      68.919      58.501      47.815      37.565    
  28.315      20.469      14.261      9.7504      6.8094      5.1424      4.3288      3.9020      3.6101      3.4396    
  3.3839      3.4396      3.6101      3.9020      4.3288      5.1424      6.8094      9.7505      14.261      20.469    
  28.315      37.565      47.815      58.501      68.919      78.261      85.699      90.503      92.165      90.503    
  74.070      66.431      57.431      47.815      38.281      29.420      21.686      15.381      10.637      7.4082    
  5.4770      4.4839      3.9906      3.6595      3.4453      3.3415      3.3415      3.4453      3.6595      3.9906    
  4.4839      5.4770      7.4082      10.637      15.381      21.686      29.420      38.281      47.815      57.431    
  66.431      74.070      79.640      82.580      82.580      79.640      61.718      54.331      46.064      37.565    
  29.420      22.108      15.976      11.220      7.8633      5.7633      4.6273      4.0645      3.7044      3.4558    
  3.3127      3.2663      3.3127      3.4558      3.7044      4.0645      4.6273      5.7633      7.8633      11.220    
  15.976      22.108      29.420      37.565      46.064      54.331      61.718      67.578      71.351      72.654    
  71.351      67.578      49.520      42.744      35.493      28.315      21.686      15.976      11.423      8.1090    
  5.9566      4.7393      4.1211      3.7411      3.4675      3.2944      3.2114      3.2114      3.2944      3.4675    
  3.7411      4.1211      4.7393      5.9566      8.1090      11.423      15.976      21.686      28.315      35.493    
  42.744      49.520      55.255      59.422      61.618      61.618      59.423      55.255      38.187      32.279    
  26.225      20.469      15.381      11.220      8.1090      6.0249      4.8009      4.1577      3.7669      3.4778    
  3.2835      3.1736      3.1383      3.1736      3.2835      3.4778      3.7669      4.1577      4.8009      6.0249    
  8.1090      11.220      15.381      20.469      26.225      32.279      38.187      43.465      47.644      50.330    
  51.257      50.330      47.644      43.465      28.243      23.367      18.591      14.261      10.637      7.8633    
  5.9566      4.8009      4.1704      3.7801      3.4847      3.2777      3.1494      3.0888      3.0888      3.1494    
  3.2777      3.4847      3.7801      4.1704      4.8009      5.9566      7.8633      10.637      14.261      18.591    
  23.367      28.243      32.824      36.707      39.530      41.016      41.016      39.530      36.707      32.824    
  20.030      16.258      12.751      9.7504      7.4082      5.7633      4.7393      4.1577      3.7801      3.4871    
  3.2752      3.1362      3.0587      3.0340      3.0587      3.1362      3.2752      3.4871      3.7801      4.1577    
  4.7393      5.7633      7.4081      9.7504      12.751      16.258      20.030      23.762      27.124      29.796    
  31.517      32.111      31.517      29.796      27.124      23.762      13.711      11.022      8.6741      6.8094    
  5.4770      4.6273      4.1211      3.7669      3.4847      3.2752      3.1319      3.0446      3.0037      3.0037    
  3.0446      3.1319      3.2752      3.4847      3.7669      4.1211      4.6273      5.4769      6.8094      8.6741    
  11.021      13.711      16.530      19.226      21.538      23.229      24.122      24.122      23.229      21.538    
  19.226      16.530      9.2595      7.5377      6.1493      5.1424      4.4839      4.0645      3.7411      3.4778    
  3.2777      3.1362      3.0446      2.9941      2.9780      2.9941      3.0446      3.1362      3.2777      3.4778    
  3.7411      4.0645      4.4839      5.1424      6.1493      7.5377      9.2595      11.194      13.170      14.989    
  16.456      17.408      17.738      17.408      16.456      14.989      13.170      11.194      6.4662      5.5103    
  4.8064      4.3288      3.9906      3.7044      3.4675      3.2835      3.1494      3.0587      3.0037      2.9780    
  2.9780      3.0037      3.0587      3.1494      3.2835      3.4675      3.7044      3.9906      4.3288      4.8064    
  5.5103      6.4662      7.6356      8.9251      10.205      11.330      12.168      12.614      12.614      12.168    
  11.330      10.205      8.9251      7.6356      4.9574      4.5048      4.1749      3.9020      3.6595      3.4558    
  3.2944      3.1736      3.0888      3.0340      3.0037      2.9941      3.0037      3.0340      3.0888      3.1736    
  3.2944      3.4558      3.6595      3.9020      4.1749      4.5048      4.9574      5.5569      6.2789      7.0592    
  7.8085      8.4310      8.8427      8.9867      8.8427      8.4310      7.8085      7.0592      6.2790      5.5569    
  4.2512      4.0204      3.8042      3.6101      3.4453      3.3127      3.2114      3.1383      3.0888      3.0587    
  3.0446      3.0446      3.0587      3.0888      3.1383      3.2114      3.3127      3.4453      3.6101      3.8042    
  4.0204      4.2512      4.5227      4.8607      5.2564      5.6727      6.0562      6.3508      6.5109      6.5109    
  6.3508      6.0562      5.6727      5.2564      4.8607      4.5227      3.8626      3.7038      3.5611      3.4396    
  3.3415      3.2663      3.2114      3.1736      3.1494      3.1362      3.1319      3.1362      3.1494      3.1736    
  3.2114      3.2663      3.3415      3.4396      3.5611      3.7038      3.8626      4.0294      4.1961      4.3717    
  4.5610      4.7498      4.9131      5.0243      5.0638      5.0243      4.9131      4.7498      4.5610      4.3717    
  4.1961      4.0293      3.6075      3.5171      3.4421      3.3839      3.3415      3.3127      3.2944      3.2835    
  3.2777      3.2752      3.2752      3.2777      3.2835      3.2944      3.3127      3.3415      3.3839      3.4421    
  3.5171      3.6075      3.7099      3.8183      3.9259      4.0254      4.1124      4.1866      4.2428      4.2734    
  4.2734      4.2428      4.1866      4.1124      4.0254      3.9259      3.8183      3.7099      3.4823      3.4558    
  3.4421      3.4396      3.4453      3.4558      3.4675      3.4778      3.4847      3.4871      3.4847      3.4778    
  3.4675      3.4558      3.4453      3.4396      3.4421      3.4558      3.4823      3.5212      3.5702      3.6254    
  3.6819      3.7345      3.7791      3.8126      3.8333      3.8402      3.8333      3.8126      3.7791      3.7345    
  3.6819      3.6254      3.5702      3.5212      3.4823      3.5171      3.5611      3.6101      3.6595      3.7044    
  3.7411      3.7669      3.7801      3.7801      3.7669      3.7411      3.7044      3.6595      3.6101      3.5611    
  3.5171      3.4823      3.4592      3.4486      3.4492      3.4583      3.4723      3.4878      3.5017      3.5120    
  3.5173      3.5173      3.5120      3.5017      3.4878      3.4723      3.4583      3.4492      3.4486      3.4592    
  3.6075      3.7038      3.8042      3.9020      3.9906      4.0645      4.1211      4.1577      4.1704      4.1577    
  4.1211      4.0645      3.9906      3.9020      3.8042      3.7038      3.6075      3.5212      3.4486      3.3915    
  3.3495      3.3206      3.3020      3.2908      3.2845      3.2814      3.2805      3.2814      3.2845      3.2908    
  3.3020      3.3206      3.3495      3.3915      3.4486      3.5212      3.8626      4.0204      4.1749      4.3288    
  4.4839      4.6273      4.7393      4.8009      4.8009      4.7393      4.6273      4.4839      4.3288      4.1749    
  4.0204      3.8626      3.7099      3.5702      3.4492      3.3495      3.2712      3.2126      3.1708      3.1426    
  3.1255      3.1174      3.1174      3.1255      3.1426      3.1708      3.2126      3.2712      3.3495      3.4492    
  3.5702      3.7099      4.2512      4.5048      4.8064      5.1424      5.4770      5.7633      5.9566      6.0249    
  5.9566      5.7633      5.4769      5.1424      4.8064      4.5048      4.2512      4.0294      3.8183      3.6254    
  3.4583      3.3206      3.2126      3.1320      3.0752      3.0381      3.0174      3.0108      3.0174      3.0381    
  3.0752      3.1320      3.2126      3.3206      3.4583      3.6254      3.8183      4.0293      4.9574      5.5103    
  6.1493      6.8094      7.4082      7.8633      8.1090      8.1090      7.8633      7.4081      6.8094      6.1493    
  5.5103      4.9574      4.5227      4.1961      3.9259      3.6819      3.4723      3.3020      3.1708      3.0752    
  3.0102      2.9705      2.9518      2.9518      2.9705      3.0102      3.0752      3.1708      3.3020      3.4723    
  3.6819      3.9259      4.1961      4.5227      6.4662      7.5377      8.6741      9.7505      10.637      11.220    
  11.423      11.220      10.637      9.7504      8.6741      7.5377      6.4662      5.5569      4.8607      4.3717    
  4.0254      3.7345      3.4878      3.2908      3.1426      3.0381      2.9705      2.9330      2.9210      2.9330    
  2.9705      3.0381      3.1426      3.2908      3.4878      3.7345      4.0254      4.3717      4.8607      5.5569    
  9.2595      11.022      12.751      14.261      15.381      15.976      15.976      15.381      14.261      12.751    
  11.021      9.2595      7.6356      6.2789      5.2564      4.5610      4.1124      3.7791      3.5017      3.2845    
  3.1255      3.0174      2.9518      2.9210      2.9210      2.9518      3.0174      3.1255      3.2845      3.5017    
  3.7791      4.1124      4.5610      5.2564      6.2790      7.6356      13.711      16.258      18.592      20.469    
  21.686      22.108      21.686      20.469      18.591      16.258      13.711      11.194      8.9251      7.0592    
  5.6727      4.7498      4.1866      3.8126      3.5120      3.2814      3.1174      3.0108      2.9518      2.9330    
  2.9518      3.0108      3.1174      3.2814      3.5120      3.8126      4.1866      4.7498      5.6727      7.0593    
  8.9251      11.194      20.030      23.367      26.225      28.315      29.420      29.420      28.315      26.225    
  23.367      20.030      16.530      13.170      10.205      7.8085      6.0562      4.9131      4.2428      3.8333    
  3.5173      3.2805      3.1174      3.0174      2.9705      2.9705      3.0174      3.1174      3.2805      3.5173    
  3.8333      4.2428      4.9131      6.0562      7.8085      10.205      13.170      16.530      28.243      32.279    
  35.493      37.565      38.281      37.565      35.493      32.279      28.243      23.762      19.226      14.989    
  11.330      8.4310      6.3508      5.0243      4.2734      3.8402      3.5173      3.2814      3.1255      3.0381    
  3.0102      3.0381      3.1255      3.2814      3.5173      3.8402      4.2734      5.0243      6.3508      8.4310    
  11.330      14.989      19.226      23.762      38.187      42.744      46.064      47.815      47.815      46.064    
  42.744      38.187      32.824      27.124      21.538      16.456      12.168      8.8427      6.5109      5.0638    
  4.2734      3.8333      3.5120      3.2845      3.1426      3.0752      3.0752      3.1426      3.2845      3.5120    
  3.8333      4.2734      5.0638      6.5109      8.8427      12.168      16.456      21.538      27.124      32.824    
  49.520      54.331      57.431      58.501      57.431      54.331      49.520      43.465      36.707      29.796    
  23.229      17.408      12.614      8.9867      6.5109      5.0243      4.2428      3.8126      3.5017      3.2908    
  3.1708      3.1320      3.1708      3.2908      3.5017      3.8126      4.2428      5.0243      6.5109      8.9867    
  12.614      17.408      23.229      29.796      36.707      43.465      61.718      66.431      68.919      68.919    
  66.431      61.718      55.255      47.644      39.530      31.517      24.122      17.738      12.614      8.8427    
  6.3508      4.9131      4.1866      3.7791      3.4878      3.3020      3.2126      3.2126      3.3020      3.4878    
  3.7791      4.1866      4.9131      6.3508      8.8427      12.614      17.738      24.122      31.517      39.530    
  47.644      55.255      74.070      78.261      79.710      78.261      74.070      67.578      59.422      50.330    
  41.016      32.111      24.122      17.408      12.168      8.4310      6.0562      4.7498      4.1124      3.7345    
  3.4723      3.3206      3.2712      3.3206      3.4723      3.7345      4.1124      4.7498      6.0562      8.4310    
  12.168      17.408      24.122      32.111      41.016      50.330      59.423      67.578      85.699      88.904    