    1    1  100    2
  0.1145824E+02  0.2530527E-09  0.2530527E-09  0.2530527E-09  0.5000000E-15
  1.000000000000000E-004
  CAR 
 Co-fcc                                  
      9     60     12
 
  0.6250000E-01  0.6250000E-01  0.6250000E-01  0.3906250E-02
      1          1.055781        1.056580   1.000000   1.000000
      2          6.895291        8.528621   1.000000   1.000000
      3          6.969184        8.619169   1.000000   1.000000
      4          6.969184        8.619169   1.000000   1.000000
      5          7.883413        9.883985   1.000000   0.000000
      6          7.883413        9.883985   1.000000   0.000000
      7         31.779121       31.532698   0.000000   0.000000
      8         34.413262       34.520336   0.000000   0.000000
      9         35.810776       36.012483   0.000000   0.000000
     10         35.810776       36.012483   0.000000   0.000000
     11         39.546435       39.788929   0.000000   0.000000
     12         39.546436       39.788945   0.000000   0.000000
 
  0.1875000E+00  0.6250000E-01  0.6250000E-01  0.1171875E-01
      1          1.824762        1.832446   1.000000   1.000000
      2          6.702761        8.274637   1.000000   1.000000
      3          7.112938        8.783528   1.000000   1.000000
      4          7.118414        8.790386   1.000000   1.000000
      5          7.743781        9.710823   1.000000   0.000822
      6          7.968383        9.954809   1.000000   0.000000
      7         28.785626       28.985945   0.000000   0.000000
      8         31.380969       31.476216   0.000000   0.000000
      9         34.842769       34.863583   0.000000   0.000000
     10         36.801086       37.004839   0.000000   0.000000
     11         38.591938       38.541503   0.000000   0.000000
     12         39.700159       39.900432   0.000000   0.000000
 
  0.3125000E+00  0.6250000E-01  0.6250000E-01  0.1171875E-01
      1          3.451675        3.559718   1.000000   1.000000
      2          6.608274        7.966787   1.000000   1.000000
      3          7.056572        8.775778   1.000000   1.000000
      4          7.123025        8.871089   1.000000   1.000000
      5          7.950371        9.850318   1.000000   0.000000
      6          8.347879       10.274042   1.000000   0.000000
      7         22.778869       23.227373   0.000000   0.000000
      8         30.327919       30.417443   0.000000   0.000000
      9         33.805332       33.823368   0.000000   0.000000
     10         36.243095       36.591749   0.000000   0.000000
     11         37.478248       37.711947   0.000000   0.000000
     12         38.539370       38.592863   0.000000   0.000000
 
  0.4375000E+00  0.6250000E-01  0.6250000E-01  0.1171875E-01
      1          4.575490        5.265492   1.000000   1.000000
      2          6.843120        8.344014   1.000000   1.000000
      3          6.931530        8.588931   1.000000   1.000000
      4          7.622525        8.686470   1.000000   1.000000
      5          8.460616       10.387192   1.000000   0.000000
      6          9.115455       10.823645   1.000000   0.000000
      7         17.530172       18.264864   0.000000   0.000000
      8         29.925646       29.893750   0.000000   0.000000
      9         32.530427       32.638644   0.000000   0.000000
     10         34.136229       34.469855   0.000000   0.000000
     11         36.652347       36.923266   0.000000   0.000000
     12         38.212560       38.404268   0.000000   0.000000
 
 -0.4375000E+00  0.6250000E-01  0.6250000E-01  0.1171875E-01
      1          4.702362        5.651331   1.000000   1.000000
      2          6.754620        8.444979   1.000000   1.000000
      3          6.882770        8.629868   1.000000   1.000000
      4          8.136603        8.975473   1.000000   1.000000
      5          8.717530       10.680220   1.000000   0.000000
      6          9.963467       11.083376   0.000000   0.000000
      7         15.386339       16.385220   0.000000   0.000000
      8         30.133113       29.946525   0.000000   0.000000
      9         32.359656       32.678059   0.000000   0.000000
     10         32.542690       32.809375   0.000000   0.000000
     11         37.444086       37.705118   0.000000   0.000000
     12         37.515833       37.721496   0.000000   0.000000
 
 -0.3125000E+00  0.6250000E-01  0.6250000E-01  0.1171875E-01
      1          4.359885        4.813261   1.000000   1.000000
      2          6.878295        8.069226   1.000000   1.000000
      3          7.014961        8.630262   1.000000   1.000000
      4          7.118702        8.762050   1.000000   1.000000
      5          8.527323       10.382899   1.000000   0.000000
      6          8.602503       10.485054   1.000000   0.000000
      7         19.123628       19.742517   0.000000   0.000000
      8         30.848626       30.643727   0.000000   0.000000
      9         31.841715       32.182673   0.000000   0.000000
     10         34.138009       34.488237   0.000000   0.000000
     11         37.377689       37.544512   0.000000   0.000000
     12         39.139687       39.345919   0.000000   0.000000
 
 -0.1875000E+00  0.6250000E-01  0.6250000E-01  0.1171875E-01
      1          2.864872        2.911584   1.000000   1.000000
      2          6.561067        8.023847   1.000000   1.000000
      3          7.115577        8.838915   1.000000   1.000000
      4          7.170799        8.885150   1.000000   1.000000
      5          7.884845        9.773147   1.000000   0.000000
      6          8.118146       10.086460   1.000000   0.000000
      7         24.748888       25.124253   0.000000   0.000000
      8         31.849433       31.701922   0.000000   0.000000
      9         32.386609       32.730904   0.000000   0.000000
     10         36.784605       37.015563   0.000000   0.000000
     11         37.218081       37.347581   0.000000   0.000000
     12         41.407159       41.504174   0.000000   0.000000
 
 -0.6250000E-01  0.6250000E-01  0.6250000E-01  0.1171875E-01
      1          1.446414        1.449511   1.000000   1.000000
      2          6.765528        8.369290   1.000000   1.000000
      3          7.069692        8.728304   1.000000   1.000000
      4          7.073505        8.733056   1.000000   1.000000
      5          7.761091        9.733888   1.000000   0.000072
      6          7.944587        9.950369   1.000000   0.000000
      7         30.627222       30.638880   0.000000   0.000000
      8         32.974711       32.967487   0.000000   0.000000
      9         33.777119       34.072911   0.000000   0.000000
     10         35.729580       35.812905   0.000000   0.000000
     11         39.502899       39.678164   0.000000   0.000000
     12         41.389280       41.475158   0.000000   0.000000
 
  0.1875000E+00  0.1875000E+00  0.6250000E-01  0.1171875E-01
      1          2.193079        2.207653   1.000000   1.000000
      2          6.513989        8.066904   1.000000   1.000000
      3          7.246926        8.937984   1.000000   1.000000
      4          7.276743        8.957230   1.000000   1.000000
      5          7.598548        9.494465   1.000000   0.998519
      6          8.058780       10.073667   1.000000   0.000000
      7         29.077856       29.286326   0.000000   0.000000
      8         31.526943       31.596421   0.000000   0.000000
      9         31.619859       31.857164   0.000000   0.000000
     10         33.877861       33.923516   0.000000   0.000000
     11         38.783143       39.442693   0.000000   0.000000
     12         41.864022       41.943755   0.000000   0.000000
 
  0.3125000E+00  0.1875000E+00  0.6250000E-01  0.2343750E-01
      1          3.504750        3.590145   1.000000   1.000000
      2          6.239633        7.707697   1.000000   1.000000
      3          7.041693        8.773601   1.000000   1.000000
      4          7.509812        9.248824   1.000000   1.000000
      5          7.855287        9.651936   1.000000   0.069131
      6          8.418833       10.365362   1.000000   0.000000
      7         25.287044       25.645399   0.000000   0.000000
      8         27.845959       28.107191   0.000000   0.000000
      9         31.578820       31.698242   0.000000   0.000000
     10         33.481889       33.634010   0.000000   0.000000
     11         37.780478       38.303035   0.000000   0.000000
     12         41.685621       41.715404   0.000000   0.000000
 
  0.4375000E+00  0.1875000E+00  0.6250000E-01  0.2343750E-01
      1          4.847503        5.373641   1.000000   1.000000
      2          6.352555        7.604800   1.000000   1.000000
      3          6.767494        8.374405   1.000000   1.000000
      4          7.360103        9.139952   1.000000   1.000000
      5          8.502069       10.392529   1.000000   0.000000
      6          9.568785       11.144773   0.807726   0.000000
      7         19.631832       20.190701   0.000000   0.000000
      8         27.285194       27.518148   0.000000   0.000000
      9         29.145073       29.413336   0.000000   0.000000
     10         33.082135       33.276297   0.000000   0.000000
     11         39.633468       39.752600   0.000000   0.000000
     12         41.947770       42.214765   0.000000   0.000000
 
 -0.4375000E+00  0.1875000E+00  0.6250000E-01  0.2343750E-01
      1          5.147593        6.172222   1.000000   1.000000
      2          6.373692        7.791055   1.000000   1.000000
      3          7.180106        8.445214   1.000000   1.000000
      4          7.236202        8.994794   1.000000   1.000000
      5          8.685725       10.628823   1.000000   0.000000
      6         11.714064       12.625578   0.000000   0.000000
      7         15.592530       16.497438   0.000000   0.000000
      8         26.732704       26.952290   0.000000   0.000000
      9         28.393392       28.726907   0.000000   0.000000
     10         32.938637       33.039809   0.000000   0.000000
     11         38.762892       38.967009   0.000000   0.000000
     12         42.386234       42.475187   0.000000   0.000000
 
 -0.3125000E+00  0.1875000E+00  0.6250000E-01  0.2343750E-01
      1          5.077224        5.824119   1.000000   1.000000
      2          6.510424        7.820425   1.000000   1.000000
      3          6.849362        8.264734   1.000000   1.000000
      4          7.256887        9.043579   1.000000   1.000000
      5          8.395358       10.279441   1.000000   0.000000
      6         10.386925       11.787825   0.000000   0.000000
      7         18.002437       18.666024   0.000000   0.000000
      8         25.888027       26.180033   0.000000   0.000000
      9         29.979903       30.213800   0.000000   0.000000
     10         34.000933       34.109634   0.000000   0.000000
     11         38.159449       38.354616   0.000000   0.000000
     12         41.779061       41.885304   0.000000   0.000000
 
 -0.1875000E+00  0.1875000E+00  0.6250000E-01  0.2343750E-01
      1          4.067912        4.211463   1.000000   1.000000
      2          6.309176        7.730695   1.000000   1.000000
      3          6.884133        8.580071   1.000000   1.000000
      4          7.441571        9.236361   1.000000   1.000000
      5          7.795081        9.614941   1.000000   0.331439
      6          8.888942       10.739012   1.000000   0.000000
      7         23.333800       23.760581   0.000000   0.000000
      8         26.018107       26.326449   0.000000   0.000000
      9         32.499731       32.626087   0.000000   0.000000
     10         35.910518       36.016006   0.000000   0.000000
     11         37.668916       37.784308   0.000000   0.000000
     12         40.476623       40.794399   0.000000   0.000000
 
 -0.6250000E-01  0.1875000E+00  0.6250000E-01  0.2343750E-01
      1          2.545206        2.569958   1.000000   1.000000
      2          6.512979        8.036856   1.000000   1.000000
      3          7.150155        8.853018   1.000000   1.000000
      4          7.278221        8.975112   1.000000   1.000000
      5          7.670452        9.574118   1.000000   0.763844
      6          8.145471       10.119642   1.000000   0.000000
      7         26.957177       27.256357   0.000000   0.000000
      8         29.554793       29.746797   0.000000   0.000000
      9         33.928752       33.973600   0.000000   0.000000
     10         35.671377       35.699625   0.000000   0.000000
     11         38.836958       39.185239   0.000000   0.000000
     12         40.294247       40.508049   0.000000   0.000000
 
  0.3125000E+00  0.3125000E+00  0.6250000E-01  0.1171875E-01
      1          4.168323        4.435013   1.000000   1.000000
      2          5.856604        7.287992   1.000000   1.000000
      3          7.341821        8.889481   1.000000   1.000000
      4          7.902175        9.673436   1.000000   0.018290
      5          8.217152        9.903620   1.000000   0.000000
      6          8.385407       10.413849   1.000000   0.000000
      7         25.873106       26.183714   0.000000   0.000000
      8         27.478131       27.775235   0.000000   0.000000
      9         27.640057       27.876412   0.000000   0.000000
     10         30.362509       30.590552   0.000000   0.000000
     11         34.432273       34.939957   0.000000   0.000000
     12         46.333514       46.977693   0.000000   0.000000
 
  0.4375000E+00  0.3125000E+00  0.6250000E-01  0.2343750E-01
      1          4.890792        5.638419   1.000000   1.000000
      2          5.667246        7.035622   1.000000   1.000000
      3          7.298920        8.673591   1.000000   1.000000
      4          8.117953        9.969647   1.000000   0.000000
      5          8.545589       10.447553   1.000000   0.000000
      6          9.826393       11.238166   0.000000   0.000000
      7         22.556944       22.936931   0.000000   0.000000
      8         24.474891       24.839558   0.000000   0.000000
      9         25.331546       25.676666   0.000000   0.000000
     10         31.550767       31.775008   0.000000   0.000000
     11         35.653198       36.038166   0.000000   0.000000
     12         45.259844       45.493206   0.000000   0.000000
 
 -0.4375000E+00  0.3125000E+00  0.6250000E-01  0.2343750E-01
      1          5.355365        6.561147   1.000000   1.000000
      2          5.789252        7.052512   1.000000   1.000000
      3          7.027841        8.354561   1.000000   1.000000
      4          7.856021        9.742031   1.000000   0.000028
      5          8.747574       10.670832   1.000000   0.000000
      6         12.887462       13.760596   0.000000   0.000000
      7         17.584028       18.153019   0.000000   0.000000
      8         22.292479       22.778138   0.000000   0.000000
      9         25.550594       25.864457   0.000000   0.000000
     10         31.959403       32.159524   0.000000   0.000000
     11         40.531788       40.800143   0.000000   0.000000
     12         43.488185       43.718065   0.000000   0.000000
 
 -0.3125000E+00  0.3125000E+00  0.6250000E-01  0.2343750E-01
      1          5.796710        6.862779   1.000000   1.000000
      2          5.943469        7.324596   1.000000   1.000000
      3          6.612411        7.934082   1.000000   1.000000
      4          7.671084        9.571646   1.000000   0.784835
      5          8.463509       10.310013   1.000000   0.000000
      6         13.176086       14.090274   0.000000   0.000000
      7         17.434019       18.045470   0.000000   0.000000
      8         21.000388       21.512659   0.000000   0.000000
      9         27.219291       27.540871   0.000000   0.000000
     10         32.827136       32.971722   0.000000   0.000000
     11         41.385634       41.440151   0.000000   0.000000
     12         45.812596       46.107043   0.000000   0.000000
 
 -0.1875000E+00  0.3125000E+00  0.6250000E-01  0.2343750E-01
      1          5.345343        5.888011   1.000000   1.000000
      2          6.325346        7.639432   1.000000   1.000000
      3          6.455143        8.053719   1.000000   1.000000
      4          7.511137        9.366474   1.000000   1.000000
      5          8.120170        9.931472   1.000000   0.000000
      6         10.458658       11.933636   0.000000   0.000000
      7         20.160711       20.695472   0.000000   0.000000
      8         23.089333       23.487280   0.000000   0.000000
      9         29.740748       29.995513   0.000000   0.000000
     10         34.527929       34.654578   0.000000   0.000000
     11         38.712749       38.769518   0.000000   0.000000
     12         43.137550       43.303453   0.000000   0.000000
 
 -0.6250000E-01  0.3125000E+00  0.6250000E-01  0.2343750E-01
      1          4.180829        4.431675   1.000000   1.000000
      2          6.570579        7.831632   1.000000   1.000000
      3          6.896671        8.615840   1.000000   1.000000
      4          7.182628        8.943442   1.000000   1.000000
      5          8.167772       10.022047   1.000000   0.000000
      6          8.769531       10.623120   1.000000   0.000000
      7         21.074266       21.587437   0.000000   0.000000
      8         28.741195       28.925982   0.000000   0.000000
      9         32.217736       32.289972   0.000000   0.000000
     10         34.591901       34.882799   0.000000   0.000000
     11         38.294351       38.444777   0.000000   0.000000
     12         39.755120       39.902159   0.000000   0.000000
 
  0.4375000E+00  0.4375000E+00  0.6250000E-01  0.1171875E-01
      1          4.698068        5.773862   1.000000   1.000000
      2          5.330349        6.674640   1.000000   1.000000
      3          8.454399        9.900190   1.000000   0.000000
      4          8.460493       10.440288   1.000000   0.000000
      5          8.769069       10.720562   1.000000   0.000000
      6         10.520509       11.320817   0.000000   0.000000
      7         21.233974       21.839067   0.000000   0.000000
      8         23.608159       23.866692   0.000000   0.000000
      9         24.769395       24.970063   0.000000   0.000000
     10         29.484380       29.824958   0.000000   0.000000
     11         33.109067       33.533816   0.000000   0.000000
     12         46.520453       50.263328   0.000000   0.000000
 
 -0.4375000E+00  0.4375000E+00  0.6250000E-01  0.2343750E-01
      1          4.839743        6.073719   1.000000   1.000000
      2          5.352716        6.671484   1.000000   1.000000
      3          8.075872        9.508330   1.000000   0.995053
      4          8.411009       10.439996   1.000000   0.000000
      5          8.900934       10.796329   1.000000   0.000000
      6         12.978245       13.490933   0.000000   0.000000
      7         19.122545       19.905529   0.000000   0.000000
      8         21.237810       21.566909   0.000000   0.000000
      9         23.638285       23.884271   0.000000   0.000000
     10         30.914445       31.191478   0.000000   0.000000
     11         35.002704       35.382978   0.000000   0.000000
     12         46.495288       48.370138   0.000000   0.000000
 
 -0.3125000E+00  0.4375000E+00  0.6250000E-01  0.2343750E-01
      1          5.311697        6.636568   1.000000   1.000000
      2          5.703296        6.949475   1.000000   1.000000
      3          7.190736        8.515004   1.000000   1.000000
      4          8.014167        9.970819   1.000000   0.000000
      5          8.741550       10.621102   1.000000   0.000000
      6         14.875380       15.492995   0.000000   0.000000
      7         16.982369       17.539959   0.000000   0.000000
      8         19.824957       20.474224   0.000000   0.000000
      9         25.099748       25.405924   0.000000   0.000000
     10         31.795197       32.011946   0.000000   0.000000
     11         40.482259       40.802757   0.000000   0.000000
     12         44.644161       44.725207   0.000000   0.000000
 
 -0.1875000E+00  0.4375000E+00  0.6250000E-01  0.2343750E-01
      1          5.496523        6.592226   1.000000   1.000000
      2          6.100348        7.444464   1.000000   1.000000
      3          6.892384        8.199744   1.000000   1.000000
      4          7.453400        9.291205   1.000000   1.000000
      5          8.598257       10.505137   1.000000   0.000000
      6         12.896328       13.735221   0.000000   0.000000
      7         15.858366       16.676985   0.000000   0.000000
      8         23.718465       24.103515   0.000000   0.000000
      9         27.573448       27.887568   0.000000   0.000000
     10         32.851372       32.971936   0.000000   0.000000
     11         40.102703       40.243505   0.000000   0.000000
     12         44.497396       44.566966   0.000000   0.000000
 
 -0.6250000E-01  0.4375000E+00  0.6250000E-01  0.2343750E-01
      1          4.834941        5.723704   1.000000   1.000000
      2          6.654382        8.190315   1.000000   1.000000
      3          7.011270        8.571287   1.000000   1.000000
      4          7.521911        8.778880   1.000000   1.000000
      5          8.633775       10.570874   1.000000   0.000000
      6         10.210167       11.460289   0.000000   0.000000
      7         16.318234       17.159927   0.000000   0.000000
      8         28.705598       28.778646   0.000000   0.000000
      9         30.605887       30.876262   0.000000   0.000000
     10         33.178625       33.339529   0.000000   0.000000
     11         37.706905       37.950641   0.000000   0.000000
     12         39.859171       40.007157   0.000000   0.000000
 
 -0.4375000E+00 -0.4375000E+00  0.6250000E-01  0.1171875E-01
      1          4.643956        5.850150   1.000000   1.000000
      2          5.210853        6.536441   1.000000   1.000000
      3          8.562956       10.359658   1.000000   0.000000
      4          8.712434       10.633158   1.000000   0.000000
      5          8.912035       10.813882   1.000000   0.000000
      6         12.049712       12.343474   0.000000   0.000000
      7         19.012074       19.838679   0.000000   0.000000
      8         23.049940       23.272115   0.000000   0.000000
      9         24.169029       24.336055   0.000000   0.000000
     10         29.339318       29.706080   0.000000   0.000000
     11         32.937098       33.361895   0.000000   0.000000
     12         46.532015       50.323167   0.000000   0.000000
 
 -0.3125000E+00 -0.4375000E+00  0.6250000E-01  0.2343750E-01
      1          4.907313        6.015422   1.000000   1.000000
      2          5.461640        6.797437   1.000000   1.000000
      3          7.764259        9.119593   1.000000   1.000000
      4          8.346816       10.294031   1.000000   0.000000
      5          8.761381       10.674107   1.000000   0.000000
      6         11.383051       12.298756   0.000000   0.000000
      7         21.286889       21.779993   0.000000   0.000000
      8         21.887150       22.320694   0.000000   0.000000
      9         24.170307       24.442595   0.000000   0.000000
     10         31.116819       31.374549   0.000000   0.000000
     11         35.197521       35.574830   0.000000   0.000000
     12         46.306238       47.154236   0.000000   0.000000
 
 -0.1875000E+00 -0.4375000E+00  0.6250000E-01  0.2343750E-01
      1          5.252291        6.153165   1.000000   1.000000
      2          6.025648        7.309637   1.000000   1.000000
      3          6.834833        8.255610   1.000000   1.000000
      4          7.608338        9.429024   1.000000   0.999999
      5          8.690042       10.629283   1.000000   0.000000
      6         10.986373       12.181744   0.000000   0.000000
      7         18.459312       19.036330   0.000000   0.000000
      8         25.326236       25.642856   0.000000   0.000000
      9         26.534865       26.881872   0.000000   0.000000
     10         32.343204       32.523846   0.000000   0.000000
     11         40.403703       40.565205   0.000000   0.000000
     12         42.485921       42.840049   0.000000   0.000000
 
 -0.3125000E+00 -0.3125000E+00  0.6250000E-01  0.1171875E-01
      1          4.655858        5.373532   1.000000   1.000000
      2          5.555084        6.935580   1.000000   1.000000
      3          7.918502        9.182105   1.000000   1.000000
      4          8.230470       10.087530   1.000000   0.000000
      5          8.571970       10.482028   1.000000   0.000000
      6          9.031790       10.582201   1.000000   0.000000
      7         24.139640       24.508584   0.000000   0.000000
      8         24.774287       25.122289   0.000000   0.000000
      9         25.905092       26.155676   0.000000   0.000000
     10         29.798726       30.089396   0.000000   0.000000
     11         33.543510       33.985465   0.000000   0.000000
     12         46.458914       49.474465   0.000000   0.000000
 
 -0.1875000E+00 -0.3125000E+00  0.6250000E-01  0.2343750E-01
      1          4.434352        4.728128   1.000000   1.000000
      2          5.941173        7.354691   1.000000   1.000000
      3          6.987192        8.593270   1.000000   1.000000
      4          7.802930        9.589216   1.000000   0.614733
      5          8.233612       10.037317   1.000000   0.000000
      6          8.870629       10.678071   1.000000   0.000000
      7         23.807884       24.192042   0.000000   0.000000
      8         26.270467       26.559726   0.000000   0.000000
      9         28.256962       28.539243   0.000000   0.000000
     10         32.283535       32.470926   0.000000   0.000000
     11         36.478625       36.904859   0.000000   0.000000
     12         43.587514       43.683799   0.000000   0.000000
 
 -0.1875000E+00 -0.1875000E+00  0.6250000E-01  0.1171875E-01
      1          3.193966        3.259436   1.000000   1.000000
      2          6.193201        7.684917   1.000000   1.000000
      3          7.242298        8.998501   1.000000   1.000000
      4          7.563815        9.279816   1.000000   1.000000
      5          7.754138        9.488459   1.000000   0.999160
      6          8.211337       10.236027   1.000000   0.000000
      7         27.446709       27.741559   0.000000   0.000000
      8         29.385810       29.712580   0.000000   0.000000
      9         30.244842       30.277745   0.000000   0.000000
     10         31.632835       31.785465   0.000000   0.000000
     11         36.104598       36.729304   0.000000   0.000000
     12         44.357729       44.324708   0.000000   0.000000
 
  0.1875000E+00  0.1875000E+00  0.1875000E+00  0.3906250E-02
      1          2.184958        2.202106   1.000000   1.000000
      2          6.679465        8.204778   1.000000   1.000000
      3          7.118384        8.808552   1.000000   1.000000
      4          7.118384        8.808552   1.000000   1.000000
      5          7.891142        9.854762   1.000000   0.000000
      6          7.891142        9.854762   1.000000   0.000000
      7         26.679649       26.980835   0.000000   0.000000
      8         32.847340       32.600042   0.000000   0.000000
      9         34.675277       34.990837   0.000000   0.000000
     10         34.675277       34.990837   0.000000   0.000000
     11         40.110274       39.995030   0.000000   0.000000
     12         40.534737       40.630757   0.000000   0.000000
 
  0.3125000E+00  0.1875000E+00  0.1875000E+00  0.1171875E-01
      1          3.207087        3.263280   1.000000   1.000000
      2          6.454941        7.929751   1.000000   1.000000
      3          7.066406        8.762693   1.000000   1.000000
      4          7.329055        9.069174   1.000000   1.000000
      5          7.634464        9.528727   1.000000   0.977388
      6          8.442374       10.363132   1.000000   0.000000
      7         25.030388       25.400632   0.000000   0.000000
      8         27.675854       27.930958   0.000000   0.000000
      9         35.190300       35.129143   0.000000   0.000000
     10         37.095712       37.040545   0.000000   0.000000
     11         37.123739       37.316041   0.000000   0.000000
     12         38.861187       39.241160   0.000000   0.000000
 
  0.4375000E+00  0.1875000E+00  0.1875000E+00  0.1171875E-01
      1          4.747105        5.030549   1.000000   1.000000
      2          6.355706        7.717436   1.000000   1.000000
      3          6.728127        8.371377   1.000000   1.000000
      4          7.372468        9.226528   1.000000   1.000000
      5          7.873719        9.674459   1.000000   0.017030
      6          9.526772       11.249761   0.980199   0.000000
      7         21.624321       22.113866   0.000000   0.000000
      8         24.411872       24.768595   0.000000   0.000000
      9         33.256407       33.240850   0.000000   0.000000
     10         33.619103       33.961514   0.000000   0.000000
     11         39.010286       38.941404   0.000000   0.000000
     12         40.547030       40.780549   0.000000   0.000000
 
 -0.4375000E+00  0.1875000E+00  0.1875000E+00  0.1171875E-01
      1          5.283148        6.230201   1.000000   1.000000
      2          6.368123        7.772453   1.000000   1.000000
      3          6.985254        8.242899   1.000000   1.000000
      4          7.269053        9.084952   1.000000   1.000000
      5          8.452257       10.347698   1.000000   0.000000
      6         11.502116       12.615558   0.000000   0.000000
      7         16.708201       17.468221   0.000000   0.000000
      8         24.659126       25.000329   0.000000   0.000000
      9         30.627657       30.965196   0.000000   0.000000
     10         31.646528       31.692228   0.000000   0.000000