Co-fcc                                  
   1.00000000000000     
     0.000000    1.578841    1.578841
     1.578841    0.000000    1.578841
     1.578841    1.578841    0.000000
   Co
     1
Direct
  0.000000  0.000000  0.000000
 
   32   32   32
  74.180      72.853      69.019      63.086      55.644      47.362      38.891      30.794      23.505      17.324    
  12.414      8.8071      6.4129      5.0329      4.3882      4.1619      4.0996      4.1619      4.3882      5.0329    
  6.4129      8.8071      12.414      17.324      23.505      30.794      38.891      47.362      55.644      63.086    
  69.019      72.853      72.853      70.274      65.395      58.718      50.878      42.537      34.299      26.661    
  19.988      14.508      10.318      7.3858      5.5652      4.6134      4.2281      4.1021      4.1019      4.2277    
  4.6130      5.5651      7.3862      10.319      14.509      19.989      26.662      34.298      42.535      50.876    
  58.715      65.392      70.272      72.852      69.019      65.395      59.781      52.734      44.884      36.850    
  29.168      22.258      16.408      11.778      8.3949      6.1685      4.9008      4.3173      4.1092      4.0480    
  4.1086      4.3164      4.9001      6.1686      8.3960      11.780      16.411      22.259      29.168      36.848    
  44.881      52.729      59.776      65.390      69.017      70.272      63.086      58.718      52.734      45.695    
  38.194      30.782      23.913      17.927      13.039      9.3344      6.7792      5.2253      4.4357      4.1205    
  4.0035      4.0030      4.1194      4.4345      5.2248      6.7799      9.3365      13.042      17.930      23.915    
  30.781      38.192      45.690      52.727      58.712      63.082      65.390      65.392      55.644      50.878    
  44.884      38.194      31.339      24.786      18.909      13.966      10.098      7.3242      5.5470      4.5729    
  4.1412      3.9701      3.9128      3.9690      4.1396      4.5717      5.5469      7.3257      10.102      13.970    
  18.912      24.788      31.338      38.191      44.879      50.872      55.638      58.712      59.776      58.715    
  47.362      42.537      36.850      30.782      24.786      19.248      14.458      10.597      7.7336      5.8201    
  4.7080      4.1719      3.9474      3.8419      3.8413      3.9459      4.1702      4.7070      5.8205      7.7358    
  10.601      14.461      19.251      24.787      30.781      36.847      42.532      47.357      50.872      52.727    
  52.729      50.876      38.891      34.299      29.168      23.913      18.909      14.458      10.771      7.9532    
  6.0032      4.8162      4.2054      3.9338      3.7907      3.7408      3.7896      3.9320      4.2037      4.8155    
  6.0039      7.9554      10.774      14.461      18.911      23.914      29.167      34.296      38.888      42.532    
  44.879      45.690      44.881      42.535      30.794      26.661      22.258      17.927      13.966      10.597    
  7.9532      6.0677      4.8764      4.2312      3.9268      3.7573      3.6688      3.6683      3.7560      3.9251    
  4.2298      4.8757      6.0682      7.9547      10.599      13.968      17.928      22.258      26.660      30.792    
  34.296      36.847      38.191      38.192      36.848      34.298      23.505      19.988      16.408      13.039    
  10.098      7.7336      6.0032      4.8764      4.2409      3.9244      3.7389      3.6233      3.5838      3.6224    
  3.7375      3.9228      4.2395      4.8755      6.0029      7.7338      10.099      13.039      16.408      19.987    
  23.504      26.660      29.167      30.781      31.338      30.781      29.168      26.662      17.324      14.508    
  11.778      9.3344      7.3242      5.8201      4.8162      4.2312      3.9244      3.7331      3.6014      3.5345    
  3.5342      3.6006      3.7318      3.9229      4.2297      4.8147      5.8187      7.3228      9.3329      11.776    
  14.506      17.322      19.987      22.258      23.914      24.787      24.788      23.915      22.259      19.989    
  12.414      10.318      8.3949      6.7792      5.5470      4.7080      4.2054      3.9268      3.7389      3.6014    
  3.5184      3.4907      3.5181      3.6008      3.7379      3.9255      4.2037      4.7060      5.5446      6.7764    
  8.3919      10.315      12.411      14.506      16.408      17.928      18.911      19.251      18.912      17.930    
  16.411      14.509      8.8071      7.3858      6.1685      5.2253      4.5729      4.1719      3.9338      3.7573    
  3.6233      3.5345      3.4907      3.4907      3.5344      3.6230      3.7568      3.9328      4.1704      4.5708    
  5.2225      6.1651      7.3820      8.8030      10.315      11.776      13.039      13.968      14.461      14.461    
  13.970      13.042      11.780      10.319      6.4129      5.5652      4.9008      4.4357      4.1412      3.9474    
  3.7907      3.6688      3.5838      3.5342      3.5181      3.5344      3.5841      3.6691      3.7908      3.9471    
  4.1403      4.4341      4.8983      5.5620      6.4090      7.3820      8.3919      9.3329      10.099      10.599    
  10.774      10.601      10.102      9.3365      8.3960      7.3862      5.0329      4.6134      4.3173      4.1205    
  3.9701      3.8419      3.7408      3.6683      3.6224      3.6006      3.6008      3.6230      3.6691      3.7418    
  3.8428      3.9707      4.1206      4.3167      4.6119      5.0305      5.5620      6.1651      6.7764      7.3228    
  7.7338      7.9547      7.9554      7.7358      7.3257      6.7799      6.1686      5.5651      4.3882      4.2281    
  4.1092      4.0035      3.9128      3.8413      3.7896      3.7560      3.7375      3.7318      3.7379      3.7568    
  3.7908      3.8428      3.9144      4.0050      4.1105      4.2287      4.3880      4.6119      4.8983      5.2225    
  5.5446      5.8187      6.0029      6.0682      6.0039      5.8205      5.5469      5.2248      4.9001      4.6130    
  4.1619      4.1021      4.0480      4.0030      3.9690      3.9459      3.9320      3.9251      3.9228      3.9229    
  3.9255      3.9328      3.9471      3.9707      4.0050      4.0502      4.1042      4.1636      4.2287      4.3167    
  4.4341      4.5708      4.7060      4.8147      4.8755      4.8757      4.8155      4.7070      4.5717      4.4345    
  4.3164      4.2277      4.0996      4.1019      4.1086      4.1194      4.1396      4.1702      4.2037      4.2298    
  4.2395      4.2297      4.2037      4.1704      4.1403      4.1206      4.1105      4.1042      4.1020      4.1042    
  4.1105      4.1206      4.1403      4.1704      4.2037      4.2297      4.2395      4.2298      4.2037      4.1702    
  4.1396      4.1194      4.1086      4.1019      4.1619      4.2277      4.3164      4.4345      4.5717      4.7070    
  4.8155      4.8757      4.8755      4.8147      4.7060      4.5708      4.4341      4.3167      4.2287      4.1636    
  4.1042      4.0502      4.0050      3.9707      3.9471      3.9328      3.9255      3.9229      3.9228      3.9251    
  3.9320      3.9459      3.9690      4.0030      4.0480      4.1021      4.3882      4.6130      4.9001      5.2248    
  5.5469      5.8205      6.0039      6.0682      6.0029      5.8187      5.5446      5.2225      4.8983      4.6119    
  4.3880      4.2287      4.1105      4.0050      3.9144      3.8428      3.7908      3.7568      3.7379      3.7318    
  3.7375      3.7560      3.7896      3.8413      3.9128      4.0035      4.1092      4.2281      5.0329      5.5651    
  6.1686      6.7799      7.3257      7.7358      7.9554      7.9547      7.7338      7.3228      6.7764      6.1651    
  5.5620      5.0305      4.6119      4.3167      4.1206      3.9707      3.8428      3.7418      3.6691      3.6230    
  3.6008      3.6006      3.6224      3.6683      3.7408      3.8419      3.9701      4.1205      4.3173      4.6134    
  6.4129      7.3862      8.3960      9.3365      10.102      10.601      10.774      10.599      10.099      9.3329    
  8.3919      7.3820      6.4090      5.5620      4.8983      4.4341      4.1403      3.9471      3.7908      3.6691    
  3.5841      3.5344      3.5181      3.5342      3.5838      3.6688      3.7907      3.9474      4.1412      4.4357    
  4.9008      5.5652      8.8071      10.319      11.780      13.042      13.970      14.461      14.461      13.968    
  13.039      11.776      10.315      8.8030      7.3820      6.1651      5.2225      4.5708      4.1704      3.9328    
  3.7568      3.6230      3.5344      3.4907      3.4907      3.5345      3.6233      3.7573      3.9338      4.1719    
  4.5729      5.2253      6.1685      7.3858      12.414      14.509      16.411      17.930      18.912      19.251    
  18.911      17.928      16.408      14.506      12.411      10.315      8.3919      6.7764      5.5446      4.7060    
  4.2037      3.9255      3.7379      3.6008      3.5181      3.4907      3.5184      3.6014      3.7389      3.9268    
  4.2054      4.7080      5.5470      6.7792      8.3949      10.318      17.324      19.989      22.259      23.915    
  24.788      24.787      23.914      22.258      19.987      17.322      14.506      11.776      9.3329      7.3228    
  5.8187      4.8147      4.2297      3.9229      3.7318      3.6006      3.5342      3.5345      3.6014      3.7331    
  3.9244      4.2312      4.8162      5.8201      7.3242      9.3344      11.778      14.508      23.505      26.662    
  29.168      30.781      31.338      30.781      29.167      26.660      23.504      19.987      16.408      13.039    
  10.099      7.7338      6.0029      4.8755      4.2395      3.9228      3.7375      3.6224      3.5838      3.6233    
  3.7389      3.9244      4.2409      4.8764      6.0032      7.7336      10.098      13.039      16.408      19.988    
  30.794      34.298      36.848      38.192      38.191      36.847      34.296      30.792      26.660      22.258    
  17.928      13.968      10.599      7.9547      6.0682      4.8757      4.2298      3.9251      3.7560      3.6683    
  3.6688      3.7573      3.9268      4.2312      4.8764      6.0677      7.9532      10.597      13.966      17.927    
  22.258      26.661      38.891      42.535      44.881      45.690      44.879      42.532      38.888      34.296    
  29.167      23.914      18.911      14.461      10.774      7.9554      6.0039      4.8155      4.2037      3.9320    
  3.7896      3.7408      3.7907      3.9338      4.2054      4.8162      6.0032      7.9532      10.771      14.458    
  18.909      23.913      29.168      34.299      47.362      50.876      52.729      52.727      50.872      47.357    
  42.532      36.847      30.781      24.787      19.251      14.461      10.601      7.7358      5.8205      4.7070    
  4.1702      3.9459      3.8413      3.8419      3.9474      4.1719      4.7080      5.8201      7.7336      10.597    
  14.458      19.248      24.786      30.782      36.850      42.537      55.644      58.715      59.776      58.712    
  55.638      50.872      44.879      38.191      31.338      24.788      18.912      13.970      10.102      7.3257    
  5.5469      4.5717      4.1396      3.9690      3.9128      3.9701      4.1412      4.5729      5.5470      7.3242    
  10.098      13.966      18.909      24.786      31.339      38.194      44.884      50.878      63.086      65.392    
  65.390      63.082      58.712      52.727      45.690      38.192      30.781      23.915      17.930      13.042    
  9.3365      6.7799      5.2248      4.4345      4.1194      4.0030      4.0035      4.1205      4.4357      5.2253    
  6.7792      9.3344      13.039      17.927      23.913      30.782      38.194      45.695      52.734      58.718    
  69.019      70.272      69.017      65.390      59.776      52.729      44.881      36.848      29.168      22.259    
  16.411      11.780      8.3960      6.1686      4.9001      4.3164      4.1086      4.0480      4.1092      4.3173    
  4.9008      6.1685      8.3949      11.778      16.408      22.258      29.168      36.850      44.884      52.734    
  59.781      65.395      72.853      72.852      70.272      65.392      58.715      50.876      42.535      34.298    
  26.662      19.989      14.509      10.319      7.3862      5.5651      4.6130      4.2277      4.1019      4.1021    
  4.2281      4.6134      5.5652      7.3858      10.318      14.508      19.988      26.661      34.299      42.537    
  50.878      58.718      65.395      70.274      72.853      70.274      65.395      58.718      50.878      42.537    
  34.299      26.661      19.988      14.508      10.318      7.3858      5.5652      4.6134      4.2281      4.1021    
  4.1019      4.2277      4.6130      5.5651      7.3862      10.319      14.509      19.989      26.662      34.298    
  42.535      50.876      58.715      65.392      70.272      72.852      70.274      66.572      60.842      53.653    
  45.653      37.473      29.657      22.630      16.682      11.969      8.5216      6.2464      4.9456      4.3440    
  4.1308      4.0693      4.1302      4.3431      4.9449      6.2463      8.5223      11.971      16.683      22.631    
  29.657      37.470      45.649      53.648      60.836      66.567      70.271      71.554      65.395      60.842    
  54.611      47.294      39.511      31.832      24.724      18.532      13.472      9.6277      6.9645      5.3338    
  4.4973      4.1625      4.0436      4.0431      4.1613      4.4959      5.3329      6.9645      9.6287      13.473    
  18.534      24.724      31.830      39.507      47.288      54.604      60.835      65.390      67.798      67.800    
  58.718      53.653      47.294      40.214      32.975      26.069      19.881      14.674      10.587      7.6405    
  5.7359      4.6786      4.2050      4.0256      3.9674      4.0246      4.2033      4.6770      5.7350      7.6407    
  10.589      14.675      19.882      26.068      32.972      40.208      47.287      53.645      58.712      61.985    
  63.118      61.988      50.878      45.653      39.511      32.975      26.534      20.591      15.450      11.295    
  8.1940      6.1004      4.8652      4.2602      4.0149      3.9069      3.9063      4.0134      4.2584      4.8637    
  6.0998      8.1943      11.296      15.451      20.591      26.532      32.971      39.505      45.647      50.872    
  54.688      56.704      56.706      54.692      42.537      37.473      31.832      26.069      20.591      15.718    
  11.670      8.5567      6.3772      5.0278      4.3197      4.0102      3.8623      3.8108      3.8614      4.0087    
  4.3181      5.0266      6.3767      8.5568      11.671      15.719      20.591      26.067      31.828      37.468    
  42.532      46.562      49.163      50.062      49.165      46.566      34.299      29.657      24.724      19.881    
  15.450      11.670      8.6829      6.5264      5.1385      4.3703      4.0110      3.8324      3.7399      3.7396    
  3.8315      4.0098      4.3690      5.1375      6.5258      8.6826      11.670      15.449      19.880      24.722    
  29.655      34.296      38.245      41.125      42.646      42.646      41.127      38.247      26.661      22.630    
  18.532      14.674      11.295      8.5567      6.5264      5.1778      4.3993      4.0140      3.8145      3.6923    
  3.6506      3.6920      3.8139      4.0131      4.3982      5.1767      6.5253      8.5555      11.294      14.672    
  18.531      22.629      26.660      30.287      33.174      35.036      35.680      35.036      33.175      30.288    
  19.988      16.682      13.472      10.587      8.1940      6.3772      5.1385      4.3993      4.0155      3.8063    
  3.6653      3.5933      3.5933      3.6652      3.8060      4.0148      4.3981      5.1369      6.3752      8.1919    
  10.585      13.470      16.680      19.987      23.119      25.792      27.744      28.775      28.775      27.744    
  25.792      23.120      14.508      11.969      9.6277      7.6405      6.1004      5.0278      4.3703      4.0140    
  3.8063      3.6566      3.5656      3.5352      3.5657      3.6566      3.8060      4.0131      4.3687      5.0255    
  6.0977      7.6375      9.6249      11.967      14.507      17.040      19.337      21.176      22.364      22.775    
  22.364      21.176      19.338      17.041      10.318      8.5216      6.9645      5.7359      4.8652      4.3197    
  4.0110      3.8145      3.6653      3.5656      3.5161      3.5162      3.5657      3.6653      3.8141      4.0098    
  4.3178      4.8625      5.7326      6.9610      8.5182      10.315      12.212      14.039      15.615      16.774    
  17.388      17.388      16.774      15.616      14.041      12.214      7.3858      6.2464      5.3338      4.6786    
  4.2602      4.0102      3.8324      3.6923      3.5933      3.5352      3.5162      3.5353      3.5935      3.6922    
  3.8319      4.0090      4.2584      4.6760      5.3306      6.2428      7.3821      8.6708      9.9950      11.221    
  12.216      12.864      13.089      12.865      12.217      11.224      9.9981      8.6743      5.5652      4.9456    
  4.4973      4.2050      4.0149      3.8623      3.7399      3.6506      3.5933      3.5657      3.5657      3.5935    
  3.6507      3.7400      3.8621      4.0142      4.2038      4.4954      4.9431      5.5621      6.3272      7.1774    
  8.0268      8.7786      9.3408      9.6418      9.6424      9.3426      8.7813      8.0301      7.1810      6.3307    
  4.6134      4.3440      4.1625      4.0256      3.9069      3.8108      3.7396      3.6920      3.6652      3.6566    
  3.6653      3.6922      3.7400      3.8113      3.9073      4.0259      4.1624      4.3433      4.6120      4.9830    
  5.4403      5.9420      6.4291      6.8373      7.1091      7.2049      7.1103      6.8396      6.4320      5.9450    
  5.4431      4.9851      4.2281      4.1308      4.0436      3.9674      3.9063      3.8614      3.8315      3.8139    
  3.8060      3.8060      3.8141      3.8319      3.8621      3.9073      3.9687      4.0449      4.1320      4.2287    
  4.3597      4.5421      4.7706      5.0213      5.2584      5.4438      5.5457      5.5462      5.4451      5.2602    
  5.0232      4.7722      4.5430      4.3598      4.1021      4.0693      4.0431      4.0246      4.0134      4.0087    
  4.0098      4.0131      4.0148      4.0131      4.0098      4.0090      4.0142      4.0259      4.0449      4.0714    
  4.1042      4.1411      4.1822      4.2405      4.3202      4.4120      4.4984      4.5602      4.5828      4.5606    
  4.4990      4.4125      4.3203      4.2400      4.1811      4.1393      4.1019      4.1302      4.1613      4.2033    
  4.2584      4.3181      4.3690      4.3982      4.3981      4.3687      4.3178      4.2584      4.2038      4.1624    
  4.1320      4.1042      4.0798      4.0606      4.0476      4.0409      4.0422      4.0520      4.0649      4.0737    
  4.0736      4.0646      4.0513      4.0411      4.0393      4.0455      4.0581      4.0773      4.2277      4.3431    
  4.4959      4.6770      4.8637      5.0266      5.1375      5.1767      5.1369      5.0255      4.8625      4.6760    
  4.4954      4.3433      4.2287      4.1411      4.0606      3.9882      3.9283      3.8829      3.8515      3.8320    
  3.8217      3.8184      3.8211      3.8308      3.8497      3.8807      3.9258      3.9857      4.0583      4.1393    
  4.6130      4.9449      5.3329      5.7350      6.0998      6.3767      6.5258      6.5253      6.3752      6.0977    
  5.7326      5.3306      4.9431      4.6120      4.3597      4.1822      4.0476      3.9283      3.8284      3.7513    
  3.6970      3.6631      3.6469      3.6466      3.6620      3.6953      3.7492      3.8262      3.9263      4.0461    
  4.1815      4.3598      5.5651      6.2463      6.9645      7.6407      8.1943      8.5568      8.6826      8.5555    
  8.1919      7.6375      6.9610      6.2428      5.5621      4.9830      4.5421      4.2405      4.0409      3.8829    
  3.7513      3.6507      3.5814      3.5413      3.5281      3.5407      3.5804      3.6494      3.7499      3.8818    
  4.0404      4.2408      4.5433      4.9851      7.3862      8.5223      9.6287      10.589      11.296      11.671    
  11.670      11.294      10.585      9.6249      8.5182      7.3821      6.3272      5.4403      4.7706      4.3202    
  4.0422      3.8515      3.6970      3.5814      3.5058      3.4687      3.4686      3.5055      3.5811      3.6967    
  3.8515      4.0427      4.3213      4.7726      5.4431      6.3307      10.319      11.971      13.473      14.675    
  15.451      15.719      15.449      14.672      13.470      11.967      10.315      8.6708      7.1774      5.9420    
  5.0213      4.4120      4.0520      3.8320      3.6631      3.5413      3.4687      3.4447      3.4690      3.5419    
  3.6639      3.8330      4.0532      4.4135      5.0232      5.9445      7.1804      8.6743      14.509      16.683    
  18.534      19.882      20.591      20.591      19.880      18.531      16.680      14.507      12.212      9.9950    
  8.0268      6.4291      5.2584      4.4984      4.0649      3.8217      3.6469      3.5281      3.4686      3.4690    
  3.5292      3.6485      3.8235      4.0665      4.4998      5.2596      6.4304      8.0283      9.9969      12.214    
  19.989      22.631      24.724      26.068      26.532      26.067      24.722      22.629      19.987      17.040    
  14.039      11.221      8.7786      6.8373      5.4438      4.5602      4.0737      3.8184      3.6466      3.5407    
  3.5055      3.5419      3.6485      3.8206      4.0756      4.5613      5.4439      6.8368      8.7777      11.221    
  14.039      17.041      26.662      29.657      31.830      32.972      32.971      31.828      29.655      26.660    
  23.119      19.337      15.615      12.216      9.3408      7.1091      5.5457      4.5828      4.0736      3.8211    
  3.6620      3.5804      3.5811      3.6639      3.8235      4.0756      4.5835      5.5449      7.1068      9.3375    
  12.212      15.612      19.336      23.120      34.298      37.470      39.507      40.208      39.505      37.468    
  34.296      30.287      25.792      21.176      16.774      12.864      9.6418      7.2049      5.5462      4.5606    
  4.0646      3.8308      3.6953      3.6494      3.6967      3.8330      4.0665      4.5613      5.5449      7.2014    
  9.6368      12.858      16.769      21.172      25.791      30.288      42.535      45.649      47.288      47.287    
  45.647      42.532      38.245      33.174      27.744      22.364      17.388      13.089      9.6424      7.1103    
  5.4451      4.4990      4.0513      3.8497      3.7492      3.7499      3.8515      4.0532      4.4998      5.4439    
  7.1068      9.6368      13.083      17.381      22.359      27.742      33.174      38.247      50.876      53.648    
  54.604      53.645      50.872      46.562      41.125      35.036      28.775      22.775      17.388      12.865    
  9.3426      6.8396      5.2602      4.4125      4.0411      3.8807      3.8262      3.8818      4.0427      4.4135    
  5.2596      6.8368      9.3375      12.858      17.381      22.770      28.772      35.036      41.128      46.566    
  58.715      60.836      60.835      58.712      54.688      49.163      42.646      35.680      28.775      22.364    
  16.774      12.217      8.7813      6.4320      5.0232      4.3203      4.0393      3.9258      3.9263      4.0404    
  4.3213      5.0232      6.4304      8.7777      12.212      16.769      22.359      28.772      35.680      42.648    
  49.167      54.692      65.392      66.567      65.390      61.985      56.704      50.062      42.646      35.036    
  27.744      21.176      15.616      11.224      8.0301      5.9450      4.7722      4.2400      4.0455      3.9857    
  4.0461      4.2408      4.7726      5.9445      8.0283      11.221      15.612      21.172      27.742      35.036    
  42.648      50.066      56.708      61.988      70.272      70.271      67.798      63.118      56.706      49.165    
  41.127      33.175      25.792      19.338      14.041      9.9981      7.1810      5.4431      4.5430      4.1811    
  4.0581      4.0583      4.1815      4.5433      5.4431      7.1804      9.9969      14.039      19.336      25.791    
  33.174      41.128      49.167      56.708      63.120      67.800      72.852      71.554      67.800      61.988    
  54.692      46.566      38.247      30.288      23.120      17.041      12.214      8.6743      6.3307      4.9851    
  4.3598      4.1393      4.0773      4.1393      4.3598      4.9851      6.3307      8.6743      12.214      17.041    
  23.120      30.288      38.247      46.566      54.692      61.988      67.800      71.554      69.019      65.395    
  59.781      52.734      44.884      36.850      29.168      22.258      16.408      11.778      8.3949      6.1685    
  4.9008      4.3173      4.1092      4.0480      4.1086      4.3164      4.9001      6.1686      8.3960      11.780    
  16.411      22.259      29.168      36.848      44.881      52.729      59.776      65.390      69.017      70.272    
  65.395      60.842      54.611      47.294      39.511      31.832      24.724      18.532      13.472      9.6277    
  6.9645      5.3338      4.4973      4.1625      4.0436      4.0431      4.1613      4.4959      5.3329      6.9645    
  9.6287      13.473      18.534      24.724      31.830      39.507      47.288      54.604      60.835      65.390    
  67.798      67.800      59.781      54.611      48.125      40.909      33.538      26.510      20.215      14.917    
  10.756      7.7500      5.8017      4.7156      4.2272      4.0446      3.9861      4.0435      4.2255      4.7139    
  5.8005      7.7497      10.756      14.917      20.214      26.508      33.533      40.902      48.117      54.603    
  59.774      63.116      64.274      63.120      52.734      47.294      40.909      34.125      27.448      21.294    
  15.970      11.661      8.4373      6.2500      4.9498      4.3076      4.0497      3.9406      3.9400      4.0482    
  4.3056      4.9479      6.2485      8.4364      11.661      15.969      21.292      27.444      34.120      40.902    
  47.286      52.727      56.704      58.807      58.808      56.708      44.884      39.511      33.538      27.448    
  21.666      16.524      12.247      8.9465      6.6214      5.1677      4.3954      4.0585      3.9072      3.8548    
  3.9064      4.0571      4.3937      5.1659      6.6197      8.9449      12.246      16.522      21.663      27.444    
  33.532      39.505      44.879      49.162      51.930      52.888      51.932      49.167      36.850      31.832    
  26.510      21.294      16.524      12.450      9.2174      6.8664      5.3358      4.4756      4.0718      3.8849    
  3.7900      3.7898      3.8843      4.0708      4.4743      5.3342      6.8645      9.2151      12.447      16.521    
  21.291      26.507      31.828      36.847      41.125      44.252      45.904      45.905      44.253      41.128    
  29.168      24.724      20.215      15.970      12.247      9.2174      6.9520      5.4274      4.5317      4.0854    
  3.8714      3.7449      3.7017      3.7450      3.8715      4.0852      4.5309      5.4258      6.9497      9.2146    
  12.244      15.967      20.212      24.723      29.167      33.175      36.371      38.436      39.150      38.435    
  36.371      33.174      22.258      18.532      14.917      11.661      8.9465      6.8664      5.4274      4.5519    
  4.0941      3.8644      3.7169      3.6415      3.6417      3.7177      3.8651      4.0943      4.5512      5.4255    
  6.8637      8.9435      11.659      14.915      18.532      22.259      25.793      28.814      31.024      32.192    
  32.191      31.022      28.812      25.791      16.408      13.472      10.756      8.4373      6.6214      5.3358    
  4.5317      4.0941      3.8622      3.7038      3.6068      3.5746      3.6076      3.7049      3.8631      4.0942    
  4.5306      5.3335      6.6183      8.4341      10.753      13.470      16.409      19.338      21.997      24.126    
  25.504      25.980      25.502      24.124      21.994      19.336      11.778      9.6277      7.7500      6.2500    
  5.1677      4.4756      4.0854      3.8644      3.7038      3.5956      3.5419      3.5422      3.5966      3.7048    
  3.8649      4.0849      4.4738      5.1649      6.2467      7.7469      9.6255      11.777      14.040      16.215    
  18.091      19.470      20.201      20.201      19.469      18.089      16.213      14.039      8.3949      6.9645    
  5.8017      4.9498      4.3954      4.0718      3.8714      3.7169      3.6068      3.5419      3.5207      3.5423    
  3.6076      3.7174      3.8712      4.0706      4.3933      4.9469      5.7985      6.9615      8.3926      9.9956    
  11.633      13.144      14.368      15.165      15.441      15.164      14.367      13.144      11.633      9.9969    
  6.1685      5.3338      4.7156      4.3076      4.0585      3.8849      3.7449      3.6415      3.5746      3.5422    
  3.5423      3.5749      3.6416      3.7448      3.8843      4.0572      4.3056      4.7131      5.3309      6.1657    
  7.1778      8.2877      9.3868      10.354      11.075      11.460      11.460      11.076      10.355      9.3884    
  8.2898      7.1804      4.9008      4.4973      4.2272      4.0497      3.9072      3.7900      3.7017      3.6417    
  3.6076      3.5966      3.6076      3.6416      3.7015      3.7897      3.9067      4.0488      4.2260      4.4956    