Co-fcc                                  
   1.00000000000000     
     0.000000    1.578841    1.578841
     1.578841    0.000000    1.578841
     1.578841    1.578841    0.000000
   Co
     1
Direct
  0.000000  0.000000  0.000000
 
   32   32   32
 0.74179592828E+02 0.72852966212E+02 0.69019051633E+02 0.63085814202E+02 0.55643629594E+02
 0.47361844325E+02 0.38891240454E+02 0.30793699077E+02 0.23505130403E+02 0.17324209411E+02
 0.12413996724E+02 0.88070689154E+01 0.64129223763E+01 0.50328734421E+01 0.43881773563E+01
 0.41618743628E+01 0.40995749741E+01 0.41618743628E+01 0.43881773563E+01 0.50328734421E+01
 0.64129223763E+01 0.88070689154E+01 0.12413996724E+02 0.17324209411E+02 0.23505130403E+02
 0.30793699077E+02 0.38891240454E+02 0.47361844325E+02 0.55643629594E+02 0.63085814202E+02
 0.69019051633E+02 0.72852966212E+02 0.72852966212E+02 0.70273878671E+02 0.65394559129E+02
 0.58718261354E+02 0.50878460446E+02 0.42536831360E+02 0.34298915457E+02 0.26661173813E+02
 0.19988084180E+02 0.14508230506E+02 0.10317734365E+02 0.73858360479E+01 0.55652481552E+01
 0.46134115882E+01 0.42280785155E+01 0.41021075610E+01 0.41019366511E+01 0.42276580709E+01
 0.46129802626E+01 0.55650903911E+01 0.73861562937E+01 0.10318553374E+02 0.14509344420E+02
 0.19989105903E+02 0.26661647519E+02 0.34298468751E+02 0.42535314736E+02 0.50876025625E+02
 0.58715348522E+02 0.65391792170E+02 0.70271897607E+02 0.72852247285E+02 0.69019051633E+02
 0.65394559129E+02 0.59781027166E+02 0.52733585866E+02 0.44884027146E+02 0.36849891095E+02
 0.29167962557E+02 0.22257754798E+02 0.16408391942E+02 0.11777594067E+02 0.83948869166E+01
 0.61684820161E+01 0.49007761692E+01 0.43173459227E+01 0.41092444733E+01 0.40479530018E+01
 0.41086295017E+01 0.43164480613E+01 0.49001232851E+01 0.61685750237E+01 0.83959729022E+01
 0.11779521169E+02 0.16410605063E+02 0.22259442917E+02 0.29168315025E+02 0.36848380159E+02
 0.44880621119E+02 0.52728816753E+02 0.59775882269E+02 0.65390223230E+02 0.69016576009E+02
 0.70271897607E+02 0.63085814202E+02 0.58718261354E+02 0.52733585866E+02 0.45694584994E+02
 0.38194257922E+02 0.30781621986E+02 0.23912923132E+02 0.17927340580E+02 0.13038668980E+02
 0.93344078572E+01 0.67791687783E+01 0.52253083165E+01 0.44357163007E+01 0.41205346943E+01
 0.40034522912E+01 0.40029890582E+01 0.41193839354E+01 0.44344994878E+01 0.52247778856E+01
 0.67798917960E+01 0.93365015001E+01 0.13041688707E+02 0.17930370373E+02 0.23914847217E+02
 0.30781492924E+02 0.38191639069E+02 0.45689749244E+02 0.52727496667E+02 0.58712332045E+02
 0.63081514655E+02 0.65390223230E+02 0.65391792170E+02 0.55643629594E+02 0.50878460446E+02
 0.44884027147E+02 0.38194257922E+02 0.31338706168E+02 0.24785889675E+02 0.18908502241E+02
 0.13966167194E+02 0.10098494553E+02 0.73241604223E+01 0.55469622794E+01 0.45729222890E+01
 0.41411639693E+01 0.39700644915E+01 0.39127860291E+01 0.39690233858E+01 0.41396033864E+01
 0.45716823292E+01 0.55468678915E+01 0.73256775480E+01 0.10101502104E+02 0.13969932710E+02
 0.18911879578E+02 0.24787679819E+02 0.31338063708E+02 0.38191006079E+02 0.44878770864E+02
 0.50872451517E+02 0.55638419001E+02 0.58712332045E+02 0.59775882269E+02 0.58715348523E+02
 0.47361844325E+02 0.42536831360E+02 0.36849891095E+02 0.30781621986E+02 0.24785889675E+02
 0.19247733431E+02 0.14457586670E+02 0.10597251601E+02 0.77336467387E+01 0.58200750086E+01
 0.47079575742E+01 0.41718836392E+01 0.39474400728E+01 0.38418529440E+01 0.38412569508E+01
 0.39459280076E+01 0.41701797465E+01 0.47069603805E+01 0.58205095481E+01 0.77357669411E+01
 0.10600701029E+02 0.14461472437E+02 0.19250895105E+02 0.24787277060E+02 0.30780656124E+02
 0.36846685374E+02 0.42532193905E+02 0.47357054368E+02 0.50872451517E+02 0.52727496667E+02
 0.52728816754E+02 0.50876025625E+02 0.38891240455E+02 0.34298915457E+02 0.29167962558E+02
 0.23912923132E+02 0.18908502241E+02 0.14457586670E+02 0.10770547437E+02 0.79532415679E+01
 0.60032126123E+01 0.48161747227E+01 0.42053519436E+01 0.39337531077E+01 0.37906730027E+01
 0.37408298117E+01 0.37895733703E+01 0.39320192470E+01 0.42037462571E+01 0.48154782083E+01
 0.60039333457E+01 0.79554123177E+01 0.10773684965E+02 0.14460830479E+02 0.18910889147E+02
 0.23913706911E+02 0.29166871127E+02 0.34296257471E+02 0.38887822604E+02 0.42532193905E+02
 0.44878770864E+02 0.45689749244E+02 0.44880621119E+02 0.42535314736E+02 0.30793699077E+02
 0.26661173813E+02 0.22257754799E+02 0.17927340580E+02 0.13966167194E+02 0.10597251601E+02
 0.79532415679E+01 0.60676720027E+01 0.48763607492E+01 0.42311990669E+01 0.39268391336E+01
 0.37573198943E+01 0.36687934758E+01 0.36682757913E+01 0.37559534726E+01 0.39251192843E+01
 0.42297580395E+01 0.48757474382E+01 0.60681584123E+01 0.79547225245E+01 0.10599272776E+02
 0.13968073063E+02 0.17928493173E+02 0.22257749777E+02 0.26659980819E+02 0.30791678367E+02
 0.34296257471E+02 0.36846685374E+02 0.38191006079E+02 0.38191639069E+02 0.36848380159E+02
 0.34298468751E+02 0.23505130403E+02 0.19988084180E+02 0.16408391943E+02 0.13038668980E+02
 0.10098494553E+02 0.77336467387E+01 0.60032126123E+01 0.48763607492E+01 0.42408987863E+01
 0.39243759500E+01 0.37389218986E+01 0.36232517376E+01 0.35837597825E+01 0.36224438498E+01
 0.37375314234E+01 0.39227790509E+01 0.42394986929E+01 0.48754562993E+01 0.60029033820E+01
 0.77338066338E+01 0.10098822600E+02 0.13038799963E+02 0.16408029289E+02 0.19987109929E+02
 0.23503654758E+02 0.26659980819E+02 0.29166871127E+02 0.30780656124E+02 0.31338063708E+02
 0.30781492924E+02 0.29168315026E+02 0.26661647519E+02 0.17324209411E+02 0.14508230506E+02
 0.11777594067E+02 0.93344078573E+01 0.73241604224E+01 0.58200750085E+01 0.48161747227E+01
 0.42311990669E+01 0.39243759499E+01 0.37330929308E+01 0.36014242269E+01 0.35345354799E+01
 0.35342375126E+01 0.36005823430E+01 0.37318464093E+01 0.39229067992E+01 0.42296751315E+01
 0.48147001487E+01 0.58186653365E+01 0.73227511547E+01 0.93328937980E+01 0.11775885974E+02
 0.14506309313E+02 0.17322158652E+02 0.19987109929E+02 0.22257749777E+02 0.23913706911E+02
 0.24787277060E+02 0.24787679819E+02 0.23914847217E+02 0.22259442918E+02 0.19989105903E+02
 0.12413996724E+02 0.10317734365E+02 0.83948869167E+01 0.67791687784E+01 0.55469622794E+01
 0.47079575742E+01 0.42053519435E+01 0.39268391335E+01 0.37389218986E+01 0.36014242268E+01
 0.35184430372E+01 0.34907125257E+01 0.35181146822E+01 0.36007703845E+01 0.37379445176E+01
 0.39255341146E+01 0.42037065279E+01 0.47059538425E+01 0.55445883827E+01 0.67764364751E+01
 0.83918509437E+01 0.10314507276E+02 0.12410752915E+02 0.14506309313E+02 0.16408029289E+02
 0.17928493173E+02 0.18910889147E+02 0.19250895105E+02 0.18911879578E+02 0.17930370373E+02
 0.16410605063E+02 0.14509344421E+02 0.88070689155E+01 0.73858360480E+01 0.61684820161E+01
 0.52253083165E+01 0.45729222890E+01 0.41718836392E+01 0.39337531076E+01 0.37573198942E+01
 0.36232517375E+01 0.35345354798E+01 0.34907125256E+01 0.34906854032E+01 0.35344267353E+01
 0.36229834039E+01 0.37567756844E+01 0.39327979950E+01 0.41703890994E+01 0.45707944221E+01
 0.52225149048E+01 0.61650737692E+01 0.73819572784E+01 0.88029539646E+01 0.10314507276E+02
 0.11775885974E+02 0.13038799963E+02 0.13968073063E+02 0.14460830479E+02 0.14461472437E+02
 0.13969932710E+02 0.13041688708E+02 0.11779521169E+02 0.10318553375E+02 0.64129223765E+01
 0.55652481553E+01 0.49007761692E+01 0.44357163007E+01 0.41411639693E+01 0.39474400727E+01
 0.37906730025E+01 0.36687934756E+01 0.35837597824E+01 0.35342375126E+01 0.35181146821E+01
 0.35344267353E+01 0.35840689837E+01 0.36690907051E+01 0.37907777115E+01 0.39471459890E+01
 0.41402707408E+01 0.44340674659E+01 0.48982980434E+01 0.55619818448E+01 0.64090404426E+01
 0.73819572784E+01 0.83918509436E+01 0.93328937979E+01 0.10098822600E+02 0.10599272776E+02
 0.10773684965E+02 0.10600701029E+02 0.10101502104E+02 0.93365015001E+01 0.83959729023E+01
 0.73861562939E+01 0.50328734422E+01 0.46134115883E+01 0.43173459228E+01 0.41205346943E+01
 0.39700644914E+01 0.38418529439E+01 0.37408298116E+01 0.36682757912E+01 0.36224438496E+01
 0.36005823429E+01 0.36007703844E+01 0.36229834039E+01 0.36690907051E+01 0.37417876635E+01
 0.38427648621E+01 0.39706972523E+01 0.41206400681E+01 0.43167063374E+01 0.46118941682E+01
 0.50304789544E+01 0.55619818447E+01 0.61650737691E+01 0.67764364750E+01 0.73227511546E+01
 0.77338066336E+01 0.79547225243E+01 0.79554123175E+01 0.77357669410E+01 0.73256775480E+01
 0.67798917960E+01 0.61685750238E+01 0.55650903913E+01 0.43881773564E+01 0.42280785156E+01
 0.41092444734E+01 0.40034522912E+01 0.39127860290E+01 0.38412569507E+01 0.37895733701E+01
 0.37559534725E+01 0.37375314233E+01 0.37318464092E+01 0.37379445175E+01 0.37567756843E+01
 0.37907777115E+01 0.38427648621E+01 0.39144446374E+01 0.40050326202E+01 0.41104692973E+01
 0.42286779411E+01 0.43879591223E+01 0.46118941682E+01 0.48982980434E+01 0.52225149047E+01
 0.55445883825E+01 0.58186653363E+01 0.60029033818E+01 0.60681584121E+01 0.60039333456E+01
 0.58205095480E+01 0.55468678914E+01 0.52247778856E+01 0.49001232852E+01 0.46129802627E+01
 0.41618743630E+01 0.41021075612E+01 0.40479530019E+01 0.40029890582E+01 0.39690233858E+01
 0.39459280075E+01 0.39320192469E+01 0.39251192841E+01 0.39227790507E+01 0.39229067991E+01
 0.39255341145E+01 0.39327979949E+01 0.39471459889E+01 0.39706972522E+01 0.40050326202E+01
 0.40501657619E+01 0.41042047518E+01 0.41635526664E+01 0.42286779411E+01 0.43167063374E+01
 0.44340674658E+01 0.45707944220E+01 0.47059538424E+01 0.48147001486E+01 0.48754562991E+01
 0.48757474380E+01 0.48154782082E+01 0.47069603804E+01 0.45716823292E+01 0.44344994878E+01
 0.43164480614E+01 0.42276580710E+01 0.40995749742E+01 0.41019366512E+01 0.41086295017E+01
 0.41193839354E+01 0.41396033864E+01 0.41701797464E+01 0.42037462570E+01 0.42297580394E+01
 0.42394986928E+01 0.42296751314E+01 0.42037065278E+01 0.41703890993E+01 0.41402707407E+01
 0.41206400681E+01 0.41104692973E+01 0.41042047518E+01 0.41020002842E+01 0.41042047518E+01
 0.41104692973E+01 0.41206400681E+01 0.41402707407E+01 0.41703890993E+01 0.42037065278E+01
 0.42296751314E+01 0.42394986928E+01 0.42297580394E+01 0.42037462570E+01 0.41701797464E+01
 0.41396033864E+01 0.41193839354E+01 0.41086295017E+01 0.41019366512E+01 0.41618743630E+01
 0.42276580710E+01 0.43164480614E+01 0.44344994878E+01 0.45716823292E+01 0.47069603804E+01
 0.48154782082E+01 0.48757474380E+01 0.48754562991E+01 0.48147001486E+01 0.47059538424E+01
 0.45707944220E+01 0.44340674658E+01 0.43167063374E+01 0.42286779411E+01 0.41635526664E+01
 0.41042047518E+01 0.40501657619E+01 0.40050326202E+01 0.39706972522E+01 0.39471459889E+01
 0.39327979949E+01 0.39255341145E+01 0.39229067991E+01 0.39227790507E+01 0.39251192841E+01
 0.39320192469E+01 0.39459280075E+01 0.39690233858E+01 0.40029890582E+01 0.40479530019E+01
 0.41021075612E+01 0.43881773564E+01 0.46129802627E+01 0.49001232852E+01 0.52247778856E+01
 0.55468678914E+01 0.58205095480E+01 0.60039333456E+01 0.60681584121E+01 0.60029033818E+01
 0.58186653363E+01 0.55445883825E+01 0.52225149047E+01 0.48982980434E+01 0.46118941682E+01
 0.43879591223E+01 0.42286779411E+01 0.41104692973E+01 0.40050326202E+01 0.39144446374E+01
 0.38427648621E+01 0.37907777115E+01 0.37567756843E+01 0.37379445175E+01 0.37318464092E+01
 0.37375314233E+01 0.37559534725E+01 0.37895733701E+01 0.38412569507E+01 0.39127860290E+01
 0.40034522912E+01 0.41092444734E+01 0.42280785156E+01 0.50328734422E+01 0.55650903913E+01
 0.61685750238E+01 0.67798917960E+01 0.73256775480E+01 0.77357669410E+01 0.79554123175E+01
 0.79547225243E+01 0.77338066336E+01 0.73227511546E+01 0.67764364750E+01 0.61650737691E+01
 0.55619818447E+01 0.50304789544E+01 0.46118941682E+01 0.43167063374E+01 0.41206400681E+01
 0.39706972523E+01 0.38427648621E+01 0.37417876635E+01 0.36690907051E+01 0.36229834039E+01
 0.36007703844E+01 0.36005823429E+01 0.36224438496E+01 0.36682757912E+01 0.37408298116E+01
 0.38418529439E+01 0.39700644914E+01 0.41205346943E+01 0.43173459228E+01 0.46134115883E+01
 0.64129223765E+01 0.73861562939E+01 0.83959729023E+01 0.93365015001E+01 0.10101502104E+02
 0.10600701029E+02 0.10773684965E+02 0.10599272776E+02 0.10098822600E+02 0.93328937979E+01
 0.83918509436E+01 0.73819572784E+01 0.64090404426E+01 0.55619818448E+01 0.48982980434E+01
 0.44340674659E+01 0.41402707408E+01 0.39471459890E+01 0.37907777115E+01 0.36690907051E+01
 0.35840689837E+01 0.35344267353E+01 0.35181146821E+01 0.35342375126E+01 0.35837597824E+01
 0.36687934756E+01 0.37906730025E+01 0.39474400727E+01 0.41411639693E+01 0.44357163007E+01
 0.49007761692E+01 0.55652481553E+01 0.88070689155E+01 0.10318553375E+02 0.11779521169E+02
 0.13041688708E+02 0.13969932710E+02 0.14461472437E+02 0.14460830479E+02 0.13968073063E+02
 0.13038799963E+02 0.11775885974E+02 0.10314507276E+02 0.88029539646E+01 0.73819572784E+01
 0.61650737692E+01 0.52225149048E+01 0.45707944221E+01 0.41703890994E+01 0.39327979950E+01
 0.37567756844E+01 0.36229834039E+01 0.35344267353E+01 0.34906854032E+01 0.34907125256E+01
 0.35345354798E+01 0.36232517375E+01 0.37573198942E+01 0.39337531076E+01 0.41718836392E+01
 0.45729222890E+01 0.52253083165E+01 0.61684820161E+01 0.73858360480E+01 0.12413996724E+02
 0.14509344421E+02 0.16410605063E+02 0.17930370373E+02 0.18911879578E+02 0.19250895105E+02
 0.18910889147E+02 0.17928493173E+02 0.16408029289E+02 0.14506309313E+02 0.12410752915E+02
 0.10314507276E+02 0.83918509437E+01 0.67764364751E+01 0.55445883827E+01 0.47059538425E+01
 0.42037065279E+01 0.39255341146E+01 0.37379445176E+01 0.36007703845E+01 0.35181146822E+01
 0.34907125257E+01 0.35184430372E+01 0.36014242268E+01 0.37389218986E+01 0.39268391335E+01
 0.42053519435E+01 0.47079575742E+01 0.55469622794E+01 0.67791687784E+01 0.83948869167E+01
 0.10317734365E+02 0.17324209411E+02 0.19989105903E+02 0.22259442918E+02 0.23914847217E+02
 0.24787679819E+02 0.24787277060E+02 0.23913706911E+02 0.22257749777E+02 0.19987109929E+02
 0.17322158652E+02 0.14506309313E+02 0.11775885974E+02 0.93328937980E+01 0.73227511547E+01
 0.58186653365E+01 0.48147001487E+01 0.42296751315E+01 0.39229067992E+01 0.37318464093E+01
 0.36005823430E+01 0.35342375126E+01 0.35345354799E+01 0.36014242269E+01 0.37330929308E+01
 0.39243759499E+01 0.42311990669E+01 0.48161747227E+01 0.58200750085E+01 0.73241604224E+01
 0.93344078573E+01 0.11777594067E+02 0.14508230506E+02 0.23505130403E+02 0.26661647519E+02
 0.29168315026E+02 0.30781492924E+02 0.31338063708E+02 0.30780656124E+02 0.29166871127E+02
 0.26659980819E+02 0.23503654758E+02 0.19987109929E+02 0.16408029289E+02 0.13038799963E+02
 0.10098822600E+02 0.77338066338E+01 0.60029033820E+01 0.48754562993E+01 0.42394986929E+01
 0.39227790509E+01 0.37375314234E+01 0.36224438498E+01 0.35837597825E+01 0.36232517376E+01
 0.37389218986E+01 0.39243759500E+01 0.42408987863E+01 0.48763607492E+01 0.60032126123E+01
 0.77336467387E+01 0.10098494553E+02 0.13038668980E+02 0.16408391943E+02 0.19988084180E+02
 0.30793699077E+02 0.34298468751E+02 0.36848380159E+02 0.38191639069E+02 0.38191006079E+02
 0.36846685374E+02 0.34296257471E+02 0.30791678367E+02 0.26659980819E+02 0.22257749777E+02
 0.17928493173E+02 0.13968073063E+02 0.10599272776E+02 0.79547225245E+01 0.60681584123E+01
 0.48757474382E+01 0.42297580395E+01 0.39251192843E+01 0.37559534726E+01 0.36682757913E+01
 0.36687934758E+01 0.37573198943E+01 0.39268391336E+01 0.42311990669E+01 0.48763607492E+01
 0.60676720027E+01 0.79532415679E+01 0.10597251601E+02 0.13966167194E+02 0.17927340580E+02
 0.22257754799E+02 0.26661173813E+02 0.38891240455E+02 0.42535314736E+02 0.44880621119E+02
 0.45689749244E+02 0.44878770864E+02 0.42532193905E+02 0.38887822604E+02 0.34296257471E+02
 0.29166871127E+02 0.23913706911E+02 0.18910889147E+02 0.14460830479E+02 0.10773684965E+02
 0.79554123177E+01 0.60039333457E+01 0.48154782083E+01 0.42037462571E+01 0.39320192470E+01
 0.37895733703E+01 0.37408298117E+01 0.37906730027E+01 0.39337531077E+01 0.42053519436E+01
 0.48161747227E+01 0.60032126123E+01 0.79532415679E+01 0.10770547437E+02 0.14457586670E+02
 0.18908502241E+02 0.23912923132E+02 0.29167962558E+02 0.34298915457E+02 0.47361844325E+02
 0.50876025625E+02 0.52728816754E+02 0.52727496667E+02 0.50872451517E+02 0.47357054368E+02
 0.42532193905E+02 0.36846685374E+02 0.30780656124E+02 0.24787277060E+02 0.19250895105E+02
 0.14461472437E+02 0.10600701029E+02 0.77357669411E+01 0.58205095481E+01 0.47069603805E+01
 0.41701797465E+01 0.39459280076E+01 0.38412569508E+01 0.38418529440E+01 0.39474400728E+01
 0.41718836392E+01 0.47079575742E+01 0.58200750086E+01 0.77336467387E+01 0.10597251601E+02
 0.14457586670E+02 0.19247733431E+02 0.24785889675E+02 0.30781621986E+02 0.36849891095E+02
 0.42536831360E+02 0.55643629594E+02 0.58715348523E+02 0.59775882269E+02 0.58712332045E+02
 0.55638419001E+02 0.50872451517E+02 0.44878770864E+02 0.38191006079E+02 0.31338063708E+02
 0.24787679819E+02 0.18911879578E+02 0.13969932710E+02 0.10101502104E+02 0.73256775480E+01
 0.55468678915E+01 0.45716823292E+01 0.41396033864E+01 0.39690233858E+01 0.39127860291E+01
 0.39700644915E+01 0.41411639693E+01 0.45729222890E+01 0.55469622794E+01 0.73241604223E+01
 0.10098494553E+02 0.13966167194E+02 0.18908502241E+02 0.24785889675E+02 0.31338706168E+02
 0.38194257922E+02 0.44884027147E+02 0.50878460446E+02 0.63085814202E+02 0.65391792170E+02
 0.65390223230E+02 0.63081514655E+02 0.58712332045E+02 0.52727496667E+02 0.45689749244E+02
 0.38191639069E+02 0.30781492924E+02 0.23914847217E+02 0.17930370373E+02 0.13041688707E+02
 0.93365015001E+01 0.67798917960E+01 0.52247778856E+01 0.44344994878E+01 0.41193839354E+01
 0.40029890582E+01 0.40034522912E+01 0.41205346943E+01 0.44357163007E+01 0.52253083165E+01
 0.67791687783E+01 0.93344078572E+01 0.13038668980E+02 0.17927340580E+02 0.23912923132E+02
 0.30781621986E+02 0.38194257922E+02 0.45694584994E+02 0.52733585866E+02 0.58718261354E+02
 0.69019051633E+02 0.70271897607E+02 0.69016576009E+02 0.65390223230E+02 0.59775882269E+02
 0.52728816753E+02 0.44880621119E+02 0.36848380159E+02 0.29168315025E+02 0.22259442917E+02
 0.16410605063E+02 0.11779521169E+02 0.83959729022E+01 0.61685750237E+01 0.49001232851E+01
 0.43164480613E+01 0.41086295017E+01 0.40479530018E+01 0.41092444733E+01 0.43173459227E+01
 0.49007761692E+01 0.61684820161E+01 0.83948869166E+01 0.11777594067E+02 0.16408391942E+02
 0.22257754798E+02 0.29167962557E+02 0.36849891095E+02 0.44884027146E+02 0.52733585866E+02
 0.59781027166E+02 0.65394559129E+02 0.72852966212E+02 0.72852247285E+02 0.70271897607E+02
 0.65391792170E+02 0.58715348522E+02 0.50876025625E+02 0.42535314736E+02 0.34298468751E+02
 0.26661647519E+02 0.19989105903E+02 0.14509344420E+02 0.10318553374E+02 0.73861562937E+01
 0.55650903911E+01 0.46129802626E+01 0.42276580709E+01 0.41019366511E+01 0.41021075610E+01
 0.42280785155E+01 0.46134115882E+01 0.55652481552E+01 0.73858360479E+01 0.10317734365E+02
 0.14508230506E+02 0.19988084180E+02 0.26661173813E+02 0.34298915457E+02 0.42536831360E+02
 0.50878460446E+02 0.58718261354E+02 0.65394559129E+02 0.70273878671E+02 0.72852966212E+02
 0.70273878671E+02 0.65394559129E+02 0.58718261354E+02 0.50878460446E+02 0.42536831360E+02
 0.34298915457E+02 0.26661173813E+02 0.19988084180E+02 0.14508230506E+02 0.10317734365E+02
 0.73858360479E+01 0.55652481552E+01 0.46134115882E+01 0.42280785156E+01 0.41021075611E+01
 0.41019366511E+01 0.42276580709E+01 0.46129802626E+01 0.55650903911E+01 0.73861562937E+01
 0.10318553374E+02 0.14509344420E+02 0.19989105903E+02 0.26661647519E+02 0.34298468751E+02
 0.42535314736E+02 0.50876025625E+02 0.58715348522E+02 0.65391792170E+02 0.70271897607E+02
 0.72852247285E+02 0.70273878671E+02 0.66572063182E+02 0.60841774297E+02 0.53653066830E+02
 0.45653208258E+02 0.37472682866E+02 0.29656952413E+02 0.22629831840E+02 0.16681517198E+02
 0.11969199880E+02 0.85215960248E+01 0.62464044733E+01 0.49456358566E+01 0.43440437178E+01
 0.41308307677E+01 0.40692752587E+01 0.41301987251E+01 0.43430942205E+01 0.49448672171E+01
 0.62462852512E+01 0.85223485258E+01 0.11970663546E+02 0.16683148629E+02 0.22630851214E+02
 0.29656594241E+02 0.37470470223E+02 0.45649157432E+02 0.53647748523E+02 0.60836202329E+02
 0.66567437377E+02 0.70271257025E+02 0.71553772785E+02 0.65394559129E+02 0.60841774297E+02
 0.54610984787E+02 0.47294061699E+02 0.39511075305E+02 0.31831529925E+02 0.24723898682E+02
 0.18532426433E+02 0.13471525779E+02 0.96276658424E+01 0.69645031138E+01 0.53337697008E+01
 0.44972644789E+01 0.41624908603E+01 0.40435550209E+01 0.40430791950E+01 0.41612770645E+01
 0.44958663073E+01 0.53328504108E+01 0.69645476660E+01 0.96287434463E+01 0.13473196064E+02
 0.18533833821E+02 0.24724033912E+02 0.31829577409E+02 0.39506731005E+02 0.47287710680E+02
 0.54603669926E+02 0.60834954221E+02 0.65389722533E+02 0.67798428940E+02 0.67800176924E+02
 0.58718261354E+02 0.53653066830E+02 0.47294061699E+02 0.40214062453E+02 0.32975494071E+02
 0.26069495404E+02 0.19880863837E+02 0.14673531019E+02 0.10587409491E+02 0.76404508080E+01
 0.57358556402E+01 0.46786175856E+01 0.42050202128E+01 0.40256149405E+01 0.39674127241E+01
 0.40245610217E+01 0.42033473811E+01 0.46770200711E+01 0.57349996762E+01 0.76406821668E+01
 0.10588566554E+02 0.14674939472E+02 0.19881526671E+02 0.26068422943E+02 0.32972067001E+02
 0.40208304355E+02 0.47286722793E+02 0.53645479858E+02 0.58712004390E+02 0.61984585872E+02
 0.63117830792E+02 0.61988120705E+02 0.50878460446E+02 0.45653208258E+02 0.39511075305E+02
 0.32975494071E+02 0.26533564457E+02 0.20591425738E+02 0.15450029757E+02 0.11294950644E+02
 0.81939569182E+01 0.61004371210E+01 0.48652031671E+01 0.42602361402E+01 0.40148684131E+01
 0.39068779793E+01 0.39063220909E+01 0.40134114395E+01 0.42584275020E+01 0.48637129949E+01
 0.60997822749E+01 0.81942722131E+01 0.11295892708E+02 0.15450856100E+02 0.20591230758E+02
 0.26531598041E+02 0.32971456517E+02 0.39505285923E+02 0.45646583551E+02 0.50872298959E+02
 0.54688056701E+02 0.56704461811E+02 0.56706039021E+02 0.54692422155E+02 0.42536831360E+02
 0.37472682866E+02 0.31831529925E+02 0.26069495404E+02 0.20591425738E+02 0.15718469338E+02
 0.11670232467E+02 0.85566751529E+01 0.63771620526E+01 0.50277709441E+01 0.43197290503E+01
 0.40101947998E+01 0.38623328891E+01 0.38108343634E+01 0.38614300666E+01 0.40086964407E+01
 0.43181327885E+01 0.50265728315E+01 0.63766589865E+01 0.85568342905E+01 0.11670678087E+02
 0.15718597379E+02 0.20590611593E+02 0.26067326799E+02 0.31827985517E+02 0.37468192829E+02
 0.42532193756E+02 0.46562480334E+02 0.49162799704E+02 0.50062452809E+02 0.49164962291E+02
 0.46566306435E+02 0.34298915457E+02 0.29656952414E+02 0.24723898682E+02 0.19880863837E+02
 0.15450029757E+02 0.11670232467E+02 0.86829257312E+01 0.65263915008E+01 0.51385226900E+01
 0.43702550414E+01 0.40109891038E+01 0.38323896091E+01 0.37399187619E+01 0.37395894550E+01
 0.38314940946E+01 0.40097714284E+01 0.43690230523E+01 0.51375365375E+01 0.65257681384E+01
 0.86825940005E+01 0.11669956214E+02 0.15449493003E+02 0.19879790261E+02 0.24722165069E+02
 0.29654656631E+02 0.34296373838E+02 0.38244767825E+02 0.41125148852E+02 0.42645768775E+02
 0.42646358584E+02 0.41126786213E+02 0.38247095751E+02 0.26661173813E+02 0.22629831840E+02
 0.18532426433E+02 0.14673531019E+02 0.11294950644E+02 0.85566751529E+01 0.65263915008E+01
 0.51777973139E+01 0.43992580155E+01 0.40140160516E+01 0.38145369831E+01 0.36922983131E+01
 0.36505579529E+01 0.36919618572E+01 0.38139020784E+01 0.40131488915E+01 0.43982365189E+01
 0.51766933226E+01 0.65252572758E+01 0.85555382737E+01 0.11293818515E+02 0.14672402907E+02
 0.18531308408E+02 0.22628749015E+02 0.26660175227E+02 0.30286847117E+02 0.33174105488E+02
 0.35036157073E+02 0.35679754235E+02 0.35036484762E+02 0.33174724193E+02 0.30287693111E+02
 0.19988084180E+02 0.16681517198E+02 0.13471525779E+02 0.10587409491E+02 0.81939569182E+01
 0.63771620526E+01 0.51385226899E+01 0.43992580155E+01 0.40155453088E+01 0.38063372764E+01
 0.36653209705E+01 0.35933460542E+01 0.35933059013E+01 0.36651607966E+01 0.38059542566E+01
 0.40148167221E+01 0.43980960715E+01 0.51369213955E+01 0.63752189775E+01 0.81918610852E+01
 0.10585398097E+02 0.13469823167E+02 0.16680275783E+02 0.19987346743E+02 0.23119322700E+02
 0.25791982391E+02 0.27744224742E+02 0.28775079663E+02 0.28775035376E+02 0.27744144452E+02
 0.25792005531E+02 0.23119626780E+02 0.14508230506E+02 0.11969199880E+02 0.96276658425E+01
 0.76404508080E+01 0.61004371209E+01 0.50277709440E+01 0.43702550413E+01 0.40140160515E+01
 0.38063372763E+01 0.36566337650E+01 0.35656033839E+01 0.35352177521E+01 0.35656591210E+01
 0.36566051300E+01 0.38059955126E+01 0.40131292354E+01 0.43686785662E+01 0.50255121934E+01
 0.60976720883E+01 0.76374864843E+01 0.96248603337E+01 0.11966866339E+02 0.14506556313E+02
 0.17039587169E+02 0.19337412377E+02 0.21175511157E+02 0.22363839920E+02 0.22774905810E+02
 0.22363824659E+02 0.21175614582E+02 0.19337851859E+02 0.17040579755E+02 0.10317734365E+02
 0.85215960249E+01 0.69645031138E+01 0.57358556401E+01 0.48652031670E+01 0.43197290502E+01
 0.40109891037E+01 0.38145369830E+01 0.36653209704E+01 0.35656033838E+01 0.35161147692E+01
 0.35161787207E+01 0.35657170396E+01 0.36652756523E+01 0.38140629671E+01 0.40098463349E+01
 0.43177902668E+01 0.48625033355E+01 0.57325927873E+01 0.69609914900E+01 0.85181877537E+01
 0.10314735327E+02 0.12211902588E+02 0.14038888841E+02 0.15614868181E+02 0.16773639253E+02
 0.17387726978E+02 0.17387911798E+02 0.16774234037E+02 0.15615973754E+02 0.14040613513E+02
 0.12214296013E+02 0.73858360480E+01 0.62464044734E+01 0.53337697008E+01 0.46786175855E+01
 0.42602361401E+01 0.40101947996E+01 0.38323896089E+01 0.36922983130E+01 0.35933460541E+01
 0.35352177521E+01 0.35161787207E+01 0.35353281249E+01 0.35934524603E+01 0.36922032543E+01
 0.38318661336E+01 0.40090480297E+01 0.42583562508E+01 0.46760109753E+01 0.53305618642E+01
 0.62428163193E+01 0.73821425022E+01 0.86707825523E+01 0.99949770243E+01 0.11221213883E+02
 0.12215603066E+02 0.12863918289E+02 0.13089343451E+02 0.12864789460E+02 0.12217310316E+02
 0.11223678598E+02 0.99980653974E+01 0.86742989788E+01 0.55652481553E+01 0.49456358567E+01
 0.44972644788E+01 0.42050202127E+01 0.40148684130E+01 0.38623328889E+01 0.37399187617E+01
 0.36505579527E+01 0.35933059012E+01 0.35656591209E+01 0.35657170396E+01 0.35934524603E+01
 0.36507139632E+01 0.37399607715E+01 0.38621074254E+01 0.40142135700E+01 0.42037938694E+01
 0.44953760544E+01 0.49430761011E+01 0.55621100225E+01 0.63271626919E+01 0.71773834520E+01
 0.80268158185E+01 0.87785805678E+01 0.93407858232E+01 0.96418066431E+01 0.96424200556E+01
 0.93425510535E+01 0.87812857524E+01 0.80301488184E+01 0.71809839253E+01 0.63306787300E+01
 0.46134115883E+01 0.43440437178E+01 0.41624908603E+01 0.40256149404E+01 0.39068779791E+01
 0.38108343632E+01 0.37395894548E+01 0.36919618570E+01 0.36651607964E+01 0.36566051299E+01
 0.36652756523E+01 0.36922032542E+01 0.37399607715E+01 0.38113001888E+01 0.39073385184E+01
 0.40259005607E+01 0.41623857389E+01 0.43433370955E+01 0.46119641519E+01 0.49829552632E+01
 0.54402915846E+01 0.59420081471E+01 0.64291484531E+01 0.68373436902E+01 0.71091206649E+01
 0.72048529602E+01 0.71103481240E+01 0.68395825676E+01 0.64320177714E+01 0.59450499594E+01
 0.54430716803E+01 0.49851499175E+01 0.42280785156E+01 0.41308307677E+01 0.40435550209E+01
 0.39674127240E+01 0.39063220908E+01 0.38614300664E+01 0.38314940944E+01 0.38139020783E+01
 0.38059542564E+01 0.38059955125E+01 0.38140629671E+01 0.38318661336E+01 0.38621074254E+01
 0.39073385184E+01 0.39686930974E+01 0.40449033825E+01 0.41319644270E+01 0.42287014342E+01
 0.43596579034E+01 0.45420890155E+01 0.47706411442E+01 0.50212685198E+01 0.52583846856E+01
 0.54438002206E+01 0.55457467938E+01 0.55462162784E+01 0.54450937983E+01 0.52601894094E+01
 0.50231588279E+01 0.47721923836E+01 0.45429854051E+01 0.43597640083E+01 0.41021075612E+01
 0.40692752587E+01 0.40430791950E+01 0.40245610217E+01 0.40134114394E+01 0.40086964405E+01
 0.40097714282E+01 0.40131488913E+01 0.40148167220E+01 0.40131292353E+01 0.40098463348E+01
 0.40090480297E+01 0.40142135700E+01 0.40259005607E+01 0.40449033825E+01 0.40713852731E+01
 0.41042027381E+01 0.41410921536E+01 0.41822409706E+01 0.42404732029E+01 0.43201574940E+01
 0.44119953341E+01 0.44984239700E+01 0.45602157182E+01 0.45827622349E+01 0.45605856747E+01
 0.44989963341E+01 0.44124894449E+01 0.43202707424E+01 0.42399793638E+01 0.41810640538E+01
 0.41393324397E+01 0.41019366512E+01 0.41301987252E+01 0.41612770646E+01 0.42033473811E+01
 0.42584275019E+01 0.43181327883E+01 0.43690230522E+01 0.43982365188E+01 0.43980960714E+01
 0.43686785661E+01 0.43177902667E+01 0.42583562508E+01 0.42037938694E+01 0.41623857389E+01
 0.41319644270E+01 0.41042027381E+01 0.40797772543E+01 0.40605828809E+01 0.40476268351E+01
 0.40409072921E+01 0.40421917647E+01 0.40520027979E+01 0.40649173208E+01 0.40737402369E+01
 0.40736454332E+01 0.40645918685E+01 0.40513426859E+01 0.40410803288E+01 0.40392781169E+01
 0.40455155271E+01 0.40581472407E+01 0.40772759164E+01 0.42276580710E+01 0.43430942206E+01
 0.44958663073E+01 0.46770200710E+01 0.48637129948E+01 0.50265728314E+01 0.51375365373E+01
 0.51766933224E+01 0.51369213954E+01 0.50255121933E+01 0.48625033354E+01 0.46760109753E+01
 0.44953760544E+01 0.43433370956E+01 0.42287014343E+01 0.41410921537E+01 0.40605828809E+01
 0.39881826857E+01 0.39282797463E+01 0.38828515488E+01 0.38514792506E+01 0.38320299412E+01
 0.38217467531E+01 0.38183968869E+01 0.38211338354E+01 0.38308214209E+01 0.38497241116E+01
 0.38806515700E+01 0.39258052008E+01 0.39856706523E+01 0.40583114580E+01 0.41393324397E+01
 0.46129802627E+01 0.49448672172E+01 0.53328504109E+01 0.57349996762E+01 0.60997822748E+01
 0.63766589864E+01 0.65257681382E+01 0.65252572756E+01 0.63752189773E+01 0.60976720882E+01
 0.57325927872E+01 0.53305618642E+01 0.49430761011E+01 0.46119641519E+01 0.43596579035E+01
 0.41822409707E+01 0.40476268351E+01 0.39282797463E+01 0.38283567695E+01 0.37512809750E+01
 0.36969714693E+01 0.36631293418E+01 0.36469324780E+01 0.36465517334E+01 0.36620302682E+01
 0.36952816502E+01 0.37492054516E+01 0.38261629038E+01 0.39262708566E+01 0.40461038632E+01