   1   1   1   0
  0.7871274E+01  0.2232818E-09  0.2232818E-09  0.2232818E-09  0.5000000E-15
  1.000000000000000E-004
  CAR 
 Co-fcc                                  
     62.00436172      2.24878507  301     15.78634946      1.00000000
      2.249  0.0000E+00  0.0000E+00  0.0000E+00  0.0000E+00
      2.448  0.0000E+00  0.0000E+00  0.0000E+00  0.0000E+00
      2.647  0.0000E+00  0.0000E+00  0.0000E+00  0.0000E+00
      2.846  0.0000E+00  0.0000E+00  0.0000E+00  0.0000E+00
      3.046  0.0000E+00  0.0000E+00  0.0000E+00  0.0000E+00
      3.245  0.0000E+00  0.0000E+00  0.0000E+00  0.0000E+00
      3.444  0.0000E+00  0.0000E+00  0.0000E+00  0.0000E+00
      3.643  0.0000E+00  0.0000E+00  0.0000E+00  0.0000E+00
      3.842  0.0000E+00  0.0000E+00  0.0000E+00  0.0000E+00
      4.041  0.0000E+00  0.0000E+00  0.0000E+00  0.0000E+00
      4.241  0.0000E+00  0.0000E+00  0.0000E+00  0.0000E+00
      4.440  0.0000E+00  0.0000E+00  0.0000E+00  0.0000E+00
      4.639  0.0000E+00  0.0000E+00  0.0000E+00  0.0000E+00
      4.838  0.3303E-07  0.7571E-09  0.6580E-08  0.1508E-09
      5.037  0.1921E-03  0.1720E-03  0.3827E-04  0.3427E-04
      5.237  0.3971E-05  0.2408E-04  0.3906E-04  0.3906E-04
      5.436  0.4414E-04  0.5051E-05  0.4785E-04  0.4007E-04
      5.635  0.5442E-03  0.5829E-03  0.1562E-03  0.1562E-03
      5.834  0.1493E-07  0.3386E-06  0.1563E-03  0.1563E-03
      6.033  0.5412E-03  0.3783E-03  0.2640E-03  0.2316E-03
      6.232  0.4716E-04  0.2100E-03  0.2734E-03  0.2734E-03
      6.432  0.2078E-03  0.2874E-04  0.3148E-03  0.2792E-03
      6.631  0.5766E-03  0.7556E-03  0.4297E-03  0.4297E-03
      6.830  0.1653E-04  0.3033E-06  0.4330E-03  0.4297E-03
      7.029  0.1160E-02  0.1155E-02  0.6640E-03  0.6598E-03
      7.228  0.3337E-04  0.2139E-04  0.6706E-03  0.6641E-03
      7.428  0.5553E-03  0.5814E-03  0.7812E-03  0.7799E-03
      7.627  0.3793E-04  0.6829E-05  0.7888E-03  0.7813E-03
      7.826  0.1136E-02  0.1039E-02  0.1015E-02  0.9882E-03
      8.025  0.6867E-03  0.2498E-03  0.1152E-02  0.1038E-02
      8.224  0.1082E-02  0.1627E-02  0.1367E-02  0.1362E-02
      8.424  0.7797E-03  0.2114E-03  0.1523E-02  0.1404E-02
      8.623  0.1654E-03  0.5992E-03  0.1556E-02  0.1523E-02
      8.822  0.4113E-02  0.1926E-03  0.2375E-02  0.1562E-02
      9.021  0.3570E-02  0.2937E-02  0.3086E-02  0.2147E-02
      9.220  0.3497E-02  0.1990E-02  0.3782E-02  0.2543E-02
      9.419  0.4634E-02  0.3721E-02  0.4705E-02  0.3284E-02
      9.619  0.4574E-02  0.3866E-02  0.5617E-02  0.4054E-02
      9.818  0.8041E-02  0.4845E-02  0.7218E-02  0.5019E-02
     10.017  0.6492E-02  0.4345E-02  0.8511E-02  0.5885E-02
     10.216  0.5295E-02  0.5157E-02  0.9566E-02  0.6912E-02
     10.415  0.6931E-02  0.6051E-02  0.1095E-01  0.8117E-02
     10.615  0.5830E-02  0.6230E-02  0.1211E-01  0.9358E-02
     10.814  0.5278E-02  0.6069E-02  0.1316E-01  0.1057E-01
     11.013  0.5057E-02  0.6349E-02  0.1417E-01  0.1183E-01
     11.212  0.6684E-02  0.4445E-02  0.1550E-01  0.1272E-01
     11.411  0.3510E-02  0.5729E-02  0.1620E-01  0.1386E-01
     11.610  0.5429E-02  0.5712E-02  0.1728E-01  0.1500E-01
     11.810  0.4813E-02  0.3655E-02  0.1824E-01  0.1572E-01
     12.009  0.7300E-02  0.4939E-02  0.1969E-01  0.1671E-01
     12.208  0.7006E-02  0.4992E-02  0.2109E-01  0.1770E-01
     12.407  0.7090E-02  0.6359E-02  0.2250E-01  0.1897E-01
     12.606  0.7831E-02  0.7056E-02  0.2406E-01  0.2037E-01
     12.806  0.7867E-02  0.5594E-02  0.2563E-01  0.2149E-01
     13.005  0.1175E-01  0.7907E-02  0.2797E-01  0.2306E-01
     13.204  0.7329E-02  0.5545E-02  0.2943E-01  0.2417E-01
     13.403  0.8588E-02  0.8949E-02  0.3114E-01  0.2595E-01
     13.602  0.6046E-02  0.1024E-01  0.3234E-01  0.2799E-01
     13.802  0.6451E-02  0.8044E-02  0.3363E-01  0.2959E-01
     14.001  0.3672E-02  0.8895E-02  0.3436E-01  0.3136E-01
     14.200  0.7956E-02  0.4218E-02  0.3594E-01  0.3220E-01
     14.399  0.8431E-02  0.4449E-02  0.3762E-01  0.3309E-01
     14.598  0.8258E-02  0.5648E-02  0.3927E-01  0.3421E-01
     14.797  0.4623E-02  0.5523E-02  0.4019E-01  0.3532E-01
     14.997  0.9526E-02  0.8047E-02  0.4208E-01  0.3692E-01
     15.196  0.4893E-02  0.9002E-02  0.4306E-01  0.3871E-01
     15.395  0.5461E-02  0.4266E-02  0.4415E-01  0.3956E-01
     15.594  0.9109E-02  0.6832E-02  0.4596E-01  0.4092E-01
     15.793  0.7034E-02  0.9126E-02  0.4736E-01  0.4274E-01
     15.993  0.1389E-01  0.2590E-02  0.5013E-01  0.4326E-01
     16.192  0.8227E-02  0.7570E-02  0.5177E-01  0.4476E-01
     16.391  0.5140E-02  0.8272E-02  0.5279E-01  0.4641E-01
     16.590  0.3065E-03  0.7179E-02  0.5285E-01  0.4784E-01
     16.789  0.3575E-07  0.1555E-01  0.5285E-01  0.5094E-01
     16.988  0.6882E-03  0.7436E-02  0.5299E-01  0.5242E-01
     17.188  0.2598E-02  0.2168E-02  0.5351E-01  0.5285E-01
     17.387  0.2020E-02  0.1179E-06  0.5391E-01  0.5285E-01
     17.586  0.5976E-03  0.9326E-03  0.5403E-01  0.5304E-01
     17.785  0.1170E-02  0.2028E-02  0.5426E-01  0.5344E-01
     17.984  0.1130E-02  0.2872E-02  0.5449E-01  0.5401E-01
     18.184  0.3427E-03  0.1052E-02  0.5455E-01  0.5422E-01
     18.383  0.8856E-03  0.8600E-03  0.5473E-01  0.5439E-01
     18.582  0.1650E-02  0.4923E-03  0.5506E-01  0.5449E-01
     18.781  0.6949E-03  0.8666E-03  0.5520E-01  0.5466E-01
     18.980  0.1618E-02  0.6125E-03  0.5552E-01  0.5479E-01
     19.180  0.1789E-03  0.1463E-02  0.5556E-01  0.5508E-01
     19.379  0.1723E-02  0.1368E-02  0.5590E-01  0.5535E-01
     19.578  0.2234E-02  0.1051E-02  0.5634E-01  0.5556E-01
     19.777  0.1168E-03  0.2286E-02  0.5637E-01  0.5602E-01
     19.976  0.5650E-03  0.1239E-02  0.5648E-01  0.5626E-01
     20.175  0.1880E-02  0.5271E-03  0.5685E-01  0.5637E-01
     20.375  0.1085E-02  0.1002E-03  0.5707E-01  0.5639E-01
     20.574  0.8239E-08  0.2206E-02  0.5707E-01  0.5683E-01
     20.773  0.1008E-05  0.1216E-02  0.5707E-01  0.5707E-01
     20.972  0.1463E-02  0.8228E-05  0.5736E-01  0.5707E-01
     21.171  0.1820E-02  0.9593E-05  0.5772E-01  0.5707E-01
     21.371  0.1331E-02  0.2339E-02  0.5799E-01  0.5754E-01
     21.570  0.9384E-04  0.1062E-02  0.5801E-01  0.5775E-01
     21.769  0.8772E-03  0.1266E-02  0.5818E-01  0.5800E-01
     21.968  0.8855E-03  0.6097E-04  0.5836E-01  0.5801E-01
     22.167  0.5509E-03  0.8443E-03  0.5847E-01  0.5818E-01
     22.366  0.7560E-03  0.9699E-03  0.5862E-01  0.5838E-01
     22.566  0.1496E-02  0.5084E-03  0.5892E-01  0.5848E-01
     22.765  0.1389E-03  0.1091E-02  0.5895E-01  0.5869E-01
     22.964  0.9121E-03  0.1239E-02  0.5913E-01  0.5894E-01
     23.163  0.2645E-03  0.6657E-04  0.5918E-01  0.5895E-01
     23.362  0.3939E-09  0.1133E-02  0.5918E-01  0.5918E-01
     23.562  0.4637E-03  0.7053E-07  0.5927E-01  0.5918E-01
     23.761  0.1214E-02  0.9942E-06  0.5951E-01  0.5918E-01
     23.960  0.8878E-04  0.6595E-03  0.5953E-01  0.5931E-01
     24.159  0.1169E-02  0.1104E-02  0.5976E-01  0.5953E-01
     24.358  0.5888E-05  0.1756E-03  0.5977E-01  0.5957E-01
     24.558  0.0000E+00  0.1001E-02  0.5977E-01  0.5977E-01
     24.757  0.1185E-10  0.2558E-08  0.5977E-01  0.5977E-01
     24.956  0.5991E-03  0.1960E-18  0.5988E-01  0.5977E-01
     25.155  0.5775E-03  0.7036E-05  0.6000E-01  0.5977E-01
     25.354  0.9074E-11  0.1169E-02  0.6000E-01  0.6000E-01
     25.553  0.6247E-04  0.1062E-05  0.6001E-01  0.6000E-01
     25.753  0.2868E-02  0.6235E-16  0.6058E-01  0.6000E-01
     25.952  0.1791E-02  0.4436E-04  0.6094E-01  0.6001E-01
     26.151  0.2197E-02  0.3398E-02  0.6138E-01  0.6069E-01
     26.350  0.2131E-03  0.1840E-02  0.6142E-01  0.6105E-01
     26.549  0.2400E-02  0.1778E-02  0.6190E-01  0.6141E-01
     26.749  0.6394E-03  0.1161E-02  0.6203E-01  0.6164E-01
     26.948  0.1376E-02  0.1372E-02  0.6230E-01  0.6191E-01
     27.147  0.1234E-02  0.9019E-03  0.6255E-01  0.6209E-01
     27.346  0.1555E-02  0.1555E-02  0.6286E-01  0.6240E-01
     27.545  0.1155E-02  0.1326E-02  0.6309E-01  0.6266E-01
     27.744  0.2645E-05  0.2064E-02  0.6309E-01  0.6308E-01
     27.944  0.1369E-02  0.5264E-04  0.6336E-01  0.6309E-01
     28.143  0.9824E-03  0.1509E-03  0.6355E-01  0.6312E-01
     28.342  0.1534E-02  0.2004E-02  0.6386E-01  0.6352E-01
     28.541  0.2599E-03  0.4401E-03  0.6391E-01  0.6360E-01
     28.740  0.1150E-02  0.1524E-02  0.6414E-01  0.6391E-01
     28.940  0.1753E-02  0.1073E-02  0.6449E-01  0.6412E-01
     29.139  0.6361E-03  0.1219E-02  0.6462E-01  0.6436E-01
     29.338  0.5564E-03  0.6700E-03  0.6473E-01  0.6450E-01
     29.537  0.8741E-03  0.1157E-02  0.6490E-01  0.6473E-01
     29.736  0.1996E-02  0.5837E-03  0.6530E-01  0.6484E-01
     29.936  0.1772E-02  0.1403E-02  0.6565E-01  0.6512E-01
     30.135  0.2230E-02  0.1996E-02  0.6610E-01  0.6552E-01
     30.334  0.2802E-03  0.1194E-02  0.6615E-01  0.6576E-01
     30.533  0.1106E-02  0.1884E-02  0.6637E-01  0.6613E-01
     30.732  0.3275E-02  0.1149E-02  0.6703E-01  0.6636E-01
     30.931  0.2454E-03  0.2209E-02  0.6707E-01  0.6680E-01
     31.131  0.2619E-02  0.1349E-02  0.6760E-01  0.6707E-01
     31.330  0.3043E-03  0.1931E-02  0.6766E-01  0.6746E-01
     31.529  0.1181E-02  0.1010E-02  0.6789E-01  0.6766E-01
     31.728  0.3285E-02  0.5777E-03  0.6855E-01  0.6777E-01
     31.927  0.2068E-02  0.3042E-02  0.6896E-01  0.6838E-01
     32.127  0.1340E-03  0.2476E-02  0.6898E-01  0.6887E-01
     32.326  0.1464E-02  0.5722E-03  0.6928E-01  0.6898E-01
     32.525  0.9056E-03  0.7810E-03  0.6946E-01  0.6914E-01
     32.724  0.3680E-02  0.1573E-02  0.7019E-01  0.6945E-01
     32.923  0.2175E-02  0.3313E-02  0.7062E-01  0.7011E-01
     33.122  0.1103E-02  0.2512E-02  0.7084E-01  0.7061E-01
     33.322  0.1351E-02  0.6283E-03  0.7111E-01  0.7074E-01
     33.521  0.1297E-02  0.2025E-02  0.7137E-01  0.7114E-01
     33.720  0.2498E-02  0.1504E-02  0.7187E-01  0.7144E-01
     33.919  0.1025E-02  0.1910E-02  0.7207E-01  0.7182E-01
     34.118  0.2098E-02  0.1231E-02  0.7249E-01  0.7207E-01
     34.318  0.9449E-03  0.2133E-02  0.7268E-01  0.7249E-01
     34.517  0.4739E-02  0.1282E-02  0.7362E-01  0.7275E-01
     34.716  0.1516E-02  0.4439E-02  0.7392E-01  0.7363E-01
     34.915  0.1679E-02  0.1841E-02  0.7426E-01  0.7400E-01
     35.114  0.2095E-05  0.1304E-02  0.7426E-01  0.7426E-01
     35.314  0.2408E-02  0.9458E-04  0.7474E-01  0.7428E-01
     35.513  0.2591E-02  0.2467E-02  0.7525E-01  0.7477E-01
     35.712  0.2647E-02  0.3669E-02  0.7578E-01  0.7550E-01
     35.911  0.9610E-03  0.1418E-02  0.7597E-01  0.7578E-01
     36.110  0.2272E-02  0.1029E-02  0.7643E-01  0.7599E-01
     36.309  0.1476E-02  0.2550E-02  0.7672E-01  0.7649E-01
     36.509  0.2813E-02  0.1288E-02  0.7728E-01  0.7675E-01
     36.708  0.1369E-03  0.2749E-02  0.7731E-01  0.7730E-01
     36.907  0.1782E-02  0.4071E-03  0.7766E-01  0.7738E-01
     37.106  0.3179E-02  0.1599E-02  0.7830E-01  0.7770E-01
     37.305  0.3950E-02  0.4455E-02  0.7908E-01  0.7859E-01
     37.505  0.1668E-02  0.3614E-02  0.7941E-01  0.7930E-01
     37.704  0.4045E-08  0.5478E-03  0.7941E-01  0.7941E-01
     37.903  0.4950E-03  0.1231E-06  0.7951E-01  0.7941E-01
     38.102  0.1271E-02  0.8304E-03  0.7977E-01  0.7958E-01
     38.301  0.3130E-02  0.2799E-02  0.8039E-01  0.8014E-01
     38.501  0.6128E-04  0.1273E-02  0.8040E-01  0.8039E-01
     38.700  0.3092E-02  0.3011E-03  0.8102E-01  0.8045E-01
     38.899  0.2411E-02  0.3412E-02  0.8150E-01  0.8113E-01
     39.098  0.1934E-02  0.2759E-02  0.8188E-01  0.8168E-01
     39.297  0.2200E-02  0.2683E-02  0.8232E-01  0.8221E-01
     39.496  0.9948E-03  0.1312E-02  0.8252E-01  0.8248E-01
     39.696  0.2825E-02  0.1707E-02  0.8308E-01  0.8282E-01
     39.895  0.1266E-02  0.2196E-02  0.8333E-01  0.8325E-01
     40.094  0.1251E-02  0.8857E-03  0.8358E-01  0.8343E-01
     40.293  0.1208E-02  0.1402E-02  0.8382E-01  0.8371E-01
     40.492  0.5874E-03  0.1186E-02  0.8394E-01  0.8394E-01
     40.692  0.6699E-03  0.7588E-04  0.8407E-01  0.8396E-01
     40.891  0.4399E-02  0.2337E-02  0.8495E-01  0.8443E-01
     41.090  0.1713E-02  0.4048E-02  0.8529E-01  0.8523E-01
     41.289  0.9327E-03  0.9068E-03  0.8548E-01  0.8541E-01
     41.488  0.1435E-02  0.9499E-03  0.8576E-01  0.8560E-01
     41.687  0.9264E-03  0.7286E-03  0.8595E-01  0.8575E-01
     41.887  0.2116E-02  0.1448E-02  0.8637E-01  0.8604E-01
     42.086  0.1082E-02  0.2254E-02  0.8659E-01  0.8648E-01
     42.285  0.1286E-02  0.1474E-02  0.8684E-01  0.8678E-01
     42.484  0.7736E-03  0.9659E-03  0.8700E-01  0.8697E-01
     42.683  0.1183E-02  0.5828E-03  0.8723E-01  0.8709E-01
     42.883  0.2124E-02  0.1196E-02  0.8765E-01  0.8732E-01
     43.082  0.1671E-02  0.1908E-02  0.8799E-01  0.8770E-01
     43.281  0.2791E-02  0.1799E-02  0.8854E-01  0.8806E-01
     43.480  0.4418E-02  0.4359E-02  0.8942E-01  0.8893E-01
     43.679  0.1044E-02  0.3114E-02  0.8963E-01  0.8955E-01
     43.879  0.1461E-02  0.1595E-02  0.8992E-01  0.8987E-01
     44.078  0.9385E-05  0.2649E-03  0.8992E-01  0.8992E-01
     44.277  0.3227E-02  0.5016E-03  0.9057E-01  0.9002E-01
     44.476  0.3689E-02  0.4557E-02  0.9130E-01  0.9093E-01
     44.675  0.1841E-02  0.2716E-02  0.9167E-01  0.9147E-01
     44.874  0.1314E-02  0.1867E-02  0.9193E-01  0.9184E-01
     45.074  0.1947E-02  0.1217E-02  0.9232E-01  0.9208E-01
     45.273  0.3830E-02  0.3219E-02  0.9308E-01  0.9273E-01
     45.472  0.3522E-04  0.1808E-02  0.9309E-01  0.9309E-01
     45.671  0.1377E-02  0.8672E-04  0.9336E-01  0.9310E-01
     45.870  0.3221E-02  0.2727E-02  0.9400E-01  0.9365E-01
     46.070  0.3265E-02  0.3320E-02  0.9465E-01  0.9431E-01
     46.269  0.1396E-02  0.2411E-02  0.9493E-01  0.9479E-01
     46.468  0.9228E-03  0.1558E-02  0.9512E-01  0.9510E-01
     46.667  0.1803E-02  0.2684E-03  0.9547E-01  0.9515E-01
     46.866  0.1827E-02  0.2781E-02  0.9584E-01  0.9571E-01
     47.065  0.1805E-02  0.2281E-02  0.9620E-01  0.9616E-01
     47.265  0.2072E-02  0.1088E-02  0.9661E-01  0.9638E-01
     47.464  0.3245E-02  0.2834E-02  0.9726E-01  0.9694E-01
     47.663  0.1795E-02  0.2977E-02  0.9761E-01  0.9753E-01
     47.862  0.1178E-02  0.4165E-03  0.9785E-01  0.9762E-01
     48.061  0.4269E-02  0.2372E-02  0.9870E-01  0.9809E-01
     48.261  0.2801E-03  0.2739E-02  0.9876E-01  0.9864E-01
     48.460  0.1393E-02  0.1287E-02  0.9903E-01  0.9889E-01
     48.659  0.1026E-02  0.8615E-03  0.9924E-01  0.9906E-01
     48.858  0.8875E-03  0.1171E-02  0.9941E-01  0.9930E-01
     49.057  0.2619E-09  0.5848E-03  0.9941E-01  0.9941E-01
     49.257  0.2456E-03  0.5566E-04  0.9946E-01  0.9942E-01
     49.456  0.3437E-03  0.5390E-03  0.9953E-01  0.9953E-01
     49.655  0.3517E-02  0.1430E-02  0.1002E+00  0.9982E-01
     49.854  0.1449E-02  0.2100E-02  0.1005E+00  0.1002E+00
     50.053  0.2203E-02  0.6805E-04  0.1010E+00  0.1002E+00
     50.252  0.8107E-03  0.2100E-02  0.1011E+00  0.1007E+00
     50.452  0.1519E-02  0.2342E-02  0.1014E+00  0.1011E+00
     50.651  0.3068E-03  0.5755E-03  0.1015E+00  0.1012E+00
     50.850  0.5387E-03  0.3823E-03  0.1016E+00  0.1013E+00
     51.049  0.1174E-02  0.1537E-02  0.1018E+00  0.1016E+00
     51.248  0.2347E-02  0.1594E-02  0.1023E+00  0.1019E+00
     51.448  0.2767E-02  0.2456E-02  0.1028E+00  0.1024E+00
     51.647  0.4986E-02  0.1267E-02  0.1038E+00  0.1027E+00
     51.846  0.6727E-02  0.3884E-02  0.1052E+00  0.1035E+00
     52.045  0.3727E-02  0.6875E-02  0.1059E+00  0.1048E+00
     52.244  0.1843E-02  0.1391E-02  0.1063E+00  0.1051E+00
     52.443  0.2480E-02  0.1222E-02  0.1068E+00  0.1054E+00
     52.643  0.4392E-02  0.1662E-02  0.1077E+00  0.1057E+00
     52.842  0.1359E-01  0.4150E-02  0.1104E+00  0.1065E+00
     53.041  0.1227E-01  0.2292E-02  0.1128E+00  0.1070E+00
     53.240  0.4105E-02  0.1795E-02  0.1136E+00  0.1073E+00
     53.439  0.2587E-02  0.2260E-02  0.1141E+00  0.1078E+00
     53.639  0.3051E-02  0.2192E-02  0.1147E+00  0.1082E+00
     53.838  0.1469E-02  0.4920E-02  0.1150E+00  0.1092E+00
     54.037  0.3660E-02  0.3653E-02  0.1158E+00  0.1099E+00
     54.236  0.7262E-02  0.8739E-02  0.1172E+00  0.1117E+00
     54.435  0.4473E-03  0.1185E-01  0.1173E+00  0.1140E+00
     54.635  0.1044E-02  0.6434E-02  0.1175E+00  0.1153E+00
     54.834  0.4322E-02  0.2963E-02  0.1184E+00  0.1159E+00
     55.033  0.2340E-02  0.3048E-02  0.1188E+00  0.1165E+00
     55.232  0.1119E-02  0.4315E-02  0.1191E+00  0.1174E+00
     55.431  0.5506E-03  0.4221E-02  0.1192E+00  0.1182E+00
     55.630  0.3772E-04  0.3293E-02  0.1192E+00  0.1189E+00
     55.830  0.5286E-03  0.1631E-02  0.1193E+00  0.1192E+00
     56.029  0.1235E-02  0.8855E-03  0.1195E+00  0.1194E+00
     56.228  0.8887E-06  0.8796E-03  0.1195E+00  0.1195E+00
     56.427  0.0000E+00  0.1866E-10  0.1195E+00  0.1195E+00
     56.626  0.9580E-08  0.0000E+00  0.1195E+00  0.1195E+00
     56.826  0.1067E-02  0.2723E-15  0.1197E+00  0.1195E+00
     57.025  0.1093E-03  0.6422E-04  0.1198E+00  0.1195E+00
     57.224  0.0000E+00  0.1112E-02  0.1198E+00  0.1198E+00
     57.423  0.5864E-12  0.3256E-07  0.1198E+00  0.1198E+00
     57.622  0.2105E-03  0.1372E-04  0.1198E+00  0.1198E+00
     57.821  0.3779E-03  0.5745E-03  0.1199E+00  0.1199E+00
     58.021  0.4029E-10  0.7886E-07  0.1199E+00  0.1199E+00
     58.220  0.0000E+00  0.0000E+00  0.1199E+00  0.1199E+00
     58.419  0.0000E+00  0.0000E+00  0.1199E+00  0.1199E+00
     58.618  0.0000E+00  0.0000E+00  0.1199E+00  0.1199E+00
     58.817  0.0000E+00  0.0000E+00  0.1199E+00  0.1199E+00
     59.017  0.1627E-11  0.4605E-17  0.1199E+00  0.1199E+00
     59.216  0.2483E-03  0.1191E-04  0.1199E+00  0.1199E+00
     59.415  0.3400E-03  0.5763E-03  0.1200E+00  0.1200E+00
     59.614  0.1592E-10  0.9910E-07  0.1200E+00  0.1200E+00
     59.813  0.0000E+00  0.0000E+00  0.1200E+00  0.1200E+00
     60.013  0.0000E+00  0.0000E+00  0.1200E+00  0.1200E+00
     60.212  0.0000E+00  0.0000E+00  0.1200E+00  0.1200E+00
     60.411  0.0000E+00  0.0000E+00  0.1200E+00  0.1200E+00
     60.610  0.0000E+00  0.0000E+00  0.1200E+00  0.1200E+00
     60.809  0.0000E+00  0.0000E+00  0.1200E+00  0.1200E+00
     61.008  0.0000E+00  0.0000E+00  0.1200E+00  0.1200E+00
     61.208  0.0000E+00  0.0000E+00  0.1200E+00  0.1200E+00
     61.407  0.0000E+00  0.0000E+00  0.1200E+00  0.1200E+00
     61.606  0.0000E+00  0.0000E+00  0.1200E+00  0.1200E+00
     61.805  0.0000E+00  0.0000E+00  0.1200E+00  0.1200E+00
     62.004  0.0000E+00  0.0000E+00  0.1200E+00  0.1200E+00
     62.00436172      2.24878507  301     15.78634946      1.00000000
      2.249  0.0000E+00  0.0000E+00  0.0000E+00  0.0000E+00  0.0000E+00  0.0000E+00  0.0000E+00  0.0000E+00  0.0000E+00  0.0000E+00  0.0000E+00  0.0000E+00  0.0000E+00  0.0000E+00  0.0000E+00  0.0000E+00  0.0000E+00  0.0000E+00
      2.448  0.0000E+00  0.0000E+00  0.0000E+00  0.0000E+00  0.0000E+00  0.0000E+00  0.0000E+00  0.0000E+00  0.0000E+00  0.0000E+00  0.0000E+00  0.0000E+00  0.0000E+00  0.0000E+00  0.0000E+00  0.0000E+00  0.0000E+00  0.0000E+00
      2.647  0.0000E+00  0.0000E+00  0.0000E+00  0.0000E+00  0.0000E+00  0.0000E+00  0.0000E+00  0.0000E+00  0.0000E+00  0.0000E+00  0.0000E+00  0.0000E+00  0.0000E+00  0.0000E+00  0.0000E+00  0.0000E+00  0.0000E+00  0.0000E+00
      2.846  0.0000E+00  0.0000E+00  0.0000E+00  0.0000E+00  0.0000E+00  0.0000E+00  0.0000E+00  0.0000E+00  0.0000E+00  0.0000E+00  0.0000E+00  0.0000E+00  0.0000E+00  0.0000E+00  0.0000E+00  0.0000E+00  0.0000E+00  0.0000E+00
      3.046  0.0000E+00  0.0000E+00  0.0000E+00  0.0000E+00  0.0000E+00  0.0000E+00  0.0000E+00  0.0000E+00  0.0000E+00  0.0000E+00  0.0000E+00  0.0000E+00  0.0000E+00  0.0000E+00  0.0000E+00  0.0000E+00  0.0000E+00  0.0000E+00
      3.245  0.0000E+00  0.0000E+00  0.0000E+00  0.0000E+00  0.0000E+00  0.0000E+00  0.0000E+00  0.0000E+00  0.0000E+00  0.0000E+00  0.0000E+00  0.0000E+00  0.0000E+00  0.0000E+00  0.0000E+00  0.0000E+00  0.0000E+00  0.0000E+00
      3.444  0.0000E+00  0.0000E+00  0.0000E+00  0.0000E+00  0.0000E+00  0.0000E+00  0.0000E+00  0.0000E+00  0.0000E+00  0.0000E+00  0.0000E+00  0.0000E+00  0.0000E+00  0.0000E+00  0.0000E+00  0.0000E+00  0.0000E+00  0.0000E+00
      3.643  0.0000E+00  0.0000E+00  0.0000E+00  0.0000E+00  0.0000E+00  0.0000E+00  0.0000E+00  0.0000E+00  0.0000E+00  0.0000E+00  0.0000E+00  0.0000E+00  0.0000E+00  0.0000E+00  0.0000E+00  0.0000E+00  0.0000E+00  0.0000E+00
      3.842  0.0000E+00  0.0000E+00  0.0000E+00  0.0000E+00  0.0000E+00  0.0000E+00  0.0000E+00  0.0000E+00  0.0000E+00  0.0000E+00  0.0000E+00  0.0000E+00  0.0000E+00  0.0000E+00  0.0000E+00  0.0000E+00  0.0000E+00  0.0000E+00
      4.041  0.0000E+00  0.0000E+00  0.0000E+00  0.0000E+00  0.0000E+00  0.0000E+00  0.0000E+00  0.0000E+00  0.0000E+00  0.0000E+00  0.0000E+00  0.0000E+00  0.0000E+00  0.0000E+00  0.0000E+00  0.0000E+00  0.0000E+00  0.0000E+00
      4.241  0.0000E+00  0.0000E+00  0.0000E+00  0.0000E+00  0.0000E+00  0.0000E+00  0.0000E+00  0.0000E+00  0.0000E+00  0.0000E+00  0.0000E+00  0.0000E+00  0.0000E+00  0.0000E+00  0.0000E+00  0.0000E+00  0.0000E+00  0.0000E+00
      4.440  0.0000E+00  0.0000E+00  0.0000E+00  0.0000E+00  0.0000E+00  0.0000E+00  0.0000E+00  0.0000E+00  0.0000E+00  0.0000E+00  0.0000E+00  0.0000E+00  0.0000E+00  0.0000E+00  0.0000E+00  0.0000E+00  0.0000E+00  0.0000E+00
      4.639  0.0000E+00  0.0000E+00  0.0000E+00  0.0000E+00  0.0000E+00  0.0000E+00  0.0000E+00  0.0000E+00  0.0000E+00  0.0000E+00  0.0000E+00  0.0000E+00  0.0000E+00  0.0000E+00  0.0000E+00  0.0000E+00  0.0000E+00  0.0000E+00
      4.838  0.3475E-05  0.7994E-07  0.2092E-07  0.4811E-09  0.2092E-07  0.4811E-09  0.2092E-07  0.4811E-09  0.3151E-09  0.6631E-11  0.3151E-09  0.6631E-11  0.1543E-27  0.5164E-23  0.3151E-09  0.6631E-11  0.1543E-27  0.5164E-23
      5.037  0.2021E-01  0.1816E-01  0.1217E-03  0.1093E-03  0.1217E-03  0.1093E-03  0.1217E-03  0.1093E-03  0.1832E-05  0.1507E-05  0.1832E-05  0.1507E-05  0.8971E-24  0.1173E-17  0.1832E-05  0.1507E-05  0.8971E-24  0.1173E-17
      5.237  0.4177E-03  0.2543E-02  0.2515E-05  0.1530E-04  0.2515E-05  0.1530E-04  0.2515E-05  0.1530E-04  0.3788E-07  0.2109E-06  0.3788E-07  0.2109E-06  0.3545E-16  0.1883E-18  0.3788E-07  0.2109E-06  0.3545E-16  0.1883E-18
      5.436  0.4419E-02  0.5076E-03  0.9890E-04  0.1137E-04  0.9890E-04  0.1137E-04  0.9890E-04  0.1137E-04  0.2717E-05  0.2838E-06  0.2717E-05  0.2838E-06  0.3513E-05  0.3718E-06  0.2717E-05  0.2838E-06  0.3513E-05  0.3718E-06
      5.635  0.5449E-01  0.5858E-01  0.1219E-02  0.1312E-02  0.1219E-02  0.1312E-02  0.1219E-02  0.1312E-02  0.3350E-04  0.3275E-04  0.3350E-04  0.3275E-04  0.4332E-04  0.4291E-04  0.3350E-04  0.3275E-04  0.4332E-04  0.4291E-04
      5.834  0.1460E-05  0.3402E-04  0.4322E-07  0.7618E-06  0.4322E-07  0.7618E-06  0.4322E-07  0.7618E-06  0.2811E-08  0.1903E-07  0.2811E-08  0.1903E-07  0.1124E-08  0.2492E-07  0.2811E-08  0.1903E-07  0.1124E-08  0.2492E-07
      6.033  0.5148E-01  0.3614E-01  0.1981E-02  0.1394E-02  0.1981E-02  0.1394E-02  0.1981E-02  0.1394E-02  0.1822E-03  0.1152E-03  0.1822E-03  0.1152E-03  0.3799E-04  0.2469E-04  0.1822E-03  0.1152E-03  0.3799E-04  0.2469E-04
      6.232  0.4487E-02  0.2006E-01  0.1727E-03  0.7740E-03  0.1727E-03  0.7740E-03  0.1727E-03  0.7740E-03  0.1588E-04  0.6396E-04  0.1588E-04  0.6396E-04  0.3311E-05  0.1371E-04  0.1588E-04  0.6396E-04  0.3311E-05  0.1371E-04
      6.432  0.1866E-01  0.2595E-02  0.1032E-02  0.1433E-03  0.1032E-02  0.1433E-03  0.1032E-02  0.1433E-03  0.1011E-03  0.1419E-04  0.1011E-03  0.1419E-04  0.1142E-03  0.1255E-04  0.1011E-03  0.1419E-04  0.1142E-03  0.1255E-04
      6.631  0.5174E-01  0.6818E-01  0.2894E-02  0.3815E-02  0.2894E-02  0.3815E-02  0.2894E-02  0.3815E-02  0.2000E-03  0.2545E-03  0.2000E-03  0.2545E-03  0.3962E-03  0.4496E-03  0.2000E-03  0.2545E-03  0.3962E-03  0.4496E-03
      6.830  0.1403E-02  0.2622E-04  0.1019E-03  0.1817E-05  0.1019E-03  0.1817E-05  0.1019E-03  0.1817E-05  0.1482E-04  0.2037E-06  0.1482E-04  0.2037E-06  0.1014E-04  0.1809E-06  0.1482E-04  0.2037E-06  0.1014E-04  0.1809E-06
      7.029  0.9842E-01  0.9867E-01  0.7145E-02  0.7198E-02  0.7145E-02  0.7198E-02  0.7145E-02  0.7198E-02  0.1040E-02  0.9260E-03  0.1040E-02  0.9260E-03  0.7112E-03  0.6438E-03  0.1040E-02  0.9260E-03  0.7112E-03  0.6438E-03
      7.228  0.2650E-02  0.1826E-02  0.2181E-03  0.1334E-03  0.2181E-03  0.1334E-03  0.2181E-03  0.1334E-03  0.8530E-04  0.1748E-04  0.8530E-04  0.1748E-04  0.1167E-04  0.1187E-04  0.8530E-04  0.1748E-04  0.1167E-04  0.1187E-04
      7.428  0.4406E-01  0.4665E-01  0.3631E-02  0.3906E-02  0.3631E-02  0.3906E-02  0.3631E-02  0.3906E-02  0.1429E-02  0.1304E-02  0.1429E-02  0.1304E-02  0.1928E-03  0.1840E-03  0.1429E-02  0.1304E-02  0.1928E-03  0.1840E-03
      7.627  0.2744E-02  0.5473E-03  0.3035E-03  0.4603E-04  0.3035E-03  0.4603E-04  0.3035E-03  0.4603E-04  0.1245E-04  0.1511E-04  0.1245E-04  0.1511E-04  0.1747E-03  0.2554E-05  0.1245E-04  0.1511E-04  0.1747E-03  0.2554E-05
      7.826  0.8368E-01  0.7735E-01  0.9065E-02  0.8467E-02  0.9065E-02  0.8467E-02  0.9065E-02  0.8467E-02  0.1600E-02  0.1154E-02  0.1600E-02  0.1154E-02  0.2916E-02  0.2623E-02  0.1600E-02  0.1154E-02  0.2916E-02  0.2623E-02
      8.025  0.4669E-01  0.1820E-01  0.4941E-02  0.1940E-02  0.4941E-02  0.1940E-02  0.4941E-02  0.1940E-02  0.3686E-02  0.8679E-03  0.3686E-02  0.8679E-03  0.5521E-03  0.1396E-03  0.3686E-02  0.8679E-03  0.5521E-03  0.1396E-03
      8.224  0.7363E-01  0.1129E+00  0.9388E-02  0.1376E-01  0.9388E-02  0.1376E-01  0.9388E-02  0.1376E-01  0.1830E-02  0.4175E-02  0.1830E-02  0.4175E-02  0.4041E-02  0.3938E-02  0.1830E-02  0.4175E-02  0.4041E-02  0.3938E-02
      8.424  0.4720E-01  0.1367E-01  0.5709E-02  0.1801E-02  0.5709E-02  0.1801E-02  0.5709E-02  0.1801E-02  0.5299E-02  0.8462E-03  0.5299E-02  0.8462E-03  0.1583E-02  0.5326E-03  0.5299E-02  0.8462E-03  0.1583E-02  0.5326E-03
      8.623  0.2329E-02  0.3722E-01  0.2404E-03  0.4578E-02  0.2404E-03  0.4578E-02  0.2404E-03  0.4578E-02  0.4015E-04  0.3824E-02  0.4015E-04  0.3824E-02  0.6696E-02  0.9873E-03  0.4015E-04  0.3824E-02  0.6696E-02  0.9873E-03
      8.822  0.1783E+00  0.1071E-01  0.2525E-01  0.1811E-02  0.2525E-01  0.1811E-02  0.2525E-01  0.1811E-02  0.2816E-01  0.5122E-03  0.2816E-01  0.5122E-03  0.4692E-01  0.1395E-02  0.2816E-01  0.5122E-03  0.4692E-01  0.1395E-02
      9.021  0.7609E-01  0.1588E+00  0.8401E-02  0.2433E-01  0.8401E-02  0.2433E-01  0.8401E-02  0.2433E-01  0.3428E-01  0.1855E-01  0.3428E-01  0.1855E-01  0.8143E-01  0.1315E-01  0.3428E-01  0.1855E-01  0.8143E-01  0.1315E-01
      9.220  0.8939E-01  0.5590E-01  0.1531E-01  0.7150E-02  0.1531E-01  0.7150E-02  0.1531E-01  0.7150E-02  0.2507E-01  0.1424E-01  0.2507E-01  0.1424E-01  0.7469E-01  0.4307E-01  0.2507E-01  0.1424E-01  0.7469E-01  0.4307E-01
      9.419  0.1007E+00  0.9788E-01  0.1486E-01  0.1422E-01  0.1486E-01  0.1422E-01  0.1486E-01  0.1422E-01  0.6151E-01  0.3060E-01  0.6151E-01  0.3060E-01  0.7503E-01  0.7659E-01  0.6151E-01  0.3060E-01  0.7503E-01  0.7659E-01
      9.619  0.8506E-01  0.8968E-01  0.1901E-01  0.1295E-01  0.1901E-01  0.1295E-01  0.1901E-01  0.1295E-01  0.5336E-01  0.4434E-01  0.5336E-01  0.4434E-01  0.8427E-01  0.6994E-01  0.5336E-01  0.4434E-01  0.8427E-01  0.6994E-01
      9.818  0.1070E+00  0.1288E+00  0.2463E-01  0.2457E-01  0.2463E-01  0.2457E-01  0.2463E-01  0.2457E-01  0.1426E+00  0.5243E-01  0.1426E+00  0.5243E-01  0.1107E+00  0.7269E-01  0.1426E+00  0.5243E-01  0.1107E+00  0.7269E-01
     10.017  0.5172E-01  0.7728E-01  0.2003E-01  0.1985E-01  0.2003E-01  0.1985E-01  0.2003E-01  0.1985E-01  0.1001E+00  0.4342E-01  0.1001E+00  0.4342E-01  0.1250E+00  0.8985E-01  0.1001E+00  0.4342E-01  0.1250E+00  0.8985E-01
     10.216  0.4826E-01  0.6405E-01  0.1539E-01  0.1409E-01  0.1539E-01  0.1409E-01  0.1539E-01  0.1409E-01  0.1186E+00  0.8986E-01  0.1186E+00  0.8986E-01  0.4856E-01  0.7867E-01  0.1186E+00  0.8986E-01  0.4856E-01  0.7867E-01
     10.415  0.2900E-01  0.5713E-01  0.2347E-01  0.1982E-01  0.2347E-01  0.1982E-01  0.2347E-01  0.1982E-01  0.1309E+00  0.9378E-01  0.1309E+00  0.9378E-01  0.1075E+00  0.1114E+00  0.1309E+00  0.9378E-01  0.1075E+00  0.1114E+00
     10.615  0.2711E-01  0.6515E-01  0.2635E-01  0.2468E-01  0.2635E-01  0.2468E-01  0.2635E-01  0.2468E-01  0.1224E+00  0.1304E+00  0.1224E+00  0.1304E+00  0.6294E-01  0.5856E-01  0.1224E+00  0.1304E+00  0.6294E-01  0.5856E-01
     10.814  0.1148E-01  0.1573E-01  0.1617E-01  0.1765E-01  0.1617E-01  0.1765E-01  0.1617E-01  0.1765E-01  0.1260E+00  0.1070E+00  0.1260E+00  0.1070E+00  0.5074E-01  0.1140E+00  0.1260E+00  0.1070E+00  0.5074E-01  0.1140E+00
     11.013  0.9334E-02  0.3372E-01  0.2843E-01  0.2993E-01  0.2843E-01  0.2993E-01  0.2843E-01  0.2993E-01  0.8864E-01  0.1393E+00  0.8864E-01  0.1393E+00  0.7714E-01  0.5788E-01  0.8864E-01  0.1393E+00  0.7714E-01  0.5788E-01
     11.212  0.5060E-02  0.1309E-01  0.2553E-01  0.1732E-01  0.2553E-01  0.1732E-01  0.2553E-01  0.1732E-01  0.1341E+00  0.1100E+00  0.1341E+00  0.1100E+00  0.9648E-01  0.3210E-01  0.1341E+00  0.1100E+00  0.9648E-01  0.3210E-01
     11.411  0.4955E-03  0.7701E-02  0.9426E-02  0.2766E-01  0.9426E-02  0.2766E-01  0.9426E-02  0.2766E-01  0.6240E-01  0.1059E+00  0.6240E-01  0.1059E+00  0.6736E-01  0.8743E-01  0.6240E-01  0.1059E+00  0.6736E-01  0.8743E-01
     11.610  0.8896E-02  0.4675E-02  0.2521E-01  0.2615E-01  0.2521E-01  0.2615E-01  0.2521E-01  0.2615E-01  0.1148E+00  0.1312E+00  0.1148E+00  0.1312E+00  0.5999E-01  0.5412E-01  0.1148E+00  0.1312E+00  0.5999E-01  0.5412E-01
     11.810  0.8078E-02  0.9650E-03  0.1368E-01  0.1469E-01  0.1368E-01  0.1469E-01  0.1368E-01  0.1469E-01  0.9454E-01  0.5089E-01  0.9454E-01  0.5089E-01  0.7597E-01  0.8404E-01  0.9454E-01  0.5089E-01  0.7597E-01  0.8404E-01
     12.009  0.1326E-01  0.3267E-02  0.3130E-01  0.1970E-01  0.3130E-01  0.1970E-01  0.3130E-01  0.1970E-01  0.1678E+00  0.1101E+00  0.1678E+00  0.1101E+00  0.6415E-01  0.5348E-01  0.1678E+00  0.1101E+00  0.6415E-01  0.5348E-01
     12.208  0.5613E-02  0.8254E-02  0.2908E-01  0.2268E-01  0.2908E-01  0.2268E-01  0.2908E-01  0.2268E-01  0.1514E+00  0.8974E-01  0.1514E+00  0.8974E-01  0.8177E-01  0.7927E-01  0.1514E+00  0.8974E-01  0.8177E-01  0.7927E-01