    1    1  100    2
  0.7871274E+01  0.2232818E-09  0.2232818E-09  0.2232818E-09  0.5000000E-15
  1.000000000000000E-004
  CAR 
 Co-fcc                                  
      9     60     12
 
  0.6250000E-01  0.6250000E-01  0.6250000E-01  0.3906250E-02
      1          4.964948        4.996329   1.000000   1.000000
      2         12.568124       13.184809   1.000000   1.000000
      3         12.708137       13.332779   1.000000   1.000000
      4         12.708137       13.332779   1.000000   1.000000
      5         14.593482       15.357673   1.000000   1.000000
      6         14.593482       15.357673   1.000000   1.000000
      7         41.250985       41.192944   0.000000   0.000000
      8         46.405571       46.455476   0.000000   0.000000
      9         48.312769       48.383270   0.000000   0.000000
     10         48.312769       48.383279   0.000000   0.000000
     11         52.715898       53.782536   0.000000   0.000000
     12         54.053393       54.323487   0.000000   0.000000
 
  0.1875000E+00  0.6250000E-01  0.6250000E-01  0.1171875E-01
      1          5.983668        6.020345   1.000000   1.000000
      2         12.191100       12.778352   1.000000   1.000000
      3         12.975529       13.607142   1.000000   1.000000
      4         12.975765       13.609376   1.000000   1.000000
      5         14.307712       15.054856   1.000000   1.000000
      6         14.721052       15.480019   1.000000   1.000000
      7         39.828023       39.916022   0.000000   0.000000
      8         42.497005       42.521363   0.000000   0.000000
      9         46.923223       47.004992   0.000000   0.000000
     10         49.567657       49.646366   0.000000   0.000000
     11         51.773212       51.843230   0.000000   0.000000
     12         52.786109       54.278566   0.000000   0.000000
 
  0.3125000E+00  0.6250000E-01  0.6250000E-01  0.1171875E-01
      1          7.955724        8.056137   1.000000   1.000000
      2         12.002152       12.481789   1.000000   1.000000
      3         12.914687       13.558907   1.000000   1.000000
      4         13.046271       13.704085   1.000000   1.000000
      5         14.587453       15.312910   1.000000   1.000000
      6         15.322102       16.059936   1.000000   0.000000
      7         33.680475       33.902458   0.000000   0.000000
      8         40.981752       40.990347   0.000000   0.000000
      9         46.144318       46.265912   0.000000   0.000000
     10         49.989201       50.118195   0.000000   0.000000
     11         51.465132       51.619827   0.000000   0.000000
     12         51.553855       51.714481   0.000000   0.000000
 
  0.4375000E+00  0.6250000E-01  0.6250000E-01  0.1171875E-01
      1          8.939855        9.254228   1.000000   1.000000
      2         12.542637       13.176064   1.000000   1.000000
      3         12.721393       13.377607   1.000000   1.000000
      4         13.534974       13.795462   1.000000   1.000000
      5         15.498875       16.242489   1.000000   0.000000
      6         16.392784       17.060901   0.000000   0.000000
      7         27.837153       28.177994   0.000000   0.000000
      8         39.838324       39.811760   0.000000   0.000000
      9         45.144380       45.283253   0.000000   0.000000
     10         47.843903       47.996604   0.000000   0.000000
     11         50.427624       50.580499   0.000000   0.000000
     12         51.726402       51.955998   0.000000   0.000000
 
 -0.4375000E+00  0.6250000E-01  0.6250000E-01  0.1171875E-01
      1          8.987888        9.355981   1.000000   1.000000
      2         12.385226       13.016895   1.000000   1.000000
      3         12.633845       13.286458   1.000000   1.000000
      4         14.411149       14.700519   1.000000   1.000000
      5         15.985462       16.747532   0.000000   0.000000
      6         17.017952       17.528162   0.000000   0.000000
      7         25.599519       26.019939   0.000000   0.000000
      8         39.540519       39.494606   0.000000   0.000000
      9         45.580828       45.734810   0.000000   0.000000
     10         45.708060       45.854302   0.000000   0.000000
     11         51.213881       51.364388   0.000000   0.000000
     12         51.346330       51.486975   0.000000   0.000000
 
 -0.3125000E+00  0.6250000E-01  0.6250000E-01  0.1171875E-01
      1          8.793483        9.044404   1.000000   1.000000
      2         12.590562       13.066112   1.000000   1.000000
      3         12.831028       13.319787   1.000000   1.000000
      4         12.863511       13.518623   1.000000   1.000000
      5         15.622075       16.299856   0.999998   0.000000
      6         15.648431       16.405249   0.999952   0.000000
      7         29.594742       29.891727   0.000000   0.000000
      8         40.433968       40.396726   0.000000   0.000000
      9         45.015437       45.185044   0.000000   0.000000
     10         47.971148       48.134200   0.000000   0.000000
     11         50.801330       50.930644   0.000000   0.000000
     12         52.713080       53.135762   0.000000   0.000000
 
 -0.1875000E+00  0.6250000E-01  0.6250000E-01  0.1171875E-01
      1          7.284565        7.347143   1.000000   1.000000
      2         11.918322       12.451697   1.000000   1.000000
      3         13.014895       13.662894   1.000000   1.000000
      4         13.108626       13.755916   1.000000   1.000000
      5         14.479814       15.196609   1.000000   1.000000
      6         14.952036       15.706638   1.000000   0.987920
      7         35.844842       36.031264   0.000000   0.000000
      8         41.925741       41.901200   0.000000   0.000000
      9         45.549577       45.714291   0.000000   0.000000
     10         49.587660       49.655619   0.000000   0.000000
     11         51.135867       51.319871   0.000000   0.000000
     12         52.850838       54.265809   0.000000   0.000000
 
 -0.6250000E-01  0.6250000E-01  0.6250000E-01  0.1171875E-01
      1          5.486640        5.520001   1.000000   1.000000
      2         12.315998       12.918185   1.000000   1.000000
      3         12.887755       13.515987   1.000000   1.000000
      4         12.895897       13.524657   1.000000   1.000000
      5         14.348391       15.098146   1.000000   1.000000
      6         14.702360       15.469275   1.000000   1.000000
      7         40.941716       40.944418   0.000000   0.000000
      8         44.271644       44.304229   0.000000   0.000000
      9         46.701639       46.823961   0.000000   0.000000
     10         47.958676       48.025912   0.000000   0.000000
     11         52.784539       53.847429   0.000000   0.000000
     12         53.748494       54.249215   0.000000   0.000000
 
  0.1875000E+00  0.1875000E+00  0.6250000E-01  0.1171875E-01
      1          6.458526        6.499713   1.000000   1.000000
      2         11.838244       12.416294   1.000000   1.000000
      3         13.219352       13.859102   1.000000   1.000000
      4         13.262663       13.900323   1.000000   1.000000
      5         13.998751       14.712087   1.000000   1.000000
      6         14.905134       15.676944   1.000000   0.999014
      7         40.229595       40.322492   0.000000   0.000000
      8         42.344903       42.367455   0.000000   0.000000
      9         44.337120       44.491837   0.000000   0.000000
     10         45.833874       45.919271   0.000000   0.000000
     11         52.578668       53.924210   0.000000   0.000000
     12         55.377470       55.529329   0.000000   0.000000
 
  0.3125000E+00  0.1875000E+00  0.6250000E-01  0.2343750E-01
      1          8.071713        8.153320   1.000000   1.000000
      2         11.332095       11.872442   1.000000   1.000000
      3         12.897290       13.539671   1.000000   1.000000
      4         13.712104       14.370526   1.000000   1.000000
      5         14.385773       15.060846   1.000000   1.000000
      6         15.469662       16.216242   1.000000   0.000000
      7         36.460265       36.639291   0.000000   0.000000
      8         39.108929       39.229285   0.000000   0.000000
      9         43.438183       43.551613   0.000000   0.000000
     10         45.715299       45.804158   0.000000   0.000000
     11         52.311506       53.406104   0.000000   0.000000
     12         54.653306       54.946146   0.000000   0.000000
 
  0.4375000E+00  0.1875000E+00  0.6250000E-01  0.2343750E-01
      1          9.452641        9.728915   1.000000   1.000000
      2         11.564850       12.013057   1.000000   1.000000
      3         12.375153       12.951834   1.000000   1.000000
      4         13.487825       14.155990   1.000000   1.000000
      5         15.559512       16.283996   1.000000   0.000000
      6         17.093089       17.695075   0.000000   0.000000
      7         30.075662       30.349988   0.000000   0.000000
      8         38.125020       38.234051   0.000000   0.000000
      9         41.314562       41.466204   0.000000   0.000000
     10         45.807087       45.931232   0.000000   0.000000
     11         52.723127       53.439338   0.000000   0.000000
     12         53.534776       54.321360   0.000000   0.000000
 
 -0.4375000E+00  0.1875000E+00  0.6250000E-01  0.2343750E-01
      1          9.668451       10.062384   1.000000   1.000000
      2         11.629857       12.165359   1.000000   1.000000
      3         12.995628       13.444344   1.000000   1.000000
      4         13.227916       13.893475   1.000000   1.000000
      5         15.909215       16.663113   0.000255   0.000000
      6         19.506825       19.914762   0.000000   0.000000
      7         25.671400       26.060609   0.000000   0.000000
      8         37.309708       37.417316   0.000000   0.000000
      9         40.838396       41.008262   0.000000   0.000000
     10         45.200123       45.291955   0.000000   0.000000
     11         52.284258       52.694312   0.000000   0.000000
     12         53.454989       54.600208   0.000000   0.000000
 
 -0.3125000E+00  0.1875000E+00  0.6250000E-01  0.2343750E-01
      1          9.684097       10.018510   1.000000   1.000000
      2         11.871064       12.389392   1.000000   1.000000
      3         12.431695       12.900267   1.000000   1.000000
      4         13.308313       13.976069   1.000000   1.000000
      5         15.347603       16.072404   1.000000   0.000000
      6         18.205912       18.758794   0.000000   0.000000
      7         28.258968       28.575179   0.000000   0.000000
      8         36.793171       36.931013   0.000000   0.000000
      9         42.094687       42.217937   0.000000   0.000000
     10         46.602860       46.705956   0.000000   0.000000
     11         51.626600       51.857265   0.000000   0.000000
     12         53.204390       54.520027   0.000000   0.000000
 
 -0.1875000E+00  0.1875000E+00  0.6250000E-01  0.2343750E-01
      1          8.759336        8.868029   1.000000   1.000000
      2         11.465754       11.985196   1.000000   1.000000
      3         12.586858       13.214358   1.000000   1.000000
      4         13.639356       14.314204   1.000000   1.000000
      5         14.255930       14.947442   1.000000   1.000000
      6         16.222496       16.928861   0.000000   0.000000
      7         34.299308       34.513868   0.000000   0.000000
      8         37.129113       37.279311   0.000000   0.000000
      9         44.626236       44.718805   0.000000   0.000000
     10         48.419277       48.480867   0.000000   0.000000
     11         50.990852       51.090750   0.000000   0.000000
     12         52.783833       54.181864   0.000000   0.000000
 
 -0.6250000E-01  0.1875000E+00  0.6250000E-01  0.2343750E-01
      1          6.907680        6.955081   1.000000   1.000000
      2         11.833690       12.398892   1.000000   1.000000
      3         13.064614       13.705077   1.000000   1.000000
      4         13.271262       13.914637   1.000000   1.000000
      5         14.125364       14.844289   1.000000   1.000000
      6         15.016533       15.772553   1.000000   0.651815
      7         38.204082       38.351891   0.000000   0.000000
      8         40.768593       40.834920   0.000000   0.000000
      9         45.942470       46.029065   0.000000   0.000000
     10         47.900155       47.966665   0.000000   0.000000
     11         52.515580       52.848513   0.000000   0.000000
     12         53.044962       54.211241   0.000000   0.000000
 
  0.3125000E+00  0.3125000E+00  0.6250000E-01  0.1171875E-01
      1          8.686382        8.861378   1.000000   1.000000
      2         10.635481       11.159910   1.000000   1.000000
      3         13.450434       13.994581   1.000000   1.000000
      4         14.413121       15.088385   1.000000   1.000000
      5         14.935681       15.563071   1.000000   1.000000
      6         15.475339       16.257617   1.000000   0.000000
      7         36.964956       37.120417   0.000000   0.000000
      8         38.713380       38.861760   0.000000   0.000000
      9         39.310673       39.465857   0.000000   0.000000
     10         42.141577       42.280364   0.000000   0.000000
     11         49.870542       50.346358   0.000000   0.000000
     12         54.010874       55.237502   0.000000   0.000000
 
  0.4375000E+00  0.3125000E+00  0.6250000E-01  0.2343750E-01
      1          9.333302        9.666207   1.000000   1.000000
      2         10.313946       10.813698   1.000000   1.000000
      3         13.298433       13.797667   1.000000   1.000000
      4         14.869045       15.570618   1.000000   1.000000
      5         15.650375       16.382142   0.999940   0.000000
      6         17.386026       17.923589   0.000000   0.000000
      7         33.143757       33.344726   0.000000   0.000000
      8         35.270490       35.464964   0.000000   0.000000
      9         37.025433       37.195494   0.000000   0.000000
     10         43.712014       43.849690   0.000000   0.000000
     11         50.412844       50.867759   0.000000   0.000000
     12         53.990157       55.167159   0.000000   0.000000
 
 -0.4375000E+00  0.3125000E+00  0.6250000E-01  0.2343750E-01
      1          9.877703       10.327211   1.000000   1.000000
      2         10.577582       11.039151   1.000000   1.000000
      3         12.767800       13.259221   1.000000   1.000000
      4         14.427224       15.139332   1.000000   1.000000
      5         15.997292       16.745223   0.000000   0.000000
      6         21.320363       21.700030   0.000000   0.000000
      7         27.408382       27.684459   0.000000   0.000000
      8         33.108586       33.348147   0.000000   0.000000
      9         37.076496       37.242082   0.000000   0.000000
     10         44.311488       44.435378   0.000000   0.000000
     11         52.785114       54.094480   0.000000   0.000000
     12         55.834297       56.032416   0.000000   0.000000
 
 -0.3125000E+00  0.3125000E+00  0.6250000E-01  0.2343750E-01
      1         10.659397       11.137565   1.000000   1.000000
      2         10.881865       11.307612   1.000000   1.000000
      3         12.015162       12.503735   1.000000   1.000000
      4         14.112327       14.826716   1.000000   1.000000
      5         15.427932       16.142430   1.000000   0.000000
      6         21.792990       22.191863   0.000000   0.000000
      7         27.274311       27.574973   0.000000   0.000000
      8         31.687729       31.935786   0.000000   0.000000
      9         39.100207       39.266299   0.000000   0.000000
     10         45.173030       45.273655   0.000000   0.000000
     11         52.998658       54.399132   0.000000   0.000000
     12         54.938585       55.040545   0.000000   0.000000
 
 -0.1875000E+00  0.3125000E+00  0.6250000E-01  0.2343750E-01
      1         10.221551       10.485497   1.000000   1.000000
      2         11.511889       11.981593   1.000000   1.000000
      3         11.778516       12.359207   1.000000   1.000000
      4         13.805289       14.499576   1.000000   1.000000
      5         14.801038       15.496494   1.000000   1.000000
      6         18.457985       19.033760   0.000000   0.000000
      7         30.646429       30.916355   0.000000   0.000000
      8         33.907531       34.106143   0.000000   0.000000
      9         41.830682       41.956952   0.000000   0.000000
     10         47.303992       47.408895   0.000000   0.000000
     11         51.595683       51.677532   0.000000   0.000000
     12         52.971142       54.384228   0.000000   0.000000
 
 -0.6250000E-01  0.3125000E+00  0.6250000E-01  0.2343750E-01
      1          8.753876        8.925898   1.000000   1.000000
      2         11.939238       12.373494   1.000000   1.000000
      3         12.628566       13.267868   1.000000   1.000000
      4         13.162519       13.823689   1.000000   1.000000
      5         14.941132       15.647188   1.000000   0.999959
      6         15.997840       16.706731   0.000000   0.000000
      7         31.765020       32.018222   0.000000   0.000000
      8         39.620752       39.681648   0.000000   0.000000
      9         44.257045       44.372521   0.000000   0.000000
     10         48.030066       48.166541   0.000000   0.000000
     11         51.758288       51.933200   0.000000   0.000000
     12         52.942416       53.746638   0.000000   0.000000
 
  0.4375000E+00  0.4375000E+00  0.6250000E-01  0.1171875E-01
      1          8.819342        9.219761   1.000000   1.000000
      2          9.711863       10.200959   1.000000   1.000000
      3         15.283232       15.837260   1.000000   0.074937
      4         15.577403       16.334487   1.000000   0.000000
      5         16.050852       16.813986   0.000000   0.000000
      6         17.854813       18.180987   0.000000   0.000000
      7         31.900983       32.193324   0.000000   0.000000
      8         34.384705       34.526605   0.000000   0.000000
      9         35.587463       35.702239   0.000000   0.000000
     10         41.528923       41.728773   0.000000   0.000000
     11         47.996837       48.328148   0.000000   0.000000
     12         54.017150       55.341593   0.000000   0.000000
 
 -0.4375000E+00  0.4375000E+00  0.6250000E-01  0.2343750E-01
      1          8.969282        9.404018   1.000000   1.000000
      2          9.769547       10.250583   1.000000   1.000000
      3         14.580553       15.119446   1.000000   1.000000
      4         15.518130       16.295035   1.000000   0.000000
      5         16.239996       16.980104   0.000000   0.000000
      6         20.995987       21.260175   0.000000   0.000000
      7         29.564135       29.912584   0.000000   0.000000
      8         31.714449       31.894630   0.000000   0.000000
      9         34.407112       34.539328   0.000000   0.000000
     10         43.160375       43.327831   0.000000   0.000000
     11         49.713338       50.114624   0.000000   0.000000
     12         54.165018       55.400741   0.000000   0.000000
 
 -0.3125000E+00  0.4375000E+00  0.6250000E-01  0.2343750E-01
      1          9.748634       10.218105   1.000000   1.000000
      2         10.433733       10.892233   1.000000   1.000000
      3         13.022886       13.519337   1.000000   1.000000
      4         14.758851       15.499597   1.000000   1.000000
      5         15.945003       16.676471   0.000004   0.000000
      6         23.709732       24.014054   0.000000   0.000000
      7         26.411509       26.686897   0.000000   0.000000
      8         30.625437       30.921680   0.000000   0.000000
      9         36.436699       36.599262   0.000000   0.000000
     10         44.173256       44.305089   0.000000   0.000000
     11         52.746310       54.029173   0.000000   0.000000
     12         56.778762       57.081369   0.000000   0.000000
 
 -0.1875000E+00  0.4375000E+00  0.6250000E-01  0.2343750E-01
      1         10.204809       10.626801   1.000000   1.000000
      2         11.127160       11.617897   1.000000   1.000000
      3         12.489234       12.965605   1.000000   1.000000
      4         13.685570       14.375508   1.000000   1.000000
      5         15.719766       16.458678   0.970168   0.000000
      6         21.142764       21.524728   0.000000   0.000000
      7         25.815025       26.176648   0.000000   0.000000
      8         34.531970       34.724540   0.000000   0.000000
      9         39.563707       39.726382   0.000000   0.000000
     10         45.098759       45.190090   0.000000   0.000000
     11         52.785420       53.738992   0.000000   0.000000
     12         54.143591       54.720136   0.000000   0.000000
 
 -0.6250000E-01  0.4375000E+00  0.6250000E-01  0.2343750E-01
      1          9.231234        9.591213   1.000000   1.000000
      2         12.173039       12.766460   1.000000   1.000000
      3         12.865152       13.521602   1.000000   1.000000
      4         13.457793       13.823018   1.000000   1.000000
      5         15.814688       16.563824   0.211408   0.000000
      6         17.660714       18.175926   0.000000   0.000000
      7         26.496013       26.871425   0.000000   0.000000
      8         38.910750       38.935533   0.000000   0.000000
      9         43.282450       43.434959   0.000000   0.000000
     10         45.958523       46.084384   0.000000   0.000000
     11         51.484354       51.707113   0.000000   0.000000
     12         52.987972       53.835001   0.000000   0.000000
 
 -0.4375000E+00 -0.4375000E+00  0.6250000E-01  0.1171875E-01
      1          8.647852        9.072879   1.000000   1.000000
      2          9.506115        9.987884   1.000000   1.000000
      3         15.787850       16.413353   0.483070   0.000000
      4         15.827826       16.625087   0.120371   0.000000
      5         16.263570       17.006727   0.000000   0.000000
      6         19.472483       19.650063   0.000000   0.000000
      7         29.693117       30.067250   0.000000   0.000000
      8         33.536313       33.657687   0.000000   0.000000
      9         34.722515       34.821529   0.000000   0.000000
     10         41.467300       41.679893   0.000000   0.000000
     11         47.767433       48.093691   0.000000   0.000000
     12         53.931484       55.259894   0.000000   0.000000
 
 -0.3125000E+00 -0.4375000E+00  0.6250000E-01  0.2343750E-01
      1          9.153531        9.564984   1.000000   1.000000
      2          9.956731       10.444205   1.000000   1.000000
      3         14.055811       14.567432   1.000000   1.000000
      4         15.343937       16.085305   1.000000   0.000000
      5         16.010815       16.755295   0.000000   0.000000
      6         19.255389       19.638065   0.000000   0.000000
      7         31.492336       31.734517   0.000000   0.000000
      8         32.841827       33.064073   0.000000   0.000000
      9         35.217444       35.363127   0.000000   0.000000
     10         43.325512       43.482421   0.000000   0.000000
     11         49.908895       50.316889   0.000000   0.000000
     12         54.094918       55.320172   0.000000   0.000000
 
 -0.1875000E+00 -0.4375000E+00  0.6250000E-01  0.2343750E-01
      1          9.846976       10.229118   1.000000   1.000000
      2         10.986851       11.456282   1.000000   1.000000
      3         12.467818       12.975771   1.000000   1.000000
      4         13.948398       14.633501   1.000000   1.000000
      5         15.916754       16.667893   0.000113   0.000000
      6         18.937858       19.412448   0.000000   0.000000
      7         28.610748       28.891855   0.000000   0.000000
      8         36.054732       36.221898   0.000000   0.000000
      9         38.565740       38.739701   0.000000   0.000000
     10         44.739980       44.856518   0.000000   0.000000
     11         52.804557       54.185613   0.000000   0.000000
     12         54.663484       54.767945   0.000000   0.000000
 
 -0.3125000E+00 -0.3125000E+00  0.6250000E-01  0.1171875E-01
      1          8.979262        9.301656   1.000000   1.000000
      2         10.102603       10.606122   1.000000   1.000000
      3         14.334976       14.800696   1.000000   1.000000
      4         15.059797       15.768517   1.000000   0.693006
      5         15.773033       16.553621   0.646779   0.000000
      6         16.121141       16.651767   0.000000   0.000000
      7         34.723330       34.920830   0.000000   0.000000
      8         36.101502       36.277878   0.000000   0.000000
      9         37.181430       37.318239   0.000000   0.000000
     10         41.695206       41.869555   0.000000   0.000000
     11         48.606146       48.976043   0.000000   0.000000
     12         53.917087       55.218555   0.000000   0.000000
 
 -0.1875000E+00 -0.3125000E+00  0.6250000E-01  0.2343750E-01
      1          9.048030        9.230904   1.000000   1.000000
      2         10.796902       11.314182   1.000000   1.000000
      3         12.801040       13.377501   1.000000   1.000000
      4         14.265277       14.941164   1.000000   1.000000
      5         15.063566       15.743731   1.000000   0.885982
      6         16.136366       16.824805   0.000000   0.000000
      7         34.752499       34.948134   0.000000   0.000000
      8         37.344979       37.500911   0.000000   0.000000
      9         40.097927       40.250293   0.000000   0.000000
     10         44.444673       44.558664   0.000000   0.000000
     11         51.339186       51.959005   0.000000   0.000000
     12         54.064212       55.068301   0.000000   0.000000
 
 -0.1875000E+00 -0.1875000E+00  0.6250000E-01  0.1171875E-01
      1          7.680856        7.753195   1.000000   1.000000
      2         11.243629       11.793993   1.000000   1.000000
      3         13.290484       13.937974   1.000000   1.000000
      4         13.784419       14.436981   1.000000   1.000000
      5         14.156645       14.808489   1.000000   1.000000
      6         15.174572       15.952254   1.000000   0.000001
      7         38.831111       38.972988   0.000000   0.000000
      8         40.860450       40.929509   0.000000   0.000000
      9         41.769739       41.932914   0.000000   0.000000
     10         43.490600       43.599956   0.000000   0.000000
     11         51.610612       52.435586   0.000000   0.000000
     12         54.623571       55.544118   0.000000   0.000000
 
  0.1875000E+00  0.1875000E+00  0.1875000E+00  0.3906250E-02
      1          6.441711        6.485189   1.000000   1.000000
      2         12.139222       12.703128   1.000000   1.000000
      3         12.995308       13.634531   1.000000   1.000000
      4         12.995308       13.634532   1.000000   1.000000
      5         14.556473       15.305354   1.000000   1.000000
      6         14.556473       15.305354   1.000000   1.000000
      7         37.869201       38.017004   0.000000   0.000000
      8         42.747622       42.695669   0.000000   0.000000
      9         47.988078       48.122949   0.000000   0.000000
     10         47.988078       48.122969   0.000000   0.000000
     11         52.681382       53.344360   0.000000   0.000000
     12         53.433781       54.321711   0.000000   0.000000
 
  0.3125000E+00  0.1875000E+00  0.1875000E+00  0.1171875E-01
      1          7.732857        7.797961   1.000000   1.000000
      2         11.725790       12.269083   1.000000   1.000000
      3         12.915536       13.548463   1.000000   1.000000
      4         13.391631       14.049552   1.000000   1.000000
      5         14.033520       14.751845   1.000000   1.000000
      6         15.498433       16.233115   1.000000   0.000000
      7         36.167287       36.351734   0.000000   0.000000
      8         38.872858       38.985841   0.000000   0.000000
      9         47.140299       47.188975   0.000000   0.000000
     10         49.263875       49.305283   0.000000   0.000000
     11         50.207656       50.308556   0.000000   0.000000
     12         52.875221       54.020312   0.000000   0.000000
 
  0.4375000E+00  0.1875000E+00  0.1875000E+00  0.1171875E-01
      1          9.550368        9.720162   1.000000   1.000000
      2         11.560106       12.051670   1.000000   1.000000
      3         12.278903       12.878901   1.000000   1.000000
      4         13.555767       14.251461   1.000000   1.000000
      5         14.360112       15.049099   1.000000   1.000000
      6         17.196140       17.855732   0.000000   0.000000
      7         32.370768       32.618109   0.000000   0.000000
      8         35.377743       35.554195   0.000000   0.000000
      9         44.991748       45.039624   0.000000   0.000000
     10         47.097204       47.262853   0.000000   0.000000
     11         51.303333       51.336037   0.000000   0.000000
     12         52.932258       54.362938   0.000000   0.000000
 
 -0.4375000E+00  0.1875000E+00  0.1875000E+00  0.1171875E-01
      1          9.922427       10.304141   1.000000   1.000000
      2         11.611184       12.140129   1.000000   1.000000
      3         12.630800       13.072117   1.000000   1.000000
      4         13.346738       14.027236   1.000000   1.000000
      5         15.452480       16.184634   1.000000   0.000000
      6         19.541660       20.007837   0.000000   0.000000
      7         26.797133       27.146405   0.000000   0.000000
      8         35.539358       35.705936   0.000000   0.000000
      9         43.268480       43.333672   0.000000   0.000000
     10         43.471402       43.642405   0.000000   0.000000