PROCAR lm decomposed
# of k-points:   60         # of bands:   12         # of ions:    1

 k-point     1 :    0.06250000 0.06250000 0.06250000     weight = 0.00390625

band     1 # energy    4.96494764 # occ.  1.00000000
 
ion      s     py     pz     px    dxy    dyz    dz2    dxz  x2-y2    tot
    1  1.052  0.006  0.006  0.006  0.000  0.000  0.000  0.000  0.000  1.071
 
band     2 # energy   12.56812438 # occ.  1.00000000
 
ion      s     py     pz     px    dxy    dyz    dz2    dxz  x2-y2    tot
    1  0.000  0.001  0.001  0.001  0.336  0.336  0.000  0.336  0.000  1.012
 
band     3 # energy   12.70813675 # occ.  1.00000000
 
ion      s     py     pz     px    dxy    dyz    dz2    dxz  x2-y2    tot
    1  0.000  0.000  0.000  0.000  0.246  0.101  0.000  0.662  0.001  1.011
 
band     4 # energy   12.70813675 # occ.  1.00000000
 
ion      s     py     pz     px    dxy    dyz    dz2    dxz  x2-y2    tot
    1  0.000  0.000  0.000  0.000  0.427  0.572  0.001  0.011  0.000  1.011
 
band     5 # energy   14.59348218 # occ.  1.00000000
 
ion      s     py     pz     px    dxy    dyz    dz2    dxz  x2-y2    tot
    1  0.000  0.000  0.000  0.000  0.000  0.001  0.246  0.000  0.749  0.996
 
band     6 # energy   14.59348218 # occ.  1.00000000
 
ion      s     py     pz     px    dxy    dyz    dz2    dxz  x2-y2    tot
    1  0.000  0.000  0.000  0.000  0.001  0.000  0.749  0.001  0.246  0.996
 
band     7 # energy   41.25098503 # occ.  0.00000000
 
ion      s     py     pz     px    dxy    dyz    dz2    dxz  x2-y2    tot
    1  0.000  0.001  0.001  0.001  0.039  0.039  0.000  0.039  0.000  0.122
 
band     8 # energy   46.40557051 # occ.  0.00000000
 
ion      s     py     pz     px    dxy    dyz    dz2    dxz  x2-y2    tot
    1  0.033  0.062  0.062  0.062  0.050  0.050  0.000  0.050  0.000  0.369
 
band     9 # energy   48.31276920 # occ.  0.00000000
 
ion      s     py     pz     px    dxy    dyz    dz2    dxz  x2-y2    tot
    1  0.000  0.055  0.017  0.134  0.009  0.068  0.004  0.028  0.030  0.346
 
band    10 # energy   48.31276920 # occ.  0.00000000
 
ion      s     py     pz     px    dxy    dyz    dz2    dxz  x2-y2    tot
    1  0.000  0.083  0.121  0.004  0.061  0.002  0.030  0.042  0.004  0.346
 
band    11 # energy   52.71589752 # occ.  0.00000000
 
ion      s     py     pz     px    dxy    dyz    dz2    dxz  x2-y2    tot
    1  5.733  0.002  0.002  0.002  0.020  0.020  0.000  0.020  0.000  5.797
 
band    12 # energy   54.05339253 # occ.  0.00000000
 
ion      s     py     pz     px    dxy    dyz    dz2    dxz  x2-y2    tot
    1  0.401  0.014  0.014  0.014  0.393  0.393  0.000  0.393  0.000  1.623
 

 k-point     2 :    0.18750000 0.06250000 0.06250000     weight = 0.01171875

band     1 # energy    5.98366778 # occ.  1.00000000
 
ion      s     py     pz     px    dxy    dyz    dz2    dxz  x2-y2    tot
    1  0.951  0.052  0.052  0.005  0.001  0.008  0.000  0.001  0.001  1.073
 
band     2 # energy   12.19109988 # occ.  1.00000000
 
ion      s     py     pz     px    dxy    dyz    dz2    dxz  x2-y2    tot
    1  0.001  0.002  0.002  0.014  0.478  0.036  0.000  0.478  0.000  1.011
 
band     3 # energy   12.97552864 # occ.  1.00000000
 
ion      s     py     pz     px    dxy    dyz    dz2    dxz  x2-y2    tot
    1  0.000  0.000  0.000  0.000  0.493  0.000  0.013  0.493  0.004  1.005
 
band     4 # energy   12.97576525 # occ.  1.00000000
 
ion      s     py     pz     px    dxy    dyz    dz2    dxz  x2-y2    tot
    1  0.001  0.005  0.005  0.000  0.018  0.882  0.019  0.018  0.058  1.006
 
band     5 # energy   14.30771229 # occ.  1.00000000
 
ion      s     py     pz     px    dxy    dyz    dz2    dxz  x2-y2    tot
    1  0.000  0.000  0.000  0.000  0.009  0.000  0.730  0.009  0.243  0.991
 
band     6 # energy   14.72105173 # occ.  1.00000000
 
ion      s     py     pz     px    dxy    dyz    dz2    dxz  x2-y2    tot
    1  0.002  0.001  0.001  0.000  0.001  0.071  0.229  0.001  0.686  0.993
 
band     7 # energy   39.82802278 # occ.  0.00000000
 
ion      s     py     pz     px    dxy    dyz    dz2    dxz  x2-y2    tot
    1  0.016  0.025  0.025  0.081  0.270  0.093  0.001  0.270  0.002  0.784
 
band     8 # energy   42.49700472 # occ.  0.00000000
 
ion      s     py     pz     px    dxy    dyz    dz2    dxz  x2-y2    tot
    1  0.049  0.057  0.057  0.001  0.026  0.151  0.011  0.026  0.032  0.410
 
band     9 # energy   46.92322324 # occ.  0.00000000
 
ion      s     py     pz     px    dxy    dyz    dz2    dxz  x2-y2    tot
    1  0.000  0.009  0.009  0.234  0.071  0.108  0.006  0.071  0.019  0.527
 
band    10 # energy   49.56765660 # occ.  0.00000000
 
ion      s     py     pz     px    dxy    dyz    dz2    dxz  x2-y2    tot
    1  0.000  0.060  0.060  0.000  0.059  0.000  0.262  0.059  0.087  0.586
 
band    11 # energy   51.77321241 # occ.  0.00000000
 
ion      s     py     pz     px    dxy    dyz    dz2    dxz  x2-y2    tot
    1  0.023  0.086  0.086  0.006  0.001  0.628  0.009  0.001  0.028  0.868
 
band    12 # energy   52.78610856 # occ.  0.00000000
 
ion      s     py     pz     px    dxy    dyz    dz2    dxz  x2-y2    tot
    1  6.169  0.000  0.000  0.000  0.000  0.016  0.000  0.000  0.001  6.187
 

 k-point     3 :    0.31250000 0.06250000 0.06250000     weight = 0.01171875

band     1 # energy    7.95572381 # occ.  1.00000000
 
ion      s     py     pz     px    dxy    dyz    dz2    dxz  x2-y2    tot
    1  0.679  0.092  0.092  0.023  0.052  0.080  0.001  0.052  0.003  1.074
 
band     2 # energy   12.00215169 # occ.  1.00000000
 
ion      s     py     pz     px    dxy    dyz    dz2    dxz  x2-y2    tot
    1  0.042  0.048  0.048  0.066  0.375  0.057  0.001  0.375  0.002  1.015
 
band     3 # energy   12.91468659 # occ.  1.00000000
 
ion      s     py     pz     px    dxy    dyz    dz2    dxz  x2-y2    tot
    1  0.000  0.006  0.006  0.000  0.040  0.510  0.099  0.040  0.298  1.001
 
band     4 # energy   13.04627054 # occ.  1.00000000
 
ion      s     py     pz     px    dxy    dyz    dz2    dxz  x2-y2    tot
    1  0.000  0.000  0.000  0.000  0.299  0.000  0.300  0.299  0.100  1.000
 
band     5 # energy   14.58745321 # occ.  1.00000000
 
ion      s     py     pz     px    dxy    dyz    dz2    dxz  x2-y2    tot
    1  0.000  0.002  0.002  0.000  0.198  0.000  0.440  0.198  0.147  0.986
 
band     6 # energy   15.32210228 # occ.  1.00000000
 
ion      s     py     pz     px    dxy    dyz    dz2    dxz  x2-y2    tot
    1  0.012  0.009  0.009  0.000  0.017  0.339  0.147  0.017  0.440  0.992
 
band     7 # energy   33.68047499 # occ.  0.00000000
 
ion      s     py     pz     px    dxy    dyz    dz2    dxz  x2-y2    tot
    1  0.126  0.075  0.075  0.135  0.227  0.188  0.002  0.227  0.006  1.060
 
band     8 # energy   40.98175233 # occ.  0.00000000
 
ion      s     py     pz     px    dxy    dyz    dz2    dxz  x2-y2    tot
    1  0.019  0.004  0.004  0.052  0.131  0.025  0.018  0.131  0.055  0.441
 
band     9 # energy   46.14431846 # occ.  0.00000000
 
ion      s     py     pz     px    dxy    dyz    dz2    dxz  x2-y2    tot
    1  0.006  0.078  0.078  0.175  0.043  0.327  0.014  0.043  0.043  0.808
 
band    10 # energy   49.98920114 # occ.  0.00000000
 
ion      s     py     pz     px    dxy    dyz    dz2    dxz  x2-y2    tot
    1  0.000  0.032  0.032  0.000  0.262  0.000  0.514  0.262  0.171  1.274
 
band    11 # energy   51.46513174 # occ.  0.00000000
 
ion      s     py     pz     px    dxy    dyz    dz2    dxz  x2-y2    tot
    1  0.932  0.055  0.055  0.011  0.009  0.001  0.066  0.009  0.199  1.338
 
band    12 # energy   51.55385459 # occ.  0.00000000
 
ion      s     py     pz     px    dxy    dyz    dz2    dxz  x2-y2    tot
    1  0.000  0.159  0.159  0.000  0.163  0.000  0.293  0.163  0.098  1.035
 

 k-point     4 :    0.43750000 0.06250000 0.06250000     weight = 0.01171875

band     1 # energy    8.93985496 # occ.  1.00000000
 
ion      s     py     pz     px    dxy    dyz    dz2    dxz  x2-y2    tot
    1  0.313  0.028  0.028  0.001  0.228  0.239  0.000  0.228  0.001  1.067
 
band     2 # energy   12.54263747 # occ.  1.00000000
 
ion      s     py     pz     px    dxy    dyz    dz2    dxz  x2-y2    tot
    1  0.000  0.007  0.007  0.000  0.046  0.309  0.146  0.046  0.439  1.000
 
band     3 # energy   12.72139280 # occ.  1.00000000
 
ion      s     py     pz     px    dxy    dyz    dz2    dxz  x2-y2    tot
    1  0.000  0.000  0.000  0.000  0.203  0.000  0.445  0.203  0.148  1.001
 
band     4 # energy   13.53497407 # occ.  1.00000000
 
ion      s     py     pz     px    dxy    dyz    dz2    dxz  x2-y2    tot
    1  0.082  0.186  0.186  0.187  0.162  0.016  0.011  0.162  0.032  1.024
 
band     5 # energy   15.49887531 # occ.  1.00000000
 
ion      s     py     pz     px    dxy    dyz    dz2    dxz  x2-y2    tot
    1  0.000  0.001  0.001  0.000  0.295  0.000  0.297  0.295  0.099  0.988
 
band     6 # energy   16.39278446 # occ.  0.00000000
 
ion      s     py     pz     px    dxy    dyz    dz2    dxz  x2-y2    tot
    1  0.034  0.056  0.056  0.031  0.022  0.413  0.092  0.022  0.276  1.003
 
band     7 # energy   27.83715301 # occ.  0.00000000
 
ion      s     py     pz     px    dxy    dyz    dz2    dxz  x2-y2    tot
    1  0.322  0.043  0.043  0.103  0.210  0.178  0.001  0.210  0.003  1.114
 
band     8 # energy   39.83832391 # occ.  0.00000000
 
ion      s     py     pz     px    dxy    dyz    dz2    dxz  x2-y2    tot
    1  0.005  0.001  0.001  0.052  0.057  0.020  0.023  0.057  0.069  0.283
 
band     9 # energy   45.14437966 # occ.  0.00000000
 
ion      s     py     pz     px    dxy    dyz    dz2    dxz  x2-y2    tot
    1  0.028  0.102  0.102  0.236  0.055  0.101  0.023  0.055  0.070  0.772
 
band    10 # energy   47.84390262 # occ.  0.00000000
 
ion      s     py     pz     px    dxy    dyz    dz2    dxz  x2-y2    tot
    1  0.000  0.215  0.215  0.000  0.001  0.000  0.295  0.001  0.098  0.824
 
band    11 # energy   50.42762433 # occ.  0.00000000
 
ion      s     py     pz     px    dxy    dyz    dz2    dxz  x2-y2    tot
    1  0.000  0.040  0.040  0.000  0.325  0.000  0.587  0.325  0.196  1.513
 
band    12 # energy   51.72640196 # occ.  0.00000000
 
ion      s     py     pz     px    dxy    dyz    dz2    dxz  x2-y2    tot
    1  1.150  0.014  0.014  0.005  0.000  0.246  0.162  0.000  0.487  2.078
 

 k-point     5 :   -0.43750000 0.06250000 0.06250000     weight = 0.01171875

band     1 # energy    8.98788774 # occ.  1.00000000
 
ion      s     py     pz     px    dxy    dyz    dz2    dxz  x2-y2    tot
    1  0.239  0.000  0.000  0.011  0.263  0.289  0.000  0.263  0.000  1.065
 
band     2 # energy   12.38522629 # occ.  1.00000000
 
ion      s     py     pz     px    dxy    dyz    dz2    dxz  x2-y2    tot
    1  0.000  0.006  0.006  0.001  0.067  0.213  0.160  0.067  0.479  1.000
 
band     3 # energy   12.63384475 # occ.  1.00000000
 
ion      s     py     pz     px    dxy    dyz    dz2    dxz  x2-y2    tot
    1  0.000  0.001  0.001  0.000  0.199  0.000  0.452  0.199  0.151  1.002
 
band     4 # energy   14.41114872 # occ.  1.00000000
 
ion      s     py     pz     px    dxy    dyz    dz2    dxz  x2-y2    tot
    1  0.005  0.186  0.186  0.186  0.042  0.269  0.026  0.042  0.077  1.017
 
band     5 # energy   15.98546244 # occ.  0.00000001
 
ion      s     py     pz     px    dxy    dyz    dz2    dxz  x2-y2    tot
    1  0.000  0.000  0.000  0.000  0.301  0.000  0.293  0.301  0.098  0.993
 
band     6 # energy   17.01795219 # occ.  0.00000000
 
ion      s     py     pz     px    dxy    dyz    dz2    dxz  x2-y2    tot
    1  0.004  0.137  0.137  0.160  0.072  0.170  0.065  0.072  0.194  1.011
 
band     7 # energy   25.59951879 # occ.  0.00000000
 
ion      s     py     pz     px    dxy    dyz    dz2    dxz  x2-y2    tot
    1  0.472  0.012  0.012  0.000  0.205  0.219  0.000  0.205  0.000  1.125
 
band     8 # energy   39.54051906 # occ.  0.00000000
 
ion      s     py     pz     px    dxy    dyz    dz2    dxz  x2-y2    tot
    1  0.000  0.007  0.007  0.029  0.007  0.048  0.023  0.007  0.069  0.197
 
band     9 # energy   45.58082781 # occ.  0.00000000
 
ion      s     py     pz     px    dxy    dyz    dz2    dxz  x2-y2    tot
    1  0.000  0.233  0.233  0.000  0.060  0.000  0.203  0.060  0.068  0.857
 
band    10 # energy   45.70805976 # occ.  0.00000000
 
ion      s     py     pz     px    dxy    dyz    dz2    dxz  x2-y2    tot
    1  0.048  0.079  0.079  0.305  0.024  0.001  0.042  0.024  0.125  0.727
 
band    11 # energy   51.21388078 # occ.  0.00000000
 
ion      s     py     pz     px    dxy    dyz    dz2    dxz  x2-y2    tot
    1  0.149  0.004  0.004  0.026  0.042  0.424  0.222  0.042  0.667  1.579
 
band    12 # energy   51.34632999 # occ.  0.00000000
 
ion      s     py     pz     px    dxy    dyz    dz2    dxz  x2-y2    tot
    1  0.000  0.046  0.046  0.000  0.212  0.000  0.652  0.212  0.217  1.386
 

 k-point     6 :   -0.31250000 0.06250000 0.06250000     weight = 0.01171875

band     1 # energy    8.79348271 # occ.  1.00000000
 
ion      s     py     pz     px    dxy    dyz    dz2    dxz  x2-y2    tot
    1  0.405  0.017  0.017  0.072  0.178  0.194  0.002  0.178  0.005  1.069
 
band     2 # energy   12.59056202 # occ.  1.00000000
 
ion      s     py     pz     px    dxy    dyz    dz2    dxz  x2-y2    tot
    1  0.011  0.030  0.030  0.025  0.132  0.038  0.150  0.132  0.450  0.997
 
band     3 # energy   12.83102846 # occ.  1.00000000
 
ion      s     py     pz     px    dxy    dyz    dz2    dxz  x2-y2    tot
    1  0.091  0.115  0.115  0.121  0.001  0.570  0.002  0.001  0.007  1.024
 
band     4 # energy   12.86351149 # occ.  1.00000000
 
ion      s     py     pz     px    dxy    dyz    dz2    dxz  x2-y2    tot
    1  0.000  0.002  0.002  0.000  0.245  0.000  0.380  0.245  0.127  1.002
 
band     5 # energy   15.62207544 # occ.  0.99999831
 
ion      s     py     pz     px    dxy    dyz    dz2    dxz  x2-y2    tot
    1  0.031  0.020  0.020  0.052  0.167  0.165  0.094  0.167  0.281  0.995
 
band     6 # energy   15.64843082 # occ.  0.99995209
 
ion      s     py     pz     px    dxy    dyz    dz2    dxz  x2-y2    tot
    1  0.000  0.001  0.001  0.000  0.251  0.000  0.364  0.251  0.121  0.991
 
band     7 # energy   29.59474184 # occ.  0.00000000
 
ion      s     py     pz     px    dxy    dyz    dz2    dxz  x2-y2    tot
    1  0.244  0.103  0.103  0.046  0.188  0.225  0.001  0.188  0.004  1.102
 
band     8 # energy   40.43396832 # occ.  0.00000000
 
ion      s     py     pz     px    dxy    dyz    dz2    dxz  x2-y2    tot
    1  0.004  0.009  0.009  0.008  0.002  0.125  0.021  0.002  0.064  0.243
 
band     9 # energy   45.01543710 # occ.  0.00000000
 
ion      s     py     pz     px    dxy    dyz    dz2    dxz  x2-y2    tot
    1  0.000  0.211  0.211  0.000  0.215  0.000  0.143  0.215  0.048  1.043
 
band    10 # energy   47.97114791 # occ.  0.00000000
 
ion      s     py     pz     px    dxy    dyz    dz2    dxz  x2-y2    tot
    1  0.102  0.030  0.030  0.322  0.000  0.123  0.064  0.000  0.193  0.864
 
band    11 # energy   50.80132968 # occ.  0.00000000
 
ion      s     py     pz     px    dxy    dyz    dz2    dxz  x2-y2    tot
    1  0.010  0.006  0.006  0.032  0.094  0.351  0.199  0.094  0.597  1.388
 
band    12 # energy   52.71308011 # occ.  0.00000000
 
ion      s     py     pz     px    dxy    dyz    dz2    dxz  x2-y2    tot
    1  5.930  0.004  0.004  0.005  0.015  0.000  0.001  0.015  0.002  5.975
 

 k-point     7 :   -0.18750000 0.06250000 0.06250000     weight = 0.01171875

band     1 # energy    7.28456510 # occ.  1.00000000
 
ion      s     py     pz     px    dxy    dyz    dz2    dxz  x2-y2    tot
    1  0.794  0.038  0.038  0.120  0.029  0.019  0.002  0.029  0.005  1.074
 
band     2 # energy   11.91832208 # occ.  1.00000000
 
ion      s     py     pz     px    dxy    dyz    dz2    dxz  x2-y2    tot
    1  0.017  0.029  0.029  0.020  0.138  0.639  0.000  0.138  0.001  1.012
 
band     3 # energy   13.01489495 # occ.  1.00000000
 
ion      s     py     pz     px    dxy    dyz    dz2    dxz  x2-y2    tot
    1  0.000  0.001  0.001  0.002  0.215  0.240  0.081  0.215  0.244  1.000
 
band     4 # energy   13.10862615 # occ.  1.00000000
 
ion      s     py     pz     px    dxy    dyz    dz2    dxz  x2-y2    tot
    1  0.000  0.004  0.004  0.000  0.381  0.000  0.174  0.381  0.058  1.003
 
band     5 # energy   14.47981386 # occ.  1.00000000
 
ion      s     py     pz     px    dxy    dyz    dz2    dxz  x2-y2    tot
    1  0.009  0.001  0.001  0.011  0.109  0.094  0.164  0.109  0.491  0.989
 
band     6 # energy   14.95203596 # occ.  1.00000000
 
ion      s     py     pz     px    dxy    dyz    dz2    dxz  x2-y2    tot
    1  0.000  0.001  0.001  0.000  0.114  0.000  0.570  0.114  0.190  0.990
 
band     7 # energy   35.84484172 # occ.  0.00000000
 
ion      s     py     pz     px    dxy    dyz    dz2    dxz  x2-y2    tot
    1  0.084  0.106  0.106  0.053  0.203  0.256  0.002  0.203  0.006  1.020
 
band     8 # energy   41.92574066 # occ.  0.00000000
 
ion      s     py     pz     px    dxy    dyz    dz2    dxz  x2-y2    tot
    1  0.021  0.001  0.001  0.002  0.004  0.195  0.016  0.004  0.048  0.292
 
band     9 # energy   45.54957676 # occ.  0.00000000
 
ion      s     py     pz     px    dxy    dyz    dz2    dxz  x2-y2    tot
    1  0.000  0.171  0.171  0.000  0.311  0.000  0.086  0.311  0.029  1.079
 
band    10 # energy   49.58765994 # occ.  0.00000000
 
ion      s     py     pz     px    dxy    dyz    dz2    dxz  x2-y2    tot
    1  0.039  0.033  0.033  0.014  0.000  0.002  0.147  0.000  0.441  0.708
 
band    11 # energy   51.13586716 # occ.  0.00000000
 
ion      s     py     pz     px    dxy    dyz    dz2    dxz  x2-y2    tot
    1  0.287  0.004  0.004  0.256  0.139  0.470  0.002  0.139  0.005  1.304
 
band    12 # energy   52.85083831 # occ.  0.00000000
 
ion      s     py     pz     px    dxy    dyz    dz2    dxz  x2-y2    tot
    1  5.849  0.000  0.000  0.007  0.028  0.030  0.000  0.028  0.001  5.943
 

 k-point     8 :   -0.06250000 0.06250000 0.06250000     weight = 0.01171875

band     1 # energy    5.48663975 # occ.  1.00000000
 
ion      s     py     pz     px    dxy    dyz    dz2    dxz  x2-y2    tot
    1  1.001  0.006  0.006  0.055  0.001  0.000  0.000  0.001  0.001  1.072
 
band     2 # energy   12.31599787 # occ.  1.00000000
 
ion      s     py     pz     px    dxy    dyz    dz2    dxz  x2-y2    tot
    1  0.000  0.002  0.002  0.000  0.061  0.884  0.000  0.061  0.000  1.011
 
band     3 # energy   12.88775519 # occ.  1.00000000
 
ion      s     py     pz     px    dxy    dyz    dz2    dxz  x2-y2    tot
    1  0.000  0.002  0.002  0.001  0.436  0.123  0.002  0.436  0.006  1.008
 
band     4 # energy   12.89589682 # occ.  1.00000000
 
ion      s     py     pz     px    dxy    dyz    dz2    dxz  x2-y2    tot
    1  0.000  0.003  0.003  0.000  0.496  0.000  0.008  0.496  0.003  1.008
 
band     5 # energy   14.34839076 # occ.  1.00000000
 
ion      s     py     pz     px    dxy    dyz    dz2    dxz  x2-y2    tot
    1  0.001  0.000  0.000  0.001  0.003  0.001  0.246  0.003  0.737  0.993
 
band     6 # energy   14.70236050 # occ.  1.00000000
 
ion      s     py     pz     px    dxy    dyz    dz2    dxz  x2-y2    tot
    1  0.000  0.000  0.000  0.000  0.005  0.000  0.739  0.005  0.246  0.995
 
band     7 # energy   40.94171619 # occ.  0.00000000
 
ion      s     py     pz     px    dxy    dyz    dz2    dxz  x2-y2    tot
    1  0.002  0.014  0.014  0.003  0.057  0.289  0.000  0.057  0.000  0.436
 
band     8 # energy   44.27164377 # occ.  0.00000000
 
ion      s     py     pz     px    dxy    dyz    dz2    dxz  x2-y2    tot
    1  0.047  0.043  0.043  0.056  0.074  0.001  0.013  0.074  0.040  0.393
 
band     9 # energy   46.70163916 # occ.  0.00000000
 
ion      s     py     pz     px    dxy    dyz    dz2    dxz  x2-y2    tot
    1  0.000  0.137  0.137  0.000  0.242  0.000  0.016  0.242  0.005  0.779
 
band    10 # energy   47.95867563 # occ.  0.00000000
 
ion      s     py     pz     px    dxy    dyz    dz2    dxz  x2-y2    tot
    1  0.008  0.080  0.080  0.019  0.067  0.017  0.035  0.067  0.106  0.479
 
band    11 # energy   52.78453856 # occ.  0.00000000
 
ion      s     py     pz     px    dxy    dyz    dz2    dxz  x2-y2    tot
    1  6.153  0.000  0.000  0.000  0.003  0.000  0.001  0.003  0.004  6.166
 
band    12 # energy   53.74849408 # occ.  0.00000000
 
ion      s     py     pz     px    dxy    dyz    dz2    dxz  x2-y2    tot
    1  0.015  0.003  0.003  0.077  0.459  0.348  0.000  0.459  0.001  1.365
 

 k-point     9 :    0.18750000 0.18750000 0.06250000     weight = 0.01171875

band     1 # energy    6.45852603 # occ.  1.00000000
 
ion      s     py     pz     px    dxy    dyz    dz2    dxz  x2-y2    tot
    1  0.897  0.005  0.142  0.005  0.000  0.002  0.017  0.002  0.000  1.072
 
band     2 # energy   11.83824436 # occ.  1.00000000
 
ion      s     py     pz     px    dxy    dyz    dz2    dxz  x2-y2    tot
    1  0.000  0.002  0.000  0.002  0.966  0.020  0.000  0.020  0.000  1.011
 
band     3 # energy   13.21935214 # occ.  1.00000000
 
ion      s     py     pz     px    dxy    dyz    dz2    dxz  x2-y2    tot
    1  0.000  0.006  0.000  0.006  0.038  0.424  0.103  0.424  0.000  1.001
 
band     4 # energy   13.26266270 # occ.  1.00000000
 
ion      s     py     pz     px    dxy    dyz    dz2    dxz  x2-y2    tot
    1  0.000  0.007  0.000  0.007  0.000  0.480  0.000  0.480  0.029  1.003
 
band     5 # energy   13.99875112 # occ.  1.00000000
 
ion      s     py     pz     px    dxy    dyz    dz2    dxz  x2-y2    tot
    1  0.013  0.001  0.008  0.001  0.004  0.048  0.868  0.048  0.000  0.990
 
band     6 # energy   14.90513397 # occ.  1.00000000
 
ion      s     py     pz     px    dxy    dyz    dz2    dxz  x2-y2    tot
    1  0.000  0.000  0.000  0.000  0.000  0.014  0.000  0.014  0.965  0.994
 
band     7 # energy   40.22959537 # occ.  0.00000000
 
ion      s     py     pz     px    dxy    dyz    dz2    dxz  x2-y2    tot
    1  0.011  0.056  0.007  0.056  0.474  0.105  0.015  0.105  0.000  0.831
 
band     8 # energy   42.34490315 # occ.  0.00000000
 
ion      s     py     pz     px    dxy    dyz    dz2    dxz  x2-y2    tot
    1  0.039  0.020  0.012  0.020  0.132  0.033  0.188  0.033  0.000  0.477
 
band     9 # energy   44.33712004 # occ.  0.00000000
 
ion      s     py     pz     px    dxy    dyz    dz2    dxz  x2-y2    tot
    1  0.000  0.183  0.000  0.183  0.000  0.297  0.000  0.297  0.015  0.974
 
band    10 # energy   45.83387404 # occ.  0.00000000
 
ion      s     py     pz     px    dxy    dyz    dz2    dxz  x2-y2    tot
    1  0.000  0.101  0.003  0.101  0.026  0.138  0.216  0.138  0.000  0.722
 
band    11 # energy   52.57866761 # occ.  0.00000000
 
ion      s     py     pz     px    dxy    dyz    dz2    dxz  x2-y2    tot
    1  5.751  0.001  0.042  0.001  0.001  0.000  0.020  0.000  0.000  5.817
 
band    12 # energy   55.37747016 # occ.  0.00000000
 
ion      s     py     pz     px    dxy    dyz    dz2    dxz  x2-y2    tot
    1  0.162  0.000  0.163  0.000  0.323  0.186  0.002  0.186  0.000  1.020
 

 k-point    10 :    0.31250000 0.18750000 0.06250000     weight = 0.02343750

band     1 # energy    8.07171303 # occ.  1.00000000
 
ion      s     py     pz     px    dxy    dyz    dz2    dxz  x2-y2    tot
    1  0.681  0.039  0.219  0.003  0.005  0.038  0.075  0.006  0.001  1.067
 
band     2 # energy   11.33209515 # occ.  1.00000000
 
ion      s     py     pz     px    dxy    dyz    dz2    dxz  x2-y2    tot
    1  0.002  0.004  0.003  0.024  0.894  0.006  0.003  0.079  0.000  1.016
 
band     3 # energy   12.89728952 # occ.  1.00000000
 
ion      s     py     pz     px    dxy    dyz    dz2    dxz  x2-y2    tot
    1  0.011  0.008  0.003  0.000  0.019  0.391  0.505  0.017  0.038  0.994
 
band     4 # energy   13.71210436 # occ.  1.00000000
 
ion      s     py     pz     px    dxy    dyz    dz2    dxz  x2-y2    tot
    1  0.002  0.004  0.003  0.010  0.050  0.111  0.040  0.632  0.143  0.996
 
band     5 # energy   14.38577282 # occ.  1.00000000
 
ion      s     py     pz     px    dxy    dyz    dz2    dxz  x2-y2    tot
    1  0.027  0.008  0.031  0.005  0.031  0.139  0.305  0.234  0.213  0.994
 
band     6 # energy   15.46966216 # occ.  1.00000000
 
ion      s     py     pz     px    dxy    dyz    dz2    dxz  x2-y2    tot
    1  0.017  0.008  0.013  0.000  0.001  0.297  0.059  0.004  0.596  0.995
 
band     7 # energy   36.46026502 # occ.  0.00000000
 
ion      s     py     pz     px    dxy    dyz    dz2    dxz  x2-y2    tot
    1  0.056  0.104  0.013  0.173  0.290  0.143  0.053  0.187  0.006  1.026
 
band     8 # energy   39.10892939 # occ.  0.00000000
 
ion      s     py     pz     px    dxy    dyz    dz2    dxz  x2-y2    tot
    1  0.028  0.082  0.001  0.118  0.242  0.125  0.141  0.117  0.025  0.879
 
band     9 # energy   43.43818298 # occ.  0.00000000
 
ion      s     py     pz     px    dxy    dyz    dz2    dxz  x2-y2    tot
    1  0.015  0.142  0.072  0.051  0.028  0.141  0.333  0.055  0.021  0.859
 
band    10 # energy   45.71529937 # occ.  0.00000000
 
ion      s     py     pz     px    dxy    dyz    dz2    dxz  x2-y2    tot
    1  0.025  0.002  0.049  0.122  0.330  0.001  0.127  0.115  0.000  0.771
 
band    11 # energy   52.31150569 # occ.  0.00000000
 
ion      s     py     pz     px    dxy    dyz    dz2    dxz  x2-y2    tot
    1  4.882  0.037  0.076  0.004  0.001  0.032  0.004  0.002  0.001  5.037
 
band    12 # energy   54.65330601 # occ.  0.00000000
 
ion      s     py     pz     px    dxy    dyz    dz2    dxz  x2-y2    tot
    1  0.737  0.166  0.125  0.007  0.017  0.062  0.260  0.007  0.089  1.469
 

 k-point    11 :    0.43750000 0.18750000 0.06250000     weight = 0.02343750

band     1 # energy    9.45264098 # occ.  1.00000000
 
ion      s     py     pz     px    dxy    dyz    dz2    dxz  x2-y2    tot
    1  0.314  0.024  0.137  0.000  0.232  0.151  0.095  0.100  0.001  1.055
 
band     2 # energy   11.56484979 # occ.  1.00000000
 
ion      s     py     pz     px    dxy    dyz    dz2    dxz  x2-y2    tot
    1  0.026  0.079  0.051  0.077  0.335  0.023  0.345  0.058  0.012  1.005
 
band     3 # energy   12.37515308 # occ.  1.00000000
 
ion      s     py     pz     px    dxy    dyz    dz2    dxz  x2-y2    tot
    1  0.043  0.001  0.043  0.013  0.303  0.305  0.251  0.009  0.043  1.011
 
band     4 # energy   13.48782472 # occ.  1.00000000
 
ion      s     py     pz     px    dxy    dyz    dz2    dxz  x2-y2    tot
    1  0.003  0.008  0.010  0.003  0.038  0.084  0.052  0.326  0.470  0.995
 
band     5 # energy   15.55951212 # occ.  1.00000000
 
ion      s     py     pz     px    dxy    dyz    dz2    dxz  x2-y2    tot
    1  0.006  0.003  0.019  0.009  0.041  0.041  0.072  0.453  0.347  0.992
 
band     6 # energy   17.09308918 # occ.  0.00000000
 
ion      s     py     pz     px    dxy    dyz    dz2    dxz  x2-y2    tot
    1  0.090  0.049  0.128  0.025  0.020  0.390  0.179  0.018  0.117  1.016
 
band     7 # energy   30.07566160 # occ.  0.00000000
 
ion      s     py     pz     px    dxy    dyz    dz2    dxz  x2-y2    tot
    1  0.197  0.111  0.013  0.194  0.247  0.133  0.027  0.160  0.006  1.089
 
band     8 # energy   38.12502020 # occ.  0.00000000
 
ion      s     py     pz     px    dxy    dyz    dz2    dxz  x2-y2    tot
    1  0.005  0.045  0.018  0.118  0.191  0.080  0.275  0.042  0.061  0.835
 
band     9 # energy   41.31456183 # occ.  0.00000000
 
ion      s     py     pz     px    dxy    dyz    dz2    dxz  x2-y2    tot
    1  0.073  0.089  0.160  0.136  0.002  0.030  0.231  0.090  0.087  0.897
 
band    10 # energy   45.80708686 # occ.  0.00000000
 
ion      s     py     pz     px    dxy    dyz    dz2    dxz  x2-y2    tot
    1  0.089  0.109  0.120  0.029  0.304  0.033  0.085  0.023  0.009  0.803
 
band    11 # energy   52.72312661 # occ.  0.00000000
 
ion      s     py     pz     px    dxy    dyz    dz2    dxz  x2-y2    tot
    1  5.265  0.005  0.000  0.000  0.016  0.015  0.075  0.001  0.048  5.428
 
band    12 # energy   53.53477646 # occ.  0.00000000
 
ion      s     py     pz     px    dxy    dyz    dz2    dxz  x2-y2    tot
    1  0.738  0.092  0.002  0.003  0.273  0.005  0.164  0.072  0.234  1.583
 

 k-point    12 :   -0.43750000 0.18750000 0.06250000     weight = 0.02343750

band     1 # energy    9.66845092 # occ.  1.00000000
 
ion      s     py     pz     px    dxy    dyz    dz2    dxz  x2-y2    tot
    1  0.175  0.000  0.043  0.018  0.375  0.254  0.011  0.180  0.000  1.057
 
band     2 # energy   11.62985694 # occ.  1.00000000
 
ion      s     py     pz     px    dxy    dyz    dz2    dxz  x2-y2    tot
    1  0.000  0.061  0.008  0.027  0.030  0.078  0.692  0.012  0.076  0.984
 
band     3 # energy   12.99562777 # occ.  1.00000000
 
ion      s     py     pz     px    dxy    dyz    dz2    dxz  x2-y2    tot
    1  0.005  0.077  0.117  0.107  0.361  0.312  0.029  0.001  0.015  1.024
 
band     4 # energy   13.22791637 # occ.  1.00000000
 
ion      s     py     pz     px    dxy    dyz    dz2    dxz  x2-y2    tot
    1  0.000  0.009  0.018  0.000  0.052  0.024  0.050  0.278  0.564  0.995
 
band     5 # energy   15.90921451 # occ.  0.00025529
 
ion      s     py     pz     px    dxy    dyz    dz2    dxz  x2-y2    tot
    1  0.001  0.000  0.000  0.000  0.038  0.165  0.034  0.451  0.303  0.992
 
band     6 # energy   19.50682508 # occ.  0.00000000
 
ion      s     py     pz     px    dxy    dyz    dz2    dxz  x2-y2    tot
    1  0.008  0.158  0.232  0.167  0.089  0.129  0.206  0.015  0.028  1.032
 
band     7 # energy   25.67140049 # occ.  0.00000000
 
ion      s     py     pz     px    dxy    dyz    dz2    dxz  x2-y2    tot
    1  0.432  0.015  0.020  0.065  0.223  0.178  0.001  0.174  0.001  1.109
 
band     8 # energy   37.30970764 # occ.  0.00000000
 
ion      s     py     pz     px    dxy    dyz    dz2    dxz  x2-y2    tot