 ----------------------------------------------------
    OOO  PPPP  EEEEE N   N M   M PPPP
   O   O P   P E     NN  N MM MM P   P
   O   O PPPP  EEEEE N N N M M M PPPP   -- VERSION
   O   O P     E     N  NN M   M P
    OOO  P     EEEEE N   N M   M P
 ----------------------------------------------------
 running   28 mpi-ranks, with    1 threads/rank
 distrk:  each k-point on   28 cores,    1 groups
 distr:  one band on    7 cores,    4 groups
 vasp.6.3.2 27Jun22 (build Aug 12 2022 00:53:59) complex                        
  
 POSCAR found type information on POSCAR Co
 POSCAR found :  1 types and       1 ions
 Reading from existing POTCAR
 scaLAPACK will be used
 Reading from existing POTCAR
 LDA part: xc-table for Pade appr. of Perdew
 POSCAR, INCAR and KPOINTS ok, starting setup
 FFT: planning ... GRIDC
 FFT: planning ... GRID_SOFT
 FFT: planning ... GRID
 WAVECAR not read
 entering main loop
       N       E                     dE             d eps       ncg     rms          rms(c)
DAV:   1     0.218972219536E+02    0.21897E+02   -0.34376E+03  3040   0.845E+02
DAV:   2    -0.571620017266E+01   -0.27613E+02   -0.25609E+02  3060   0.142E+02
DAV:   3    -0.636199291212E+01   -0.64579E+00   -0.64471E+00  3488   0.240E+01
DAV:   4    -0.636593085594E+01   -0.39379E-02   -0.39367E-02  3544   0.165E+00
DAV:   5    -0.636597324610E+01   -0.42390E-04   -0.42389E-04  3748   0.164E-01    0.180E+01
DAV:   6    -0.610765491873E+01    0.25832E+00   -0.48907E+00  3728   0.308E+01    0.514E+00
DAV:   7    -0.607866750835E+01    0.28987E-01   -0.18016E-01  3424   0.428E+00    0.313E+00
DAV:   8    -0.606715324277E+01    0.11514E-01   -0.49801E-03  4324   0.524E-01    0.157E+00
DAV:   9    -0.607088787255E+01   -0.37346E-02   -0.58028E-03  3800   0.718E-01    0.114E+00
DAV:  10    -0.605964238442E+01    0.11245E-01   -0.10575E-02  3576   0.117E+00    0.822E-01
DAV:  11    -0.604487093965E+01    0.14771E-01   -0.15820E-02  3728   0.135E+00    0.126E+00
DAV:  12    -0.604189944753E+01    0.29715E-02   -0.50034E-04  4264   0.259E-01    0.136E+00
DAV:  13    -0.605379500678E+01   -0.11896E-01   -0.96689E-03  3620   0.105E+00    0.605E-01
DAV:  14    -0.605503745839E+01   -0.12425E-02   -0.62452E-04  3936   0.257E-01    0.581E-01
DAV:  15    -0.605825288441E+01   -0.32154E-02   -0.15709E-03  3672   0.442E-01    0.754E-01
DAV:  16    -0.606878828312E+01   -0.10535E-01   -0.87257E-03  3704   0.104E+00    0.112E+00
DAV:  17    -0.607631344956E+01   -0.75252E-02   -0.29430E-03  3820   0.564E-01    0.137E+00
DAV:  18    -0.607950664083E+01   -0.31932E-02   -0.44625E-04  4432   0.232E-01    0.144E+00
DAV:  19    -0.607178069524E+01    0.77259E-02   -0.23596E-03  3596   0.536E-01    0.117E+00
DAV:  20    -0.606383558291E+01    0.79451E-02   -0.40122E-03  3696   0.706E-01    0.941E-01
DAV:  21    -0.606502970960E+01   -0.11941E-02   -0.21606E-04  3852   0.175E-01    0.981E-01
DAV:  22    -0.605736418954E+01    0.76655E-02   -0.53449E-03  3660   0.809E-01    0.677E-01
DAV:  23    -0.604588294930E+01    0.11481E-01   -0.14609E-02  3700   0.131E+00    0.123E+00
DAV:  24    -0.602921007218E+01    0.16673E-01   -0.86042E-03  3716   0.102E+00    0.177E+00
DAV:  25    -0.602243900362E+01    0.67711E-02   -0.95227E-04  4524   0.357E-01    0.202E+00
DAV:  26    -0.601694877631E+01    0.54902E-02   -0.44679E-04  3740   0.237E-01    0.218E+00
DAV:  27    -0.601622397072E+01    0.72481E-03   -0.12451E-05  3964   0.457E-02    0.220E+00
DAV:  28    -0.600764503224E+01    0.85789E-02   -0.88928E-04  3652   0.328E-01    0.233E+00
DAV:  29    -0.600866636333E+01   -0.10213E-02   -0.29484E-05  3472   0.844E-02    0.234E+00
DAV:  30    -0.600915399794E+01   -0.48763E-03   -0.31761E-06  2332   0.227E-02    0.233E+00
DAV:  31    -0.601944377069E+01   -0.10290E-01   -0.10788E-03  3608   0.369E-01    0.212E+00
DAV:  32    -0.603771411670E+01   -0.18270E-01   -0.63296E-03  3684   0.886E-01    0.150E+00
DAV:  33    -0.604049348400E+01   -0.27794E-02   -0.42076E-04  4216   0.249E-01    0.141E+00
DAV:  34    -0.605056065902E+01   -0.10067E-01   -0.45718E-03  3684   0.739E-01    0.912E-01
DAV:  35    -0.605646234860E+01   -0.59017E-02   -0.53783E-03  3716   0.809E-01    0.671E-01
DAV:  36    -0.605999004541E+01   -0.35277E-02   -0.16834E-03  3904   0.465E-01    0.836E-01
DAV:  37    -0.606469995839E+01   -0.47099E-02   -0.17893E-03  3716   0.463E-01    0.978E-01
DAV:  38    -0.606676999612E+01   -0.20700E-02   -0.36279E-04  4424   0.194E-01    0.102E+00
DAV:  39    -0.606729488960E+01   -0.52489E-03   -0.29056E-05  3960   0.526E-02    0.103E+00
DAV:  40    -0.606772916530E+01   -0.43428E-03   -0.12437E-05  3092   0.375E-02    0.105E+00
DAV:  41    -0.606929722421E+01   -0.15681E-02   -0.14320E-04  3668   0.131E-01    0.112E+00
DAV:  42    -0.606996262739E+01   -0.66540E-03   -0.30222E-05  3768   0.606E-02    0.114E+00
DAV:  43    -0.606899217739E+01    0.97045E-03   -0.51797E-05  3596   0.804E-02    0.109E+00
DAV:  44    -0.606434488782E+01    0.46473E-02   -0.14281E-03  3684   0.421E-01    0.950E-01
DAV:  45    -0.605754720538E+01    0.67977E-02   -0.41281E-03  3704   0.710E-01    0.696E-01
DAV:  46    -0.605248554089E+01    0.50617E-02   -0.43854E-03  3696   0.718E-01    0.692E-01
DAV:  47    -0.604966107561E+01    0.28245E-02   -0.78325E-04  4324   0.319E-01    0.100E+00
DAV:  48    -0.604116183681E+01    0.84992E-02   -0.32177E-03  3692   0.623E-01    0.138E+00
DAV:  49    -0.603194466333E+01    0.92172E-02   -0.25255E-03  3728   0.551E-01    0.168E+00
DAV:  50    -0.602189934912E+01    0.10045E-01   -0.20789E-03  3700   0.500E-01    0.204E+00
DAV:  51    -0.600459086924E+01    0.17308E-01   -0.40750E-03  3700   0.694E-01    0.234E+00
DAV:  52    -0.598623827568E+01    0.18353E-01   -0.41835E-03  3684   0.723E-01    0.215E+00
DAV:  53    -0.598344357312E+01    0.27947E-02   -0.22053E-04  4084   0.200E-01    0.219E+00
DAV:  54    -0.597500143537E+01    0.84421E-02   -0.78090E-04  3668   0.311E-01    0.231E+00
DAV:  55    -0.597519304469E+01   -0.19161E-03   -0.14307E-05  3680   0.442E-02    0.231E+00
DAV:  56    -0.597506564886E+01    0.12740E-03   -0.14682E-06  2380   0.131E-02    0.231E+00
DAV:  57    -0.597506446445E+01    0.11844E-05   -0.50829E-07  1884   0.651E-03    0.231E+00
DAV:  58    -0.595503377641E+01    0.20031E-01   -0.34236E-03  3636   0.647E-01    0.309E+00
DAV:  59    -0.592315649262E+01    0.31877E-01   -0.52524E-03  3696   0.793E-01    0.404E+00
DAV:  60    -0.587852132310E+01    0.44635E-01   -0.60918E-03  3688   0.855E-01    0.522E+00
DAV:  61    -0.588946225803E+01   -0.10941E-01   -0.65481E-04  3488   0.252E-01    0.494E+00
DAV:  62    -0.590889751691E+01   -0.19435E-01   -0.10736E-03  3644   0.365E-01    0.443E+00
DAV:  63    -0.592614424698E+01   -0.17247E-01   -0.11800E-03  3676   0.370E-01    0.393E+00
DAV:  64    -0.593352476142E+01   -0.73805E-02   -0.37214E-04  3872   0.196E-01    0.373E+00
DAV:  65    -0.592940274918E+01    0.41220E-02   -0.74235E-05  3468   0.826E-02    0.385E+00
DAV:  66    -0.590993625060E+01    0.19466E-01   -0.14315E-03  3664   0.410E-01    0.442E+00
DAV:  67    -0.589011785133E+01    0.19818E-01   -0.12230E-03  3692   0.377E-01    0.494E+00
DAV:  68    -0.587556062999E+01    0.14557E-01   -0.59279E-04  3780   0.259E-01    0.529E+00
DAV:  69    -0.586880386386E+01    0.67568E-02   -0.12774E-04  4444   0.119E-01    0.544E+00
DAV:  70    -0.586959888467E+01   -0.79502E-03   -0.22287E-06  2520   0.163E-02    0.542E+00
DAV:  71    -0.575660550734E+01    0.11299E+00   -0.17980E-02  3640   0.148E+00    0.754E+00
DAV:  72    -0.572023522981E+01    0.36370E-01   -0.18065E-03  4104   0.433E-01    0.800E+00
DAV:  73    -0.572315378083E+01   -0.29186E-02   -0.29119E-05  3372   0.573E-02    0.797E+00
DAV:  74    -0.569145132437E+01    0.31702E-01   -0.89529E-04  3624   0.329E-01    0.839E+00
DAV:  75    -0.568696553619E+01    0.44858E-02   -0.20081E-05  3928   0.449E-02    0.846E+00
DAV:  76    -0.553058989521E+01    0.15638E+00   -0.17629E-02  3620   0.145E+00    0.998E+00
DAV:  77    -0.552354960085E+01    0.70403E-02   -0.88990E-05  3332   0.926E-02    0.100E+01
DAV:  78    -0.546515413490E+01    0.58395E-01   -0.14539E-03  3656   0.438E-01    0.104E+01
DAV:  79    -0.546221506996E+01    0.29391E-02   -0.19923E-04  3596   0.156E-01    0.104E+01
DAV:  80    -0.546459081209E+01   -0.23757E-02   -0.39593E-06  2920   0.226E-02    0.104E+01
DAV:  81    -0.594327044361E+01   -0.47868E+00   -0.26961E-01  3580   0.575E+00    0.346E+00
DAV:  82    -0.598373620309E+01   -0.40466E-01   -0.15668E-02  4224   0.131E+00    0.216E+00
DAV:  83    -0.599666279886E+01   -0.12927E-01   -0.29927E-03  3960   0.575E-01    0.229E+00
DAV:  84    -0.599487739186E+01    0.17854E-02   -0.19854E-04  3848   0.156E-01    0.220E+00
DAV:  85    -0.599912676923E+01   -0.42494E-02   -0.16068E-04  3628   0.154E-01    0.228E+00
DAV:  86    -0.603539952210E+01   -0.36273E-01   -0.21401E-02  3648   0.160E+00    0.158E+00
DAV:  87    -0.605378772467E+01   -0.18388E-01   -0.17002E-02  3728   0.147E+00    0.590E-01
DAV:  88    -0.605515889103E+01   -0.13712E-02   -0.64760E-04  4164   0.297E-01    0.591E-01
DAV:  89    -0.605612748194E+01   -0.96859E-03   -0.18512E-04  3988   0.153E-01    0.641E-01
DAV:  90    -0.605786003652E+01   -0.17326E-02   -0.36957E-04  3688   0.217E-01    0.743E-01
DAV:  91    -0.605910903046E+01   -0.12490E-02   -0.18121E-04  3784   0.149E-01    0.815E-01
DAV:  92    -0.606079001523E+01   -0.16810E-02   -0.22864E-04  3684   0.168E-01    0.897E-01
DAV:  93    -0.606206429535E+01   -0.12743E-02   -0.12374E-04  3768   0.119E-01    0.942E-01
DAV:  94    -0.606224797669E+01   -0.18368E-03   -0.88676E-06  2916   0.273E-02    0.948E-01
DAV:  95    -0.606227465011E+01   -0.26673E-04   -0.25957E-07  1956   0.596E-03    0.948E-01
DAV:  96    -0.606351885237E+01   -0.12442E-02   -0.80794E-05  3648   0.104E-01    0.967E-01
DAV:  97    -0.606526888895E+01   -0.17500E-02   -0.20705E-04  3700   0.157E-01    0.982E-01
DAV:  98    -0.607144542671E+01   -0.61765E-02   -0.22374E-03  3664   0.517E-01    0.120E+00
DAV:  99    -0.608122213885E+01   -0.97767E-02   -0.37793E-03  3724   0.675E-01    0.145E+00
DAV: 100    -0.608946740510E+01   -0.82453E-02   -0.22239E-03  3728   0.525E-01
 -----------------------------------------------------------------------------
|                                                                             |
|           W    W    AA    RRRRR   N    N  II  N    N   GGGG   !!!           |
|           W    W   A  A   R    R  NN   N  II  NN   N  G    G  !!!           |
|           W    W  A    A  R    R  N N  N  II  N N  N  G       !!!           |
|           W WW W  AAAAAA  RRRRR   N  N N  II  N  N N  G  GGG   !            |
|           WW  WW  A    A  R   R   N   NN  II  N   NN  G    G                |
|           W    W  A    A  R    R  N    N  II  N    N   GGGG   !!!           |
|                                                                             |
|     The electronic self-consistency was not achieved in the given           |
|     number of steps (NELM). The forces and other quantities evaluated       |
|     might not be reliable so examine the results carefully. If you find     |
|     spurious results, we suggest increasing NELM, if you were close to      |
|     convergence or switching to a different ALGO or adjusting the           |
|     density mixing parameters otherwise.                                    |
|                                                                             |
 -----------------------------------------------------------------------------

   1 F= -.60894674E+01 E0= -.60885460E+01  d E =-.608947E+01  mag=     0.6301
 curvature:   0.00 expect dE= 0.000E+00 dE for cont linesearch  0.000E+00
 trial: gam= 0.00000 g(F)=  0.824E-62 g(S)=  0.000E+00 ort = 0.000E+00 (trialstep = 0.100E+01)
 search vector abs. value=  0.100E-09
 reached required accuracy - stopping structural energy minimisation
 writing wavefunctions
