<?xml version="1.0" encoding="ISO-8859-1"?>
<modeling>
 <generator>
  <i name="program" type="string">vasp </i>
  <i name="version" type="string">6.3.2  </i>
  <i name="subversion" type="string">27Jun22 (build Aug 12 2022 00:53:59) complex                          parallel </i>
  <i name="platform" type="string">tv2STD </i>
  <i name="date" type="string">2024 12 03 </i>
  <i name="time" type="string">01:40:06 </i>
 </generator>
 <incar>
  <i type="string" name="SYSTEM">Co-fcc</i>
  <i type="int" name="ISTART">     0</i>
  <i type="string" name="PREC">Accurate      normal | accurate</i>
  <i type="string" name="ALGO">Normal     Normal, Fast, Very_Fast</i>
  <i type="logical" name="ADDGRID"> F  </i>
  <i type="int" name="ISPIN">     2</i>
  <i type="int" name="ICHARG">     2</i>
  <i type="int" name="INIWAV">     1</i>
  <i type="int" name="NELM">   100</i>
  <i type="int" name="IBRION">     2</i>
  <i name="EDIFF">      0.00000100</i>
  <i name="EDIFFG">     -0.02000000</i>
  <i type="int" name="NSW">   100</i>
  <i type="int" name="ISIF">     2</i>
  <i type="int" name="ISYM">     1</i>
  <i name="ENCUT">    400.00000000</i>
  <v name="MAGMOM">      3.00000000</v>
  <i type="logical" name="LREAL"> F  </i>
  <i type="int" name="ISMEAR">     0</i>
  <i name="SIGMA">      0.05000000</i>
  <i type="int" name="NWRITE">     2</i>
  <i type="logical" name="LWAVE"> T  </i>
  <i type="logical" name="LCHARG"> T  </i>
  <i type="int" name="LORBIT">    11</i>
 </incar>
 <primitive_cell>
  <structure name="primitive_cell" >
   <crystal>
    <varray name="basis" >
     <v>       0.00000000       1.57884080       1.57884080 </v>
     <v>       1.57884080       0.00000000       1.57884080 </v>
     <v>       1.57884080       1.57884080       0.00000000 </v>
    </varray>
    <i name="volume">      7.87127379 </i>
    <varray name="rec_basis" >
     <v>      -0.31668804       0.31668804       0.31668804 </v>
     <v>       0.31668804      -0.31668804       0.31668804 </v>
     <v>       0.31668804       0.31668804      -0.31668804 </v>
    </varray>
   </crystal>
   <varray name="positions" >
    <v>       0.00000000       0.00000000       0.00000000 </v>
   </varray>
  </structure>
  <varray name="primitive_index" >
   <v type="int" >        1 </v>
  </varray>
 </primitive_cell>
 <kpoints>
  <generation param="Monkhorst-Pack">
   <v type="int" name="divisions">       8        8        8 </v>
   <v name="usershift">      0.00000000       0.00000000       0.00000000 </v>
   <v name="genvec1">      0.12500000       0.00000000       0.00000000 </v>
   <v name="genvec2">      0.00000000       0.12500000       0.00000000 </v>
   <v name="genvec3">      0.00000000       0.00000000       0.12500000 </v>
   <v name="shift">      0.50000000       0.50000000       0.50000000 </v>
  </generation>
  <varray name="kpointlist" >
   <v>       0.06250000       0.06250000       0.06250000 </v>
   <v>       0.18750000       0.06250000       0.06250000 </v>
   <v>       0.31250000       0.06250000       0.06250000 </v>
   <v>       0.43750000       0.06250000       0.06250000 </v>
   <v>      -0.43750000       0.06250000       0.06250000 </v>
   <v>      -0.31250000       0.06250000       0.06250000 </v>
   <v>      -0.18750000       0.06250000       0.06250000 </v>
   <v>      -0.06250000       0.06250000       0.06250000 </v>
   <v>       0.18750000       0.18750000       0.06250000 </v>
   <v>       0.31250000       0.18750000       0.06250000 </v>
   <v>       0.43750000       0.18750000       0.06250000 </v>
   <v>      -0.43750000       0.18750000       0.06250000 </v>
   <v>      -0.31250000       0.18750000       0.06250000 </v>
   <v>      -0.18750000       0.18750000       0.06250000 </v>
   <v>      -0.06250000       0.18750000       0.06250000 </v>
   <v>       0.31250000       0.31250000       0.06250000 </v>
   <v>       0.43750000       0.31250000       0.06250000 </v>
   <v>      -0.43750000       0.31250000       0.06250000 </v>
   <v>      -0.31250000       0.31250000       0.06250000 </v>
   <v>      -0.18750000       0.31250000       0.06250000 </v>
   <v>      -0.06250000       0.31250000       0.06250000 </v>
   <v>       0.43750000       0.43750000       0.06250000 </v>
   <v>      -0.43750000       0.43750000       0.06250000 </v>
   <v>      -0.31250000       0.43750000       0.06250000 </v>
   <v>      -0.18750000       0.43750000       0.06250000 </v>
   <v>      -0.06250000       0.43750000       0.06250000 </v>
   <v>      -0.43750000      -0.43750000       0.06250000 </v>
   <v>      -0.31250000      -0.43750000       0.06250000 </v>
   <v>      -0.18750000      -0.43750000       0.06250000 </v>
   <v>      -0.31250000      -0.31250000       0.06250000 </v>
   <v>      -0.18750000      -0.31250000       0.06250000 </v>
   <v>      -0.18750000      -0.18750000       0.06250000 </v>
   <v>       0.18750000       0.18750000       0.18750000 </v>
   <v>       0.31250000       0.18750000       0.18750000 </v>
   <v>       0.43750000       0.18750000       0.18750000 </v>
   <v>      -0.43750000       0.18750000       0.18750000 </v>
   <v>      -0.31250000       0.18750000       0.18750000 </v>
   <v>      -0.18750000       0.18750000       0.18750000 </v>
   <v>       0.31250000       0.31250000       0.18750000 </v>
   <v>       0.43750000       0.31250000       0.18750000 </v>
   <v>      -0.43750000       0.31250000       0.18750000 </v>
   <v>      -0.31250000       0.31250000       0.18750000 </v>
   <v>      -0.18750000       0.31250000       0.18750000 </v>
   <v>       0.43750000       0.43750000       0.18750000 </v>
   <v>      -0.43750000       0.43750000       0.18750000 </v>
   <v>      -0.31250000       0.43750000       0.18750000 </v>
   <v>      -0.18750000       0.43750000       0.18750000 </v>
   <v>      -0.43750000      -0.43750000       0.18750000 </v>
   <v>      -0.31250000      -0.43750000       0.18750000 </v>
   <v>      -0.31250000      -0.31250000       0.18750000 </v>
   <v>       0.31250000       0.31250000       0.31250000 </v>
   <v>       0.43750000       0.31250000       0.31250000 </v>
   <v>      -0.43750000       0.31250000       0.31250000 </v>
   <v>      -0.31250000       0.31250000       0.31250000 </v>
   <v>       0.43750000       0.43750000       0.31250000 </v>
   <v>      -0.43750000       0.43750000       0.31250000 </v>
   <v>      -0.31250000       0.43750000       0.31250000 </v>
   <v>      -0.43750000      -0.43750000       0.31250000 </v>
   <v>       0.43750000       0.43750000       0.43750000 </v>
   <v>      -0.43750000       0.43750000       0.43750000 </v>
  </varray>
  <varray name="weights" >
   <v>       0.00390625 </v>
   <v>       0.01171875 </v>
   <v>       0.01171875 </v>
   <v>       0.01171875 </v>
   <v>       0.01171875 </v>
   <v>       0.01171875 </v>
   <v>       0.01171875 </v>
   <v>       0.01171875 </v>
   <v>       0.01171875 </v>
   <v>       0.02343750 </v>
   <v>       0.02343750 </v>
   <v>       0.02343750 </v>
   <v>       0.02343750 </v>
   <v>       0.02343750 </v>
   <v>       0.02343750 </v>
   <v>       0.01171875 </v>
   <v>       0.02343750 </v>
   <v>       0.02343750 </v>
   <v>       0.02343750 </v>
   <v>       0.02343750 </v>
   <v>       0.02343750 </v>
   <v>       0.01171875 </v>
   <v>       0.02343750 </v>
   <v>       0.02343750 </v>
   <v>       0.02343750 </v>
   <v>       0.02343750 </v>
   <v>       0.01171875 </v>
   <v>       0.02343750 </v>
   <v>       0.02343750 </v>
   <v>       0.01171875 </v>
   <v>       0.02343750 </v>
   <v>       0.01171875 </v>
   <v>       0.00390625 </v>
   <v>       0.01171875 </v>
   <v>       0.01171875 </v>
   <v>       0.01171875 </v>
   <v>       0.01171875 </v>
   <v>       0.01171875 </v>
   <v>       0.01171875 </v>
   <v>       0.02343750 </v>
   <v>       0.02343750 </v>
   <v>       0.02343750 </v>
   <v>       0.02343750 </v>
   <v>       0.01171875 </v>
   <v>       0.02343750 </v>
   <v>       0.02343750 </v>
   <v>       0.02343750 </v>
   <v>       0.01171875 </v>
   <v>       0.02343750 </v>
   <v>       0.01171875 </v>
   <v>       0.00390625 </v>
   <v>       0.01171875 </v>
   <v>       0.01171875 </v>
   <v>       0.01171875 </v>
   <v>       0.01171875 </v>
   <v>       0.02343750 </v>
   <v>       0.02343750 </v>
   <v>       0.01171875 </v>
   <v>       0.00390625 </v>
   <v>       0.01171875 </v>
  </varray>
 </kpoints>
 <parameters>
  <separator name="general" >
   <i type="string" name="SYSTEM">Co-fcc</i>
   <i type="logical" name="LCOMPAT"> F  </i>
  </separator>
  <separator name="electronic" >
   <i type="string" name="PREC">accura</i>
   <i name="ENMAX">    400.00000000</i>
   <i name="ENAUG">    477.81800000</i>
   <i name="EDIFF">      0.00000100</i>
   <i type="int" name="IALGO">    38</i>
   <i type="int" name="IWAVPR">    11</i>
   <i type="int" name="NBANDS">    12</i>
   <i type="int" name="NBANDSLOW">    -1</i>
   <i type="int" name="NBANDSHIGH">    -1</i>
   <i name="NELECT">      9.00000000</i>
   <i type="int" name="TURBO">     0</i>
   <i type="int" name="IRESTART">     0</i>
   <i type="int" name="NREBOOT">     0</i>
   <i type="int" name="NMIN">     0</i>
   <i name="EREF">      0.00000000</i>
   <separator name="electronic smearing" >
    <i type="int" name="ISMEAR">     0</i>
    <i name="SIGMA">      0.05000000</i>
    <i name="KSPACING">      0.50000000</i>
    <i type="logical" name="KGAMMA"> T  </i>
    <i type="logical" name="KBLOWUP"> T  </i>
   </separator>
   <separator name="electronic projectors" >
    <i type="logical" name="LREAL"> F  </i>
    <v name="ROPT">      0.00000000</v>
    <i type="int" name="LMAXPAW">  -100</i>
    <i type="int" name="LMAXMIX">     2</i>
    <i type="logical" name="NLSPLINE"> F  </i>
   </separator>
   <separator name="electronic startup" >
    <i type="int" name="ISTART">     0</i>
    <i type="int" name="ICHARG">     2</i>
    <i type="int" name="INIWAV">     1</i>
   </separator>
   <separator name="electronic spin" >
    <i type="int" name="ISPIN">     2</i>
    <i type="logical" name="LNONCOLLINEAR"> F  </i>
    <v name="MAGMOM">      3.00000000</v>
    <i name="NUPDOWN">     -1.00000000</i>
    <i type="logical" name="LSORBIT"> F  </i>
    <v name="SAXIS">      0.00000000      0.00000000      1.00000000</v>
    <i type="logical" name="LSPIRAL"> F  </i>
    <v name="QSPIRAL">      0.00000000      0.00000000      0.00000000</v>
    <i type="logical" name="LZEROZ"> F  </i>
   </separator>
   <separator name="electronic exchange-correlation" >
    <i type="logical" name="LASPH"> F  </i>
    <i type="logical" name="LMETAGGA"> F  </i>
   </separator>
   <separator name="electronic convergence" >
    <i type="int" name="NELM">   100</i>
    <i type="int" name="NELMDL">    -5</i>
    <i type="int" name="NELMIN">     2</i>
    <i name="ENINI">    400.00000000</i>
    <separator name="electronic convergence detail" >
     <i type="logical" name="LDIAG"> T  </i>
     <i type="logical" name="LSUBROT"> F  </i>
     <i name="WEIMIN">      0.00100000</i>
     <i name="EBREAK">      0.00000002</i>
     <i name="DEPER">      0.30000000</i>
     <i type="int" name="NRMM">     4</i>
     <i name="TIME">      0.40000000</i>
    </separator>
   </separator>
   <separator name="electronic mixer" >
    <i name="AMIX">      0.40000000</i>
    <i name="BMIX">      1.00000000</i>
    <i name="AMIN">      0.10000000</i>
    <i name="AMIX_MAG">      1.60000000</i>
    <i name="BMIX_MAG">      1.00000000</i>
    <separator name="electronic mixer details" >
     <i type="int" name="IMIX">     4</i>
     <i type="logical" name="MIXFIRST"> F  </i>
     <i type="int" name="MAXMIX">   -45</i>
     <i name="WC">    100.00000000</i>
     <i type="int" name="INIMIX">     1</i>
     <i type="int" name="MIXPRE">     1</i>
     <i type="int" name="MREMOVE">     5</i>
    </separator>
   </separator>
   <separator name="electronic dipolcorrection" >
    <i type="logical" name="LDIPOL"> F  </i>
    <i type="logical" name="LMONO"> F  </i>
    <i type="int" name="IDIPOL">     0</i>
    <i name="EPSILON">      1.00000000</i>
    <v name="DIPOL">   -100.00000000   -100.00000000   -100.00000000</v>
    <i name="EFIELD">      0.00000000</i>
   </separator>
  </separator>
  <separator name="grids" >
   <i type="int" name="NGX">    16</i>
   <i type="int" name="NGY">    16</i>
   <i type="int" name="NGZ">    16</i>
   <i type="int" name="NGXF">    32</i>
   <i type="int" name="NGYF">    32</i>
   <i type="int" name="NGZF">    32</i>
   <i type="logical" name="ADDGRID"> F  </i>
  </separator>
  <separator name="ionic" >
   <i type="int" name="NSW">   100</i>
   <i type="int" name="IBRION">     2</i>
   <i type="int" name="MDALGO">     0</i>
   <i type="int" name="ISIF">     2</i>
   <i name="PSTRESS">      0.00000000</i>
   <i name="EDIFFG">     -0.02000000</i>
   <i type="int" name="NFREE">     1</i>
   <i name="POTIM">      0.50000000</i>
   <i name="SMASS">     -3.00000000</i>
   <i name="SCALEE">      1.00000000</i>
  </separator>
  <separator name="ionic md" >
   <i name="TEBEG">      0.00010000</i>
   <i name="TEEND">      0.00010000</i>
   <i type="int" name="NBLOCK">     1</i>
   <i type="int" name="KBLOCK">   100</i>
   <i type="int" name="NPACO">   256</i>
   <i name="APACO">     10.00000000</i>
  </separator>
  <separator name="symmetry" >
   <i type="int" name="ISYM">     1</i>
   <i name="SYMPREC">      0.00001000</i>
  </separator>
  <separator name="dos" >
   <i type="int" name="LORBIT">    11</i>
   <v name="RWIGS">     -1.00000000</v>
   <i type="int" name="NEDOS">   301</i>
   <i name="EMIN">     10.00000000</i>
   <i name="EMAX">    -10.00000000</i>
   <i name="EFERMI">      0.00000000</i>
  </separator>
  <separator name="writing" >
   <i type="int" name="NWRITE">     2</i>
   <i type="logical" name="LWAVE"> T  </i>
   <i type="logical" name="LDOWNSAMPLE"> F  </i>
   <i type="logical" name="LCHARG"> T  </i>
   <i type="logical" name="LPARD"> F  </i>
   <i type="logical" name="LVTOT"> F  </i>
   <i type="logical" name="LVHAR"> F  </i>
   <i type="logical" name="LELF"> F  </i>
   <i type="logical" name="LOPTICS"> F  </i>
   <v name="STM">      0.00000000      0.00000000      0.00000000      0.00000000      0.00000000      0.00000000      0.00000000</v>
  </separator>
  <separator name="performance" >
   <i type="int" name="NPAR">     4</i>
   <i type="int" name="NSIM">     4</i>
   <i type="int" name="NBLK">    -1</i>
   <i type="logical" name="LPLANE"> T  </i>
   <i type="logical" name="LSCALAPACK"> T  </i>
   <i type="logical" name="LSCAAWARE"> T  </i>
   <i type="logical" name="LSCALU"> F  </i>
   <i type="logical" name="LASYNC"> F  </i>
   <i type="logical" name="LORBITALREAL"> F  </i>
  </separator>
  <separator name="miscellaneous" >
   <i type="int" name="IDIOT">     3</i>
   <i type="int" name="PHON_NSTRUCT">    -1</i>
   <i type="logical" name="LMUSIC"> F  </i>
   <v name="POMASS">     58.93300000</v>
   <v name="DARWINR">      0.00000000</v>
   <v name="DARWINV">      1.00000000</v>
   <i type="logical" name="LCORR"> T  </i>
  </separator>
  <i type="logical" name="GGA_COMPAT"> T  </i>
  <i type="logical" name="LBERRY"> F  </i>
  <i type="int" name="ICORELEVEL">     0</i>
  <i type="logical" name="LDAU"> F  </i>
  <i type="int" name="I_CONSTRAINED_M">     0</i>
  <separator name="electronic exchange-correlation" >
   <i type="string" name="GGA">--</i>
   <i type="int" name="VOSKOWN">     0</i>
   <i type="logical" name="LHFCALC"> F  </i>
   <i type="string" name="PRECFOCK"></i>
   <i type="logical" name="LSYMGRAD"> F  </i>
   <i type="logical" name="LHFONE"> F  </i>
   <i type="logical" name="LRHFCALC"> F  </i>
   <i type="logical" name="LTHOMAS"> F  </i>
   <i type="logical" name="LMODELHF"> F  </i>
   <i type="logical" name="LFOCKACE"> F  </i>
   <i name="ENCUT4O">     -1.00000000</i>
   <i type="int" name="EXXOEP">     0</i>
   <i type="int" name="FOURORBIT">     0</i>
   <i name="AEXX">      0.00000000</i>
   <i name="HFALPHA">      0.00000000</i>
   <i name="MCALPHA">      0.00000000</i>
   <i name="ALDAX">      1.00000000</i>
   <i name="AGGAX">      1.00000000</i>
   <i name="ALDAC">      1.00000000</i>
   <i name="AGGAC">      1.00000000</i>
   <i type="int" name="NKREDX">     1</i>
   <i type="int" name="NKREDY">     1</i>
   <i type="int" name="NKREDZ">     1</i>
   <i type="logical" name="SHIFTRED"> F  </i>
   <i type="logical" name="ODDONLY"> F  </i>
   <i type="logical" name="EVENONLY"> F  </i>
   <i type="int" name="LMAXFOCK">     0</i>
   <i type="int" name="NMAXFOCKAE">     0</i>
   <i type="logical" name="LFOCKAEDFT"> F  </i>
   <i name="HFSCREEN">      0.00000000</i>
   <i name="HFSCREENC">      0.00000000</i>
   <i type="int" name="NBANDSGWLOW">     0</i>
  </separator>
  <separator name="vdW DFT" >
   <i type="logical" name="LUSE_VDW"> F  </i>
   <i name="Zab_VDW">     -0.84910000</i>
   <i name="PARAM1">      0.12340000</i>
   <i name="PARAM2">      1.00000000</i>
   <i name="PARAM3">      0.00000000</i>
  </separator>
  <separator name="model GW" >
   <i type="int" name="MODEL_GW">     0</i>
   <i name="MODEL_EPS0">      4.72276427</i>
   <i name="MODEL_ALPHA">      1.00000000</i>
  </separator>
  <separator name="linear response parameters" >
   <i type="logical" name="LEPSILON"> F  </i>
   <i type="logical" name="LRPA"> F  </i>
   <i type="logical" name="LNABLA"> F  </i>
   <i type="logical" name="LVEL"> F  </i>
   <i name="CSHIFT">      0.10000000</i>
   <i name="OMEGAMAX">     -1.00000000</i>
   <i name="DEG_THRESHOLD">      0.00200000</i>
   <i name="RTIME">     -0.10000000</i>
   <i name="WPLASMAI">      0.00000000</i>
   <v name="DFIELD">      0.00000000      0.00000000      0.00000000</v>
   <v name="WPLASMA">      0.00000000      0.00000000      0.00000000      0.00000000      0.00000000      0.00000000      0.00000000      0.00000000      0.00000000</v>
  </separator>
  <separator name="orbital magnetization" >
   <i type="logical" name="NUCIND"> F  </i>
   <v name="MAGPOS">      0.00000000      0.00000000      0.00000000</v>
   <i type="logical" name="LNICSALL"> T  </i>
   <i type="logical" name="ORBITALMAG"> F  </i>
   <i type="logical" name="LMAGBLOCH"> F  </i>
   <i type="logical" name="LCHIMAG"> F  </i>
   <i type="logical" name="LGAUGE"> T  </i>
   <i type="int" name="MAGATOM">     0</i>
   <v name="MAGDIPOL">      0.00000000      0.00000000      0.00000000</v>
   <v name="AVECCONST">      0.00000000      0.00000000      0.00000000</v>
  </separator>
  <separator name="response functions" >
   <i type="logical" name="LFINITE_TEMPERATURE"> F  </i>
   <i type="logical" name="LADDER"> F  </i>
   <i type="logical" name="LRPAFORCE"> F  </i>
   <i type="logical" name="LFXC"> F  </i>
   <i type="logical" name="LHARTREE"> T  </i>
   <i type="int" name="IBSE">     0</i>
   <v type="int" name="KPOINT">    -1     0     0     0</v>
   <i type="logical" name="LTCTC"> F  </i>
   <i type="logical" name="LTCTE"> F  </i>
   <i type="logical" name="LTETE"> F  </i>
   <i type="logical" name="LTRIPLET"> F  </i>
   <i type="logical" name="LFXCEPS"> F  </i>
   <i type="logical" name="LFXHEG"> F  </i>
   <i type="int" name="NATURALO">     2</i>
   <i type="logical" name="LHOLEGF"> F  </i>
   <i type="logical" name="L2ORDER"> F  </i>
   <i type="logical" name="LDMP1"> F  </i>
   <i type="logical" name="LMP2LT"> F  </i>
   <i type="logical" name="LSMP2LT"> F  </i>
   <i type="logical" name="LGWLF"> F  </i>
   <i name="ENCUTGW">     -2.00000000</i>
   <i name="ENCUTGWSOFT">     -2.00000000</i>
   <i name="ENCUTLF">     -1.00000000</i>
   <i type="logical" name="LESF_SPLINES"> F  </i>
   <i type="int" name="LMAXMP2">    -1</i>
   <i name="SCISSOR">      0.00000000</i>
   <i type="int" name="NOMEGA">     0</i>
   <i type="int" name="NOMEGAR">     0</i>
   <i type="int" name="NBANDSGW">    -1</i>
   <i type="int" name="NBANDSO">    -1</i>
   <i type="int" name="NBANDSV">    -1</i>
   <i type="int" name="NELMGW">     1</i>
   <i type="int" name="NELMHF">     1</i>
   <i type="int" name="DIM">     3</i>
   <i type="int" name="IESPILON">     4</i>
   <i type="int" name="ANTIRES">     0</i>
   <i name="OMEGAMAX">    -30.00000000</i>
   <i name="OMEGAMIN">    -30.00000000</i>
   <i name="OMEGATL">   -200.00000000</i>
   <i type="int" name="OMEGAGRID">     0</i>
   <i name="CSHIFT">     -0.10000000</i>
   <i type="logical" name="LSELFENERGY"> F  </i>
   <i type="logical" name="LSPECTRAL"> F  </i>
   <i type="logical" name="LSPECTRALGW"> F  </i>
   <i type="logical" name="LSINGLES"> F  </i>
   <i type="logical" name="LFERMIGW"> F  </i>
   <i type="logical" name="ODDONLYGW"> F  </i>
   <i type="logical" name="EVENONLYGW"> F  </i>
   <i type="int" name="NKREDLFX">     1</i>
   <i type="int" name="NKREDLFY">     1</i>
   <i type="int" name="NKREDLFZ">     1</i>
   <i type="int" name="MAXMEM">  2800</i>
   <i type="int" name="TELESCOPE">     0</i>
   <i type="int" name="NTAUPAR">    -1</i>
   <i type="int" name="NOMEGAPAR">    -1</i>
   <i name="DAMP_NEWTON">      0.80000001</i>
   <i name="LAMBDA">      1.00000000</i>
  </separator>
  <separator name="External order field" >
   <i name="OFIELD_KAPPA">      0.00000000</i>
   <v name="OFIELD_K">      0.00000000      0.00000000      0.00000000</v>
   <i name="OFIELD_Q6_NEAR">      0.00000000</i>
   <i name="OFIELD_Q6_FAR">      0.00000000</i>
   <i name="OFIELD_A">      0.00000000</i>
  </separator>
  <separator name="optional k-points parameters" >
   <i type="int" name="KPOINTS_OPT_MODE">     1</i>
   <i type="logical" name="LKPOINTS_OPT"> F  </i>
  </separator>
 </parameters>
 <atominfo>
  <atoms>       1 </atoms>
  <types>       1 </types>
  <array name="atoms" >
   <dimension dim="1">ion</dimension>
   <field type="string">element</field>
   <field type="int">atomtype</field>
   <set>
    <rc><c>Co</c><c>   1</c></rc>
   </set>
  </array>
  <array name="atomtypes" >
   <dimension dim="1">type</dimension>
   <field type="int">atomspertype</field>
   <field type="string">element</field>
   <field>mass</field>
   <field>valence</field>
   <field type="string">pseudopotential</field>
   <set>
    <rc><c>   1</c><c>Co</c><c>     58.93300000</c><c>      9.00000000</c><c>  PAW_PBE Co 02Aug2007                  </c></rc>
   </set>
  </array>
 </atominfo>
 <structure name="initialpos" >
  <crystal>
   <varray name="basis" >
    <v>       0.00000000       1.57884080       1.57884080 </v>
    <v>       1.57884080       0.00000000       1.57884080 </v>
    <v>       1.57884080       1.57884080       0.00000000 </v>
   </varray>
   <i name="volume">      7.87127379 </i>
   <varray name="rec_basis" >
    <v>      -0.31668804       0.31668804       0.31668804 </v>
    <v>       0.31668804      -0.31668804       0.31668804 </v>
    <v>       0.31668804       0.31668804      -0.31668804 </v>
   </varray>
  </crystal>
  <varray name="positions" >
   <v>       0.00000000       0.00000000       0.00000000 </v>
  </varray>
 </structure>
 <calculation>
  <scstep>
   <time name="dav">    0.28    0.28</time>
   <time name="total">    0.29    0.29</time>
   <energy>
    <i name="alphaZ">     53.81300668 </i>
    <i name="ewald">   -846.77696420 </i>
    <i name="hartreedc">   -117.00069821 </i>
    <i name="XCdc">     19.02055763 </i>
    <i name="pawpsdc">    719.99081943 </i>
    <i name="pawaedc">   -772.94345096 </i>
    <i name="eentropy">     -0.00071195 </i>
    <i name="bandstr">    152.43692944 </i>
    <i name="atom">    813.35773410 </i>
    <i name="e_fr_energy">     21.89722195 </i>
    <i name="e_wo_entrp">     21.89793390 </i>
    <i name="e_0_energy">     21.89757793 </i>
   </energy>
  </scstep>
  <scstep>
   <time name="dav">    0.26    0.26</time>
   <time name="total">    0.26    0.26</time>
   <energy>
    <i name="e_fr_energy">     -5.71620017 </i>
    <i name="e_wo_entrp">     -5.71532531 </i>
    <i name="e_0_energy">     -5.71576274 </i>
   </energy>
  </scstep>
  <scstep>
   <time name="dav">    0.27    0.27</time>
   <time name="total">    0.27    0.28</time>
   <energy>
    <i name="e_fr_energy">     -6.36199291 </i>
    <i name="e_wo_entrp">     -6.36085791 </i>
    <i name="e_0_energy">     -6.36142541 </i>
   </energy>
  </scstep>
  <scstep>
   <time name="dav">    0.28    0.28</time>
   <time name="total">    0.28    0.28</time>
   <energy>
    <i name="e_fr_energy">     -6.36593086 </i>
    <i name="e_wo_entrp">     -6.36479425 </i>
    <i name="e_0_energy">     -6.36536255 </i>
   </energy>
  </scstep>
  <scstep>
   <time name="dav">    0.29    0.29</time>
   <time name="total">    0.30    0.30</time>
   <energy>
    <i name="e_fr_energy">     -6.36597325 </i>
    <i name="e_wo_entrp">     -6.36483662 </i>
    <i name="e_0_energy">     -6.36540493 </i>
   </energy>
  </scstep>
  <scstep>
   <time name="dav">    0.29    0.29</time>
   <time name="total">    0.31    0.31</time>
   <energy>
    <i name="e_fr_energy">     -6.10765492 </i>
    <i name="e_wo_entrp">     -6.10547700 </i>
    <i name="e_0_energy">     -6.10656596 </i>
   </energy>
  </scstep>
  <scstep>
   <time name="dav">    0.27    0.27</time>
   <time name="total">    0.29    0.29</time>
   <energy>
    <i name="e_fr_energy">     -6.07866751 </i>
    <i name="e_wo_entrp">     -6.07588564 </i>
    <i name="e_0_energy">     -6.07727657 </i>
   </energy>
  </scstep>
  <scstep>
   <time name="dav">    0.32    0.32</time>
   <time name="total">    0.34    0.34</time>
   <energy>
    <i name="e_fr_energy">     -6.06715324 </i>
    <i name="e_wo_entrp">     -6.06396541 </i>
    <i name="e_0_energy">     -6.06555933 </i>
   </energy>
  </scstep>
  <scstep>
   <time name="dav">    0.30    0.30</time>
   <time name="total">    0.32    0.32</time>
   <energy>
    <i name="e_fr_energy">     -6.07088787 </i>
    <i name="e_wo_entrp">     -6.06748886 </i>
    <i name="e_0_energy">     -6.06918837 </i>
   </energy>
  </scstep>
  <scstep>
   <time name="dav">    0.28    0.28</time>
   <time name="total">    0.30    0.30</time>
   <energy>
    <i name="e_fr_energy">     -6.05964238 </i>
    <i name="e_wo_entrp">     -6.05644322 </i>
    <i name="e_0_energy">     -6.05804280 </i>
   </energy>
  </scstep>
  <scstep>
   <time name="dav">    0.29    0.29</time>
   <time name="total">    0.30    0.31</time>
   <energy>
    <i name="e_fr_energy">     -6.04487094 </i>
    <i name="e_wo_entrp">     -6.04294330 </i>
    <i name="e_0_energy">     -6.04390712 </i>
   </energy>
  </scstep>
  <scstep>
   <time name="dav">    0.32    0.32</time>
   <time name="total">    0.33    0.34</time>
   <energy>
    <i name="e_fr_energy">     -6.04189945 </i>
    <i name="e_wo_entrp">     -6.04007151 </i>
    <i name="e_0_energy">     -6.04098548 </i>
   </energy>
  </scstep>
  <scstep>
   <time name="dav">    0.28    0.28</time>
   <time name="total">    0.30    0.30</time>
   <energy>
    <i name="e_fr_energy">     -6.05379501 </i>
    <i name="e_wo_entrp">     -6.05152984 </i>
    <i name="e_0_energy">     -6.05266242 </i>
   </energy>
  </scstep>
  <scstep>
   <time name="dav">    0.30    0.30</time>
   <time name="total">    0.32    0.32</time>
   <energy>
    <i name="e_fr_energy">     -6.05503746 </i>
    <i name="e_wo_entrp">     -6.05236743 </i>
    <i name="e_0_energy">     -6.05370245 </i>
   </energy>
  </scstep>
  <scstep>
   <time name="dav">    0.29    0.29</time>
   <time name="total">    0.30    0.31</time>
   <energy>
    <i name="e_fr_energy">     -6.05825288 </i>
    <i name="e_wo_entrp">     -6.05521521 </i>
    <i name="e_0_energy">     -6.05673405 </i>
   </energy>
  </scstep>
  <scstep>
   <time name="dav">    0.28    0.29</time>
   <time name="total">    0.30    0.30</time>
   <energy>
    <i name="e_fr_energy">     -6.06878828 </i>
    <i name="e_wo_entrp">     -6.06534169 </i>
    <i name="e_0_energy">     -6.06706499 </i>
   </energy>
  </scstep>
  <scstep>
   <time name="dav">    0.29    0.30</time>
   <time name="total">    0.31    0.31</time>
   <energy>
    <i name="e_fr_energy">     -6.07631345 </i>
    <i name="e_wo_entrp">     -6.07335002 </i>
    <i name="e_0_energy">     -6.07483173 </i>
   </energy>
  </scstep>
  <scstep>
   <time name="dav">    0.33    0.33</time>
   <time name="total">    0.34    0.35</time>
   <energy>
    <i name="e_fr_energy">     -6.07950664 </i>
    <i name="e_wo_entrp">     -6.07672066 </i>
    <i name="e_0_energy">     -6.07811365 </i>
   </energy>
  </scstep>
  <scstep>
   <time name="dav">    0.29    0.29</time>
   <time name="total">    0.30    0.31</time>
   <energy>
    <i name="e_fr_energy">     -6.07178070 </i>
    <i name="e_wo_entrp">     -6.06839662 </i>
    <i name="e_0_energy">     -6.07008866 </i>
   </energy>
  </scstep>
  <scstep>
   <time name="dav">    0.28    0.29</time>
   <time name="total">    0.30    0.30</time>
   <energy>
    <i name="e_fr_energy">     -6.06383558 </i>
    <i name="e_wo_entrp">     -6.06082479 </i>
    <i name="e_0_energy">     -6.06233018 </i>
   </energy>
  </scstep>
  <scstep>
   <time name="dav">    0.29    0.29</time>
   <time name="total">    0.31    0.31</time>
   <energy>
    <i name="e_fr_energy">     -6.06502971 </i>
    <i name="e_wo_entrp">     -6.06192643 </i>
    <i name="e_0_energy">     -6.06347807 </i>
   </energy>
  </scstep>
  <scstep>
   <time name="dav">    0.29    0.29</time>
   <time name="total">    0.30    0.31</time>
   <energy>
    <i name="e_fr_energy">     -6.05736419 </i>
    <i name="e_wo_entrp">     -6.05429554 </i>
    <i name="e_0_energy">     -6.05582986 </i>
   </energy>
  </scstep>
  <scstep>
   <time name="dav">    0.28    0.29</time>
   <time name="total">    0.30    0.30</time>
   <energy>
    <i name="e_fr_energy">     -6.04588295 </i>
    <i name="e_wo_entrp">     -6.04395938 </i>
    <i name="e_0_energy">     -6.04492116 </i>
   </energy>
  </scstep>
  <scstep>
   <time name="dav">    0.28    0.29</time>
   <time name="total">    0.30    0.30</time>
   <energy>
    <i name="e_fr_energy">     -6.02921007 </i>
    <i name="e_wo_entrp">     -6.02809983 </i>
    <i name="e_0_energy">     -6.02865495 </i>
   </energy>
  </scstep>
  <scstep>
   <time name="dav">    0.33    0.33</time>
   <time name="total">    0.35    0.35</time>
   <energy>
    <i name="e_fr_energy">     -6.02243900 </i>
    <i name="e_wo_entrp">     -6.02128097 </i>
    <i name="e_0_energy">     -6.02185998 </i>
   </energy>
  </scstep>
  <scstep>
   <time name="dav">    0.29    0.29</time>
   <time name="total">    0.31    0.31</time>
   <energy>
    <i name="e_fr_energy">     -6.01694878 </i>
    <i name="e_wo_entrp">     -6.01558015 </i>
    <i name="e_0_energy">     -6.01626446 </i>
   </energy>
  </scstep>
  <scstep>
   <time name="dav">    0.30    0.30</time>
   <time name="total">    0.32    0.32</time>
   <energy>
    <i name="e_fr_energy">     -6.01622397 </i>
    <i name="e_wo_entrp">     -6.01482141 </i>
    <i name="e_0_energy">     -6.01552269 </i>
   </energy>
  </scstep>
  <scstep>
   <time name="dav">    0.28    0.28</time>
   <time name="total">    0.30    0.30</time>
   <energy>
    <i name="e_fr_energy">     -6.00764503 </i>
    <i name="e_wo_entrp">     -6.00550162 </i>
    <i name="e_0_energy">     -6.00657332 </i>
   </energy>
  </scstep>
  <scstep>
   <time name="dav">    0.27    0.27</time>
   <time name="total">    0.29    0.29</time>
   <energy>
    <i name="e_fr_energy">     -6.00866636 </i>
    <i name="e_wo_entrp">     -6.00667910 </i>
    <i name="e_0_energy">     -6.00767273 </i>
   </energy>
  </scstep>
  <scstep>
   <time name="dav">    0.21    0.22</time>
   <time name="total">    0.23    0.23</time>
   <energy>
    <i name="e_fr_energy">     -6.00915400 </i>
    <i name="e_wo_entrp">     -6.00720633 </i>
    <i name="e_0_energy">     -6.00818017 </i>
   </energy>
  </scstep>
  <scstep>
   <time name="dav">    0.28    0.28</time>
   <time name="total">    0.30    0.30</time>
   <energy>
    <i name="e_fr_energy">     -6.01944377 </i>
    <i name="e_wo_entrp">     -6.01818934 </i>
    <i name="e_0_energy">     -6.01881655 </i>
   </energy>
  </scstep>
  <scstep>
   <time name="dav">    0.29    0.29</time>
   <time name="total">    0.31    0.31</time>
   <energy>
    <i name="e_fr_energy">     -6.03771412 </i>
    <i name="e_wo_entrp">     -6.03618815 </i>
    <i name="e_0_energy">     -6.03695113 </i>
   </energy>
  </scstep>
  <scstep>
   <time name="dav">    0.31    0.32</time>
   <time name="total">    0.33    0.34</time>
   <energy>
    <i name="e_fr_energy">     -6.04049348 </i>
    <i name="e_wo_entrp">     -6.03873510 </i>
    <i name="e_0_energy">     -6.03961429 </i>
   </energy>
  </scstep>
  <scstep>
   <time name="dav">    0.28    0.28</time>
   <time name="total">    0.30    0.30</time>
   <energy>
    <i name="e_fr_energy">     -6.05056066 </i>
    <i name="e_wo_entrp">     -6.04882855 </i>
    <i name="e_0_energy">     -6.04969460 </i>
   </energy>
  </scstep>
  <scstep>
   <time name="dav">    0.28    0.29</time>
   <time name="total">    0.30    0.30</time>
   <energy>
    <i name="e_fr_energy">     -6.05646235 </i>
    <i name="e_wo_entrp">     -6.05357838 </i>
    <i name="e_0_energy">     -6.05502037 </i>
   </energy>
  </scstep>
  <scstep>
   <time name="dav">    0.31    0.31</time>
   <time name="total">    0.33    0.33</time>
   <energy>
    <i name="e_fr_energy">     -6.05999005 </i>
    <i name="e_wo_entrp">     -6.05690937 </i>
    <i name="e_0_energy">     -6.05844971 </i>
   </energy>
  </scstep>
  <scstep>
   <time name="dav">    0.28    0.29</time>
   <time name="total">    0.30    0.30</time>
   <energy>
    <i name="e_fr_energy">     -6.06469996 </i>
    <i name="e_wo_entrp">     -6.06154665 </i>
    <i name="e_0_energy">     -6.06312330 </i>
   </energy>
  </scstep>
  <scstep>
   <time name="dav">    0.33    0.33</time>
   <time name="total">    0.34    0.35</time>
   <energy>
    <i name="e_fr_energy">     -6.06677000 </i>
    <i name="e_wo_entrp">     -6.06344690 </i>
    <i name="e_0_energy">     -6.06510845 </i>
   </energy>
  </scstep>
  <scstep>
   <time name="dav">    0.30    0.30</time>
   <time name="total">    0.32    0.32</time>
   <energy>
    <i name="e_fr_energy">     -6.06729489 </i>
    <i name="e_wo_entrp">     -6.06393258 </i>
    <i name="e_0_energy">     -6.06561374 </i>
   </energy>
  </scstep>
  <scstep>
   <time name="dav">    0.25    0.25</time>
   <time name="total">    0.27    0.27</time>
   <energy>
    <i name="e_fr_energy">     -6.06772917 </i>
    <i name="e_wo_entrp">     -6.06433592 </i>
    <i name="e_0_energy">     -6.06603254 </i>
   </energy>
  </scstep>
  <scstep>
   <time name="dav">    0.28    0.28</time>
   <time name="total">    0.30    0.31</time>
   <energy>
    <i name="e_fr_energy">     -6.06929722 </i>
    <i name="e_wo_entrp">     -6.06585874 </i>
    <i name="e_0_energy">     -6.06757798 </i>
   </energy>
  </scstep>
  <scstep>
   <time name="dav">    0.29    0.29</time>
   <time name="total">    0.31    0.31</time>
   <energy>
    <i name="e_fr_energy">     -6.06996263 </i>
    <i name="e_wo_entrp">     -6.06653480 </i>
    <i name="e_0_energy">     -6.06824871 </i>
   </energy>
  </scstep>
  <scstep>
   <time name="dav">    0.28    0.28</time>
   <time name="total">    0.30    0.30</time>
   <energy>
    <i name="e_fr_energy">     -6.06899218 </i>
    <i name="e_wo_entrp">     -6.06555273 </i>
    <i name="e_0_energy">     -6.06727245 </i>
   </energy>
  </scstep>
  <scstep>
   <time name="dav">    0.28    0.29</time>
   <time name="total">    0.30    0.30</time>
   <energy>
    <i name="e_fr_energy">     -6.06434489 </i>
    <i name="e_wo_entrp">     -6.06129707 </i>
    <i name="e_0_energy">     -6.06282098 </i>
   </energy>
  </scstep>
  <scstep>
   <time name="dav">    0.28    0.29</time>
   <time name="total">    0.30    0.30</time>
   <energy>
    <i name="e_fr_energy">     -6.05754721 </i>
    <i name="e_wo_entrp">     -6.05450442 </i>
    <i name="e_0_energy">     -6.05602581 </i>
   </energy>
  </scstep>
  <scstep>
   <time name="dav">    0.28    0.29</time>
   <time name="total">    0.30    0.30</time>
   <energy>
    <i name="e_fr_energy">     -6.05248554 </i>
    <i name="e_wo_entrp">     -6.05064586 </i>
    <i name="e_0_energy">     -6.05156570 </i>
   </energy>
  </scstep>
  <scstep>
   <time name="dav">    0.32    0.32</time>
   <time name="total">    0.34    0.34</time>
   <energy>
    <i name="e_fr_energy">     -6.04966108 </i>
    <i name="e_wo_entrp">     -6.04790133 </i>
    <i name="e_0_energy">     -6.04878120 </i>
   </energy>
  </scstep>
  <scstep>
   <time name="dav">    0.29    0.29</time>
   <time name="total">    0.31    0.31</time>
   <energy>
    <i name="e_fr_energy">     -6.04116184 </i>
    <i name="e_wo_entrp">     -6.03935422 </i>
    <i name="e_0_energy">     -6.04025803 </i>
   </energy>
  </scstep>
  <scstep>
   <time name="dav">    0.29    0.29</time>
   <time name="total">    0.31    0.31</time>
   <energy>
    <i name="e_fr_energy">     -6.03194466 </i>
    <i name="e_wo_entrp">     -6.03074118 </i>
    <i name="e_0_energy">     -6.03134292 </i>
   </energy>
  </scstep>
  <scstep>
   <time name="dav">    0.28    0.29</time>
   <time name="total">    0.30    0.30</time>
   <energy>
    <i name="e_fr_energy">     -6.02189935 </i>
    <i name="e_wo_entrp">     -6.02073844 </i>
    <i name="e_0_energy">     -6.02131889 </i>
   </energy>
  </scstep>
  <scstep>
   <time name="dav">    0.28    0.29</time>
   <time name="total">    0.30    0.30</time>
   <energy>
    <i name="e_fr_energy">     -6.00459087 </i>
    <i name="e_wo_entrp">     -6.00211581 </i>
    <i name="e_0_energy">     -6.00335334 </i>
   </energy>
  </scstep>
  <scstep>
   <time name="dav">    0.28    0.28</time>
   <time name="total">    0.30    0.30</time>
   <energy>
    <i name="e_fr_energy">     -5.98623828 </i>
    <i name="e_wo_entrp">     -5.98363494 </i>
    <i name="e_0_energy">     -5.98493661 </i>
   </energy>
  </scstep>
  <scstep>
   <time name="dav">    0.31    0.31</time>
   <time name="total">    0.32    0.33</time>
   <energy>
    <i name="e_fr_energy">     -5.98344357 </i>
    <i name="e_wo_entrp">     -5.98101872 </i>
    <i name="e_0_energy">     -5.98223115 </i>
   </energy>
  </scstep>
  <scstep>
   <time name="dav">    0.28    0.28</time>
   <time name="total">    0.30    0.30</time>
   <energy>
    <i name="e_fr_energy">     -5.97500144 </i>
    <i name="e_wo_entrp">     -5.97371396 </i>
    <i name="e_0_energy">     -5.97435770 </i>
   </energy>
  </scstep>
  <scstep>
   <time name="dav">    0.28    0.28</time>
   <time name="total">    0.30    0.30</time>
   <energy>
    <i name="e_fr_energy">     -5.97519304 </i>
    <i name="e_wo_entrp">     -5.97385226 </i>
    <i name="e_0_energy">     -5.97452265 </i>
   </energy>
  </scstep>
  <scstep>
   <time name="dav">    0.22    0.22</time>
   <time name="total">    0.24    0.24</time>
   <energy>
    <i name="e_fr_energy">     -5.97506565 </i>
    <i name="e_wo_entrp">     -5.97374746 </i>
    <i name="e_0_energy">     -5.97440655 </i>
   </energy>
  </scstep>
  <scstep>
   <time name="dav">    0.19    0.19</time>
   <time name="total">    0.21    0.21</time>
   <energy>
    <i name="e_fr_energy">     -5.97506446 </i>
    <i name="e_wo_entrp">     -5.97375115 </i>
    <i name="e_0_energy">     -5.97440781 </i>
   </energy>
  </scstep>
  <scstep>
   <time name="dav">    0.28    0.28</time>
   <time name="total">    0.30    0.30</time>
   <energy>
    <i name="e_fr_energy">     -5.95503378 </i>
    <i name="e_wo_entrp">     -5.95438800 </i>
    <i name="e_0_energy">     -5.95471089 </i>
   </energy>
  </scstep>
  <scstep>
   <time name="dav">    0.28    0.29</time>
   <time name="total">    0.30    0.31</time>
   <energy>
    <i name="e_fr_energy">     -5.92315649 </i>
    <i name="e_wo_entrp">     -5.92253731 </i>
    <i name="e_0_energy">     -5.92284690 </i>
   </energy>
  </scstep>
  <scstep>
   <time name="dav">    0.29    0.29</time>
   <time name="total">    0.31    0.31</time>
   <energy>
    <i name="e_fr_energy">     -5.87852132 </i>
    <i name="e_wo_entrp">     -5.87793589 </i>
    <i name="e_0_energy">     -5.87822861 </i>
   </energy>
  </scstep>
  <scstep>
   <time name="dav">    0.27    0.27</time>
   <time name="total">    0.29    0.29</time>
   <energy>
    <i name="e_fr_energy">     -5.88946226 </i>
    <i name="e_wo_entrp">     -5.88885509 </i>
    <i name="e_0_energy">     -5.88915868 </i>
   </energy>
  </scstep>
  <scstep>
   <time name="dav">    0.28    0.28</time>
   <time name="total">    0.30    0.30</time>
   <energy>
    <i name="e_fr_energy">     -5.90889752 </i>
    <i name="e_wo_entrp">     -5.90827828 </i>
    <i name="e_0_energy">     -5.90858790 </i>
   </energy>
  </scstep>
  <scstep>
   <time name="dav">    0.28    0.28</time>
   <time name="total">    0.30    0.30</time>
   <energy>
    <i name="e_fr_energy">     -5.92614425 </i>
    <i name="e_wo_entrp">     -5.92546487 </i>
    <i name="e_0_energy">     -5.92580456 </i>
   </energy>
  </scstep>
  <scstep>
   <time name="dav">    0.29    0.30</time>
   <time name="total">    0.31    0.31</time>
   <energy>
    <i name="e_fr_energy">     -5.93352476 </i>
    <i name="e_wo_entrp">     -5.93280317 </i>
    <i name="e_0_energy">     -5.93316397 </i>
   </energy>
  </scstep>
  <scstep>
   <time name="dav">    0.27    0.27</time>
   <time name="total">    0.29    0.29</time>
   <energy>
    <i name="e_fr_energy">     -5.92940275 </i>
    <i name="e_wo_entrp">     -5.92872567 </i>
    <i name="e_0_energy">     -5.92906421 </i>
   </energy>
  </scstep>
  <scstep>
   <time name="dav">    0.28    0.28</time>
   <time name="total">    0.30    0.30</time>
   <energy>
    <i name="e_fr_energy">     -5.90993625 </i>
    <i name="e_wo_entrp">     -5.90934385 </i>
    <i name="e_0_energy">     -5.90964005 </i>
   </energy>
  </scstep>
  <scstep>
   <time name="dav">    0.29    0.29</time>
   <time name="total">    0.30    0.31</time>
   <energy>
    <i name="e_fr_energy">     -5.89011785 </i>
    <i name="e_wo_entrp">     -5.88952694 </i>
    <i name="e_0_energy">     -5.88982239 </i>
   </energy>
  </scstep>
  <scstep>
   <time name="dav">    0.29    0.29</time>
   <time name="total">    0.31    0.31</time>
   <energy>
    <i name="e_fr_energy">     -5.87556063 </i>
    <i name="e_wo_entrp">     -5.87496578 </i>
    <i name="e_0_energy">     -5.87526321 </i>
   </energy>
  </scstep>
  <scstep>
   <time name="dav">    0.33    0.33</time>
   <time name="total">    0.35    0.35</time>
   <energy>
    <i name="e_fr_energy">     -5.86880386 </i>
    <i name="e_wo_entrp">     -5.86820637 </i>
    <i name="e_0_energy">     -5.86850512 </i>
   </energy>
  </scstep>
  <scstep>
   <time name="dav">    0.23    0.23</time>
   <time name="total">    0.25    0.25</time>
   <energy>
    <i name="e_fr_energy">     -5.86959888 </i>
    <i name="e_wo_entrp">     -5.86900148 </i>
    <i name="e_0_energy">     -5.86930018 </i>
   </energy>
  </scstep>
  <scstep>
   <time name="dav">    0.28    0.28</time>
   <time name="total">    0.30    0.30</time>
   <energy>
    <i name="e_fr_energy">     -5.75660551 </i>
    <i name="e_wo_entrp">     -5.75588709 </i>
    <i name="e_0_energy">     -5.75624630 </i>
   </energy>
  </scstep>
  <scstep>
   <time name="dav">    0.31    0.31</time>
   <time name="total">    0.33    0.33</time>
   <energy>
    <i name="e_fr_energy">     -5.72023523 </i>
    <i name="e_wo_entrp">     -5.71938118 </i>
    <i name="e_0_energy">     -5.71980820 </i>
   </energy>
  </scstep>
  <scstep>
   <time name="dav">    0.26    0.27</time>
   <time name="total">    0.28    0.29</time>
   <energy>
    <i name="e_fr_energy">     -5.72315378 </i>
    <i name="e_wo_entrp">     -5.72229469 </i>
    <i name="e_0_energy">     -5.72272423 </i>
   </energy>
  </scstep>
  <scstep>
   <time name="dav">    0.28    0.28</time>
   <time name="total">    0.30    0.30</time>
   <energy>
    <i name="e_fr_energy">     -5.69145132 </i>
    <i name="e_wo_entrp">     -5.69067504 </i>
    <i name="e_0_energy">     -5.69106318 </i>
   </energy>
  </scstep>
  <scstep>
   <time name="dav">    0.30    0.30</time>
   <time name="total">    0.32    0.32</time>
   <energy>
    <i name="e_fr_energy">     -5.68696554 </i>
    <i name="e_wo_entrp">     -5.68619588 </i>
    <i name="e_0_energy">     -5.68658071 </i>
   </energy>
  </scstep>
  <scstep>
   <time name="dav">    0.28    0.28</time>
   <time name="total">    0.30    0.30</time>
   <energy>
    <i name="e_fr_energy">     -5.53058990 </i>
    <i name="e_wo_entrp">     -5.52916723 </i>
    <i name="e_0_energy">     -5.52987856 </i>
   </energy>
  </scstep>
  <scstep>
   <time name="dav">    0.26    0.26</time>
   <time name="total">    0.28    0.28</time>
   <energy>
    <i name="e_fr_energy">     -5.52354960 </i>
    <i name="e_wo_entrp">     -5.52213155 </i>
    <i name="e_0_energy">     -5.52284058 </i>
   </energy>
  </scstep>
  <scstep>
   <time name="dav">    0.28    0.28</time>
   <time name="total">    0.30    0.30</time>
   <energy>
    <i name="e_fr_energy">     -5.46515413 </i>
    <i name="e_wo_entrp">     -5.46363940 </i>
    <i name="e_0_energy">     -5.46439677 </i>
   </energy>
  </scstep>
  <scstep>
   <time name="dav">    0.28    0.28</time>
   <time name="total">    0.30    0.30</time>
   <energy>
    <i name="e_fr_energy">     -5.46221507 </i>
    <i name="e_wo_entrp">     -5.46070668 </i>
    <i name="e_0_energy">     -5.46146088 </i>
   </energy>
  </scstep>
  <scstep>
   <time name="dav">    0.24    0.24</time>
   <time name="total">    0.26    0.26</time>
   <energy>
    <i name="e_fr_energy">     -5.46459081 </i>
    <i name="e_wo_entrp">     -5.46307491 </i>
    <i name="e_0_energy">     -5.46383286 </i>
   </energy>
  </scstep>
  <scstep>
   <time name="dav">    0.28    0.28</time>
   <time name="total">    0.30    0.30</time>
   <energy>
    <i name="e_fr_energy">     -5.94327044 </i>
    <i name="e_wo_entrp">     -5.94255067 </i>
    <i name="e_0_energy">     -5.94291056 </i>
   </energy>
  </scstep>
  <scstep>
   <time name="dav">    0.32    0.32</time>
   <time name="total">    0.33    0.34</time>
   <energy>
    <i name="e_fr_energy">     -5.98373620 </i>
    <i name="e_wo_entrp">     -5.98143962 </i>
    <i name="e_0_energy">     -5.98258791 </i>
   </energy>
  </scstep>
  <scstep>
   <time name="dav">    0.30    0.30</time>
   <time name="total">    0.32    0.32</time>
   <energy>
    <i name="e_fr_energy">     -5.99666280 </i>
    <i name="e_wo_entrp">     -5.99364156 </i>
    <i name="e_0_energy">     -5.99515218 </i>
   </energy>
  </scstep>
  <scstep>
   <time name="dav">    0.29    0.29</time>
   <time name="total">    0.31    0.31</time>
   <energy>
    <i name="e_fr_energy">     -5.99487739 </i>
    <i name="e_wo_entrp">     -5.99184495 </i>
    <i name="e_0_energy">     -5.99336117 </i>
   </energy>
  </scstep>
  <scstep>
   <time name="dav">    0.28    0.28</time>
   <time name="total">    0.30    0.30</time>
   <energy>
    <i name="e_fr_energy">     -5.99912677 </i>
    <i name="e_wo_entrp">     -5.99622522 </i>
    <i name="e_0_energy">     -5.99767600 </i>
   </energy>
  </scstep>
  <scstep>
   <time name="dav">    0.28    0.28</time>
   <time name="total">    0.30    0.30</time>
   <energy>
    <i name="e_fr_energy">     -6.03539952 </i>
    <i name="e_wo_entrp">     -6.03409283 </i>
    <i name="e_0_energy">     -6.03474617 </i>
   </energy>
  </scstep>
  <scstep>
   <time name="dav">    0.29    0.29</time>
   <time name="total">    0.30    0.31</time>
   <energy>
    <i name="e_fr_energy">     -6.05378772 </i>
    <i name="e_wo_entrp">     -6.05143494 </i>
    <i name="e_0_energy">     -6.05261133 </i>
   </energy>
  </scstep>
  <scstep>
   <time name="dav">    0.31    0.31</time>
   <time name="total">    0.33    0.33</time>
   <energy>
    <i name="e_fr_energy">     -6.05515889 </i>
    <i name="e_wo_entrp">     -6.05235778 </i>
    <i name="e_0_energy">     -6.05375834 </i>
   </energy>
  </scstep>
  <scstep>
   <time name="dav">    0.30    0.30</time>
   <time name="total">    0.32    0.32</time>
   <energy>
    <i name="e_fr_energy">     -6.05612748 </i>
    <i name="e_wo_entrp">     -6.05316873 </i>
    <i name="e_0_energy">     -6.05464811 </i>
   </energy>
  </scstep>
  <scstep>
   <time name="dav">    0.28    0.28</time>
   <time name="total">    0.30    0.30</time>
   <energy>
    <i name="e_fr_energy">     -6.05786004 </i>
    <i name="e_wo_entrp">     -6.05477175 </i>
    <i name="e_0_energy">     -6.05631589 </i>
   </energy>
  </scstep>
  <scstep>
   <time name="dav">    0.29    0.29</time>
   <time name="total">    0.31    0.31</time>
   <energy>
    <i name="e_fr_energy">     -6.05910903 </i>
    <i name="e_wo_entrp">     -6.05597043 </i>
    <i name="e_0_energy">     -6.05753973 </i>
   </energy>
  </scstep>
  <scstep>
   <time name="dav">    0.28    0.28</time>
   <time name="total">    0.30    0.30</time>
   <energy>
    <i name="e_fr_energy">     -6.06079002 </i>
    <i name="e_wo_entrp">     -6.05765497 </i>
    <i name="e_0_energy">     -6.05922249 </i>
   </energy>
  </scstep>
  <scstep>
   <time name="dav">    0.29    0.29</time>
   <time name="total">    0.31    0.31</time>
   <energy>
    <i name="e_fr_energy">     -6.06206430 </i>
    <i name="e_wo_entrp">     -6.05898027 </i>
    <i name="e_0_energy">     -6.06052228 </i>
   </energy>
  </scstep>
  <scstep>
   <time name="dav">    0.24    0.24</time>
   <time name="total">    0.26    0.26</time>
   <energy>
    <i name="e_fr_energy">     -6.06224798 </i>
    <i name="e_wo_entrp">     -6.05917466 </i>
    <i name="e_0_energy">     -6.06071132 </i>
   </energy>
  </scstep>
  <scstep>
   <time name="dav">    0.19    0.20</time>
   <time name="total">    0.21    0.22</time>
   <energy>
    <i name="e_fr_energy">     -6.06227465 </i>
    <i name="e_wo_entrp">     -6.05920244 </i>
    <i name="e_0_energy">     -6.06073855 </i>
   </energy>
  </scstep>
  <scstep>
   <time name="dav">    0.28    0.28</time>
   <time name="total">    0.30    0.30</time>
   <energy>
    <i name="e_fr_energy">     -6.06351885 </i>
    <i name="e_wo_entrp">     -6.06049138 </i>
    <i name="e_0_energy">     -6.06200512 </i>
   </energy>
  </scstep>
  <scstep>
   <time name="dav">    0.28    0.28</time>
   <time name="total">    0.30    0.30</time>
   <energy>
    <i name="e_fr_energy">     -6.06526889 </i>
    <i name="e_wo_entrp">     -6.06218278 </i>
    <i name="e_0_energy">     -6.06372584 </i>
   </energy>
  </scstep>
  <scstep>
   <time name="dav">    0.28    0.28</time>
   <time name="total">    0.30    0.30</time>
   <energy>
    <i name="e_fr_energy">     -6.07144543 </i>
    <i name="e_wo_entrp">     -6.06813064 </i>
    <i name="e_0_energy">     -6.06978803 </i>
   </energy>
  </scstep>
  <scstep>
   <time name="dav">    0.29    0.29</time>
   <time name="total">    0.31    0.31</time>
   <energy>
    <i name="e_fr_energy">     -6.08122214 </i>
    <i name="e_wo_entrp">     -6.07863206 </i>
    <i name="e_0_energy">     -6.07992710 </i>
   </energy>
  </scstep>
  <scstep>
   <time name="dav">    0.29    0.29</time>
   <time name="total">    0.30    0.30</time>
   <energy>
    <i name="alphaZ">     53.81300668 </i>
    <i name="ewald">   -846.77696420 </i>
    <i name="hartreedc">   -100.09728653 </i>
    <i name="XCdc">     17.11011009 </i>
    <i name="pawpsdc">   1150.16026965 </i>
    <i name="pawaedc">  -1205.17965866 </i>
    <i name="eentropy">     -0.00184284 </i>
    <i name="bandstr">    111.52516430 </i>
    <i name="atom">    813.35773410 </i>
    <i name="e_fr_energy">     -6.08946741 </i>
    <i name="e_wo_entrp">     -6.08762457 </i>
    <i name="e_0_energy">     -6.08854599 </i>
   </energy>
  </scstep>
  <structure>
   <crystal>
    <varray name="basis" >
     <v>       0.00000000       1.57884080       1.57884080 </v>
     <v>       1.57884080       0.00000000       1.57884080 </v>
     <v>       1.57884080       1.57884080       0.00000000 </v>
    </varray>
    <i name="volume">      7.87127379 </i>
    <varray name="rec_basis" >
     <v>      -0.31668804       0.31668804       0.31668804 </v>
     <v>       0.31668804      -0.31668804       0.31668804 </v>
     <v>       0.31668804       0.31668804      -0.31668804 </v>
    </varray>
   </crystal>
   <varray name="positions" >
    <v>       0.00000000       0.00000000       0.00000000 </v>
   </varray>
  </structure>
  <varray name="forces" >
   <v>      -0.00000000      -0.00000000       0.00000000 </v>
  </varray>
  <varray name="stress" >
   <v>    1172.95361045       0.00000000       0.00000000 </v>
   <v>       0.00000000    1172.95361045       0.00000000 </v>
   <v>       0.00000000       0.00000000    1172.95361045 </v>
  </varray>
  <energy>
   <i name="e_fr_energy">     -6.08946741 </i>
   <i name="e_wo_entrp">     -6.08762457 </i>
   <i name="e_0_energy">     -6.08854599 </i>
  </energy>
  <time name="totalsc">   30.23   30.53</time>
  <eigenvalues>
   <array>
    <dimension dim="1">band</dimension>
    <dimension dim="2">kpoint</dimension>
    <dimension dim="3">spin</dimension>
    <field>eigene</field>
    <field>occ</field>
    <set>
     <set comment="spin 1">
      <set comment="kpoint 1">
       <r>    4.9649    1.0000 </r>
       <r>   12.5681    1.0000 </r>
       <r>   12.7081    1.0000 </r>
       <r>   12.7081    1.0000 </r>
       <r>   14.5935    1.0000 </r>
       <r>   14.5935    1.0000 </r>
       <r>   41.2510    0.0000 </r>
       <r>   46.4056    0.0000 </r>
       <r>   48.3128    0.0000 </r>
       <r>   48.3128    0.0000 </r>
       <r>   52.7159    0.0000 </r>
       <r>   54.0534    0.0000 </r>
      </set>
      <set comment="kpoint 2">
       <r>    5.9837    1.0000 </r>
       <r>   12.1911    1.0000 </r>
       <r>   12.9755    1.0000 </r>
       <r>   12.9758    1.0000 </r>
       <r>   14.3077    1.0000 </r>
       <r>   14.7211    1.0000 </r>
       <r>   39.8280    0.0000 </r>
       <r>   42.4970    0.0000 </r>
       <r>   46.9232    0.0000 </r>
       <r>   49.5677    0.0000 </r>
       <r>   51.7732    0.0000 </r>
       <r>   52.7861    0.0000 </r>
      </set>
      <set comment="kpoint 3">
       <r>    7.9557    1.0000 </r>
       <r>   12.0022    1.0000 </r>
       <r>   12.9147    1.0000 </r>
       <r>   13.0463    1.0000 </r>
       <r>   14.5875    1.0000 </r>
       <r>   15.3221    1.0000 </r>
       <r>   33.6805    0.0000 </r>
       <r>   40.9818    0.0000 </r>
       <r>   46.1443    0.0000 </r>
       <r>   49.9892    0.0000 </r>
       <r>   51.4651    0.0000 </r>
       <r>   51.5539    0.0000 </r>
      </set>
      <set comment="kpoint 4">
       <r>    8.9399    1.0000 </r>
       <r>   12.5426    1.0000 </r>
       <r>   12.7214    1.0000 </r>
       <r>   13.5350    1.0000 </r>
       <r>   15.4989    1.0000 </r>
       <r>   16.3928    0.0000 </r>
       <r>   27.8372    0.0000 </r>
       <r>   39.8383    0.0000 </r>
       <r>   45.1444    0.0000 </r>
       <r>   47.8439    0.0000 </r>
       <r>   50.4276    0.0000 </r>
       <r>   51.7264    0.0000 </r>
      </set>
      <set comment="kpoint 5">
       <r>    8.9879    1.0000 </r>
       <r>   12.3852    1.0000 </r>
       <r>   12.6338    1.0000 </r>
       <r>   14.4111    1.0000 </r>
       <r>   15.9855    0.0000 </r>
       <r>   17.0180    0.0000 </r>
       <r>   25.5995    0.0000 </r>
       <r>   39.5405    0.0000 </r>
       <r>   45.5808    0.0000 </r>
       <r>   45.7081    0.0000 </r>
       <r>   51.2139    0.0000 </r>
       <r>   51.3463    0.0000 </r>
      </set>
      <set comment="kpoint 6">
       <r>    8.7935    1.0000 </r>
       <r>   12.5906    1.0000 </r>
       <r>   12.8310    1.0000 </r>
       <r>   12.8635    1.0000 </r>
       <r>   15.6221    1.0000 </r>
       <r>   15.6484    1.0000 </r>
       <r>   29.5947    0.0000 </r>
       <r>   40.4340    0.0000 </r>
       <r>   45.0154    0.0000 </r>
       <r>   47.9711    0.0000 </r>
       <r>   50.8013    0.0000 </r>
       <r>   52.7131    0.0000 </r>
      </set>
      <set comment="kpoint 7">
       <r>    7.2846    1.0000 </r>
       <r>   11.9183    1.0000 </r>
       <r>   13.0149    1.0000 </r>
       <r>   13.1086    1.0000 </r>
       <r>   14.4798    1.0000 </r>
       <r>   14.9520    1.0000 </r>
       <r>   35.8448    0.0000 </r>
       <r>   41.9257    0.0000 </r>
       <r>   45.5496    0.0000 </r>
       <r>   49.5877    0.0000 </r>
       <r>   51.1359    0.0000 </r>
       <r>   52.8508    0.0000 </r>
      </set>
      <set comment="kpoint 8">
       <r>    5.4866    1.0000 </r>
       <r>   12.3160    1.0000 </r>
       <r>   12.8878    1.0000 </r>
       <r>   12.8959    1.0000 </r>
       <r>   14.3484    1.0000 </r>
       <r>   14.7024    1.0000 </r>
       <r>   40.9417    0.0000 </r>
       <r>   44.2716    0.0000 </r>
       <r>   46.7016    0.0000 </r>
       <r>   47.9587    0.0000 </r>
       <r>   52.7845    0.0000 </r>
       <r>   53.7485    0.0000 </r>
      </set>
      <set comment="kpoint 9">
       <r>    6.4585    1.0000 </r>
       <r>   11.8382    1.0000 </r>
       <r>   13.2194    1.0000 </r>
       <r>   13.2627    1.0000 </r>
       <r>   13.9988    1.0000 </r>
       <r>   14.9051    1.0000 </r>
       <r>   40.2296    0.0000 </r>
       <r>   42.3449    0.0000 </r>
       <r>   44.3371    0.0000 </r>
       <r>   45.8339    0.0000 </r>
       <r>   52.5787    0.0000 </r>
       <r>   55.3775    0.0000 </r>
      </set>
      <set comment="kpoint 10">
       <r>    8.0717    1.0000 </r>
       <r>   11.3321    1.0000 </r>
       <r>   12.8973    1.0000 </r>
       <r>   13.7121    1.0000 </r>
       <r>   14.3858    1.0000 </r>
       <r>   15.4697    1.0000 </r>
       <r>   36.4603    0.0000 </r>
       <r>   39.1089    0.0000 </r>
       <r>   43.4382    0.0000 </r>
       <r>   45.7153    0.0000 </r>
       <r>   52.3115    0.0000 </r>
       <r>   54.6533    0.0000 </r>
      </set>
      <set comment="kpoint 11">
       <r>    9.4526    1.0000 </r>
       <r>   11.5648    1.0000 </r>
       <r>   12.3752    1.0000 </r>
       <r>   13.4878    1.0000 </r>
       <r>   15.5595    1.0000 </r>
       <r>   17.0931    0.0000 </r>
       <r>   30.0757    0.0000 </r>
       <r>   38.1250    0.0000 </r>
       <r>   41.3146    0.0000 </r>
       <r>   45.8071    0.0000 </r>
       <r>   52.7231    0.0000 </r>
       <r>   53.5348    0.0000 </r>
      </set>
      <set comment="kpoint 12">
       <r>    9.6685    1.0000 </r>
       <r>   11.6299    1.0000 </r>
       <r>   12.9956    1.0000 </r>
       <r>   13.2279    1.0000 </r>
       <r>   15.9092    0.0003 </r>
       <r>   19.5068    0.0000 </r>
       <r>   25.6714    0.0000 </r>
       <r>   37.3097    0.0000 </r>
       <r>   40.8384    0.0000 </r>
       <r>   45.2001    0.0000 </r>
       <r>   52.2843    0.0000 </r>
       <r>   53.4550    0.0000 </r>
      </set>
      <set comment="kpoint 13">
       <r>    9.6841    1.0000 </r>
       <r>   11.8711    1.0000 </r>
       <r>   12.4317    1.0000 </r>
       <r>   13.3083    1.0000 </r>
       <r>   15.3476    1.0000 </r>
       <r>   18.2059    0.0000 </r>
       <r>   28.2590    0.0000 </r>
       <r>   36.7932    0.0000 </r>
       <r>   42.0947    0.0000 </r>
       <r>   46.6029    0.0000 </r>
       <r>   51.6266    0.0000 </r>
       <r>   53.2044    0.0000 </r>
      </set>
      <set comment="kpoint 14">
       <r>    8.7593    1.0000 </r>
       <r>   11.4658    1.0000 </r>
       <r>   12.5869    1.0000 </r>
       <r>   13.6394    1.0000 </r>
       <r>   14.2559    1.0000 </r>
       <r>   16.2225    0.0000 </r>
       <r>   34.2993    0.0000 </r>
       <r>   37.1291    0.0000 </r>
       <r>   44.6262    0.0000 </r>
       <r>   48.4193    0.0000 </r>
       <r>   50.9909    0.0000 </r>
       <r>   52.7838    0.0000 </r>
      </set>
      <set comment="kpoint 15">
       <r>    6.9077    1.0000 </r>
       <r>   11.8337    1.0000 </r>
       <r>   13.0646    1.0000 </r>
       <r>   13.2713    1.0000 </r>
       <r>   14.1254    1.0000 </r>
       <r>   15.0165    1.0000 </r>
       <r>   38.2041    0.0000 </r>
       <r>   40.7686    0.0000 </r>
       <r>   45.9425    0.0000 </r>
       <r>   47.9002    0.0000 </r>
       <r>   52.5156    0.0000 </r>
       <r>   53.0450    0.0000 </r>
      </set>
      <set comment="kpoint 16">
       <r>    8.6864    1.0000 </r>
       <r>   10.6355    1.0000 </r>
       <r>   13.4504    1.0000 </r>
       <r>   14.4131    1.0000 </r>
       <r>   14.9357    1.0000 </r>
       <r>   15.4753    1.0000 </r>
       <r>   36.9650    0.0000 </r>
       <r>   38.7134    0.0000 </r>
       <r>   39.3107    0.0000 </r>
       <r>   42.1416    0.0000 </r>
       <r>   49.8705    0.0000 </r>
       <r>   54.0109    0.0000 </r>
      </set>
      <set comment="kpoint 17">
       <r>    9.3333    1.0000 </r>
       <r>   10.3139    1.0000 </r>
       <r>   13.2984    1.0000 </r>
       <r>   14.8690    1.0000 </r>
       <r>   15.6504    0.9999 </r>
       <r>   17.3860    0.0000 </r>
       <r>   33.1438    0.0000 </r>
       <r>   35.2705    0.0000 </r>
       <r>   37.0254    0.0000 </r>
       <r>   43.7120    0.0000 </r>
       <r>   50.4128    0.0000 </r>
       <r>   53.9902    0.0000 </r>
      </set>
      <set comment="kpoint 18">
       <r>    9.8777    1.0000 </r>
       <r>   10.5776    1.0000 </r>
       <r>   12.7678    1.0000 </r>
       <r>   14.4272    1.0000 </r>
       <r>   15.9973    0.0000 </r>
       <r>   21.3204    0.0000 </r>
       <r>   27.4084    0.0000 </r>
       <r>   33.1086    0.0000 </r>
       <r>   37.0765    0.0000 </r>
       <r>   44.3115    0.0000 </r>
       <r>   52.7851    0.0000 </r>
       <r>   55.8343    0.0000 </r>
      </set>
      <set comment="kpoint 19">
       <r>   10.6594    1.0000 </r>
       <r>   10.8819    1.0000 </r>
       <r>   12.0152    1.0000 </r>
       <r>   14.1123    1.0000 </r>
       <r>   15.4279    1.0000 </r>
       <r>   21.7930    0.0000 </r>
       <r>   27.2743    0.0000 </r>
       <r>   31.6877    0.0000 </r>
       <r>   39.1002    0.0000 </r>
       <r>   45.1730    0.0000 </r>
       <r>   52.9987    0.0000 </r>
       <r>   54.9386    0.0000 </r>
      </set>
      <set comment="kpoint 20">
       <r>   10.2216    1.0000 </r>
       <r>   11.5119    1.0000 </r>
       <r>   11.7785    1.0000 </r>
       <r>   13.8053    1.0000 </r>
       <r>   14.8010    1.0000 </r>
       <r>   18.4580    0.0000 </r>
       <r>   30.6464    0.0000 </r>
       <r>   33.9075    0.0000 </r>
       <r>   41.8307    0.0000 </r>
       <r>   47.3040    0.0000 </r>
       <r>   51.5957    0.0000 </r>
       <r>   52.9711    0.0000 </r>
      </set>
      <set comment="kpoint 21">
       <r>    8.7539    1.0000 </r>
       <r>   11.9392    1.0000 </r>
       <r>   12.6286    1.0000 </r>
       <r>   13.1625    1.0000 </r>
       <r>   14.9411    1.0000 </r>
       <r>   15.9978    0.0000 </r>
       <r>   31.7650    0.0000 </r>
       <r>   39.6208    0.0000 </r>
       <r>   44.2570    0.0000 </r>
       <r>   48.0301    0.0000 </r>
       <r>   51.7583    0.0000 </r>
       <r>   52.9424    0.0000 </r>
      </set>
      <set comment="kpoint 22">
       <r>    8.8193    1.0000 </r>
       <r>    9.7119    1.0000 </r>
       <r>   15.2832    1.0000 </r>
       <r>   15.5774    1.0000 </r>
       <r>   16.0509    0.0000 </r>
       <r>   17.8548    0.0000 </r>
       <r>   31.9010    0.0000 </r>
       <r>   34.3847    0.0000 </r>
       <r>   35.5875    0.0000 </r>
       <r>   41.5289    0.0000 </r>
       <r>   47.9968    0.0000 </r>
       <r>   54.0171    0.0000 </r>
      </set>
      <set comment="kpoint 23">
       <r>    8.9693    1.0000 </r>
       <r>    9.7695    1.0000 </r>
       <r>   14.5806    1.0000 </r>
       <r>   15.5181    1.0000 </r>
       <r>   16.2400    0.0000 </r>
       <r>   20.9960    0.0000 </r>
       <r>   29.5641    0.0000 </r>
       <r>   31.7144    0.0000 </r>
       <r>   34.4071    0.0000 </r>
       <r>   43.1604    0.0000 </r>
       <r>   49.7133    0.0000 </r>
       <r>   54.1650    0.0000 </r>
      </set>
      <set comment="kpoint 24">
       <r>    9.7486    1.0000 </r>
       <r>   10.4337    1.0000 </r>
       <r>   13.0229    1.0000 </r>
       <r>   14.7589    1.0000 </r>
       <r>   15.9450    0.0000 </r>
       <r>   23.7097    0.0000 </r>
       <r>   26.4115    0.0000 </r>
       <r>   30.6254    0.0000 </r>
       <r>   36.4367    0.0000 </r>
       <r>   44.1733    0.0000 </r>
       <r>   52.7463    0.0000 </r>
       <r>   56.7788    0.0000 </r>
      </set>
      <set comment="kpoint 25">
       <r>   10.2048    1.0000 </r>
       <r>   11.1272    1.0000 </r>
       <r>   12.4892    1.0000 </r>
       <r>   13.6856    1.0000 </r>
       <r>   15.7198    0.9702 </r>
       <r>   21.1428    0.0000 </r>
       <r>   25.8150    0.0000 </r>
       <r>   34.5320    0.0000 </r>
       <r>   39.5637    0.0000 </r>
       <r>   45.0988    0.0000 </r>
       <r>   52.7854    0.0000 </r>
       <r>   54.1436    0.0000 </r>
      </set>
      <set comment="kpoint 26">
       <r>    9.2312    1.0000 </r>
       <r>   12.1730    1.0000 </r>
       <r>   12.8652    1.0000 </r>
       <r>   13.4578    1.0000 </r>
       <r>   15.8147    0.2114 </r>
       <r>   17.6607    0.0000 </r>
       <r>   26.4960    0.0000 </r>
       <r>   38.9107    0.0000 </r>
       <r>   43.2825    0.0000 </r>
       <r>   45.9585    0.0000 </r>
       <r>   51.4844    0.0000 </r>
       <r>   52.9880    0.0000 </r>
      </set>
      <set comment="kpoint 27">
       <r>    8.6479    1.0000 </r>
       <r>    9.5061    1.0000 </r>
       <r>   15.7879    0.4831 </r>
       <r>   15.8278    0.1204 </r>
       <r>   16.2636    0.0000 </r>
       <r>   19.4725    0.0000 </r>
       <r>   29.6931    0.0000 </r>
       <r>   33.5363    0.0000 </r>
       <r>   34.7225    0.0000 </r>
       <r>   41.4673    0.0000 </r>
       <r>   47.7674    0.0000 </r>
       <r>   53.9315    0.0000 </r>
      </set>
      <set comment="kpoint 28">
       <r>    9.1535    1.0000 </r>
       <r>    9.9567    1.0000 </r>
       <r>   14.0558    1.0000 </r>
       <r>   15.3439    1.0000 </r>
       <r>   16.0108    0.0000 </r>
       <r>   19.2554    0.0000 </r>
       <r>   31.4923    0.0000 </r>
       <r>   32.8418    0.0000 </r>
       <r>   35.2174    0.0000 </r>
       <r>   43.3255    0.0000 </r>
       <r>   49.9089    0.0000 </r>
       <r>   54.0949    0.0000 </r>
      </set>
      <set comment="kpoint 29">
       <r>    9.8470    1.0000 </r>
       <r>   10.9869    1.0000 </r>
       <r>   12.4678    1.0000 </r>
       <r>   13.9484    1.0000 </r>
       <r>   15.9168    0.0001 </r>
       <r>   18.9379    0.0000 </r>
       <r>   28.6107    0.0000 </r>
       <r>   36.0547    0.0000 </r>
       <r>   38.5657    0.0000 </r>
       <r>   44.7400    0.0000 </r>
       <r>   52.8046    0.0000 </r>
       <r>   54.6635    0.0000 </r>
      </set>
      <set comment="kpoint 30">
       <r>    8.9793    1.0000 </r>
       <r>   10.1026    1.0000 </r>
       <r>   14.3350    1.0000 </r>
       <r>   15.0598    1.0000 </r>
       <r>   15.7730    0.6468 </r>
       <r>   16.1211    0.0000 </r>
       <r>   34.7233    0.0000 </r>
       <r>   36.1015    0.0000 </r>
       <r>   37.1814    0.0000 </r>
       <r>   41.6952    0.0000 </r>
       <r>   48.6061    0.0000 </r>
       <r>   53.9171    0.0000 </r>
      </set>
      <set comment="kpoint 31">
       <r>    9.0480    1.0000 </r>
       <r>   10.7969    1.0000 </r>
       <r>   12.8010    1.0000 </r>
       <r>   14.2653    1.0000 </r>
       <r>   15.0636    1.0000 </r>
       <r>   16.1364    0.0000 </r>
       <r>   34.7525    0.0000 </r>
       <r>   37.3450    0.0000 </r>
       <r>   40.0979    0.0000 </r>
       <r>   44.4447    0.0000 </r>
       <r>   51.3392    0.0000 </r>
       <r>   54.0642    0.0000 </r>
      </set>
      <set comment="kpoint 32">
       <r>    7.6809    1.0000 </r>
       <r>   11.2436    1.0000 </r>
       <r>   13.2905    1.0000 </r>
       <r>   13.7844    1.0000 </r>
       <r>   14.1566    1.0000 </r>
       <r>   15.1746    1.0000 </r>
       <r>   38.8311    0.0000 </r>
       <r>   40.8604    0.0000 </r>
       <r>   41.7697    0.0000 </r>
       <r>   43.4906    0.0000 </r>
       <r>   51.6106    0.0000 </r>
       <r>   54.6236    0.0000 </r>
      </set>
      <set comment="kpoint 33">
       <r>    6.4417    1.0000 </r>
       <r>   12.1392    1.0000 </r>
       <r>   12.9953    1.0000 </r>
       <r>   12.9953    1.0000 </r>
       <r>   14.5565    1.0000 </r>
       <r>   14.5565    1.0000 </r>
       <r>   37.8692    0.0000 </r>
       <r>   42.7476    0.0000 </r>
       <r>   47.9881    0.0000 </r>
       <r>   47.9881    0.0000 </r>
       <r>   52.6814    0.0000 </r>
       <r>   53.4338    0.0000 </r>
      </set>
      <set comment="kpoint 34">
       <r>    7.7329    1.0000 </r>
       <r>   11.7258    1.0000 </r>
       <r>   12.9155    1.0000 </r>
       <r>   13.3916    1.0000 </r>
       <r>   14.0335    1.0000 </r>
       <r>   15.4984    1.0000 </r>
       <r>   36.1673    0.0000 </r>
       <r>   38.8729    0.0000 </r>
       <r>   47.1403    0.0000 </r>
       <r>   49.2639    0.0000 </r>
       <r>   50.2077    0.0000 </r>
       <r>   52.8752    0.0000 </r>
      </set>
      <set comment="kpoint 35">
       <r>    9.5504    1.0000 </r>
       <r>   11.5601    1.0000 </r>
       <r>   12.2789    1.0000 </r>
       <r>   13.5558    1.0000 </r>
       <r>   14.3601    1.0000 </r>
       <r>   17.1961    0.0000 </r>
       <r>   32.3708    0.0000 </r>
       <r>   35.3777    0.0000 </r>
       <r>   44.9917    0.0000 </r>
       <r>   47.0972    0.0000 </r>
       <r>   51.3033    0.0000 </r>
       <r>   52.9323    0.0000 </r>
      </set>
      <set comment="kpoint 36">
       <r>    9.9224    1.0000 </r>
       <r>   11.6112    1.0000 </r>
       <r>   12.6308    1.0000 </r>
       <r>   13.3467    1.0000 </r>
       <r>   15.4525    1.0000 </r>
       <r>   19.5417    0.0000 </r>
       <r>   26.7971    0.0000 </r>
       <r>   35.5394    0.0000 </r>
       <r>   43.2685    0.0000 </r>
       <r>   43.4714    0.0000 </r>
       <r>   52.8216    0.0000 </r>
       <r>   54.7439    0.0000 </r>
      </set>
      <set comment="kpoint 37">
       <r>    9.7366    1.0000 </r>
       <r>   11.3783    1.0000 </r>
       <r>   12.7253    1.0000 </r>
       <r>   13.4652    1.0000 </r>
       <r>   16.0386    0.0000 </r>
       <r>   19.2403    0.0000 </r>
       <r>   26.7086    0.0000 </r>
       <r>   36.8065    0.0000 </r>
       <r>   41.0906    0.0000 </r>
       <r>   43.2881    0.0000 </r>
       <r>   52.8788    0.0000 </r>
       <r>   55.9240    0.0000 </r>
      </set>
      <set comment="kpoint 38">
       <r>    9.2162    1.0000 </r>
       <r>   11.0633    1.0000 </r>
       <r>   12.6186    1.0000 </r>
       <r>   13.7629    1.0000 </r>
       <r>   15.7743    0.6333 </r>
       <r>   16.1664    0.0000 </r>
       <r>   32.2535    0.0000 </r>
       <r>   38.8336    0.0000 </r>
       <r>   40.5726    0.0000 </r>
       <r>   44.1612    0.0000 </r>
       <r>   52.4463    0.0000 </r>
       <r>   55.0899    0.0000 </r>
      </set>
      <set comment="kpoint 39">
       <r>    8.3306    1.0000 </r>
       <r>   11.5395    1.0000 </r>
       <r>   12.7873    1.0000 </r>
       <r>   13.3639    1.0000 </r>
       <r>   14.9881    1.0000 </r>
       <r>   15.3879    1.0000 </r>
       <r>   33.9683    0.0000 </r>
       <r>   40.7432    0.0000 </r>
       <r>   42.9618    0.0000 </r>
       <r>   46.6100    0.0000 </r>
       <r>   52.6414    0.0000 </r>
       <r>   54.0579    0.0000 </r>
      </set>
      <set comment="kpoint 40">
       <r>    9.6483    1.0000 </r>
       <r>   11.1091    1.0000 </r>
       <r>   12.1971    1.0000 </r>
       <r>   14.0814    1.0000 </r>
       <r>   14.8431    1.0000 </r>
       <r>   17.2337    0.0000 </r>
       <r>   32.6063    0.0000 </r>
       <r>   35.5369    0.0000 </r>
       <r>   40.8417    0.0000 </r>
       <r>   47.5036    0.0000 </r>
       <r>   51.8163    0.0000 </r>
       <r>   52.6949    0.0000 </r>
      </set>
      <set comment="kpoint 41">
       <r>   10.5584    1.0000 </r>
       <r>   11.1124    1.0000 </r>
       <r>   11.6448    1.0000 </r>
       <r>   14.2138    1.0000 </r>
       <r>   15.3684    1.0000 </r>
       <r>   20.2211    0.0000 </r>
       <r>   29.1359    0.0000 </r>
       <r>   32.7199    0.0000 </r>
       <r>   37.9233    0.0000 </r>
       <r>   48.6796    0.0000 </r>
       <r>   51.1522    0.0000 </r>
       <r>   52.9200    0.0000 </r>
      </set>
      <set comment="kpoint 42">
       <r>   10.4242    1.0000 </r>
       <r>   10.7897    1.0000 </r>
       <r>   12.1755    1.0000 </r>
       <r>   14.1264    1.0000 </r>
       <r>   15.8712    0.0082 </r>
       <r>   22.3566    0.0000 </r>
       <r>   26.0304    0.0000 </r>
       <r>   33.6011    0.0000 </r>
       <r>   36.1120    0.0000 </r>
       <r>   47.2729    0.0000 </r>
       <r>   52.6127    0.0000 </r>
       <r>   53.3936    0.0000 </r>
      </set>
      <set comment="kpoint 43">
       <r>    9.9354    1.0000 </r>
       <r>   10.7206    1.0000 </r>
       <r>   12.3011    1.0000 </r>
       <r>   14.5930    1.0000 </r>
       <r>   15.4458    1.0000 </r>
       <r>   18.7803    0.0000 </r>
       <r>   31.1077    0.0000 </r>
       <r>   34.0588    0.0000 </r>
       <r>   37.1466    0.0000 </r>
       <r>   46.7578    0.0000 </r>
       <r>   52.0571    0.0000 </r>
       <r>   53.2241    0.0000 </r>
      </set>
      <set comment="kpoint 44">
       <r>    9.5380    1.0000 </r>
       <r>   10.5612    1.0000 </r>
       <r>   12.9632    1.0000 </r>
       <r>   14.2668    1.0000 </r>
       <r>   16.0367    0.0000 </r>
       <r>   17.9277    0.0000 </r>
       <r>   30.7204    0.0000 </r>
       <r>   35.8961    0.0000 </r>
       <r>   38.5855    0.0000 </r>
       <r>   43.0629    0.0000 </r>
       <r>   52.1059    0.0000 </r>
       <r>   54.7150    0.0000 </r>
      </set>
      <set comment="kpoint 45">
       <r>    9.7193    1.0000 </r>
       <r>   10.4302    1.0000 </r>
       <r>   12.8150    1.0000 </r>
       <r>   14.9166    1.0000 </r>
       <r>   15.9255    0.0000 </r>
       <r>   20.8839    0.0000 </r>
       <r>   29.8701    0.0000 </r>
       <r>   32.3069    0.0000 </r>
       <r>   34.3797    0.0000 </r>
       <r>   46.2799    0.0000 </r>
       <r>   52.0139    0.0000 </r>
       <r>   54.1313    0.0000 </r>
      </set>
      <set comment="kpoint 46">
       <r>    9.9782    1.0000 </r>
       <r>   11.0326    1.0000 </r>
       <r>   12.0350    1.0000 </r>
       <r>   14.5076    1.0000 </r>
       <r>   16.2282    0.0000 </r>
       <r>   24.9551    0.0000 </r>
       <r>   27.1288    0.0000 </r>
       <r>   30.0907    0.0000 </r>
       <r>   32.6344    0.0000 </r>
       <r>   49.5866    0.0000 </r>
       <r>   52.7892    0.0000 </r>
       <r>   53.6141    0.0000 </r>
      </set>
      <set comment="kpoint 47">
       <r>   10.2589    1.0000 </r>
       <r>   11.0457    1.0000 </r>
       <r>   11.8173    1.0000 </r>
       <r>   14.4582    1.0000 </r>
       <r>   15.8911    0.0015 </r>
       <r>   22.5238    0.0000 </r>
       <r>   27.9308    0.0000 </r>
       <r>   31.6684    0.0000 </r>
       <r>   34.4581    0.0000 </r>
       <r>   49.5781    0.0000 </r>
       <r>   51.7706    0.0000 </r>
       <r>   52.8585    0.0000 </r>
      </set>
      <set comment="kpoint 48">
       <r>    9.2532    1.0000 </r>
       <r>   10.0063    1.0000 </r>
       <r>   13.9921    1.0000 </r>
       <r>   15.1968    1.0000 </r>
       <r>   16.0688    0.0000 </r>
       <r>   22.1134    0.0000 </r>
       <r>   28.3307    0.0000 </r>
       <r>   30.5961    0.0000 </r>
       <r>   36.4021    0.0000 </r>
       <r>   42.5905    0.0000 </r>
       <r>   51.5921    0.0000 </r>
       <r>   54.7496    0.0000 </r>
      </set>
      <set comment="kpoint 49">
       <r>    9.5037    1.0000 </r>
       <r>   10.2859    1.0000 </r>
       <r>   13.2342    1.0000 </r>
       <r>   14.9827    1.0000 </r>
       <r>   16.2308    0.0000 </r>
       <r>   22.9373    0.0000 </r>
       <r>   28.8415    0.0000 </r>
       <r>   30.3826    0.0000 </r>
       <r>   33.3726    0.0000 </r>
       <r>   46.0528    0.0000 </r>
       <r>   52.0014    0.0000 </r>
       <r>   54.8869    0.0000 </r>
      </set>
      <set comment="kpoint 50">
       <r>    9.4190    1.0000 </r>
       <r>   10.1865    1.0000 </r>
       <r>   13.5743    1.0000 </r>
       <r>   14.7944    1.0000 </r>
       <r>   16.1255    0.0000 </r>
       <r>   20.1127    0.0000 </r>
       <r>   29.4187    0.0000 </r>
       <r>   32.7539    0.0000 </r>
       <r>   37.1540    0.0000 </r>
       <r>   42.6958    0.0000 </r>
       <r>   51.7514    0.0000 </r>
       <r>   54.6740    0.0000 </r>
      </set>
      <set comment="kpoint 51">
       <r>    8.3357    1.0000 </r>
       <r>   12.4879    1.0000 </r>
       <r>   12.8542    1.0000 </r>
       <r>   12.8542    1.0000 </r>
       <r>   15.1633    1.0000 </r>
       <r>   15.1633    1.0000 </r>
       <r>   31.4793    0.0000 </r>
       <r>   41.2290    0.0000 </r>
       <r>   47.5983    0.0000 </r>
       <r>   47.5983    0.0000 </r>
       <r>   51.8579    0.0000 </r>
       <r>   51.8579    0.0000 </r>
      </set>
      <set comment="kpoint 52">
       <r>    9.2231    1.0000 </r>
       <r>   12.3199    1.0000 </r>
       <r>   12.4169    1.0000 </r>
       <r>   13.0761    1.0000 </r>
       <r>   14.9525    1.0000 </r>
       <r>   16.9252    0.0000 </r>
       <r>   29.8711    0.0000 </r>
       <r>   38.1393    0.0000 </r>
       <r>   44.5133    0.0000 </r>
       <r>   47.4123    0.0000 </r>
       <r>   51.7715    0.0000 </r>
       <r>   52.6346    0.0000 </r>
      </set>
      <set comment="kpoint 53">
       <r>   10.5479    1.0000 </r>
       <r>   11.3527    1.0000 </r>
       <r>   11.8660    1.0000 </r>
       <r>   13.8013    1.0000 </r>
       <r>   15.0174    1.0000 </r>
       <r>   19.9169    0.0000 </r>
       <r>   28.8576    0.0000 </r>
       <r>   32.6193    0.0000 </r>
       <r>   43.0569    0.0000 </r>
       <r>   43.3850    0.0000 </r>
       <r>   53.0013    0.0000 </r>
       <r>   55.0902    0.0000 </r>
      </set>
      <set comment="kpoint 54">
       <r>   10.1583    1.0000 </r>
       <r>   10.7077    1.0000 </r>
       <r>   12.5803    1.0000 </r>
       <r>   14.3989    1.0000 </r>
       <r>   15.6293    1.0000 </r>
       <r>   23.5333    0.0000 </r>
       <r>   25.7067    0.0000 </r>
       <r>   31.0154    0.0000 </r>
       <r>   39.3386    0.0000 </r>
       <r>   42.8187    0.0000 </r>
       <r>   52.9787    0.0000 </r>
       <r>   59.2227    0.0000 </r>
      </set>
      <set comment="kpoint 55">
       <r>    9.2770    1.0000 </r>
       <r>   12.0362    1.0000 </r>
       <r>   12.8284    1.0000 </r>
       <r>   13.0768    1.0000 </r>
       <r>   15.9589    0.0000 </r>
       <r>   17.0972    0.0000 </r>
       <r>   28.0027    0.0000 </r>
       <r>   39.1687    0.0000 </r>
       <r>   42.8079    0.0000 </r>
       <r>   44.9135    0.0000 </r>
       <r>   52.6917    0.0000 </r>
       <r>   53.7357    0.0000 </r>
      </set>
      <set comment="kpoint 56">
       <r>   10.1271    1.0000 </r>
       <r>   11.2233    1.0000 </r>
       <r>   12.3276    1.0000 </r>
       <r>   13.7161    1.0000 </r>
       <r>   15.7206    0.9685 </r>
       <r>   20.0718    0.0000 </r>
       <r>   26.9344    0.0000 </r>
       <r>   35.5234    0.0000 </r>
       <r>   38.5830    0.0000 </r>
       <r>   46.9235    0.0000 </r>
       <r>   51.8568    0.0000 </r>
       <r>   53.2302    0.0000 </r>
      </set>
      <set comment="kpoint 57">
[...]
       </set>
       <set comment="band 5">
        <r>  0.0002  0.0000  0.0008  0.0012  0.0024  0.0297  0.0001  0.9546  0.0059 </r>
       </set>
       <set comment="band 6">
        <r>  0.0249  0.0102  0.6722  0.0016  0.0003  0.3306  0.0329  0.0166  0.0026 </r>
       </set>
       <set comment="band 7">
        <r>  0.0013  0.1766  0.0172  0.3108  0.1803  0.0134  0.3205  0.0066  0.0305 </r>
       </set>
       <set comment="band 8">
        <r>  0.2231  0.0231  0.0304  0.2043  0.1642  0.0059  0.4083  0.0015  0.0024 </r>
       </set>
       <set comment="band 9">
        <r>  0.3179  0.1877  0.0069  0.1468  0.0561  0.0014  0.0011  0.0019  0.1494 </r>
       </set>
       <set comment="band 10">
        <r>  0.0246  0.0223  0.0004  0.0668  0.9794  0.0000  0.0101  0.0017  0.0058 </r>
       </set>
       <set comment="band 11">
        <r>  2.4776  0.1702  0.0037  0.0084  0.0539  0.0000  0.1237  0.0002  0.0122 </r>
       </set>
       <set comment="band 12">
        <r>  3.7660  0.1398  0.0064  0.0041  0.0220  0.0106  0.0350  0.0003  0.0003 </r>
       </set>
      </set>
      <set comment="kpoint 50">
       <set comment="band 1">
        <r>  0.0931  0.0113  0.0444  0.0113  0.1019  0.0049  0.7286  0.0049  0.0000 </r>
       </set>
       <set comment="band 2">
        <r>  0.0001  0.0412  0.0005  0.0412  0.8591  0.0077  0.0824  0.0077  0.0000 </r>
       </set>
       <set comment="band 3">
        <r>  0.0494  0.0000  0.2567  0.0000  0.0278  0.3237  0.0472  0.3237  0.0000 </r>
       </set>
       <set comment="band 4">
        <r>  0.0000  0.0089  0.0000  0.0089  0.0000  0.1589  0.0000  0.1589  0.6505 </r>
       </set>
       <set comment="band 5">
        <r>  0.0000  0.0000  0.0000  0.0000  0.0000  0.3337  0.0000  0.3337  0.3274 </r>
       </set>
       <set comment="band 6">
        <r>  0.0884  0.0251  0.4470  0.0251  0.0050  0.1738  0.1239  0.1738  0.0000 </r>
       </set>
       <set comment="band 7">
        <r>  0.0923  0.2357  0.0084  0.2357  0.2121  0.0533  0.1286  0.0533  0.0000 </r>
       </set>
       <set comment="band 8">
        <r>  0.2212  0.0022  0.1711  0.0022  0.0582  0.0036  0.5858  0.0036  0.0000 </r>
       </set>
       <set comment="band 9">
        <r>  0.0000  0.3198  0.0000  0.3198  0.0000  0.0344  0.0000  0.0344  0.1404 </r>
       </set>
       <set comment="band 10">
        <r>  0.1404  0.0006  0.0222  0.0006  0.9678  0.0003  0.0179  0.0003  0.0000 </r>
       </set>
       <set comment="band 11">
        <r>  2.0232  0.0732  0.0260  0.0732  0.1737  0.0067  0.0868  0.0067  0.0000 </r>
       </set>
       <set comment="band 12">
        <r>  4.3010  0.0416  0.0227  0.0416  0.0648  0.0004  0.0119  0.0004  0.0000 </r>
       </set>
      </set>
      <set comment="kpoint 51">
       <set comment="band 1">
        <r>  0.5802  0.0585  0.0585  0.0585  0.1078  0.1078  0.0000  0.1078  0.0000 </r>
       </set>
       <set comment="band 2">
        <r>  0.0733  0.1091  0.1091  0.1091  0.2063  0.2063  0.0000  0.2063  0.0000 </r>
       </set>
       <set comment="band 3">
        <r>  0.0000  0.0003  0.0012  0.0003  0.3667  0.0817  0.4503  0.1029  0.0010 </r>
       </set>
       <set comment="band 4">
        <r>  0.0000  0.0008  0.0000  0.0009  0.0008  0.2858  0.0010  0.2646  0.4503 </r>
       </set>
       <set comment="band 5">
        <r>  0.0000  0.0019  0.0013  0.0001  0.1801  0.0068  0.3289  0.2568  0.2112 </r>
       </set>
       <set comment="band 6">
        <r>  0.0000  0.0003  0.0009  0.0022  0.1157  0.2890  0.2112  0.0390  0.3289 </r>
       </set>
       <set comment="band 7">
        <r>  0.1857  0.0887  0.0887  0.0887  0.2089  0.2089  0.0000  0.2089  0.0000 </r>
       </set>
       <set comment="band 8">
        <r>  0.0069  0.0054  0.0054  0.0054  0.0336  0.0336  0.0000  0.0336  0.0000 </r>
       </set>
       <set comment="band 9">
        <r>  0.0000  0.1953  0.0348  0.0945  0.0675  0.1833  0.0322  0.3789  0.1680 </r>
       </set>
       <set comment="band 10">
        <r>  0.0000  0.0211  0.1816  0.1219  0.3523  0.2365  0.1680  0.0409  0.0322 </r>
       </set>
       <set comment="band 11">
        <r>  0.0000  0.0122  0.0833  0.0431  0.0017  0.0009  0.7625  0.0002  0.0838 </r>
       </set>
       <set comment="band 12">
        <r>  0.0000  0.0802  0.0092  0.0493  0.0002  0.0010  0.0838  0.0016  0.7625 </r>
       </set>
      </set>
      <set comment="kpoint 52">
       <set comment="band 1">
        <r>  0.3968  0.0878  0.0878  0.0002  0.1364  0.2160  0.0027  0.1364  0.0082 </r>
       </set>
       <set comment="band 2">
        <r>  0.0560  0.1168  0.1168  0.1241  0.2401  0.0037  0.0304  0.2401  0.0913 </r>
       </set>
       <set comment="band 3">
        <r>  0.0032  0.0015  0.0015  0.0077  0.0791  0.3516  0.1193  0.0791  0.3578 </r>
       </set>
       <set comment="band 4">
        <r>  0.0000  0.0010  0.0010  0.0000  0.1902  0.0000  0.4607  0.1902  0.1536 </r>
       </set>
       <set comment="band 5">
        <r>  0.0000  0.0018  0.0018  0.0000  0.3059  0.0000  0.2771  0.3059  0.0924 </r>
       </set>
       <set comment="band 6">
        <r>  0.0589  0.0519  0.0519  0.0139  0.0064  0.4293  0.0973  0.0064  0.2920 </r>
       </set>
       <set comment="band 7">
        <r>  0.2182  0.0465  0.0465  0.1825  0.2164  0.1470  0.0062  0.2164  0.0186 </r>
       </set>
       <set comment="band 8">
        <r>  0.0323  0.0118  0.0118  0.1539  0.1334  0.0930  0.0490  0.1334  0.1471 </r>
       </set>
       <set comment="band 9">
        <r>  0.0527  0.1136  0.1136  0.1043  0.0126  0.0185  0.0000  0.0126  0.0001 </r>
       </set>
       <set comment="band 10">
        <r>  0.0000  0.1457  0.1457  0.0000  0.0019  0.0000  0.6228  0.0019  0.2076 </r>
       </set>
       <set comment="band 11">
        <r>  0.3834  0.0105  0.0105  0.0259  0.0135  0.1561  0.0852  0.0135  0.2557 </r>
       </set>
       <set comment="band 12">
        <r>  0.0000  0.0772  0.0772  0.0000  0.4173  0.0000  0.2224  0.4173  0.0741 </r>
       </set>
      </set>
      <set comment="kpoint 53">
       <set comment="band 1">
        <r>  0.1894  0.1101  0.1101  0.0099  0.0571  0.5196  0.0020  0.0571  0.0061 </r>
       </set>
       <set comment="band 2">
        <r>  0.0003  0.0606  0.0606  0.0048  0.0018  0.0965  0.1881  0.0018  0.5643 </r>
       </set>
       <set comment="band 3">
        <r>  0.0082  0.0161  0.0161  0.1501  0.3748  0.0910  0.0007  0.3748  0.0020 </r>
       </set>
       <set comment="band 4">
        <r>  0.0000  0.0071  0.0071  0.0000  0.0433  0.0000  0.6637  0.0433  0.2212 </r>
       </set>
       <set comment="band 5">
        <r>  0.0000  0.0005  0.0005  0.0000  0.4495  0.0000  0.0635  0.4495  0.0212 </r>
       </set>
       <set comment="band 6">
        <r>  0.1464  0.1339  0.1339  0.0087  0.0003  0.3641  0.0615  0.0003  0.1846 </r>
       </set>
       <set comment="band 7">
        <r>  0.1083  0.0084  0.0084  0.4375  0.2517  0.0405  0.0091  0.2517  0.0272 </r>
       </set>
       <set comment="band 8">
        <r>  0.2178  0.0394  0.0394  0.1219  0.0522  0.1202  0.0809  0.0522  0.2427 </r>
       </set>
       <set comment="band 9">
        <r>  0.0000  0.2159  0.2159  0.0000  0.0012  0.0000  0.4868  0.0012  0.1623 </r>
       </set>
       <set comment="band 10">
        <r>  0.1247  0.0741  0.0741  0.0067  0.0001  0.1766  0.0194  0.0001  0.0583 </r>
       </set>
       <set comment="band 11">
        <r>  5.5721  0.0004  0.0004  0.0084  0.0058  0.0116  0.0027  0.0058  0.0082 </r>
       </set>
       <set comment="band 12">
        <r>  0.5969  0.0000  0.0000  0.0760  0.0441  0.0286  0.0076  0.0441  0.0228 </r>
       </set>
      </set>
      <set comment="kpoint 54">
       <set comment="band 1">
        <r>  0.0468  0.0028  0.0028  0.0058  0.0043  0.3619  0.1432  0.0043  0.4296 </r>
       </set>
       <set comment="band 2">
        <r>  0.0178  0.1190  0.1190  0.0003  0.0082  0.4889  0.0676  0.0082  0.2029 </r>
       </set>
       <set comment="band 3">
        <r>  0.0021  0.0022  0.0022  0.2309  0.3834  0.0275  0.0004  0.3834  0.0011 </r>
       </set>
       <set comment="band 4">
        <r>  0.0000  0.0098  0.0098  0.0000  0.0346  0.0000  0.6712  0.0346  0.2237 </r>
       </set>
       <set comment="band 5">
        <r>  0.0000  0.0002  0.0002  0.0000  0.4591  0.0000  0.0517  0.4591  0.0172 </r>
       </set>
       <set comment="band 6">
        <r>  0.0706  0.2060  0.2060  0.1031  0.0196  0.2156  0.0503  0.0196  0.1510 </r>
       </set>
       <set comment="band 7">
        <r>  0.1200  0.0159  0.0159  0.4887  0.2057  0.0624  0.0000  0.2057  0.0000 </r>
       </set>
       <set comment="band 8">
        <r>  0.3344  0.0122  0.0122  0.0655  0.0119  0.0754  0.1207  0.0119  0.3621 </r>
       </set>
       <set comment="band 9">
        <r>  0.0000  0.2815  0.2815  0.0000  0.0026  0.0000  0.2807  0.0026  0.0936 </r>
       </set>
       <set comment="band 10">
        <r>  0.1590  0.0289  0.0289  0.0041  0.0000  0.5620  0.0170  0.0000  0.0509 </r>
       </set>
       <set comment="band 11">
        <r>  6.0112  0.0011  0.0011  0.0000  0.0003  0.0093  0.0025  0.0003  0.0074 </r>
       </set>
       <set comment="band 12">
        <r>  0.0296  0.0502  0.0502  0.0695  0.0401  0.2329  0.0000  0.0401  0.0001 </r>
       </set>
      </set>
      <set comment="kpoint 55">
       <set comment="band 1">
        <r>  0.2937  0.0029  0.0904  0.0029  0.2812  0.1830  0.0304  0.1830  0.0000 </r>
       </set>
       <set comment="band 2">
        <r>  0.0107  0.0813  0.0442  0.0813  0.0209  0.0657  0.6230  0.0657  0.0000 </r>
       </set>
       <set comment="band 3">
        <r>  0.0467  0.0580  0.1050  0.0580  0.5710  0.0618  0.0643  0.0618  0.0000 </r>
       </set>
       <set comment="band 4">
        <r>  0.0000  0.0046  0.0000  0.0046  0.0000  0.2251  0.0000  0.2251  0.5401 </r>
       </set>
       <set comment="band 5">
        <r>  0.0000  0.0004  0.0000  0.0004  0.0000  0.2711  0.0000  0.2711  0.4506 </r>
       </set>
       <set comment="band 6">
        <r>  0.0562  0.0607  0.1422  0.0607  0.0817  0.1637  0.2815  0.1637  0.0000 </r>
       </set>
       <set comment="band 7">
        <r>  0.2963  0.1054  0.0101  0.1054  0.2380  0.1649  0.0126  0.1649  0.0000 </r>
       </set>
       <set comment="band 8">
        <r>  0.0008  0.0029  0.0597  0.0029  0.1476  0.0055  0.3125  0.0055  0.0000 </r>
       </set>
       <set comment="band 9">
        <r>  0.0000  0.2406  0.0000  0.2406  0.0000  0.1300  0.0000  0.1300  0.2337 </r>
       </set>
       <set comment="band 10">
        <r>  0.1193  0.0320  0.2561  0.0320  0.1677  0.0087  0.1760  0.0087  0.0000 </r>
       </set>
       <set comment="band 11">
        <r>  0.9313  0.0001  0.0110  0.0001  0.3871  0.0223  0.5756  0.0223  0.0000 </r>
       </set>
       <set comment="band 12">
        <r>  0.0000  0.0495  0.0000  0.0495  0.0000  0.0959  0.0000  0.0959  0.7016 </r>
       </set>
      </set>
      <set comment="kpoint 56">
       <set comment="band 1">
        <r>  0.1566  0.0148  0.0883  0.0212  0.3488  0.2484  0.0622  0.1127  0.0007 </r>
       </set>
       <set comment="band 2">
        <r>  0.0000  0.0958  0.0179  0.0429  0.0231  0.0685  0.5786  0.0162  0.1427 </r>
       </set>
       <set comment="band 3">
        <r>  0.0217  0.0306  0.0956  0.0799  0.4167  0.3603  0.0033  0.0049  0.0188 </r>
       </set>
       <set comment="band 4">
        <r>  0.0001  0.0031  0.0226  0.0033  0.0350  0.0055  0.1433  0.2442  0.5339 </r>
       </set>
       <set comment="band 5">
        <r>  0.0008  0.0006  0.0040  0.0030  0.0838  0.0658  0.0603  0.5557  0.2154 </r>
       </set>
       <set comment="band 6">
        <r>  0.0754  0.1065  0.2393  0.0723  0.0237  0.2764  0.1628  0.0089  0.0737 </r>
       </set>
       <set comment="band 7">
        <r>  0.2939  0.0408  0.0008  0.2217  0.2532  0.1092  0.0152  0.1460  0.0140 </r>
       </set>
       <set comment="band 8">
        <r>  0.0186  0.0811  0.0181  0.1622  0.1395  0.0978  0.2670  0.0205  0.1483 </r>
       </set>
       <set comment="band 9">
        <r>  0.1741  0.0013  0.2556  0.0994  0.0044  0.0136  0.2319  0.0452  0.0877 </r>
       </set>
       <set comment="band 10">
        <r>  0.0063  0.2441  0.0439  0.0353  0.1299  0.0036  0.0227  0.0045  0.0001 </r>
       </set>
       <set comment="band 11">
        <r>  0.3488  0.0200  0.0012  0.0060  0.3528  0.1974  0.1085  0.0555  0.2958 </r>
       </set>
       <set comment="band 12">
        <r>  5.8015  0.0033  0.0000  0.0007  0.0273  0.0016  0.0000  0.0097  0.0032 </r>
       </set>
      </set>
      <set comment="kpoint 57">
       <set comment="band 1">
        <r>  0.0055  0.0918  0.0086  0.0036  0.0003  0.0331  0.4756  0.0002  0.3621 </r>
       </set>
       <set comment="band 2">
        <r>  0.0401  0.0280  0.1303  0.0063  0.0351  0.7770  0.0180  0.0117  0.0000 </r>
       </set>
       <set comment="band 3">
        <r>  0.0012  0.0026  0.0077  0.1894  0.7219  0.0478  0.0014  0.0624  0.0000 </r>
       </set>
       <set comment="band 4">
        <r>  0.0102  0.0017  0.0124  0.0026  0.0002  0.0037  0.3889  0.0266  0.5351 </r>
       </set>
       <set comment="band 5">
        <r>  0.0010  0.0000  0.0001  0.0046  0.1059  0.0056  0.0105  0.8493  0.0139 </r>
       </set>
       <set comment="band 6">
        <r>  0.0586  0.1352  0.3117  0.0882  0.0328  0.2297  0.1278  0.0013  0.0726 </r>
       </set>
       <set comment="band 7">
        <r>  0.1138  0.0004  0.0388  0.5011  0.3016  0.0613  0.0000  0.0918  0.0024 </r>
       </set>
       <set comment="band 8">
        <r>  0.2350  0.0933  0.0081  0.0748  0.0300  0.0772  0.1918  0.0036  0.3051 </r>
       </set>
       <set comment="band 9">
        <r>  0.2228  0.0633  0.2693  0.0058  0.0002  0.0833  0.2589  0.0032  0.0339 </r>
       </set>
       <set comment="band 10">
        <r>  0.0470  0.1490  0.0362  0.0024  0.0007  0.4632  0.0126  0.0006  0.0760 </r>
       </set>
       <set comment="band 11">
        <r>  2.4049  0.0076  0.0000  0.0298  0.3560  0.0139  0.0091  0.0116  0.0361 </r>
       </set>
       <set comment="band 12">
        <r>  3.6533  0.0061  0.0013  0.0192  0.2163  0.0327  0.0014  0.0108  0.0000 </r>
       </set>
      </set>
      <set comment="kpoint 58">
       <set comment="band 1">
        <r>  0.1004  0.0017  0.0444  0.0017  0.5372  0.0640  0.2224  0.0640  0.0000 </r>
       </set>
       <set comment="band 2">
        <r>  0.0020  0.1038  0.0018  0.1038  0.1435  0.0277  0.5913  0.0277  0.0000 </r>
       </set>
       <set comment="band 3">
        <r>  0.0155  0.0170  0.1897  0.0170  0.2059  0.2872  0.0119  0.2872  0.0000 </r>
       </set>
       <set comment="band 4">
        <r>  0.0000  0.0085  0.0000  0.0085  0.0000  0.1354  0.0000  0.1354  0.6996 </r>
       </set>
       <set comment="band 5">
        <r>  0.0000  0.0003  0.0000  0.0003  0.0000  0.3591  0.0000  0.3591  0.2722 </r>
       </set>
       <set comment="band 6">
        <r>  0.0061  0.1343  0.3088  0.1343  0.0748  0.0888  0.2157  0.0888  0.0000 </r>
       </set>
       <set comment="band 7">
        <r>  0.3366  0.0821  0.0745  0.0821  0.2211  0.1358  0.0095  0.1358  0.0000 </r>
       </set>
       <set comment="band 8">
        <r>  0.1474  0.0082  0.2033  0.0082  0.0608  0.0341  0.5006  0.0341  0.0000 </r>
       </set>
       <set comment="band 9">
        <r>  0.0000  0.2753  0.0000  0.2753  0.0000  0.0236  0.0000  0.0236  0.3426 </r>
       </set>
       <set comment="band 10">
        <r>  0.1557  0.0322  0.0402  0.0322  0.4847  0.0004  0.0241  0.0004  0.0000 </r>
       </set>
       <set comment="band 11">
        <r>  6.0345  0.0004  0.0002  0.0004  0.0024  0.0021  0.0139  0.0021  0.0000 </r>
       </set>
       <set comment="band 12">
        <r>  0.0018  0.0414  0.0384  0.0414  0.4280  0.0069  0.1017  0.0069  0.0000 </r>
       </set>
      </set>
      <set comment="kpoint 59">
       <set comment="band 1">
        <r>  0.2909  0.0062  0.0062  0.0062  0.2551  0.2551  0.0000  0.2551  0.0000 </r>
       </set>
       <set comment="band 2">
        <r>  0.0000  0.0001  0.0001  0.0000  0.2724  0.0395  0.5631  0.1111  0.0198 </r>
       </set>
       <set comment="band 3">
        <r>  0.0000  0.0001  0.0000  0.0001  0.0096  0.2425  0.0198  0.1709  0.5631 </r>
       </set>
       <set comment="band 4">
        <r>  0.0500  0.2988  0.2988  0.2988  0.0276  0.0276  0.0000  0.0276  0.0000 </r>
       </set>
       <set comment="band 5">
        <r>  0.0000  0.0004  0.0003  0.0000  0.2362  0.0084  0.2529  0.3336  0.1598 </r>
       </set>
       <set comment="band 6">
        <r>  0.0000  0.0001  0.0002  0.0005  0.1493  0.3771  0.1598  0.0519  0.2529 </r>
       </set>
       <set comment="band 7">
        <r>  0.4094  0.0274  0.0274  0.0274  0.2094  0.2094  0.0000  0.2094  0.0000 </r>
       </set>
       <set comment="band 8">
        <r>  0.0005  0.0124  0.0124  0.0124  0.0044  0.0044  0.0000  0.0044  0.0000 </r>
       </set>
       <set comment="band 9">
        <r>  0.0000  0.0483  0.2464  0.2197  0.0610  0.0544  0.0216  0.0120  0.0085 </r>
       </set>
       <set comment="band 10">
        <r>  0.0000  0.2946  0.0965  0.1233  0.0239  0.0305  0.0085  0.0730  0.0216 </r>
       </set>
       <set comment="band 11">
        <r>  0.0000  0.0097  0.0128  0.0029  0.2150  0.0481  0.8604  0.1633  0.2770 </r>
       </set>
       <set comment="band 12">
        <r>  0.0000  0.0072  0.0041  0.0140  0.0692  0.2362  0.2770  0.1210  0.8604 </r>
       </set>
      </set>
      <set comment="kpoint 60">
       <set comment="band 1">
        <r>  0.2188  0.0123  0.0123  0.0194  0.2391  0.3269  0.0001  0.2391  0.0003 </r>
       </set>
       <set comment="band 2">
        <r>  0.0002  0.0375  0.0375  0.0066  0.0353  0.1245  0.1782  0.0353  0.5345 </r>
       </set>
       <set comment="band 3">
        <r>  0.0000  0.0026  0.0026  0.0000  0.1840  0.0000  0.4694  0.1840  0.1565 </r>
       </set>
       <set comment="band 4">
        <r>  0.0016  0.1444  0.1444  0.1698  0.1267  0.2890  0.0062  0.1267  0.0187 </r>
       </set>
       <set comment="band 5">
        <r>  0.0000  0.0004  0.0004  0.0000  0.3144  0.0000  0.2708  0.3144  0.0903 </r>
       </set>
       <set comment="band 6">
        <r>  0.0092  0.1490  0.1490  0.1454  0.0311  0.2259  0.0692  0.0311  0.2077 </r>
       </set>
       <set comment="band 7">
        <r>  0.4428  0.0002  0.0002  0.0586  0.2099  0.1913  0.0005  0.2099  0.0016 </r>
       </set>
       <set comment="band 8">
        <r>  0.0137  0.0005  0.0005  0.1243  0.0507  0.0871  0.0722  0.0507  0.2166 </r>
       </set>
       <set comment="band 9">
        <r>  0.0870  0.0887  0.0887  0.1885  0.0201  0.0249  0.0085  0.0201  0.0255 </r>
       </set>
       <set comment="band 10">
        <r>  0.0000  0.2237  0.2237  0.0000  0.0315  0.0000  0.3388  0.0315  0.1129 </r>
       </set>
       <set comment="band 11">
        <r>  1.0488  0.0003  0.0003  0.0003  0.0000  0.3840  0.1374  0.0000  0.4123 </r>
       </set>
       <set comment="band 12">
        <r>  0.0000  0.0525  0.0525  0.0000  0.2696  0.0000  0.4506  0.2696  0.1502 </r>
       </set>
      </set>
     </set>
    </set>
   </array>
  </projected>
 </calculation>
 <structure name="finalpos" >
  <crystal>
   <varray name="basis" >
    <v>       0.00000000       1.57884080       1.57884080 </v>
    <v>       1.57884080       0.00000000       1.57884080 </v>
    <v>       1.57884080       1.57884080       0.00000000 </v>
   </varray>
   <i name="volume">      7.87127379 </i>
   <varray name="rec_basis" >
    <v>      -0.31668804       0.31668804       0.31668804 </v>
    <v>       0.31668804      -0.31668804       0.31668804 </v>
    <v>       0.31668804       0.31668804      -0.31668804 </v>
   </varray>
  </crystal>
  <varray name="positions" >
   <v>       0.00000000       0.00000000       0.00000000 </v>
  </varray>
 </structure>
</modeling>
