   2   2   0   0
  0.1579990E+02  0.2760000E-09  0.2760000E-09  0.4790000E-09  0.5000000E-15
  1.000000000000000E-004
  CAR 
 Pt-hcp                                  
     35.86333462    -45.37327384  301     11.12608243      1.00000000
    -45.373  0.0000E+00  0.0000E+00
    -45.102  0.0000E+00  0.0000E+00
    -44.832  0.0000E+00  0.0000E+00
    -44.561  0.0000E+00  0.0000E+00
    -44.290  0.0000E+00  0.0000E+00
    -44.019  0.0000E+00  0.0000E+00
    -43.749  0.0000E+00  0.0000E+00
    -43.478  0.0000E+00  0.0000E+00
    -43.207  0.0000E+00  0.0000E+00
    -42.936  0.0000E+00  0.0000E+00
    -42.665  0.0000E+00  0.0000E+00
    -42.395  0.0000E+00  0.0000E+00
    -42.124  0.0000E+00  0.0000E+00
    -41.853  0.1180E-06  0.3195E-07
    -41.582  0.6766E+01  0.1832E+01
    -41.311  0.2329E+02  0.8138E+01
    -41.041  0.1426E+02  0.1200E+02
    -40.770  0.4661E-03  0.1200E+02
    -40.499  0.0000E+00  0.1200E+02
    -40.228  0.0000E+00  0.1200E+02
    -39.957  0.0000E+00  0.1200E+02
    -39.687  0.0000E+00  0.1200E+02
    -39.416  0.0000E+00  0.1200E+02
    -39.145  0.0000E+00  0.1200E+02
    -38.874  0.0000E+00  0.1200E+02
    -38.604  0.0000E+00  0.1200E+02
    -38.333  0.0000E+00  0.1200E+02
    -38.062  0.0000E+00  0.1200E+02
    -37.791  0.0000E+00  0.1200E+02
    -37.520  0.0000E+00  0.1200E+02
    -37.250  0.0000E+00  0.1200E+02
    -36.979  0.0000E+00  0.1200E+02
    -36.708  0.0000E+00  0.1200E+02
    -36.437  0.0000E+00  0.1200E+02
    -36.166  0.0000E+00  0.1200E+02
    -35.896  0.0000E+00  0.1200E+02
    -35.625  0.0000E+00  0.1200E+02
    -35.354  0.0000E+00  0.1200E+02
    -35.083  0.0000E+00  0.1200E+02
    -34.813  0.0000E+00  0.1200E+02
    -34.542  0.0000E+00  0.1200E+02
    -34.271  0.0000E+00  0.1200E+02
    -34.000  0.0000E+00  0.1200E+02
    -33.729  0.0000E+00  0.1200E+02
    -33.459  0.0000E+00  0.1200E+02
    -33.188  0.0000E+00  0.1200E+02
    -32.917  0.0000E+00  0.1200E+02
    -32.646  0.0000E+00  0.1200E+02
    -32.375  0.0000E+00  0.1200E+02
    -32.105  0.0000E+00  0.1200E+02
    -31.834  0.0000E+00  0.1200E+02
    -31.563  0.0000E+00  0.1200E+02
    -31.292  0.0000E+00  0.1200E+02
    -31.021  0.0000E+00  0.1200E+02
    -30.751  0.0000E+00  0.1200E+02
    -30.480  0.0000E+00  0.1200E+02
    -30.209  0.0000E+00  0.1200E+02
    -29.938  0.0000E+00  0.1200E+02
    -29.668  0.0000E+00  0.1200E+02
    -29.397  0.0000E+00  0.1200E+02
    -29.126  0.0000E+00  0.1200E+02
    -28.855  0.0000E+00  0.1200E+02
    -28.584  0.0000E+00  0.1200E+02
    -28.314  0.0000E+00  0.1200E+02
    -28.043  0.0000E+00  0.1200E+02
    -27.772  0.0000E+00  0.1200E+02
    -27.501  0.0000E+00  0.1200E+02
    -27.230  0.0000E+00  0.1200E+02
    -26.960  0.0000E+00  0.1200E+02
    -26.689  0.0000E+00  0.1200E+02
    -26.418  0.0000E+00  0.1200E+02
    -26.147  0.0000E+00  0.1200E+02
    -25.876  0.0000E+00  0.1200E+02
    -25.606  0.0000E+00  0.1200E+02
    -25.335  0.0000E+00  0.1200E+02
    -25.064  0.0000E+00  0.1200E+02
    -24.793  0.0000E+00  0.1200E+02
    -24.523  0.0000E+00  0.1200E+02
    -24.252  0.0000E+00  0.1200E+02
    -23.981  0.0000E+00  0.1200E+02
    -23.710  0.0000E+00  0.1200E+02
    -23.439  0.0000E+00  0.1200E+02
    -23.169  0.0000E+00  0.1200E+02
    -22.898  0.0000E+00  0.1200E+02
    -22.627  0.0000E+00  0.1200E+02
    -22.356  0.0000E+00  0.1200E+02
    -22.085  0.0000E+00  0.1200E+02
    -21.815  0.0000E+00  0.1200E+02
    -21.544  0.0000E+00  0.1200E+02
    -21.273  0.0000E+00  0.1200E+02
    -21.002  0.0000E+00  0.1200E+02
    -20.732  0.0000E+00  0.1200E+02
    -20.461  0.0000E+00  0.1200E+02
    -20.190  0.0000E+00  0.1200E+02
    -19.919  0.0000E+00  0.1200E+02
    -19.648  0.0000E+00  0.1200E+02
    -19.378  0.0000E+00  0.1200E+02
    -19.107  0.0000E+00  0.1200E+02
    -18.836  0.0000E+00  0.1200E+02
    -18.565  0.0000E+00  0.1200E+02
    -18.294  0.0000E+00  0.1200E+02
    -18.024  0.0000E+00  0.1200E+02
    -17.753  0.0000E+00  0.1200E+02
    -17.482  0.0000E+00  0.1200E+02
    -17.211  0.0000E+00  0.1200E+02
    -16.940  0.0000E+00  0.1200E+02
    -16.670  0.0000E+00  0.1200E+02
    -16.399  0.0000E+00  0.1200E+02
    -16.128  0.0000E+00  0.1200E+02
    -15.857  0.0000E+00  0.1200E+02
    -15.587  0.0000E+00  0.1200E+02
    -15.316  0.0000E+00  0.1200E+02
    -15.045  0.0000E+00  0.1200E+02
    -14.774  0.0000E+00  0.1200E+02
    -14.503  0.0000E+00  0.1200E+02
    -14.233  0.0000E+00  0.1200E+02
    -13.962  0.0000E+00  0.1200E+02
    -13.691  0.0000E+00  0.1200E+02
    -13.420  0.0000E+00  0.1200E+02
    -13.149  0.0000E+00  0.1200E+02
    -12.879  0.0000E+00  0.1200E+02
    -12.608  0.0000E+00  0.1200E+02
    -12.337  0.0000E+00  0.1200E+02
    -12.066  0.0000E+00  0.1200E+02
    -11.795  0.0000E+00  0.1200E+02
    -11.525  0.0000E+00  0.1200E+02
    -11.254  0.0000E+00  0.1200E+02
    -10.983  0.0000E+00  0.1200E+02
    -10.712  0.0000E+00  0.1200E+02
    -10.442  0.0000E+00  0.1200E+02
    -10.171  0.0000E+00  0.1200E+02
     -9.900  0.0000E+00  0.1200E+02
     -9.629  0.0000E+00  0.1200E+02
     -9.358  0.0000E+00  0.1200E+02
     -9.088  0.0000E+00  0.1200E+02
     -8.817  0.0000E+00  0.1200E+02
     -8.546  0.0000E+00  0.1200E+02
     -8.275  0.0000E+00  0.1200E+02
     -8.004  0.0000E+00  0.1200E+02
     -7.734  0.0000E+00  0.1200E+02
     -7.463  0.0000E+00  0.1200E+02
     -7.192  0.0000E+00  0.1200E+02
     -6.921  0.0000E+00  0.1200E+02
     -6.650  0.0000E+00  0.1200E+02
     -6.380  0.0000E+00  0.1200E+02
     -6.109  0.0000E+00  0.1200E+02
     -5.838  0.0000E+00  0.1200E+02
     -5.567  0.0000E+00  0.1200E+02
     -5.297  0.0000E+00  0.1200E+02
     -5.026  0.0000E+00  0.1200E+02
     -4.755  0.0000E+00  0.1200E+02
     -4.484  0.0000E+00  0.1200E+02
     -4.213  0.0000E+00  0.1200E+02
     -3.943  0.0000E+00  0.1200E+02
     -3.672  0.0000E+00  0.1200E+02
     -3.401  0.0000E+00  0.1200E+02
     -3.130  0.0000E+00  0.1200E+02
     -2.859  0.0000E+00  0.1200E+02
     -2.589  0.0000E+00  0.1200E+02
     -2.318  0.0000E+00  0.1200E+02
     -2.047  0.0000E+00  0.1200E+02
     -1.776  0.0000E+00  0.1200E+02
     -1.506  0.0000E+00  0.1200E+02
     -1.235  0.0000E+00  0.1200E+02
     -0.964  0.0000E+00  0.1200E+02
     -0.693  0.0000E+00  0.1200E+02
     -0.422  0.0000E+00  0.1200E+02
     -0.152  0.0000E+00  0.1200E+02
      0.119  0.0000E+00  0.1200E+02
      0.390  0.0000E+00  0.1200E+02
      0.661  0.0000E+00  0.1200E+02
      0.932  0.0000E+00  0.1200E+02
      1.202  0.3551E-11  0.1200E+02
      1.473  0.8840E-02  0.1200E+02
      1.744  0.2694E-01  0.1201E+02
      2.015  0.1761E+00  0.1206E+02
      2.286  0.5072E-01  0.1207E+02
      2.556  0.1545E+00  0.1211E+02
      2.827  0.1699E+00  0.1216E+02
      3.098  0.3095E+00  0.1224E+02
      3.369  0.1283E+00  0.1228E+02
      3.639  0.2908E+00  0.1236E+02
      3.910  0.4005E+00  0.1246E+02
      4.181  0.6902E+00  0.1265E+02
      4.452  0.7576E+00  0.1286E+02
      4.723  0.1595E+01  0.1329E+02
      4.993  0.2535E+01  0.1398E+02
      5.264  0.1865E+01  0.1448E+02
      5.535  0.2493E+01  0.1516E+02
      5.806  0.1866E+01  0.1566E+02
      6.077  0.3316E+01  0.1656E+02
      6.347  0.3282E+01  0.1745E+02
      6.618  0.2616E+01  0.1816E+02
      6.889  0.3314E+01  0.1905E+02
      7.160  0.2612E+01  0.1976E+02
      7.431  0.2716E+01  0.2050E+02
      7.701  0.3635E+01  0.2148E+02
      7.972  0.3689E+01  0.2248E+02
      8.243  0.3128E+01  0.2333E+02
      8.514  0.4196E+01  0.2446E+02
      8.784  0.3123E+01  0.2531E+02
      9.055  0.3031E+01  0.2613E+02
      9.326  0.1904E+01  0.2664E+02
      9.597  0.2563E+01  0.2734E+02
      9.868  0.2528E+01  0.2802E+02
     10.138  0.2753E+01  0.2877E+02
     10.409  0.2429E+01  0.2943E+02
     10.680  0.2588E+01  0.3013E+02
     10.951  0.3860E+01  0.3117E+02
     11.222  0.4388E+01  0.3236E+02
     11.492  0.2481E+01  0.3303E+02
     11.763  0.1345E+01  0.3340E+02
     12.034  0.7011E+00  0.3359E+02
     12.305  0.3276E+00  0.3367E+02
     12.576  0.1658E+00  0.3372E+02
     12.846  0.2073E+00  0.3378E+02
     13.117  0.1044E+01  0.3406E+02
     13.388  0.1082E+01  0.3435E+02
     13.659  0.5694E+00  0.3451E+02
     13.929  0.1195E+00  0.3454E+02
     14.200  0.3826E+00  0.3464E+02
     14.471  0.7017E+00  0.3483E+02
     14.742  0.1946E+00  0.3488E+02
     15.013  0.7406E+00  0.3509E+02
     15.283  0.4539E+00  0.3521E+02
     15.554  0.4961E+00  0.3534E+02
     15.825  0.9468E+00  0.3560E+02
     16.096  0.4475E+00  0.3572E+02
     16.367  0.4862E+00  0.3585E+02
     16.637  0.2866E+00  0.3593E+02
     16.908  0.2343E+00  0.3599E+02
     17.179  0.2309E+00  0.3606E+02
     17.450  0.5220E+00  0.3620E+02
     17.720  0.1087E+01  0.3649E+02
     17.991  0.9108E+00  0.3674E+02
     18.262  0.8830E+00  0.3698E+02
     18.533  0.7031E+00  0.3717E+02
     18.804  0.8597E+00  0.3740E+02
     19.074  0.7469E+00  0.3760E+02
     19.345  0.4340E+00  0.3772E+02
     19.616  0.5343E+00  0.3786E+02
     19.887  0.6952E+00  0.3805E+02
     20.158  0.1030E+01  0.3833E+02
     20.428  0.9446E+00  0.3859E+02
     20.699  0.5930E+00  0.3875E+02
     20.970  0.2879E+00  0.3883E+02
     21.241  0.6814E+00  0.3901E+02
     21.512  0.1030E+01  0.3929E+02
     21.782  0.6858E+00  0.3947E+02
     22.053  0.5489E+00  0.3962E+02
     22.324  0.3174E+00  0.3971E+02
     22.595  0.1048E+01  0.3999E+02
     22.865  0.3321E+00  0.4008E+02
     23.136  0.3808E+00  0.4019E+02
     23.407  0.1176E+01  0.4050E+02
     23.678  0.1175E+01  0.4082E+02
     23.949  0.9745E+00  0.4109E+02
     24.219  0.6524E+00  0.4126E+02
     24.490  0.7822E+00  0.4148E+02
     24.761  0.3953E+00  0.4158E+02
     25.032  0.9090E+00  0.4183E+02
     25.303  0.2074E+01  0.4239E+02
     25.573  0.1877E+01  0.4290E+02
     25.844  0.1393E+01  0.4328E+02
     26.115  0.1542E+01  0.4369E+02
     26.386  0.1095E+01  0.4399E+02
     26.657  0.1137E+01  0.4430E+02
     26.927  0.1175E+01  0.4462E+02
     27.198  0.1943E+01  0.4514E+02
     27.469  0.1977E+01  0.4568E+02
     27.740  0.9983E+00  0.4595E+02
     28.010  0.1319E+01  0.4630E+02
     28.281  0.1234E+01  0.4664E+02
     28.552  0.7869E+00  0.4685E+02
     28.823  0.8719E+00  0.4709E+02
     29.094  0.5878E+00  0.4725E+02
     29.364  0.6850E+00  0.4743E+02
     29.635  0.1876E+00  0.4748E+02
     29.906  0.6088E+00  0.4765E+02
     30.177  0.3632E+00  0.4775E+02
     30.448  0.1269E+00  0.4778E+02
     30.718  0.5932E+00  0.4794E+02
     30.989  0.6754E-01  0.4796E+02
     31.260  0.7284E-01  0.4798E+02
     31.531  0.1700E-01  0.4798E+02
     31.802  0.3839E-01  0.4799E+02
     32.072  0.4940E-04  0.4800E+02
     32.343  0.1842E-01  0.4800E+02
     32.614  0.0000E+00  0.4800E+02
     32.885  0.0000E+00  0.4800E+02
     33.155  0.0000E+00  0.4800E+02
     33.426  0.0000E+00  0.4800E+02
     33.697  0.0000E+00  0.4800E+02
     33.968  0.0000E+00  0.4800E+02
     34.239  0.0000E+00  0.4800E+02
     34.509  0.0000E+00  0.4800E+02
     34.780  0.0000E+00  0.4800E+02
     35.051  0.0000E+00  0.4800E+02
     35.322  0.0000E+00  0.4800E+02
     35.593  0.0000E+00  0.4800E+02
     35.863  0.0000E+00  0.4800E+02
