    2    2    1    1
  0.1579990E+02  0.2760000E-09  0.2760000E-09  0.4790000E-09  0.5000000E-15
  1.000000000000000E-004
  CAR 
 Pt-hcp                                  
     32     70     24
 
  0.0000000E+00  0.0000000E+00  0.0000000E+00  0.1250000E-02
      1        -41.469209   1.000000
      2        -41.301366   1.000000
      3        -41.301365   1.000000
      4        -41.261663   1.000000
      5        -41.261662   1.000000
      6        -41.140771   1.000000
      7          1.419857   1.000000
      8          4.067532   1.000000
      9          7.205087   1.000000
     10          7.711931   1.000000
     11          7.711932   1.000000
     12          8.076337   1.000000
     13          8.076338   1.000000
     14          9.346120   1.000000
     15          9.346121   1.000000
     16         10.422211   1.000000
     17         10.922802   1.000000
     18         10.922802   1.000000
     19         15.807151   0.000000
     20         26.226966   0.000000
     21         26.807199   0.000000
     22         28.376512   0.000000
     23         32.170761   0.000000
     24         32.170762   0.000000
 
  0.1000000E+00 -0.1387779E-16  0.0000000E+00  0.7500000E-02
      1        -41.457090   1.000000
      2        -41.337237   1.000000
      3        -41.311752   1.000000
      4        -41.298569   1.000000
      5        -41.269443   1.000000
      6        -41.143764   1.000000
      7          1.781236   1.000000
      8          4.395219   1.000000
      9          7.141573   1.000000
     10          7.718246   1.000000
     11          7.927311   1.000000
     12          7.987832   1.000000
     13          8.338639   1.000000
     14          8.761915   1.000000
     15          9.176147   1.000000
     16          9.321086   1.000000
     17         10.984770   0.999968
     18         12.681078   0.000000
     19         15.771023   0.000000
     20         26.659880   0.000000
     21         27.335687   0.000000
     22         28.704791   0.000000
     23         30.545035   0.000000
     24         30.664435   0.000000
 
  0.2000000E+00 -0.2775558E-16  0.0000000E+00  0.7500000E-02
      1        -41.432538   1.000000
      2        -41.424546   1.000000
      3        -41.393696   1.000000
      4        -41.338850   1.000000
      5        -41.288937   1.000000
      6        -41.152287   1.000000
      7          2.766495   1.000000
      8          5.116110   1.000000
      9          6.916967   1.000000
     10          7.400419   1.000000
     11          7.435980   1.000000
     12          8.337344   1.000000
     13          8.768613   1.000000
     14          8.799072   1.000000
     15          8.808544   1.000000
     16          9.075958   1.000000
     17         11.083409   0.886279
     18         14.850694   0.000000
     19         15.703243   0.000000
     20         25.159675   0.000000
     21         27.957084   0.000000
     22         28.237277   0.000000
     23         29.111840   0.000000
     24         29.311397   0.000000
 
  0.3000000E+00  0.0000000E+00  0.0000000E+00  0.7500000E-02
      1        -41.548193   1.000000
      2        -41.509801   1.000000
      3        -41.378353   1.000000
      4        -41.371889   1.000000
      5        -41.313879   1.000000
      6        -41.168264   1.000000
      7          3.971771   1.000000
      8          5.241822   1.000000
      9          6.347833   1.000000
     10          7.179306   1.000000
     11          7.537524   1.000000
     12          8.297611   1.000000
     13          8.409705   1.000000
     14          9.485354   1.000000
     15          9.890268   1.000000
     16         10.119743   1.000000
     17         11.136483   0.384310
     18         15.825910   0.000000
     19         17.060290   0.000000
     20         21.437010   0.000000
     21         25.855591   0.000000
     22         26.401185   0.000000
     23         27.993999   0.000000
     24         29.102628   0.000000
 
  0.4000000E+00 -0.2775558E-16  0.0000000E+00  0.7500000E-02
      1        -41.642316   1.000000
      2        -41.600179   1.000000
      3        -41.397388   1.000000
      4        -41.333167   1.000000
      5        -41.333051   1.000000
      6        -41.189861   1.000000
      7          4.631758   1.000000
      8          4.928339   1.000000
      9          5.695965   1.000000
     10          7.696900   1.000000
     11          7.923559   1.000000
     12          8.133183   1.000000
     13          8.349965   1.000000
     14         10.971901   0.999994
     15         11.147626   0.271149
     16         11.147799   0.269526
     17         11.356459   0.000000
     18         16.633011   0.000000
     19         17.799636   0.000000
     20         19.023569   0.000000
     21         23.533309   0.000000
     22         23.947898   0.000000
     23         25.048545   0.000000
     24         27.827251   0.000000
 
  0.5000000E+00 -0.2775558E-16  0.0000000E+00  0.3750000E-02
      1        -41.678058   1.000000
      2        -41.635253   1.000000
      3        -41.407506   1.000000
      4        -41.341299   1.000000
      5        -41.310414   1.000000
      6        -41.203174   1.000000
      7          4.722870   1.000000
      8          4.800304   1.000000
      9          5.475587   1.000000
     10          7.788008   1.000000
     11          8.033839   1.000000
     12          8.218603   1.000000
     13          8.553872   1.000000
     14         11.146694   0.279950
     15         11.426463   0.000000
     16         11.626541   0.000000
     17         13.401988   0.000000
     18         14.875950   0.000000
     19         18.393438   0.000000
     20         19.971792   0.000000
     21         20.628520   0.000000
     22         23.168541   0.000000
     23         24.402493   0.000000
     24         27.253238   0.000000
 
  0.1000000E+00  0.1000000E+00  0.0000000E+00  0.7500000E-02
      1        -41.434614   1.000000
      2        -41.397068   1.000000
      3        -41.371334   1.000000
      4        -41.324725   1.000000
      5        -41.287302   1.000000
      6        -41.148949   1.000000
      7          2.462926   1.000000
      8          4.967628   1.000000
      9          6.875975   1.000000
     10          7.632923   1.000000
     11          7.802018   1.000000
     12          7.936603   1.000000
     13          8.570803   1.000000
     14          8.595143   1.000000
     15          8.925958   1.000000
     16          9.236387   1.000000
     17         11.005908   0.999662
     18         14.278480   0.000000
     19         15.721070   0.000000
     20         26.578320   0.000000
     21         27.186587   0.000000
     22         28.241194   0.000000
     23         29.263980   0.000000
     24         30.010820   0.000000
 
  0.2000000E+00  0.1000000E+00  0.0000000E+00  0.1500000E-01
      1        -41.494920   1.000000
      2        -41.469278   1.000000
      3        -41.395395   1.000000
      4        -41.362681   1.000000
      5        -41.317510   1.000000
      6        -41.161730   1.000000
      7          3.632742   1.000000
      8          5.579829   1.000000
      9          6.699843   1.000000
     10          6.756803   1.000000
     11          7.361488   1.000000
     12          8.100696   1.000000
     13          8.546767   1.000000
     14          8.870278   1.000000
     15          9.626391   1.000000
     16         10.026917   1.000000
     17         11.005430   0.999678
     18         15.768537   0.000000
     19         16.361491   0.000000
     20         23.338166   0.000000
     21         25.244524   0.000000
     22         27.395392   0.000000
     23         29.293146   0.000000
     24         29.941242   0.000000
 
  0.3000000E+00  0.1000000E+00  0.0000000E+00  0.1500000E-01
      1        -41.595657   1.000000
      2        -41.561127   1.000000
      3        -41.401579   1.000000
      4        -41.348650   1.000000
      5        -41.345870   1.000000
      6        -41.181888   1.000000
      7          4.689545   1.000000
      8          5.341523   1.000000
      9          5.986315   1.000000
     10          7.195614   1.000000
     11          7.803153   1.000000
     12          7.812741   1.000000
     13          8.381657   1.000000
     14          9.644554   1.000000
     15         10.707371   1.000000
     16         10.991489   0.999930
     17         11.449339   0.000000
     18         16.364701   0.000000
     19         18.490363   0.000000
     20         19.512648   0.000000
     21         23.136860   0.000000
     22         25.938114   0.000000
     23         26.241661   0.000000
     24         28.243777   0.000000
 
  0.4000000E+00  0.1000000E+00  0.0000000E+00  0.1500000E-01
      1        -41.658309   1.000000
      2        -41.616737   1.000000
      3        -41.425679   1.000000
      4        -41.363481   1.000000
      5        -41.310460   1.000000
      6        -41.203188   1.000000
      7          4.996179   1.000000
      8          5.086139   1.000000
      9          5.585483   1.000000
     10          7.745214   1.000000
     11          7.983190   1.000000
     12          7.983423   1.000000
     13          8.312910   1.000000
     14         10.878256   1.000000
     15         10.974005   0.999992
     16         11.258900   0.000086
     17         13.152630   0.000000
     18         16.105082   0.000000
     19         18.049779   0.000000
     20         20.156783   0.000000
     21         20.927906   0.000000
     22         23.275811   0.000000
     23         24.870486   0.000000
     24         27.174765   0.000000
 
  0.2000000E+00  0.2000000E+00  0.0000000E+00  0.7500000E-02
      1        -41.552593   1.000000
      2        -41.551391   1.000000
      3        -41.407104   1.000000
      4        -41.367584   1.000000
      5        -41.354525   1.000000
      6        -41.178703   1.000000
      7          4.843146   1.000000
      8          6.185374   1.000000
      9          6.188561   1.000000
     10          6.249284   1.000000
     11          7.575922   1.000000
     12          7.613963   1.000000
     13          8.573230   1.000000
     14          8.907133   1.000000
     15         10.691450   1.000000
     16         10.824112   1.000000
     17         11.530692   0.000000
     18         16.339978   0.000000
     19         18.367054   0.000000
     20         20.966424   0.000000
     21         21.880089   0.000000
     22         26.688186   0.000000
     23         27.888026   0.000000
     24         28.383646   0.000000
 
  0.3000000E+00  0.2000000E+00  0.0000000E+00  0.1500000E-01
      1        -41.612840   1.000000
      2        -41.584546   1.000000
      3        -41.457880   1.000000
      4        -41.410730   1.000000
      5        -41.310811   1.000000
      6        -41.203210   1.000000
      7          5.626251   1.000000
      8          5.806241   1.000000
      9          5.839239   1.000000
     10          6.985317   1.000000
     11          7.468293   1.000000
     12          8.087221   1.000000
     13          8.125561   1.000000
     14          9.697831   1.000000
     15         10.685565   1.000000
     16         11.126797   0.491940
     17         13.204821   0.000000
     18         17.360819   0.000000
     19         18.287058   0.000000
     20         19.924840   0.000000
     21         20.449273   0.000000
     22         24.850995   0.000000
     23         25.901871   0.000000
     24         26.893614   0.000000
 
  0.4000000E+00  0.2000000E+00  0.0000000E+00  0.7500000E-02
      1        -41.635179   1.000000
      2        -41.593617   1.000000
      3        -41.482793   1.000000
      4        -41.427132   1.000000
      5        -41.286625   1.000000
      6        -41.220168   1.000000
      7          5.671521   1.000000
      8          5.687817   1.000000
      9          5.742207   1.000000
     10          7.559155   1.000000
     11          7.608157   1.000000
     12          7.708866   1.000000
     13          8.392504   1.000000
     14         10.458577   1.000000
     15         10.634600   1.000000
     16         10.932051   1.000000
     17         14.799871   0.000000
     18         15.313772   0.000000
     19         18.623502   0.000000
     20         20.187697   0.000000
     21         21.657968   0.000000
     22         22.682882   0.000000
     23         25.101057   0.000000
     24         26.392329   0.000000
 
  0.3000000E+00  0.3000000E+00  0.0000000E+00  0.7500000E-02
      1        -41.598957   1.000000
      2        -41.567082   1.000000
      3        -41.519407   1.000000
      4        -41.478980   1.000000
      5        -41.271917   1.000000
      6        -41.231014   1.000000
      7          5.766092   1.000000
      8          6.177899   1.000000
      9          6.433222   1.000000
     10          6.869282   1.000000
     11          7.420331   1.000000
     12          7.687318   1.000000
     13          8.481198   1.000000
     14         10.058395   1.000000
     15         10.468529   1.000000
     16         10.771847   1.000000
     17         14.810295   0.000000
     18         16.076075   0.000000
     19         17.501535   0.000000
     20         21.018886   0.000000
     21         22.582378   0.000000
     22         23.803656   0.000000
     23         24.621145   0.000000
     24         25.005641   0.000000
 
  0.0000000E+00  0.0000000E+00  0.1250000E+00  0.2500000E-02
      1        -41.456181   1.000000
      2        -41.299509   1.000000
      3        -41.299508   1.000000
      4        -41.262681   1.000000
      5        -41.262680   1.000000
      6        -41.153382   1.000000
      7          1.553383   1.000000
      8          4.047660   1.000000
      9          7.172065   1.000000
     10          7.693088   1.000000
     11          7.693088   1.000000
     12          8.038409   1.000000
     13          8.038410   1.000000
     14          9.443660   1.000000
     15          9.443660   1.000000
     16          9.806889   1.000000
     17         10.896032   1.000000
     18         10.896032   1.000000
     19         16.672365   0.000000
     20         25.765984   0.000000
     21         27.315044   0.000000
     22         28.092832   0.000000
     23         31.620194   0.000000
     24         31.620194   0.000000
 
  0.1000000E+00 -0.1387779E-16  0.1250000E+00  0.1500000E-01
      1        -41.446260   1.000000
      2        -41.335268   1.000000
      3        -41.309926   1.000000
      4        -41.300949   1.000000
      5        -41.270741   1.000000
      6        -41.154797   1.000000
      7          1.912187   1.000000
      8          4.381617   1.000000
      9          7.144352   1.000000
     10          7.633585   1.000000
     11          7.825773   1.000000
     12          7.959975   1.000000
     13          8.296106   1.000000
     14          8.707356   1.000000
     15          9.291126   1.000000
     16          9.322027   1.000000
     17         10.946841   1.000000
     18         12.143671   0.000000
     19         16.759792   0.000000
     20         26.266553   0.000000
     21         27.740870   0.000000
     22         28.476690   0.000000
     23         29.941989   0.000000
     24         30.586219   0.000000
 
  0.2000000E+00 -0.2775558E-16  0.1250000E+00  0.1500000E-01
      1        -41.442788   1.000000
      2        -41.404074   1.000000
      3        -41.394700   1.000000
      4        -41.336871   1.000000
      5        -41.290681   1.000000
      6        -41.160765   1.000000
      7          2.882220   1.000000
      8          5.125373   1.000000
      9          6.948450   1.000000
     10          7.143519   1.000000
     11          7.444515   1.000000
     12          8.226018   1.000000
     13          8.611636   1.000000
     14          8.952828   1.000000
     15          9.017866   1.000000
     16          9.128009   1.000000
     17         11.024022   0.998053
     18         13.663425   0.000000
     19         17.171327   0.000000
     20         25.256675   0.000000
     21         27.740032   0.000000
     22         28.393669   0.000000
     23         28.598541   0.000000
     24         29.730126   0.000000
 
  0.3000000E+00  0.0000000E+00  0.1250000E+00  0.1500000E-01
      1        -41.550589   1.000000
      2        -41.513511   1.000000
      3        -41.369820   1.000000
      4        -41.367315   1.000000
      5        -41.315959   1.000000
      6        -41.174322   1.000000
      7          4.025142   1.000000
      8          5.269610   1.000000
      9          6.328204   1.000000
     10          7.014255   1.000000
     11          7.565019   1.000000
     12          8.403321   1.000000
     13          8.471159   1.000000
     14          9.539568   1.000000
     15          9.911352   1.000000
     16         10.071948   1.000000
     17         11.066426   0.954231
     18         14.751369   0.000000
     19         18.166729   0.000000
     20         21.706970   0.000000
     21         26.094779   0.000000
     22         26.130217   0.000000
     23         27.695262   0.000000
     24         29.562208   0.000000
 
  0.4000000E+00 -0.2775558E-16  0.1250000E+00  0.1500000E-01
      1        -41.643405   1.000000
      2        -41.604121   1.000000
      3        -41.395300   1.000000
      4        -41.336424   1.000000
      5        -41.325098   1.000000
      6        -41.193239   1.000000
      7          4.567721   1.000000
      8          4.935673   1.000000
      9          5.849697   1.000000
     10          7.066686   1.000000
     11          8.142834   1.000000
     12          8.217123   1.000000
     13          8.894993   1.000000
     14         10.889358   1.000000
     15         10.986986   0.999958
     16         11.245792   0.000355
     17         11.269157   0.000026
     18         15.781253   0.000000
     19         17.840759   0.000000
     20         19.839510   0.000000
     21         23.258612   0.000000
     22         24.223810   0.000000
     23         25.371314   0.000000
     24         28.048847   0.000000
 
  0.5000000E+00 -0.2775558E-16  0.1250000E+00  0.7500000E-02
      1        -41.679229   1.000000
      2        -41.639289   1.000000
      3        -41.405244   1.000000
      4        -41.344383   1.000000
      5        -41.303943   1.000000
      6        -41.205216   1.000000
      7          4.645398   1.000000
      8          4.752095   1.000000
      9          5.696381   1.000000
     10          7.129906   1.000000
     11          8.123110   1.000000
     12          8.292918   1.000000
     13          9.345035   1.000000
     14         10.970265   0.999995
     15         11.446013   0.000000
     16         11.620088   0.000000
     17         13.165331   0.000000
     18         14.763969   0.000000
     19         18.254295   0.000000
     20         18.999187   0.000000
     21         21.855932   0.000000
     22         23.458034   0.000000
     23         24.534914   0.000000
     24         27.532997   0.000000
 
  0.1000000E+00  0.1000000E+00  0.1250000E+00  0.1500000E-01
      1        -41.431913   1.000000
      2        -41.388128   1.000000
      3        -41.372821   1.000000
      4        -41.324444   1.000000
      5        -41.289225   1.000000
      6        -41.158701   1.000000
      7          2.585836   1.000000
      8          4.969230   1.000000
      9          6.907250   1.000000
     10          7.356752   1.000000
     11          7.714251   1.000000
     12          7.942142   1.000000
     13          8.503832   1.000000
     14          8.725855   1.000000
     15          9.015974   1.000000
     16          9.306605   1.000000
     17         10.954514   0.999999
     18         13.311934   0.000000
     19         17.016047   0.000000
     20         26.532691   0.000000
     21         27.254584   0.000000
     22         28.139353   0.000000
     23         28.812066   0.000000
     24         30.265763   0.000000
 
  0.2000000E+00  0.1000000E+00  0.1250000E+00  0.3000000E-01
      1        -41.498087   1.000000
      2        -41.472100   1.000000
      3        -41.382226   1.000000
      4        -41.361418   1.000000
      5        -41.319184   1.000000
      6        -41.168606   1.000000
      7          3.723503   1.000000
      8          5.613584   1.000000
      9          6.578157   1.000000
     10          6.765946   1.000000
     11          7.333064   1.000000
     12          7.994543   1.000000
     13          8.708628   1.000000
     14          8.850871   1.000000
     15          9.736718   1.000000
     16          9.974898   1.000000
     17         10.954449   0.999999
     18         14.479019   0.000000
     19         17.818096   0.000000
     20         23.517623   0.000000
     21         25.373751   0.000000
     22         27.313529   0.000000
     23         28.692730   0.000000
     24         30.520171   0.000000
 
  0.3000000E+00  0.1000000E+00  0.1250000E+00  0.3000000E-01
      1        -41.596983   1.000000
      2        -41.564596   1.000000
      3        -41.400268   1.000000
      4        -41.349488   1.000000
      5        -41.337841   1.000000
      6        -41.185579   1.000000
      7          4.673571   1.000000
      8          5.375622   1.000000
      9          6.050259   1.000000
     10          6.919192   1.000000
     11          7.773409   1.000000
     12          8.152374   1.000000
     13          8.395993   1.000000
     14          9.661371   1.000000
     15         10.749138   1.000000
     16         10.809390   1.000000
     17         11.507900   0.000000
     18         15.569351   0.000000
     19         18.752912   0.000000
     20         20.264270   0.000000
     21         23.248388   0.000000
     22         25.413942   0.000000
     23         26.592169   0.000000
     24         28.440265   0.000000
 
  0.4000000E+00  0.1000000E+00  0.1250000E+00  0.3000000E-01
      1        -41.659116   1.000000
      2        -41.620589   1.000000
      3        -41.424188   1.000000
      4        -41.366342   1.000000
      5        -41.303405   1.000000
      6        -41.204919   1.000000
      7          4.874350   1.000000
      8          5.073152   1.000000
      9          5.839556   1.000000
     10          7.072158   1.000000
     11          7.859636   1.000000
     12          8.418835   1.000000
     13          8.822010   1.000000
     14         10.765240   1.000000
     15         10.881737   1.000000
     16         11.300754   0.000000
     17         13.105625   0.000000
     18         15.910233   0.000000
     19         17.699111   0.000000
     20         20.051660   0.000000
     21         21.425418   0.000000
     22         23.538303   0.000000
     23         25.084610   0.000000
     24         27.257801   0.000000
 
  0.2000000E+00  0.2000000E+00  0.1250000E+00  0.1500000E-01
      1        -41.554338   1.000000
      2        -41.553597   1.000000
      3        -41.406834   1.000000
      4        -41.371360   1.000000
      5        -41.342340   1.000000
      6        -41.183141   1.000000
      7          4.877192   1.000000
      8          6.026041   1.000000
      9          6.268205   1.000000
     10          6.350394   1.000000
     11          7.586095   1.000000
     12          7.595006   1.000000
     13          8.455929   1.000000
     14          9.060933   1.000000
     15         10.612725   1.000000
     16         10.801706   1.000000
     17         11.601526   0.000000
     18         15.566012   0.000000
     19         18.981980   0.000000
     20         21.407112   0.000000
     21         22.042465   0.000000
     22         26.528804   0.000000
     23         27.045893   0.000000
     24         29.035613   0.000000
 
  0.3000000E+00  0.2000000E+00  0.1250000E+00  0.3000000E-01
      1        -41.613681   1.000000
      2        -41.587979   1.000000
      3        -41.457969   1.000000
      4        -41.413690   1.000000
      5        -41.303103   1.000000
      6        -41.204334   1.000000
      7          5.467809   1.000000
      8          5.852879   1.000000
      9          6.022906   1.000000
     10          6.784393   1.000000
     11          7.607828   1.000000
     12          7.980629   1.000000
     13          8.268035   1.000000
     14          9.759880   1.000000
     15         10.484827   1.000000
     16         11.228976   0.001806
     17         13.247775   0.000000
     18         17.363760   0.000000
     19         17.640658   0.000000
     20         20.003690   0.000000
     21         21.266717   0.000000
     22         24.351101   0.000000
     23         25.905828   0.000000
     24         26.948293   0.000000
 
  0.4000000E+00  0.2000000E+00  0.1250000E+00  0.1500000E-01
      1        -41.635706   1.000000
      2        -41.596946   1.000000
      3        -41.482104   1.000000
      4        -41.430092   1.000000
      5        -41.280257   1.000000
      6        -41.219709   1.000000
      7          5.414229   1.000000
      8          5.733594   1.000000
      9          6.114687   1.000000
     10          7.004818   1.000000
     11          7.468259   1.000000
     12          8.173285   1.000000
     13          8.560979   1.000000
     14         10.426720   1.000000
     15         10.484546   1.000000
     16         11.007820   0.999589
     17         14.879253   0.000000
     18         15.347696   0.000000
     19         18.697711   0.000000
     20         19.868736   0.000000
     21         20.843672   0.000000
     22         23.786457   0.000000
     23         25.362325   0.000000
     24         25.629754   0.000000
 
  0.3000000E+00  0.3000000E+00  0.1250000E+00  0.1500000E-01
      1        -41.597664   1.000000
      2        -41.570430   1.000000
      3        -41.521573   1.000000
      4        -41.482175   1.000000
      5        -41.267336   1.000000
      6        -41.229609   1.000000
      7          5.800078   1.000000
      8          6.157316   1.000000
      9          6.467089   1.000000
     10          6.754226   1.000000
     11          7.545965   1.000000
     12          7.587080   1.000000
     13          8.491006   1.000000
     14         10.151216   1.000000
     15         10.258336   1.000000
     16         10.866221   1.000000
     17         14.905635   0.000000
     18         16.219424   0.000000
     19         17.752560   0.000000
     20         20.147917   0.000000
     21         22.779164   0.000000
     22         22.877729   0.000000
     23         24.732588   0.000000
     24         26.028880   0.000000
 
  0.0000000E+00  0.0000000E+00  0.2500000E+00  0.2500000E-02
      1        -41.422207   1.000000
      2        -41.295415   1.000000
      3        -41.295414   1.000000
      4        -41.267510   1.000000
      5        -41.267509   1.000000
      6        -41.189841   1.000000
      7          1.937321   1.000000
      8          3.949806   1.000000
      9          7.097044   1.000000
     10          7.662945   1.000000
     11          7.662946   1.000000
     12          7.939750   1.000000
     13          7.939750   1.000000
     14          8.662109   1.000000
     15          9.695649   1.000000
     16          9.695649   1.000000
     17         10.801558   1.000000
     18         10.801558   1.000000
     19         18.582858   0.000000
     20         25.239734   0.000000
     21         27.482246   0.000000
     22         27.607846   0.000000
     23         31.113010   0.000000
     24         31.113010   0.000000
 
  0.1000000E+00 -0.1387779E-16  0.2500000E+00  0.1500000E-01
      1        -41.415992   1.000000
      2        -41.327886   1.000000
      3        -41.307248   1.000000
      4        -41.305183   1.000000
      5        -41.275533   1.000000
      6        -41.187422   1.000000
      7          2.289660   1.000000
      8          4.298658   1.000000
      9          7.128007   1.000000
     10          7.484804   1.000000
     11          7.561531   1.000000
     12          7.916320   1.000000
     13          8.191789   1.000000
     14          8.303990   1.000000
     15          9.575820   1.000000
     16          9.576936   1.000000
     17         10.823963   1.000000
     18         11.428824   0.000000
     19         18.737816   0.000000
     20         25.742116   0.000000
     21         27.874863   0.000000
     22         27.991080   0.000000
     23         29.661293   0.000000
     24         30.541926   0.000000
 
  0.2000000E+00 -0.2775558E-16  0.2500000E+00  0.1500000E-01
      1        -41.446510   1.000000
      2        -41.406106   1.000000
      3        -41.365014   1.000000
      4        -41.331702   1.000000
      5        -41.296442   1.000000
      6        -41.186751   1.000000
      7          3.217260   1.000000
      8          5.097576   1.000000
      9          6.768796   1.000000
     10          7.055902   1.000000
     11          7.218769   1.000000
     12          8.028567   1.000000
     13          8.528913   1.000000
     14          8.879923   1.000000
     15          9.432891   1.000000
     16          9.454324   1.000000
     17         10.846574   1.000000
     18         12.440342   0.000000
     19         19.196389   0.000000
     20         25.538924   0.000000
     21         27.160879   0.000000
     22         27.931151   0.000000
     23         28.865298   0.000000
     24         29.875293   0.000000
 
  0.3000000E+00  0.0000000E+00  0.2500000E+00  0.1500000E-01
      1        -41.553377   1.000000
      2        -41.522726   1.000000
      3        -41.363224   1.000000
      4        -41.337368   1.000000
      5        -41.322193   1.000000
      6        -41.192252   1.000000
      7          4.186916   1.000000