 vasp.6.3.2 27Jun22 (build Aug 12 2022 00:53:59) complex                        
  
 executed on               tv2STD date 2024.11.30  15:58:03
 running   24 mpi-ranks, with    1 threads/rank
 distrk:  each k-point on   24 cores,    1 groups
 distr:  one band on NCORE=   1 cores,   24 groups


--------------------------------------------------------------------------------------------------------


 INCAR:
   SYSTEM = Pt-hcp
   NWRITE = 2    write-flag
   ISTART = 0    job   : 0-new, 1-cont, 2-samecut
   ICHARG = 2    charge: 0-wave, 1-file, 2-atom, >10-const
   INIWAV = 1    electr: 0-lowe 1-rand  2-diag
   ENCUT = 425     energy cutoff in eV
   PREC = Accurate      normal | accurate
   ADDGRID = .FALSE.  (use fine grid)
   NELM = 100     number of ELM steps
   EDIFF = 1E-06    energy stopping-criterion for ELM
   LREAL = .FALSE.      real-space projection (.FALSE., .TRUE., On, Auto)
   ALGO = Normal     Normal, Fast, Very_Fast
   LWAVE = .FALSE.
   LCHARG = .FALSE.
   NSW = 0       max number of geometry steps
   IBRION = -1     ionic relax: 0-MD, 1-quasi-Newton, 2-CG, 3-Damped MD
   EDIFFG = -0.02  force (eV/A) stopping-criterion for geometry steps
   ISIF = 2     (1:force\=y stress\=trace only ions\=y shape\=n volume\=n)
   ISYM = 1     (1-use symmetry, 0-no symmetry)
   ISMEAR = 0     (-1-Fermi, 1-Methfessel/Paxton)
   SIGMA = 0.05  broadening in eV

 POTCAR:    PAW_PBE Pt_pv 12Dec2005               
 POTCAR:    PAW_PBE Pt_pv 12Dec2005               
   SHA256 =  e5abf7e8cd8db70d0153315afc5ad66b6e3eeee29cc2d5b91b16730957c1d208 Pt_pv/POTCAR          
   COPYR  = (c) Copyright 12Dec2005 Georg Kresse                                                    
   COPYR  = This file is part of the software VASP. Any use, copying, and all other rights are regul
   COPYR  = If you do not have a valid VASP license, you may not use, copy or distribute this file. 
   VRHFIN =Pt: 5ps1d9                                                                               
   LEXCH  = PE                                                                                      
   EATOM  =  2428.2504 eV,  178.4714 Ry                                                             
                                                                                                    
   TITEL  = PAW_PBE Pt_pv 12Dec2005                                                                 
   LULTRA =        F    use ultrasoft PP ?                                                          
   IUNSCR =        1    unscreen: 0-lin 1-nonlin 2-no                                               
   RPACOR =    2.000    partial core radius                                                         
   POMASS =  195.080; ZVAL   =   16.000    mass and valenz                                          
   RCORE  =    2.200    outmost cutoff radius                                                       
   RWIGS  =    2.200; RWIGS  =    1.164    wigner-seitz radius (au A)                               
   ENMAX  =  294.607; ENMIN  =  220.955 eV                                                          
   ICORE  =        3    local potential                                                             
   LCOR   =        T    correct aug charges                                                         
   LPAW   =        T    paw PP                                                                      
   EAUG   =  527.014                                                                                
   DEXC   =    0.000                                                                                
   RMAX   =    2.247    core radius for proj-oper                                                   
   RAUG   =    1.300    factor for augmentation sphere                                              
   RDEP   =    2.279    radius for radial grids                                                     
   RDEPT  =    1.878    core radius for aug-charge                                                  
                                                                                                    
   Atomic configuration                                                                             
   16 entries                                                                                       
     n  l   j            E        occ.                                                              
     1  0  0.50    -78401.1885   2.0000                                                             
     2  0  0.50    -13770.7750   2.0000                                                             
     2  1  1.50    -11931.0468   6.0000                                                             
     3  0  0.50     -3234.7234   2.0000                                                             
     3  1  1.50     -2699.2216   6.0000                                                             
     3  2  2.50     -2119.5714  10.0000                                                             
     4  0  0.50      -695.1528   2.0000                                                             
     4  1  1.50      -519.6034   6.0000                                                             
     4  2  2.50      -306.6786  10.0000                                                             
     4  3  3.50       -70.1041  14.0000                                                             
     5  0  0.50      -101.7747   2.0000                                                             
     5  1  1.50       -55.9873   6.0000                                                             
     6  1  1.50        -6.8029   0.0000                                                             
     5  2  2.50        -6.1423   9.0000                                                             
     6  0  0.50        -5.6573   1.0000                                                             
     5  3  2.50        -1.3606   0.0000                                                             
   Description                                                                                      
     l       E           TYP  RCUT    TYP  RCUT                                                     
     1    -55.9873477     23  2.000                                                                 
     1     27.2116520     23  2.000                                                                 
     2     -6.1423404     23  2.200                                                                 
     2     -4.6754623     23  2.200                                                                 
     0     -5.6573207     23  2.200                                                                 
     0     47.6203910     23  2.200                                                                 
     3      6.8029130     23  2.200                                                                 
  local pseudopotential read in
  partial core-charges read in
  partial kinetic energy density read in
  atomic valenz-charges read in
  non local Contribution for L=           1  read in
    real space projection operators read in
  non local Contribution for L=           1  read in
    real space projection operators read in
  non local Contribution for L=           2  read in
    real space projection operators read in
  non local Contribution for L=           2  read in
    real space projection operators read in
  non local Contribution for L=           0  read in
    real space projection operators read in
  non local Contribution for L=           0  read in
    real space projection operators read in
    PAW grid and wavefunctions read in
 
   number of l-projection  operators is LMAX  =           6
   number of lm-projection operators is LMMAX =          18
 
  PAW_PBE Pt_pv 12Dec2005               :
 energy of atom  1       EATOM=-2428.2504
 kinetic energy error for atom=    0.0554 (will be added to EATOM!!)
 
 
 POSCAR: Pt
  positions in cartesian coordinates
  No initial velocities read in
 exchange correlation table for  LEXCH =        8
   RHO(1)=    0.500       N(1)  =     2000
   RHO(2)=  100.500       N(2)  =     4000
 


--------------------------------------------------------------------------------------------------------


 ion  position               nearest neighbor table
   1  0.000  0.000  0.000-
   2  0.333  0.667  0.500-
 
  LATTYP: Found a hexagonal cell.
 ALAT       =     2.7600000000
 C/A-ratio  =     1.7355072464
  
  Lattice vectors:
  
 A1 = (   2.7600000000,   0.0000000000,   0.0000000000)
 A2 = (  -1.3800000000,   2.3902301144,   0.0000000000)
 A3 = (   0.0000000000,   0.0000000000,   4.7900000000)


Analysis of symmetry for initial positions (statically):
=====================================================================
 Subroutine PRICEL returns:
 Original cell was already a primitive cell.
 

 Routine SETGRP: Setting up the symmetry group for a 
 hexagonal supercell.


 Subroutine GETGRP returns: Found 24 space group operations
 (whereof 12 operations were pure point group operations)
 out of a pool of 24 trial point group operations.


The static configuration has the point symmetry D_3h.
 The point group associated with its full space group is D_6h.


Analysis of symmetry for dynamics (positions and initial velocities):
=====================================================================
 Subroutine PRICEL returns:
 Original cell was already a primitive cell.
 

 Routine SETGRP: Setting up the symmetry group for a 
 hexagonal supercell.


 Subroutine GETGRP returns: Found 24 space group operations
 (whereof 12 operations were pure point group operations)
 out of a pool of 24 trial point group operations.


The dynamic configuration has the point symmetry D_3h.
 The point group associated with its full space group is D_6h.


 Subroutine INISYM returns: Found 24 space group operations
 (whereof 12 operations are pure point group operations),
 and found     1 'primitive' translations


----------------------------------------------------------------------------------------

                                     Primitive cell                                     

  volume of cell :      31.5998

  direct lattice vectors                    reciprocal lattice vectors
     2.760000000  0.000000000  0.000000000     0.362318841  0.209184880  0.000000000
    -1.380000000  2.390230114  0.000000000     0.000000000  0.418369760  0.000000000
     0.000000000  0.000000000  4.790000000     0.000000000  0.000000000  0.208768267

  length of vectors
     2.760000000  2.760000000  4.790000000     0.418369760  0.418369760  0.208768267

  position of ions in fractional coordinates (direct lattice)
     0.000000000  0.000000000  0.000000000
     0.333333333  0.666666667  0.500000000

  ion indices of the primitive-cell ions
   primitive index   ion index
                 1           1
                 2           2

----------------------------------------------------------------------------------------

 
 
 KPOINTS: Automatic mesh                          

Automatic generation of k-mesh.
 Grid dimensions read from file:
 generate k-points for:   10   10    8

 Generating k-lattice:

  Cartesian coordinates                     Fractional coordinates (reciprocal lattice)
     0.036231884  0.020918488  0.000000000     0.100000000  0.000000000  0.000000000
     0.000000000  0.041836976  0.000000000     0.000000000  0.100000000  0.000000000
     0.000000000  0.000000000  0.026096033     0.000000000  0.000000000  0.125000000

  Length of vectors
     0.041836976  0.041836976  0.026096033

  Shift w.r.t. Gamma in fractional coordinates (k-lattice)
     0.000000000  0.000000000  0.000000000

 
 Subroutine IBZKPT returns following result:
 ===========================================
 
 Found     70 irreducible k-points:
 
 Following reciprocal coordinates:
            Coordinates               Weight
  0.000000  0.000000  0.000000      1.000000
  0.100000 -0.000000  0.000000      6.000000
  0.200000 -0.000000  0.000000      6.000000
  0.300000  0.000000  0.000000      6.000000
  0.400000 -0.000000  0.000000      6.000000
  0.500000 -0.000000  0.000000      3.000000
  0.100000  0.100000  0.000000      6.000000
  0.200000  0.100000  0.000000     12.000000
  0.300000  0.100000  0.000000     12.000000
  0.400000  0.100000  0.000000     12.000000
  0.200000  0.200000  0.000000      6.000000
  0.300000  0.200000  0.000000     12.000000
  0.400000  0.200000  0.000000      6.000000
  0.300000  0.300000  0.000000      6.000000
  0.000000  0.000000  0.125000      2.000000
  0.100000 -0.000000  0.125000     12.000000
  0.200000 -0.000000  0.125000     12.000000
  0.300000  0.000000  0.125000     12.000000
  0.400000 -0.000000  0.125000     12.000000
  0.500000 -0.000000  0.125000      6.000000
  0.100000  0.100000  0.125000     12.000000
  0.200000  0.100000  0.125000     24.000000
  0.300000  0.100000  0.125000     24.000000
  0.400000  0.100000  0.125000     24.000000
  0.200000  0.200000  0.125000     12.000000
  0.300000  0.200000  0.125000     24.000000
  0.400000  0.200000  0.125000     12.000000
  0.300000  0.300000  0.125000     12.000000
  0.000000  0.000000  0.250000      2.000000
  0.100000 -0.000000  0.250000     12.000000
  0.200000 -0.000000  0.250000     12.000000
  0.300000  0.000000  0.250000     12.000000
  0.400000 -0.000000  0.250000     12.000000
  0.500000 -0.000000  0.250000      6.000000
  0.100000  0.100000  0.250000     12.000000
  0.200000  0.100000  0.250000     24.000000
  0.300000  0.100000  0.250000     24.000000
  0.400000  0.100000  0.250000     24.000000
  0.200000  0.200000  0.250000     12.000000
  0.300000  0.200000  0.250000     24.000000
  0.400000  0.200000  0.250000     12.000000
  0.300000  0.300000  0.250000     12.000000
  0.000000  0.000000  0.375000      2.000000
  0.100000 -0.000000  0.375000     12.000000
  0.200000 -0.000000  0.375000     12.000000
  0.300000  0.000000  0.375000     12.000000
  0.400000 -0.000000  0.375000     12.000000
  0.500000 -0.000000  0.375000      6.000000
  0.100000  0.100000  0.375000     12.000000
  0.200000  0.100000  0.375000     24.000000
  0.300000  0.100000  0.375000     24.000000
  0.400000  0.100000  0.375000     24.000000
  0.200000  0.200000  0.375000     12.000000
  0.300000  0.200000  0.375000     24.000000
  0.400000  0.200000  0.375000     12.000000
  0.300000  0.300000  0.375000     12.000000
  0.000000  0.000000  0.500000      1.000000
  0.100000 -0.000000  0.500000      6.000000
  0.200000 -0.000000  0.500000      6.000000
  0.300000  0.000000  0.500000      6.000000
  0.400000 -0.000000  0.500000      6.000000
  0.500000 -0.000000  0.500000      3.000000
  0.100000  0.100000  0.500000      6.000000
  0.200000  0.100000  0.500000     12.000000
  0.300000  0.100000  0.500000     12.000000
  0.400000  0.100000  0.500000     12.000000
  0.200000  0.200000  0.500000      6.000000
  0.300000  0.200000  0.500000     12.000000
  0.400000  0.200000  0.500000      6.000000
  0.300000  0.300000  0.500000      6.000000
 
 Following cartesian coordinates:
            Coordinates               Weight
  0.000000  0.000000  0.000000      1.000000
  0.036232  0.020918  0.000000      6.000000
  0.072464  0.041837  0.000000      6.000000
  0.108696  0.062755  0.000000      6.000000
  0.144928  0.083674  0.000000      6.000000
  0.181159  0.104592  0.000000      3.000000
  0.036232  0.062755  0.000000      6.000000
  0.072464  0.083674  0.000000     12.000000
  0.108696  0.104592  0.000000     12.000000
  0.144928  0.125511  0.000000     12.000000
  0.072464  0.125511  0.000000      6.000000
  0.108696  0.146429  0.000000     12.000000
  0.144928  0.167348  0.000000      6.000000
  0.108696  0.188266  0.000000      6.000000
  0.000000  0.000000  0.026096      2.000000
  0.036232  0.020918  0.026096     12.000000
  0.072464  0.041837  0.026096     12.000000
  0.108696  0.062755  0.026096     12.000000
  0.144928  0.083674  0.026096     12.000000
  0.181159  0.104592  0.026096      6.000000
  0.036232  0.062755  0.026096     12.000000
  0.072464  0.083674  0.026096     24.000000
  0.108696  0.104592  0.026096     24.000000
  0.144928  0.125511  0.026096     24.000000
  0.072464  0.125511  0.026096     12.000000
  0.108696  0.146429  0.026096     24.000000
  0.144928  0.167348  0.026096     12.000000
  0.108696  0.188266  0.026096     12.000000
  0.000000  0.000000  0.052192      2.000000
  0.036232  0.020918  0.052192     12.000000
  0.072464  0.041837  0.052192     12.000000
  0.108696  0.062755  0.052192     12.000000
  0.144928  0.083674  0.052192     12.000000
  0.181159  0.104592  0.052192      6.000000
  0.036232  0.062755  0.052192     12.000000
  0.072464  0.083674  0.052192     24.000000
  0.108696  0.104592  0.052192     24.000000
  0.144928  0.125511  0.052192     24.000000
  0.072464  0.125511  0.052192     12.000000
  0.108696  0.146429  0.052192     24.000000
  0.144928  0.167348  0.052192     12.000000
  0.108696  0.188266  0.052192     12.000000
  0.000000  0.000000  0.078288      2.000000
  0.036232  0.020918  0.078288     12.000000
  0.072464  0.041837  0.078288     12.000000
  0.108696  0.062755  0.078288     12.000000
  0.144928  0.083674  0.078288     12.000000
  0.181159  0.104592  0.078288      6.000000
  0.036232  0.062755  0.078288     12.000000
  0.072464  0.083674  0.078288     24.000000
  0.108696  0.104592  0.078288     24.000000
  0.144928  0.125511  0.078288     24.000000
  0.072464  0.125511  0.078288     12.000000
  0.108696  0.146429  0.078288     24.000000
  0.144928  0.167348  0.078288     12.000000
  0.108696  0.188266  0.078288     12.000000
  0.000000  0.000000  0.104384      1.000000
  0.036232  0.020918  0.104384      6.000000
  0.072464  0.041837  0.104384      6.000000
  0.108696  0.062755  0.104384      6.000000
  0.144928  0.083674  0.104384      6.000000
  0.181159  0.104592  0.104384      3.000000
  0.036232  0.062755  0.104384      6.000000
  0.072464  0.083674  0.104384     12.000000
  0.108696  0.104592  0.104384     12.000000
  0.144928  0.125511  0.104384     12.000000
  0.072464  0.125511  0.104384      6.000000
  0.108696  0.146429  0.104384     12.000000
  0.144928  0.167348  0.104384      6.000000
  0.108696  0.188266  0.104384      6.000000
 


--------------------------------------------------------------------------------------------------------




 Dimension of arrays:
   k-points           NKPTS =     70   k-points in BZ     NKDIM =     70   number of bands    NBANDS=     24
   number of dos      NEDOS =    301   number of ions     NIONS =      2
   non local maximal  LDIM  =      6   non local SUM 2l+1 LMDIM =     18
   total plane-waves  NPLWV =  12800
   max r-space proj   IRMAX =      1   max aug-charges    IRDMAX=  13989
   dimension x,y,z NGX =    20 NGY =   20 NGZ =   32
   dimension x,y,z NGXF=    40 NGYF=   40 NGZF=   64
   support grid    NGXF=    40 NGYF=   40 NGZF=   64
   ions per type =               2
   NGX,Y,Z   is equivalent  to a cutoff of  12.05, 12.05, 11.11 a.u.
   NGXF,Y,Z  is equivalent  to a cutoff of  24.09, 24.09, 22.21 a.u.

 SYSTEM =  Pt-hcp                                  
 POSCAR =  Pt                                      

 Startparameter for this run:
   NWRITE =      2    write-flag & timer
   PREC   = accura    normal or accurate (medium, high low for compatibility)
   ISTART =      0    job   : 0-new  1-cont  2-samecut
   ICHARG =      2    charge: 1-file 2-atom 10-const
   ISPIN  =      1    spin polarized calculation?
   LNONCOLLINEAR =      F non collinear calculations
   LSORBIT =      F    spin-orbit coupling
   INIWAV =      1    electr: 0-lowe 1-rand  2-diag
   LASPH  =      F    aspherical Exc in radial PAW
 Electronic Relaxation 1
   ENCUT  =  425.0 eV  31.24 Ry    5.59 a.u.   4.64  4.64  8.05*2*pi/ulx,y,z
   ENINI  =  425.0     initial cutoff
   ENAUG  =  527.0 eV  augmentation charge cutoff
   NELM   =    100;   NELMIN=  2; NELMDL= -5     # of ELM steps 
   EDIFF  = 0.1E-05   stopping-criterion for ELM
   LREAL  =      F    real-space projection
   NLSPLINE    = F    spline interpolate recip. space projectors
   LCOMPAT=      F    compatible to vasp.4.4
   GGA_COMPAT  = T    GGA compatible to vasp.4.4-vasp.4.6
   LMAXPAW     = -100 max onsite density
   LMAXMIX     =    2 max onsite mixed and CHGCAR
   VOSKOWN=      0    Vosko Wilk Nusair interpolation
   ROPT   =    0.00000
 Ionic relaxation
   EDIFFG = -.2E-01   stopping-criterion for IOM
   NSW    =      0    number of steps for IOM
   NBLOCK =      1;   KBLOCK =      1    inner block; outer block 
   IBRION =     -1    ionic relax: 0-MD 1-quasi-New 2-CG
   NFREE  =      0    steps in history (QN), initial steepest desc. (CG)
   ISIF   =      2    stress and relaxation
   IWAVPR =     10    prediction:  0-non 1-charg 2-wave 3-comb
   ISYM   =      1    0-nonsym 1-usesym 2-fastsym
   LCORR  =      T    Harris-Foulkes like correction to forces

   POTIM  = 0.5000    time-step for ionic-motion
   TEIN   =    0.0    initial temperature
   TEBEG  =    0.0;   TEEND  =   0.0 temperature during run
   SMASS  =  -3.00    Nose mass-parameter (am)
   estimated Nose-frequenzy (Omega)   =  0.10E-29 period in steps = 0.13E+47 mass=  -0.174E-27a.u.
   SCALEE = 1.0000    scale energy and forces
   NPACO  =    256;   APACO  = 10.0  distance and # of slots for P.C.
   PSTRESS=    0.0 pullay stress

  Mass of Ions in am
   POMASS = 195.08
  Ionic Valenz
   ZVAL   =  16.00
  Atomic Wigner-Seitz radii
   RWIGS  =  -1.00
  virtual crystal weights 
   VCA    =   1.00
   NELECT =      32.0000    total number of electrons
   NUPDOWN=      -1.0000    fix difference up-down

 DOS related values:
   EMIN   =  10.00;   EMAX   =-10.00  energy-range for DOS
   EFERMI =   0.00
   ISMEAR =     0;   SIGMA  =   0.05  broadening in eV -4-tet -1-fermi 0-gaus

 Electronic relaxation 2 (details)
   IALGO  =     38    algorithm
   LDIAG  =      T    sub-space diagonalisation (order eigenvalues)
   LSUBROT=      F    optimize rotation matrix (better conditioning)
   TURBO    =      0    0=normal 1=particle mesh
   IRESTART =      0    0=no restart 2=restart with 2 vectors
   NREBOOT  =      0    no. of reboots
   NMIN     =      0    reboot dimension
   EREF     =   0.00    reference energy to select bands
   IMIX   =      4    mixing-type and parameters
     AMIX     =   0.40;   BMIX     =  1.00
     AMIX_MAG =   1.60;   BMIX_MAG =  1.00
     AMIN     =   0.10
     WC   =   100.;   INIMIX=   1;  MIXPRE=   1;  MAXMIX= -45

 Intra band minimization:
   WEIMIN = 0.0000     energy-eigenvalue tresh-hold
   EBREAK =  0.10E-07  absolut break condition
   DEPER  =   0.30     relativ break condition  

   TIME   =   0.40     timestep for ELM

  volume/ion in A,a.u.               =      15.80       106.62
  Fermi-wavevector in a.u.,A,eV,Ry     =   1.643981  3.106673 36.772093  2.702673
  Thomas-Fermi vector in A             =   2.734024
 
 Write flags
   LWAVE        =      F    write WAVECAR
   LDOWNSAMPLE  =      F    k-point downsampling of WAVECAR
   LCHARG       =      F    write CHGCAR
   LVTOT        =      F    write LOCPOT, total local potential
   LVHAR        =      F    write LOCPOT, Hartree potential only
   LELF         =      F    write electronic localiz. function (ELF)
   LORBIT       =      0    0 simple, 1 ext, 2 COOP (PROOUT), +10 PAW based schemes


 Dipole corrections
   LMONO  =      F    monopole corrections only (constant potential shift)
   LDIPOL =      F    correct potential (dipole corrections)
   IDIPOL =      0    1-x, 2-y, 3-z, 4-all directions 
   EPSILON=  1.0000000 bulk dielectric constant

 Exchange correlation treatment:
   GGA     =    --    GGA type
   LEXCH   =     8    internal setting for exchange type
   LIBXC   =     F    Libxc                    
   VOSKOWN =     0    Vosko Wilk Nusair interpolation
   LHFCALC =     F    Hartree Fock is set to
   LHFONE  =     F    Hartree Fock one center treatment
   AEXX    =    0.0000 exact exchange contribution

 Linear response parameters
   LEPSILON=     F    determine dielectric tensor
   LRPA    =     F    only Hartree local field effects (RPA)
   LNABLA  =     F    use nabla operator in PAW spheres
   LVEL    =     F    velocity operator in full k-point grid
   CSHIFT  =0.1000    complex shift for real part using Kramers Kronig
   OMEGAMAX=  -1.0    maximum frequency
   DEG_THRESHOLD= 0.2000000E-02 threshold for treating states as degnerate
   RTIME   =   -0.100 relaxation time in fs
  (WPLASMAI=    0.000 imaginary part of plasma frequency in eV, 0.658/RTIME)
   DFIELD  = 0.0000000 0.0000000 0.0000000 field for delta impulse in time
 
  Optional k-point grid parameters
   LKPOINTS_OPT  =     F    use optional k-point grid
   KPOINTS_OPT_MODE=     1    mode for optional k-point grid
 
 Orbital magnetization related:
   ORBITALMAG=     F  switch on orbital magnetization
   LCHIMAG   =     F  perturbation theory with respect to B field
   DQ        =  0.001000  dq finite difference perturbation B field
   LLRAUG    =     F  two centre corrections for induced B field



--------------------------------------------------------------------------------------------------------


 Static calculation
 charge density and potential will be updated during run
 non-spin polarized calculation
 Variant of blocked Davidson
 Davidson routine will perform the subspace rotation
 perform sub-space diagonalisation
    after iterative eigenvector-optimisation
 modified Broyden-mixing scheme, WC =      100.0
 initial mixing is a Kerker type mixing with AMIX =  0.4000 and BMIX =      1.0000
 Hartree-type preconditioning will be used
 using additional bands            8
 reciprocal scheme for non local part
 use partial core corrections
 calculate Harris-corrections to forces 
   (improved forces if not selfconsistent)
 use gradient corrections 
 use of overlap-Matrix (Vanderbilt PP)
 Gauss-broadening in eV      SIGMA  =   0.05


--------------------------------------------------------------------------------------------------------


  energy-cutoff  :      425.00
  volume of cell :       31.60
      direct lattice vectors                 reciprocal lattice vectors
     2.760000000  0.000000000  0.000000000     0.362318841  0.209184880  0.000000000
    -1.380000000  2.390230114  0.000000000     0.000000000  0.418369760  0.000000000
     0.000000000  0.000000000  4.790000000     0.000000000  0.000000000  0.208768267

  length of vectors
     2.760000000  2.760000000  4.790000000     0.418369760  0.418369760  0.208768267


 
 k-points in units of 2pi/SCALE and weight: Automatic mesh                          
   0.00000000  0.00000000  0.00000000       0.001
   0.03623188  0.02091849  0.00000000       0.007
   0.07246377  0.04183698  0.00000000       0.007
   0.10869565  0.06275546  0.00000000       0.007
   0.14492754  0.08367395  0.00000000       0.007
   0.18115942  0.10459244  0.00000000       0.004
   0.03623188  0.06275546  0.00000000       0.007
   0.07246377  0.08367395  0.00000000       0.015
   0.10869565  0.10459244  0.00000000       0.015
   0.14492754  0.12551093  0.00000000       0.015
   0.07246377  0.12551093  0.00000000       0.007
   0.10869565  0.14642942  0.00000000       0.015
   0.14492754  0.16734790  0.00000000       0.007
   0.10869565  0.18826639  0.00000000       0.007
   0.00000000  0.00000000  0.02609603       0.003
   0.03623188  0.02091849  0.02609603       0.015
   0.07246377  0.04183698  0.02609603       0.015
   0.10869565  0.06275546  0.02609603       0.015
   0.14492754  0.08367395  0.02609603       0.015
   0.18115942  0.10459244  0.02609603       0.007
   0.03623188  0.06275546  0.02609603       0.015
   0.07246377  0.08367395  0.02609603       0.030
   0.10869565  0.10459244  0.02609603       0.030
   0.14492754  0.12551093  0.02609603       0.030
   0.07246377  0.12551093  0.02609603       0.015
   0.10869565  0.14642942  0.02609603       0.030
   0.14492754  0.16734790  0.02609603       0.015
   0.10869565  0.18826639  0.02609603       0.015
   0.00000000  0.00000000  0.05219207       0.003
   0.03623188  0.02091849  0.05219207       0.015
   0.07246377  0.04183698  0.05219207       0.015
   0.10869565  0.06275546  0.05219207       0.015
   0.14492754  0.08367395  0.05219207       0.015
   0.18115942  0.10459244  0.05219207       0.007
   0.03623188  0.06275546  0.05219207       0.015
   0.07246377  0.08367395  0.05219207       0.030
   0.10869565  0.10459244  0.05219207       0.030
   0.14492754  0.12551093  0.05219207       0.030
   0.07246377  0.12551093  0.05219207       0.015
   0.10869565  0.14642942  0.05219207       0.030
   0.14492754  0.16734790  0.05219207       0.015
   0.10869565  0.18826639  0.05219207       0.015
   0.00000000  0.00000000  0.07828810       0.003
   0.03623188  0.02091849  0.07828810       0.015
   0.07246377  0.04183698  0.07828810       0.015
   0.10869565  0.06275546  0.07828810       0.015
   0.14492754  0.08367395  0.07828810       0.015
   0.18115942  0.10459244  0.07828810       0.007
   0.03623188  0.06275546  0.07828810       0.015
   0.07246377  0.08367395  0.07828810       0.030
   0.10869565  0.10459244  0.07828810       0.030
   0.14492754  0.12551093  0.07828810       0.030
   0.07246377  0.12551093  0.07828810       0.015
   0.10869565  0.14642942  0.07828810       0.030
   0.14492754  0.16734790  0.07828810       0.015
   0.10869565  0.18826639  0.07828810       0.015
   0.00000000  0.00000000  0.10438413       0.001
   0.03623188  0.02091849  0.10438413       0.007
   0.07246377  0.04183698  0.10438413       0.007
   0.10869565  0.06275546  0.10438413       0.007
   0.14492754  0.08367395  0.10438413       0.007
   0.18115942  0.10459244  0.10438413       0.004
   0.03623188  0.06275546  0.10438413       0.007
   0.07246377  0.08367395  0.10438413       0.015
   0.10869565  0.10459244  0.10438413       0.015
   0.14492754  0.12551093  0.10438413       0.015
   0.07246377  0.12551093  0.10438413       0.007
   0.10869565  0.14642942  0.10438413       0.015
   0.14492754  0.16734790  0.10438413       0.007
   0.10869565  0.18826639  0.10438413       0.007
 
 k-points in reciprocal lattice and weights: Automatic mesh                          
   0.00000000  0.00000000  0.00000000       0.001
   0.10000000 -0.00000000  0.00000000       0.007
   0.20000000 -0.00000000  0.00000000       0.007
   0.30000000  0.00000000  0.00000000       0.007
   0.40000000 -0.00000000  0.00000000       0.007
   0.50000000 -0.00000000  0.00000000       0.004
   0.10000000  0.10000000  0.00000000       0.007
   0.20000000  0.10000000  0.00000000       0.015
   0.30000000  0.10000000  0.00000000       0.015
   0.40000000  0.10000000  0.00000000       0.015
   0.20000000  0.20000000  0.00000000       0.007
   0.30000000  0.20000000  0.00000000       0.015
   0.40000000  0.20000000  0.00000000       0.007
   0.30000000  0.30000000  0.00000000       0.007
   0.00000000  0.00000000  0.12500000       0.003
   0.10000000 -0.00000000  0.12500000       0.015
   0.20000000 -0.00000000  0.12500000       0.015
   0.30000000  0.00000000  0.12500000       0.015
   0.40000000 -0.00000000  0.12500000       0.015
   0.50000000 -0.00000000  0.12500000       0.007
   0.10000000  0.10000000  0.12500000       0.015
   0.20000000  0.10000000  0.12500000       0.030
   0.30000000  0.10000000  0.12500000       0.030
   0.40000000  0.10000000  0.12500000       0.030
   0.20000000  0.20000000  0.12500000       0.015
   0.30000000  0.20000000  0.12500000       0.030
   0.40000000  0.20000000  0.12500000       0.015
   0.30000000  0.30000000  0.12500000       0.015
   0.00000000  0.00000000  0.25000000       0.003
   0.10000000 -0.00000000  0.25000000       0.015
   0.20000000 -0.00000000  0.25000000       0.015
   0.30000000  0.00000000  0.25000000       0.015
   0.40000000 -0.00000000  0.25000000       0.015
   0.50000000 -0.00000000  0.25000000       0.007
   0.10000000  0.10000000  0.25000000       0.015
   0.20000000  0.10000000  0.25000000       0.030
   0.30000000  0.10000000  0.25000000       0.030
   0.40000000  0.10000000  0.25000000       0.030
   0.20000000  0.20000000  0.25000000       0.015
   0.30000000  0.20000000  0.25000000       0.030
   0.40000000  0.20000000  0.25000000       0.015
   0.30000000  0.30000000  0.25000000       0.015
   0.00000000  0.00000000  0.37500000       0.003
   0.10000000 -0.00000000  0.37500000       0.015
   0.20000000 -0.00000000  0.37500000       0.015
   0.30000000  0.00000000  0.37500000       0.015
   0.40000000 -0.00000000  0.37500000       0.015
   0.50000000 -0.00000000  0.37500000       0.007
   0.10000000  0.10000000  0.37500000       0.015
   0.20000000  0.10000000  0.37500000       0.030
   0.30000000  0.10000000  0.37500000       0.030
   0.40000000  0.10000000  0.37500000       0.030
   0.20000000  0.20000000  0.37500000       0.015
   0.30000000  0.20000000  0.37500000       0.030
   0.40000000  0.20000000  0.37500000       0.015
   0.30000000  0.30000000  0.37500000       0.015
   0.00000000  0.00000000  0.50000000       0.001
   0.10000000 -0.00000000  0.50000000       0.007
   0.20000000 -0.00000000  0.50000000       0.007
   0.30000000  0.00000000  0.50000000       0.007
   0.40000000 -0.00000000  0.50000000       0.007
   0.50000000 -0.00000000  0.50000000       0.004
   0.10000000  0.10000000  0.50000000       0.007
   0.20000000  0.10000000  0.50000000       0.015
   0.30000000  0.10000000  0.50000000       0.015
   0.40000000  0.10000000  0.50000000       0.015
   0.20000000  0.20000000  0.50000000       0.007
   0.30000000  0.20000000  0.50000000       0.015
   0.40000000  0.20000000  0.50000000       0.007
   0.30000000  0.30000000  0.50000000       0.007
 
 position of ions in fractional coordinates (direct lattice) 
   0.00000000  0.00000000  0.00000000
   0.33333333  0.66666667  0.50000000
 
 position of ions in cartesian coordinates  (Angst):
   0.00000000  0.00000000  0.00000000
   0.00000000  1.59348674  2.39500000
 


--------------------------------------------------------------------------------------------------------


 k-point   1 :   0.0000 0.0000 0.0000  plane waves:     641
 k-point   2 :   0.1000-0.0000 0.0000  plane waves:     638
 k-point   3 :   0.2000-0.0000 0.0000  plane waves:     634
 k-point   4 :   0.3000 0.0000 0.0000  plane waves:     628
 k-point   5 :   0.4000-0.0000 0.0000  plane waves:     616
 k-point   6 :   0.5000-0.0000 0.0000  plane waves:     620
 k-point   7 :   0.1000 0.1000 0.0000  plane waves:     629
 k-point   8 :   0.2000 0.1000 0.0000  plane waves:     630
 k-point   9 :   0.3000 0.1000 0.0000  plane waves:     625
 k-point  10 :   0.4000 0.1000 0.0000  plane waves:     623
 k-point  11 :   0.2000 0.2000 0.0000  plane waves:     629
 k-point  12 :   0.3000 0.2000 0.0000  plane waves:     623
 k-point  13 :   0.4000 0.2000 0.0000  plane waves:     628
 k-point  14 :   0.3000 0.3000 0.0000  plane waves:     609
 k-point  15 :   0.0000 0.0000 0.1250  plane waves:     628
 k-point  16 :   0.1000-0.0000 0.1250  plane waves:     636
 k-point  17 :   0.2000-0.0000 0.1250  plane waves:     628
 k-point  18 :   0.3000 0.0000 0.1250  plane waves:     633
 k-point  19 :   0.4000-0.0000 0.1250  plane waves:     624
 k-point  20 :   0.5000-0.0000 0.1250  plane waves:     628
 k-point  21 :   0.1000 0.1000 0.1250  plane waves:     633
 k-point  22 :   0.2000 0.1000 0.1250  plane waves:     630
 k-point  23 :   0.3000 0.1000 0.1250  plane waves:     625
 k-point  24 :   0.4000 0.1000 0.1250  plane waves:     627
 k-point  25 :   0.2000 0.2000 0.1250  plane waves:     628
 k-point  26 :   0.3000 0.2000 0.1250  plane waves:     627
 k-point  27 :   0.4000 0.2000 0.1250  plane waves:     625
 k-point  28 :   0.3000 0.3000 0.1250  plane waves:     617
 k-point  29 :   0.0000 0.0000 0.2500  plane waves:     640
 k-point  30 :   0.1000-0.0000 0.2500  plane waves:     636
 k-point  31 :   0.2000-0.0000 0.2500  plane waves:     637
 k-point  32 :   0.3000 0.0000 0.2500  plane waves:     630
 k-point  33 :   0.4000-0.0000 0.2500  plane waves:     629
 k-point  34 :   0.5000-0.0000 0.2500  plane waves:     636
 k-point  35 :   0.1000 0.1000 0.2500  plane waves:     635
 k-point  36 :   0.2000 0.1000 0.2500  plane waves:     634
 k-point  37 :   0.3000 0.1000 0.2500  plane waves:     628
 k-point  38 :   0.4000 0.1000 0.2500  plane waves:     627
 k-point  39 :   0.2000 0.2000 0.2500  plane waves:     630
 k-point  40 :   0.3000 0.2000 0.2500  plane waves:     626
 k-point  41 :   0.4000 0.2000 0.2500  plane waves:     627
 k-point  42 :   0.3000 0.3000 0.2500  plane waves:     623
 k-point  43 :   0.0000 0.0000 0.3750  plane waves:     628
 k-point  44 :   0.1000-0.0000 0.3750  plane waves:     631
 k-point  45 :   0.2000-0.0000 0.3750  plane waves:     633
 k-point  46 :   0.3000 0.0000 0.3750  plane waves:     631
 k-point  47 :   0.4000-0.0000 0.3750  plane waves:     634
 k-point  48 :   0.5000-0.0000 0.3750  plane waves:     630
 k-point  49 :   0.1000 0.1000 0.3750  plane waves:     633
 k-point  50 :   0.2000 0.1000 0.3750  plane waves:     635
 k-point  51 :   0.3000 0.1000 0.3750  plane waves:     630
 k-point  52 :   0.4000 0.1000 0.3750  plane waves:     627
 k-point  53 :   0.2000 0.2000 0.3750  plane waves:     622
 k-point  54 :   0.3000 0.2000 0.3750  plane waves:     627
 k-point  55 :   0.4000 0.2000 0.3750  plane waves:     625
 k-point  56 :   0.3000 0.3000 0.3750  plane waves:     623
 k-point  57 :   0.0000 0.0000 0.5000  plane waves:     640
 k-point  58 :   0.1000-0.0000 0.5000  plane waves:     626
 k-point  59 :   0.2000-0.0000 0.5000  plane waves:     636
 k-point  60 :   0.3000 0.0000 0.5000  plane waves:     636
 k-point  61 :   0.4000-0.0000 0.5000  plane waves:     638
 k-point  62 :   0.5000-0.0000 0.5000  plane waves:     636
 k-point  63 :   0.1000 0.1000 0.5000  plane waves:     632
 k-point  64 :   0.2000 0.1000 0.5000  plane waves:     628
 k-point  65 :   0.3000 0.1000 0.5000  plane waves:     638
 k-point  66 :   0.4000 0.1000 0.5000  plane waves:     628
 k-point  67 :   0.2000 0.2000 0.5000  plane waves:     630
 k-point  68 :   0.3000 0.2000 0.5000  plane waves:     626
 k-point  69 :   0.4000 0.2000 0.5000  plane waves:     620
 k-point  70 :   0.3000 0.3000 0.5000  plane waves:     618

 maximum and minimum number of plane-waves per node :       641      609

 maximum number of plane-waves:       641
 maximum index in each direction: 
   IXMAX=    4   IYMAX=    4   IZMAX=    8
   IXMIN=   -5   IYMIN=   -4   IZMIN=   -8


 serial   3D FFT for wavefunctions
 parallel 3D FFT for charge:
    minimum data exchange during FFTs selected (reduces bandwidth)


 total amount of memory used by VASP MPI-rank0    38357. kBytes
=======================================================================

   base      :      30000. kBytes
   nonl-proj :       6552. kBytes
   fftplans  :        226. kBytes
   grid      :        769. kBytes
   one-center:         31. kBytes
   wavefun   :        779. kBytes
 
     INWAV:  cpu time      0.0000: real time      0.0001
 Broyden mixing: mesh for mixing (old mesh)
   NGX =  9   NGY =  9   NGZ = 17
  (NGX  = 40   NGY  = 40   NGZ  = 64)
  gives a total of   1377 points

 initial charge density was supplied:
 charge density of overlapping atoms calculated
 number of electron      32.0000000 magnetization 
 keeping initial charge density in first step


--------------------------------------------------------------------------------------------------------


 Maximum index for augmentation-charges          658 (set IRDMAX)


--------------------------------------------------------------------------------------------------------


 First call to EWALD:  gamma=   0.561
 Maximum number of real-space cells 3x 3x 2
 Maximum number of reciprocal cells 2x 2x 4

    FEWALD:  cpu time      0.0015: real time      0.0015


--------------------------------------- Iteration      1(   1)  ---------------------------------------


    POTLOK:  cpu time      0.0042: real time      0.0043
    SETDIJ:  cpu time      0.0022: real time      0.0022
     EDDAV:  cpu time      0.2945: real time      0.2961
       DOS:  cpu time      0.0005: real time      0.0006
    --------------------------------------------
      LOOP:  cpu time      0.3015: real time      0.3032

 eigenvalue-minimisations  :  3360
 total energy-change (2. order) : 0.1375368E+03  (-0.2268925E+04)
 number of electron      32.0000000 magnetization 
 augmentation part       32.0000000 magnetization 

 Free energy of the ion-electron system (eV)
  ---------------------------------------------------
  alpha Z        PSCENC =       303.71314961
  Ewald energy   TEWEN  =     -4240.69024974
  -Hartree energ DENC   =      -819.48907223
  -exchange      EXHF   =         0.00000000
  -V(xc)+E(xc)   XCENC  =       127.32804847
  PAW double counting   =      4131.50523274    -4061.67189606
  entropy T*S    EENTRO =        -0.00254347
  eigenvalues    EBANDS =      -159.54587651
  atomic energy  EATOM  =      4856.39002129
  Solvation  Ediel_sol  =         0.00000000
  ---------------------------------------------------
  free energy    TOTEN  =       137.53681411 eV

  energy without entropy =      137.53935758  energy(sigma->0) =      137.53808584


--------------------------------------------------------------------------------------------------------




--------------------------------------- Iteration      1(   2)  ---------------------------------------


     EDDAV:  cpu time      0.3309: real time      0.3332
       DOS:  cpu time      0.0004: real time      0.0004
    --------------------------------------------
      LOOP:  cpu time      0.3312: real time      0.3335

 eigenvalue-minimisations  :  3624
 total energy-change (2. order) :-0.1489457E+03  (-0.1482529E+03)
 number of electron      32.0000000 magnetization 
 augmentation part       32.0000000 magnetization 

 Free energy of the ion-electron system (eV)
  ---------------------------------------------------
  alpha Z        PSCENC =       303.71314961
  Ewald energy   TEWEN  =     -4240.69024974
  -Hartree energ DENC   =      -819.48907223
  -exchange      EXHF   =         0.00000000
  -V(xc)+E(xc)   XCENC  =       127.32804847
  PAW double counting   =      4131.50523274    -4061.67189606
  entropy T*S    EENTRO =        -0.00445730
  eigenvalues    EBANDS =      -308.48969024
  atomic energy  EATOM  =      4856.39002129
  Solvation  Ediel_sol  =         0.00000000
  ---------------------------------------------------
  free energy    TOTEN  =       -11.40891345 eV

  energy without entropy =      -11.40445615  energy(sigma->0) =      -11.40668480


--------------------------------------------------------------------------------------------------------




--------------------------------------- Iteration      1(   3)  ---------------------------------------


     EDDAV:  cpu time      0.4865: real time      0.4890
       DOS:  cpu time      0.0004: real time      0.0004
    --------------------------------------------
      LOOP:  cpu time      0.4869: real time      0.4893

 eigenvalue-minimisations  :  4536
 total energy-change (2. order) :-0.1337904E+01  (-0.1329650E+01)
 number of electron      32.0000000 magnetization 
 augmentation part       32.0000000 magnetization 

 Free energy of the ion-electron system (eV)
  ---------------------------------------------------
  alpha Z        PSCENC =       303.71314961
  Ewald energy   TEWEN  =     -4240.69024974
  -Hartree energ DENC   =      -819.48907223
  -exchange      EXHF   =         0.00000000
  -V(xc)+E(xc)   XCENC  =       127.32804847
  PAW double counting   =      4131.50523274    -4061.67189606
  entropy T*S    EENTRO =        -0.00442185
  eigenvalues    EBANDS =      -309.82762979
  atomic energy  EATOM  =      4856.39002129
  Solvation  Ediel_sol  =         0.00000000
  ---------------------------------------------------
  free energy    TOTEN  =       -12.74681755 eV

  energy without entropy =      -12.74239570  energy(sigma->0) =      -12.74460662


--------------------------------------------------------------------------------------------------------




--------------------------------------- Iteration      1(   4)  ---------------------------------------


     EDDAV:  cpu time      0.5267: real time      0.5293
       DOS:  cpu time      0.0004: real time      0.0004
    --------------------------------------------
      LOOP:  cpu time      0.5271: real time      0.5297

 eigenvalue-minimisations  :  4752
 total energy-change (2. order) :-0.3699292E-02  (-0.3698885E-02)
 number of electron      32.0000000 magnetization 
 augmentation part       32.0000000 magnetization 

 Free energy of the ion-electron system (eV)
  ---------------------------------------------------
  alpha Z        PSCENC =       303.71314961
  Ewald energy   TEWEN  =     -4240.69024974
  -Hartree energ DENC   =      -819.48907223
  -exchange      EXHF   =         0.00000000
  -V(xc)+E(xc)   XCENC  =       127.32804847
  PAW double counting   =      4131.50523274    -4061.67189606
  entropy T*S    EENTRO =        -0.00442001
  eigenvalues    EBANDS =      -309.83133092
  atomic energy  EATOM  =      4856.39002129
  Solvation  Ediel_sol  =         0.00000000
  ---------------------------------------------------
  free energy    TOTEN  =       -12.75051684 eV

  energy without entropy =      -12.74609683  energy(sigma->0) =      -12.74830683


--------------------------------------------------------------------------------------------------------




--------------------------------------- Iteration      1(   5)  ---------------------------------------


     EDDAV:  cpu time      0.5460: real time      0.5486
       DOS:  cpu time      0.0004: real time      0.0004
    CHARGE:  cpu time      0.0208: real time      0.0209
    MIXING:  cpu time      0.0003: real time      0.0003
    --------------------------------------------
      LOOP:  cpu time      0.5674: real time      0.5701

 eigenvalue-minimisations  :  4800
 total energy-change (2. order) :-0.8507886E-06  (-0.8502208E-06)
 number of electron      32.0000012 magnetization 
 augmentation part        7.9525199 magnetization 

 Broyden mixing:
  rms(total) = 0.19666E+01    rms(broyden)= 0.19664E+01
  rms(prec ) = 0.21851E+01
  weight for this iteration     100.00

 Free energy of the ion-electron system (eV)
  ---------------------------------------------------
  alpha Z        PSCENC =       303.71314961
  Ewald energy   TEWEN  =     -4240.69024974
  -Hartree energ DENC   =      -819.48907223
  -exchange      EXHF   =         0.00000000
  -V(xc)+E(xc)   XCENC  =       127.32804847
  PAW double counting   =      4131.50523274    -4061.67189606
  entropy T*S    EENTRO =        -0.00442001
  eigenvalues    EBANDS =      -309.83133177
  atomic energy  EATOM  =      4856.39002129
  Solvation  Ediel_sol  =         0.00000000
  ---------------------------------------------------
  free energy    TOTEN  =       -12.75051769 eV

  energy without entropy =      -12.74609768  energy(sigma->0) =      -12.74830769


--------------------------------------------------------------------------------------------------------




--------------------------------------- Iteration      1(   6)  ---------------------------------------


    POTLOK:  cpu time      0.0034: real time      0.0035
    SETDIJ:  cpu time      0.0021: real time      0.0021
     EDDAV:  cpu time      0.3246: real time      0.3262
       DOS:  cpu time      0.0004: real time      0.0004
    CHARGE:  cpu time      0.0190: real time      0.0190
    MIXING:  cpu time      0.0007: real time      0.0007
    --------------------------------------------
      LOOP:  cpu time      0.3501: real time      0.3519

 eigenvalue-minimisations  :  3576
 total energy-change (2. order) : 0.6738723E+00  (-0.2636877E+00)
 number of electron      32.0000012 magnetization 
 augmentation part        8.1845798 magnetization 

 Broyden mixing:
  rms(total) = 0.59935E+00    rms(broyden)= 0.59934E+00
  rms(prec ) = 0.63911E+00
  weight for this iteration     100.00

 eigenvalues of (default mixing * dielectric matrix)
  average eigenvalue GAMMA=   1.4102
  1.4102

 Free energy of the ion-electron system (eV)
  ---------------------------------------------------
  alpha Z        PSCENC =       303.71314961
  Ewald energy   TEWEN  =     -4240.69024974
  -Hartree energ DENC   =      -788.37565962
  -exchange      EXHF   =         0.00000000
  -V(xc)+E(xc)   XCENC  =       125.99480940
  PAW double counting   =      4437.11554374    -4371.32408604
  entropy T*S    EENTRO =        -0.00446488
  eigenvalues    EBANDS =      -334.89570912
  atomic energy  EATOM  =      4856.39002129
  Solvation  Ediel_sol  =         0.00000000
  ---------------------------------------------------
  free energy    TOTEN  =       -12.07664537 eV

  energy without entropy =      -12.07218049  energy(sigma->0) =      -12.07441293


--------------------------------------------------------------------------------------------------------




--------------------------------------- Iteration      1(   7)  ---------------------------------------


    POTLOK:  cpu time      0.0031: real time      0.0033
    SETDIJ:  cpu time      0.0020: real time      0.0020
     EDDAV:  cpu time      0.4827: real time      0.4849
       DOS:  cpu time      0.0004: real time      0.0004
    CHARGE:  cpu time      0.0192: real time      0.0193
    MIXING:  cpu time      0.0004: real time      0.0004
    --------------------------------------------
      LOOP:  cpu time      0.5078: real time      0.5103

 eigenvalue-minimisations  :  4632
 total energy-change (2. order) : 0.3389218E-01  (-0.1444881E-01)
 number of electron      32.0000012 magnetization 
 augmentation part        8.2337324 magnetization 

 Broyden mixing:
  rms(total) = 0.18522E+00    rms(broyden)= 0.18522E+00
  rms(prec ) = 0.19699E+00
  weight for this iteration     100.00

 eigenvalues of (default mixing * dielectric matrix)
  average eigenvalue GAMMA=   1.9190
  1.1646  2.6735

 Free energy of the ion-electron system (eV)
  ---------------------------------------------------
  alpha Z        PSCENC =       303.71314961
  Ewald energy   TEWEN  =     -4240.69024974
  -Hartree energ DENC   =      -780.76006855
  -exchange      EXHF   =         0.00000000
  -V(xc)+E(xc)   XCENC  =       125.64737093
  PAW double counting   =      4558.93083695    -4494.17838847
  entropy T*S    EENTRO =        -0.00468894
  eigenvalues    EBANDS =      -341.09073626
  atomic energy  EATOM  =      4856.39002129
  Solvation  Ediel_sol  =         0.00000000
  ---------------------------------------------------
  free energy    TOTEN  =       -12.04275318 eV

  energy without entropy =      -12.03806424  energy(sigma->0) =      -12.04040871


--------------------------------------------------------------------------------------------------------




--------------------------------------- Iteration      1(   8)  ---------------------------------------


    POTLOK:  cpu time      0.0031: real time      0.0033
    SETDIJ:  cpu time      0.0019: real time      0.0019
     EDDAV:  cpu time      0.3331: real time      0.3347
       DOS:  cpu time      0.0004: real time      0.0004
    CHARGE:  cpu time      0.0191: real time      0.0192
    MIXING:  cpu time      0.0003: real time      0.0003
    --------------------------------------------
      LOOP:  cpu time      0.3579: real time      0.3597

 eigenvalue-minimisations  :  3648
 total energy-change (2. order) : 0.2511425E-02  (-0.7280925E-03)
 number of electron      32.0000012 magnetization 
 augmentation part        8.2265565 magnetization 

 Broyden mixing:
  rms(total) = 0.24788E-01    rms(broyden)= 0.24779E-01
  rms(prec ) = 0.26924E-01
  weight for this iteration     100.00

 eigenvalues of (default mixing * dielectric matrix)
  average eigenvalue GAMMA=   1.5851
  1.0957  1.2550  2.4044

 Free energy of the ion-electron system (eV)
  ---------------------------------------------------
  alpha Z        PSCENC =       303.71314961
  Ewald energy   TEWEN  =     -4240.69024974
  -Hartree energ DENC   =      -780.48006593
  -exchange      EXHF   =         0.00000000
  -V(xc)+E(xc)   XCENC  =       125.60944530
  PAW double counting   =      4630.98569426    -4566.28720466
  entropy T*S    EENTRO =        -0.00474014
  eigenvalues    EBANDS =      -341.27629175
  atomic energy  EATOM  =      4856.39002129
  Solvation  Ediel_sol  =         0.00000000
  ---------------------------------------------------
  free energy    TOTEN  =       -12.04024176 eV

  energy without entropy =      -12.03550162  energy(sigma->0) =      -12.03787169


--------------------------------------------------------------------------------------------------------




--------------------------------------- Iteration      1(   9)  ---------------------------------------


    POTLOK:  cpu time      0.0030: real time      0.0032
    SETDIJ:  cpu time      0.0018: real time      0.0018
     EDDAV:  cpu time      0.4677: real time      0.4699
       DOS:  cpu time      0.0004: real time      0.0004
    CHARGE:  cpu time      0.0197: real time      0.0198
    MIXING:  cpu time      0.0004: real time      0.0004
    --------------------------------------------
      LOOP:  cpu time      0.4931: real time      0.4955

 eigenvalue-minimisations  :  4368
 total energy-change (2. order) : 0.1718120E-03  (-0.2414127E-04)
 number of electron      32.0000012 magnetization 
 augmentation part        8.2256913 magnetization 

 Broyden mixing:
  rms(total) = 0.32089E-02    rms(broyden)= 0.32080E-02
  rms(prec ) = 0.37362E-02
  weight for this iteration     100.00

 eigenvalues of (default mixing * dielectric matrix)
  average eigenvalue GAMMA=   1.6644
  2.5167  1.0286  1.1967  1.9157

 Free energy of the ion-electron system (eV)
  ---------------------------------------------------
  alpha Z        PSCENC =       303.71314961
  Ewald energy   TEWEN  =     -4240.69024974
  -Hartree energ DENC   =      -780.77212034
  -exchange      EXHF   =         0.00000000
  -V(xc)+E(xc)   XCENC  =       125.62404041
  PAW double counting   =      4624.19873256    -4559.42579642
  entropy T*S    EENTRO =        -0.00471465
  eigenvalues    EBANDS =      -341.07313267
  atomic energy  EATOM  =      4856.39002129
  Solvation  Ediel_sol  =         0.00000000
  ---------------------------------------------------
  free energy    TOTEN  =       -12.04006995 eV

  energy without entropy =      -12.03535529  energy(sigma->0) =      -12.03771262


--------------------------------------------------------------------------------------------------------




--------------------------------------- Iteration      1(  10)  ---------------------------------------


    POTLOK:  cpu time      0.0032: real time      0.0033
    SETDIJ:  cpu time      0.0019: real time      0.0020
     EDDAV:  cpu time      0.4238: real time      0.4258
       DOS:  cpu time      0.0004: real time      0.0004
    CHARGE:  cpu time      0.0191: real time      0.0192
    MIXING:  cpu time      0.0008: real time      0.0008
    --------------------------------------------
      LOOP:  cpu time      0.4492: real time      0.4514

 eigenvalue-minimisations  :  4176
 total energy-change (2. order) :-0.1375184E-04  (-0.1023590E-05)
 number of electron      32.0000012 magnetization 
 augmentation part        8.2258386 magnetization 

 Broyden mixing:
  rms(total) = 0.90681E-03    rms(broyden)= 0.90648E-03
  rms(prec ) = 0.10992E-02
  weight for this iteration     100.00

 eigenvalues of (default mixing * dielectric matrix)
  average eigenvalue GAMMA=   1.7231
  2.6402  2.2801  0.9911  1.1941  1.5099

 Free energy of the ion-electron system (eV)
  ---------------------------------------------------
  alpha Z        PSCENC =       303.71314961
  Ewald energy   TEWEN  =     -4240.69024974
  -Hartree energ DENC   =      -780.78626089
  -exchange      EXHF   =         0.00000000
  -V(xc)+E(xc)   XCENC  =       125.62426513
  PAW double counting   =      4627.10312963    -4562.29931230
  entropy T*S    EENTRO =        -0.00471084
  eigenvalues    EBANDS =      -341.09011559
  atomic energy  EATOM  =      4856.39002129
  Solvation  Ediel_sol  =         0.00000000
  ---------------------------------------------------
  free energy    TOTEN  =       -12.04008370 eV

  energy without entropy =      -12.03537286  energy(sigma->0) =      -12.03772828


--------------------------------------------------------------------------------------------------------




--------------------------------------- Iteration      1(  11)  ---------------------------------------


    POTLOK:  cpu time      0.0031: real time      0.0033
    SETDIJ:  cpu time      0.0020: real time      0.0020
     EDDAV:  cpu time      0.3657: real time      0.3674
       DOS:  cpu time      0.0004: real time      0.0004
    --------------------------------------------
      LOOP:  cpu time      0.3711: real time      0.3730

 eigenvalue-minimisations  :  3768
 total energy-change (2. order) : 0.3398845E-06  (-0.1199103E-06)
 number of electron      32.0000012 magnetization 
 augmentation part        8.2258386 magnetization 

 Free energy of the ion-electron system (eV)
  ---------------------------------------------------
  alpha Z        PSCENC =       303.71314961
  Ewald energy   TEWEN  =     -4240.69024974
  -Hartree energ DENC   =      -780.80116773
  -exchange      EXHF   =         0.00000000
  -V(xc)+E(xc)   XCENC  =       125.62485786
  PAW double counting   =      4627.71612966    -4562.89705108
  entropy T*S    EENTRO =        -0.00471157
  eigenvalues    EBANDS =      -341.09106165
  atomic energy  EATOM  =      4856.39002129
  Solvation  Ediel_sol  =         0.00000000
  ---------------------------------------------------
  free energy    TOTEN  =       -12.04008336 eV

  energy without entropy =      -12.03537179  energy(sigma->0) =      -12.03772757


--------------------------------------------------------------------------------------------------------




 average (electrostatic) potential at core
  the test charge radii are     0.9952
  (the norm of the test charge is              1.0000)
       1 -89.4774       2 -89.4774
 
 
 
 E-fermi :  11.1261     XC(G=0): -13.6992     alpha+bet :-16.6031

 Fermi energy:        11.1260824322

 k-point     1 :       0.0000    0.0000    0.0000
  band No.  band energies     occupation 
      1     -41.4692      2.00000
      2     -41.3014      2.00000
      3     -41.3014      2.00000
      4     -41.2617      2.00000
      5     -41.2617      2.00000
      6     -41.1408      2.00000
      7       1.4199      2.00000
      8       4.0675      2.00000
      9       7.2051      2.00000
     10       7.7119      2.00000
     11       7.7119      2.00000
     12       8.0763      2.00000
     13       8.0763      2.00000
     14       9.3461      2.00000
     15       9.3461      2.00000
     16      10.4222      2.00000
     17      10.9228      2.00000
     18      10.9228      2.00000
     19      15.8072      0.00000
     20      26.2270      0.00000
     21      26.8072      0.00000
     22      28.3765      0.00000
     23      32.1708      0.00000
     24      32.1708      0.00000

 k-point     2 :       0.1000   -0.0000    0.0000
  band No.  band energies     occupation 
      1     -41.4571      2.00000
      2     -41.3372      2.00000
      3     -41.3118      2.00000
      4     -41.2986      2.00000
      5     -41.2694      2.00000
      6     -41.1438      2.00000
      7       1.7812      2.00000
      8       4.3952      2.00000
      9       7.1416      2.00000
     10       7.7182      2.00000
     11       7.9273      2.00000
     12       7.9878      2.00000
     13       8.3386      2.00000
     14       8.7619      2.00000
     15       9.1761      2.00000
     16       9.3211      2.00000
     17      10.9848      1.99994
     18      12.6811      0.00000
     19      15.7710      0.00000
     20      26.6599      0.00000
     21      27.3357      0.00000
     22      28.7048      0.00000
     23      30.5450      0.00000
     24      30.6644      0.00000

 k-point     3 :       0.2000   -0.0000    0.0000
  band No.  band energies     occupation 
      1     -41.4325      2.00000
      2     -41.4245      2.00000
      3     -41.3937      2.00000
      4     -41.3388      2.00000
      5     -41.2889      2.00000
      6     -41.1523      2.00000
      7       2.7665      2.00000
      8       5.1161      2.00000
      9       6.9170      2.00000
     10       7.4004      2.00000
     11       7.4360      2.00000
     12       8.3373      2.00000
     13       8.7686      2.00000
     14       8.7991      2.00000
     15       8.8085      2.00000
     16       9.0760      2.00000
     17      11.0834      1.77256
     18      14.8507      0.00000
     19      15.7032      0.00000
     20      25.1597      0.00000
     21      27.9571      0.00000
     22      28.2373      0.00000
     23      29.1118      0.00000
     24      29.3114      0.00000

 k-point     4 :       0.3000    0.0000    0.0000
  band No.  band energies     occupation 
      1     -41.5482      2.00000
      2     -41.5098      2.00000
      3     -41.3784      2.00000
      4     -41.3719      2.00000
      5     -41.3139      2.00000
      6     -41.1683      2.00000
      7       3.9718      2.00000
      8       5.2418      2.00000
      9       6.3478      2.00000
     10       7.1793      2.00000
     11       7.5375      2.00000
     12       8.2976      2.00000
     13       8.4097      2.00000
     14       9.4854      2.00000
     15       9.8903      2.00000
     16      10.1197      2.00000
     17      11.1365      0.76862
     18      15.8259      0.00000
     19      17.0603      0.00000
     20      21.4370      0.00000
     21      25.8556      0.00000
     22      26.4012      0.00000
     23      27.9940      0.00000
     24      29.1026      0.00000

 k-point     5 :       0.4000   -0.0000    0.0000
  band No.  band energies     occupation 
      1     -41.6423      2.00000
      2     -41.6002      2.00000
      3     -41.3974      2.00000
      4     -41.3332      2.00000
      5     -41.3331      2.00000
      6     -41.1899      2.00000
      7       4.6318      2.00000
      8       4.9283      2.00000
      9       5.6960      2.00000
     10       7.6969      2.00000
     11       7.9236      2.00000
     12       8.1332      2.00000
     13       8.3500      2.00000
     14      10.9719      1.99999
     15      11.1476      0.54230
     16      11.1478      0.53905
     17      11.3565      0.00000
     18      16.6330      0.00000
     19      17.7996      0.00000
     20      19.0236      0.00000
     21      23.5333      0.00000
     22      23.9479      0.00000
     23      25.0485      0.00000
     24      27.8273      0.00000

 k-point     6 :       0.5000   -0.0000    0.0000
  band No.  band energies     occupation 
      1     -41.6781      2.00000
      2     -41.6353      2.00000
      3     -41.4075      2.00000
      4     -41.3413      2.00000
      5     -41.3104      2.00000
      6     -41.2032      2.00000
      7       4.7229      2.00000
      8       4.8003      2.00000
      9       5.4756      2.00000
     10       7.7880      2.00000
     11       8.0338      2.00000
     12       8.2186      2.00000
     13       8.5539      2.00000
     14      11.1467      0.55990
     15      11.4265      0.00000
     16      11.6265      0.00000
     17      13.4020      0.00000
     18      14.8759      0.00000
     19      18.3934      0.00000
     20      19.9718      0.00000
     21      20.6285      0.00000
     22      23.1685      0.00000
     23      24.4025      0.00000
     24      27.2532      0.00000

 k-point     7 :       0.1000    0.1000    0.0000
  band No.  band energies     occupation 
      1     -41.4346      2.00000
      2     -41.3971      2.00000
      3     -41.3713      2.00000
      4     -41.3247      2.00000
      5     -41.2873      2.00000
      6     -41.1489      2.00000
      7       2.4629      2.00000
      8       4.9676      2.00000
      9       6.8760      2.00000
     10       7.6329      2.00000
     11       7.8020      2.00000
     12       7.9366      2.00000
     13       8.5708      2.00000
     14       8.5951      2.00000
     15       8.9260      2.00000
     16       9.2364      2.00000
     17      11.0059      1.99932
     18      14.2785      0.00000
     19      15.7211      0.00000
     20      26.5783      0.00000
     21      27.1866      0.00000
     22      28.2412      0.00000
     23      29.2640      0.00000
     24      30.0108      0.00000

 k-point     8 :       0.2000    0.1000    0.0000
  band No.  band energies     occupation 
      1     -41.4949      2.00000
      2     -41.4693      2.00000
      3     -41.3954      2.00000
      4     -41.3627      2.00000
      5     -41.3175      2.00000
      6     -41.1617      2.00000
      7       3.6327      2.00000
      8       5.5798      2.00000
      9       6.6998      2.00000
     10       6.7568      2.00000
     11       7.3615      2.00000
     12       8.1007      2.00000
     13       8.5468      2.00000
     14       8.8703      2.00000
     15       9.6264      2.00000
     16      10.0269      2.00000
     17      11.0054      1.99936
     18      15.7685      0.00000
     19      16.3615      0.00000
     20      23.3382      0.00000
     21      25.2445      0.00000
     22      27.3954      0.00000
     23      29.2931      0.00000
     24      29.9412      0.00000

 k-point     9 :       0.3000    0.1000    0.0000
  band No.  band energies     occupation 
      1     -41.5957      2.00000
      2     -41.5611      2.00000
      3     -41.4016      2.00000
      4     -41.3487      2.00000
      5     -41.3459      2.00000
      6     -41.1819      2.00000
      7       4.6895      2.00000
      8       5.3415      2.00000
      9       5.9863      2.00000
     10       7.1956      2.00000
     11       7.8032      2.00000
     12       7.8127      2.00000
     13       8.3817      2.00000
     14       9.6446      2.00000
     15      10.7074      2.00000
     16      10.9915      1.99986
     17      11.4493      0.00000
     18      16.3647      0.00000
     19      18.4904      0.00000
     20      19.5126      0.00000
     21      23.1369      0.00000
     22      25.9381      0.00000
     23      26.2417      0.00000
     24      28.2438      0.00000

 k-point    10 :       0.4000    0.1000    0.0000
  band No.  band energies     occupation 
      1     -41.6583      2.00000
      2     -41.6167      2.00000
      3     -41.4257      2.00000
      4     -41.3635      2.00000
      5     -41.3105      2.00000
      6     -41.2032      2.00000
      7       4.9962      2.00000
      8       5.0861      2.00000
      9       5.5855      2.00000
     10       7.7452      2.00000
     11       7.9832      2.00000
     12       7.9834      2.00000
     13       8.3129      2.00000
     14      10.8783      2.00000
     15      10.9740      1.99998
     16      11.2589      0.00017
     17      13.1526      0.00000
     18      16.1051      0.00000
     19      18.0498      0.00000
     20      20.1568      0.00000
     21      20.9279      0.00000
     22      23.2758      0.00000
     23      24.8705      0.00000
     24      27.1748      0.00000

 k-point    11 :       0.2000    0.2000    0.0000
  band No.  band energies     occupation 
      1     -41.5526      2.00000
      2     -41.5514      2.00000
      3     -41.4071      2.00000
      4     -41.3676      2.00000
      5     -41.3545      2.00000
      6     -41.1787      2.00000
      7       4.8431      2.00000
      8       6.1854      2.00000
      9       6.1886      2.00000
     10       6.2493      2.00000
     11       7.5759      2.00000
     12       7.6140      2.00000
     13       8.5732      2.00000
     14       8.9071      2.00000
     15      10.6914      2.00000
     16      10.8241      2.00000
     17      11.5307      0.00000
     18      16.3400      0.00000
     19      18.3671      0.00000
     20      20.9664      0.00000
     21      21.8801      0.00000
     22      26.6882      0.00000
     23      27.8880      0.00000
     24      28.3836      0.00000

 k-point    12 :       0.3000    0.2000    0.0000
  band No.  band energies     occupation 
      1     -41.6128      2.00000
      2     -41.5845      2.00000
      3     -41.4579      2.00000
      4     -41.4107      2.00000
      5     -41.3108      2.00000
      6     -41.2032      2.00000
      7       5.6263      2.00000
      8       5.8062      2.00000
      9       5.8392      2.00000
     10       6.9853      2.00000
     11       7.4683      2.00000
     12       8.0872      2.00000
     13       8.1256      2.00000
     14       9.6978      2.00000
     15      10.6856      2.00000
     16      11.1268      0.98388
     17      13.2048      0.00000
     18      17.3608      0.00000
     19      18.2871      0.00000
     20      19.9248      0.00000
     21      20.4493      0.00000
     22      24.8510      0.00000
     23      25.9019      0.00000
     24      26.8936      0.00000

 k-point    13 :       0.4000    0.2000    0.0000
  band No.  band energies     occupation 
      1     -41.6352      2.00000
      2     -41.5936      2.00000
      3     -41.4828      2.00000
      4     -41.4271      2.00000
      5     -41.2866      2.00000
      6     -41.2202      2.00000
      7       5.6715      2.00000
      8       5.6878      2.00000
      9       5.7422      2.00000
     10       7.5592      2.00000
     11       7.6082      2.00000
     12       7.7089      2.00000
     13       8.3925      2.00000
     14      10.4586      2.00000
     15      10.6346      2.00000
     16      10.9321      2.00000
     17      14.7999      0.00000
     18      15.3138      0.00000
     19      18.6235      0.00000
     20      20.1877      0.00000
     21      21.6580      0.00000
     22      22.6829      0.00000
     23      25.1011      0.00000
     24      26.3923      0.00000

 k-point    14 :       0.3000    0.3000    0.0000
  band No.  band energies     occupation 
      1     -41.5990      2.00000
      2     -41.5671      2.00000
      3     -41.5194      2.00000
      4     -41.4790      2.00000
      5     -41.2719      2.00000
      6     -41.2310      2.00000
      7       5.7661      2.00000
      8       6.1779      2.00000
      9       6.4332      2.00000
     10       6.8693      2.00000
     11       7.4203      2.00000
     12       7.6873      2.00000
     13       8.4812      2.00000
     14      10.0584      2.00000
     15      10.4685      2.00000
     16      10.7718      2.00000
     17      14.8103      0.00000
     18      16.0761      0.00000
     19      17.5015      0.00000
     20      21.0189      0.00000
     21      22.5824      0.00000
     22      23.8037      0.00000
     23      24.6211      0.00000
     24      25.0056      0.00000

 k-point    15 :       0.0000    0.0000    0.1250
  band No.  band energies     occupation 
      1     -41.4562      2.00000
      2     -41.2995      2.00000
      3     -41.2995      2.00000
      4     -41.2627      2.00000
      5     -41.2627      2.00000
      6     -41.1534      2.00000
      7       1.5534      2.00000
      8       4.0477      2.00000
      9       7.1721      2.00000
     10       7.6931      2.00000
     11       7.6931      2.00000
     12       8.0384      2.00000
     13       8.0384      2.00000
     14       9.4437      2.00000
     15       9.4437      2.00000
     16       9.8069      2.00000
     17      10.8960      2.00000
     18      10.8960      2.00000
     19      16.6724      0.00000
     20      25.7660      0.00000
     21      27.3150      0.00000
     22      28.0928      0.00000
     23      31.6202      0.00000
     24      31.6202      0.00000

 k-point    16 :       0.1000   -0.0000    0.1250
  band No.  band energies     occupation 
      1     -41.4463      2.00000
      2     -41.3353      2.00000
      3     -41.3099      2.00000
      4     -41.3009      2.00000
      5     -41.2707      2.00000
      6     -41.1548      2.00000
      7       1.9122      2.00000
      8       4.3816      2.00000
      9       7.1444      2.00000
     10       7.6336      2.00000
     11       7.8258      2.00000
     12       7.9600      2.00000
     13       8.2961      2.00000
     14       8.7074      2.00000
     15       9.2911      2.00000
     16       9.3220      2.00000
     17      10.9468      2.00000
     18      12.1437      0.00000
     19      16.7598      0.00000
     20      26.2666      0.00000
     21      27.7409      0.00000
     22      28.4767      0.00000
     23      29.9420      0.00000
     24      30.5862      0.00000

 k-point    17 :       0.2000   -0.0000    0.1250
  band No.  band energies     occupation 
      1     -41.4428      2.00000
      2     -41.4041      2.00000
      3     -41.3947      2.00000
      4     -41.3369      2.00000
      5     -41.2907      2.00000
      6     -41.1608      2.00000
      7       2.8822      2.00000
      8       5.1254      2.00000
      9       6.9485      2.00000
     10       7.1435      2.00000
     11       7.4445      2.00000
     12       8.2260      2.00000
     13       8.6116      2.00000
     14       8.9528      2.00000
     15       9.0179      2.00000
     16       9.1280      2.00000
     17      11.0240      1.99611
     18      13.6634      0.00000
     19      17.1713      0.00000
     20      25.2567      0.00000
     21      27.7400      0.00000
     22      28.3937      0.00000
     23      28.5985      0.00000
     24      29.7301      0.00000

 k-point    18 :       0.3000    0.0000    0.1250
  band No.  band energies     occupation 
      1     -41.5506      2.00000
      2     -41.5135      2.00000
      3     -41.3698      2.00000
      4     -41.3673      2.00000
      5     -41.3160      2.00000
      6     -41.1743      2.00000
      7       4.0251      2.00000
      8       5.2696      2.00000
      9       6.3282      2.00000
     10       7.0143      2.00000
     11       7.5650      2.00000
     12       8.4033      2.00000
     13       8.4712      2.00000
     14       9.5396      2.00000
     15       9.9114      2.00000
     16      10.0719      2.00000
     17      11.0664      1.90846
     18      14.7514      0.00000
     19      18.1667      0.00000
     20      21.7070      0.00000
     21      26.0948      0.00000
     22      26.1302      0.00000
     23      27.6953      0.00000
     24      29.5622      0.00000

 k-point    19 :       0.4000   -0.0000    0.1250
  band No.  band energies     occupation 
      1     -41.6434      2.00000
      2     -41.6041      2.00000
      3     -41.3953      2.00000
      4     -41.3364      2.00000
      5     -41.3251      2.00000
      6     -41.1932      2.00000
      7       4.5677      2.00000
      8       4.9357      2.00000
      9       5.8497      2.00000
     10       7.0667      2.00000
     11       8.1428      2.00000
     12       8.2171      2.00000
     13       8.8950      2.00000
     14      10.8894      2.00000
     15      10.9870      1.99992
     16      11.2458      0.00071
     17      11.2692      0.00005
     18      15.7813      0.00000
     19      17.8408      0.00000
     20      19.8395      0.00000
     21      23.2586      0.00000
     22      24.2238      0.00000
     23      25.3713      0.00000
     24      28.0488      0.00000

 k-point    20 :       0.5000   -0.0000    0.1250
  band No.  band energies     occupation 
      1     -41.6792      2.00000
      2     -41.6393      2.00000
      3     -41.4052      2.00000
      4     -41.3444      2.00000
      5     -41.3039      2.00000
      6     -41.2052      2.00000
      7       4.6454      2.00000
      8       4.7521      2.00000
      9       5.6964      2.00000
     10       7.1299      2.00000
     11       8.1231      2.00000
     12       8.2929      2.00000
     13       9.3450      2.00000
     14      10.9703      1.99999
     15      11.4460      0.00000
     16      11.6201      0.00000
     17      13.1653      0.00000
     18      14.7640      0.00000
     19      18.2543      0.00000
     20      18.9992      0.00000
     21      21.8559      0.00000
     22      23.4580      0.00000
     23      24.5349      0.00000
     24      27.5330      0.00000

 k-point    21 :       0.1000    0.1000    0.1250
  band No.  band energies     occupation 
      1     -41.4319      2.00000
      2     -41.3881      2.00000
      3     -41.3728      2.00000
      4     -41.3244      2.00000
      5     -41.2892      2.00000
      6     -41.1587      2.00000
      7       2.5858      2.00000
      8       4.9692      2.00000
      9       6.9073      2.00000
     10       7.3568      2.00000
     11       7.7143      2.00000
     12       7.9421      2.00000
     13       8.5038      2.00000
     14       8.7259      2.00000
     15       9.0160      2.00000
     16       9.3066      2.00000
     17      10.9545      2.00000
     18      13.3119      0.00000
     19      17.0160      0.00000
     20      26.5327      0.00000
     21      27.2546      0.00000
     22      28.1394      0.00000
     23      28.8121      0.00000
     24      30.2658      0.00000

 k-point    22 :       0.2000    0.1000    0.1250
  band No.  band energies     occupation 
      1     -41.4981      2.00000
      2     -41.4721      2.00000
      3     -41.3822      2.00000
      4     -41.3614      2.00000
      5     -41.3192      2.00000
      6     -41.1686      2.00000
      7       3.7235      2.00000
      8       5.6136      2.00000
      9       6.5782      2.00000
     10       6.7659      2.00000
     11       7.3331      2.00000
     12       7.9945      2.00000
     13       8.7086      2.00000
     14       8.8509      2.00000
     15       9.7367      2.00000
     16       9.9749      2.00000
     17      10.9544      2.00000
     18      14.4790      0.00000
     19      17.8181      0.00000
     20      23.5176      0.00000
     21      25.3738      0.00000
     22      27.3135      0.00000
     23      28.6927      0.00000
     24      30.5202      0.00000

 k-point    23 :       0.3000    0.1000    0.1250
  band No.  band energies     occupation 
      1     -41.5970      2.00000
      2     -41.5646      2.00000
      3     -41.4003      2.00000
      4     -41.3495      2.00000
      5     -41.3378      2.00000
      6     -41.1856      2.00000
      7       4.6736      2.00000
      8       5.3756      2.00000
      9       6.0503      2.00000
     10       6.9192      2.00000
     11       7.7734      2.00000
     12       8.1524      2.00000
     13       8.3960      2.00000
     14       9.6614      2.00000
     15      10.7491      2.00000
     16      10.8094      2.00000
     17      11.5079      0.00000
     18      15.5694      0.00000
     19      18.7529      0.00000
     20      20.2643      0.00000
     21      23.2484      0.00000
     22      25.4139      0.00000
     23      26.5922      0.00000
     24      28.4403      0.00000

 k-point    24 :       0.4000    0.1000    0.1250
  band No.  band energies     occupation 
      1     -41.6591      2.00000
      2     -41.6206      2.00000
      3     -41.4242      2.00000
      4     -41.3663      2.00000
      5     -41.3034      2.00000
      6     -41.2049      2.00000
      7       4.8743      2.00000
      8       5.0732      2.00000
      9       5.8396      2.00000
     10       7.0722      2.00000
     11       7.8596      2.00000
     12       8.4188      2.00000
     13       8.8220      2.00000
     14      10.7652      2.00000
     15      10.8817      2.00000
     16      11.3008      0.00000
[...]
      5     -41.2722      2.00000
      6     -41.2722      2.00000
      7       4.3347      2.00000
      8       4.3347      2.00000
      9       6.6383      2.00000
     10       6.6383      2.00000
     11       7.4788      2.00000
     12       7.4788      2.00000
     13       8.6167      2.00000
     14       8.6167      2.00000
     15      10.2078      2.00000
     16      10.2078      2.00000
     17      10.6851      2.00000
     18      10.6851      2.00000
     19      23.5661      0.00000
     20      23.5661      0.00000
     21      26.7054      0.00000
     22      26.7054      0.00000
     23      29.2825      0.00000
     24      29.2825      0.00000

 k-point    60 :       0.3000    0.0000    0.5000
  band No.  band energies     occupation 
      1     -41.5458      2.00000
      2     -41.5458      2.00000
      3     -41.3427      2.00000
      4     -41.3427      2.00000
      5     -41.2578      2.00000
      6     -41.2578      2.00000
      7       4.8047      2.00000
      8       4.8047      2.00000
      9       6.3268      2.00000
     10       6.3269      2.00000
     11       8.1930      2.00000
     12       8.1930      2.00000
     13       9.2473      2.00000
     14       9.2473      2.00000
     15      10.4149      2.00000
     16      10.4149      2.00000
     17      11.0476      1.97350
     18      11.0476      1.97349
     19      22.4589      0.00000
     20      22.4589      0.00000
     21      25.3502      0.00000
     22      25.3502      0.00000
     23      29.1561      0.00000
     24      29.1561      0.00000

 k-point    61 :       0.4000   -0.0000    0.5000
  band No.  band energies     occupation 
      1     -41.6377      2.00000
      2     -41.6377      2.00000
      3     -41.3663      2.00000
      4     -41.3663      2.00000
      5     -41.2460      2.00000
      6     -41.2460      2.00000
      7       4.6994      2.00000
      8       4.6994      2.00000
      9       6.0583      2.00000
     10       6.0583      2.00000
     11       9.3589      2.00000
     12       9.3589      2.00000
     13       9.7280      2.00000
     14       9.7280      2.00000
     15      11.1466      0.56130
     16      11.1466      0.56126
     17      11.7845      0.00000
     18      11.7845      0.00000
     19      19.4893      0.00000
     20      19.4893      0.00000
     21      25.2547      0.00000
     22      25.2547      0.00000
     23      27.4601      0.00000
     24      27.4601      0.00000

 k-point    62 :       0.5000   -0.0000    0.5000
  band No.  band energies     occupation 
      1     -41.6725      2.00000
      2     -41.6725      2.00000
      3     -41.3753      2.00000
      4     -41.3753      2.00000
      5     -41.2414      2.00000
      6     -41.2414      2.00000
      7       4.6084      2.00000
      8       4.6084      2.00000
      9       5.9527      2.00000
     10       5.9527      2.00000
     11       9.3425      2.00000
     12       9.3425      2.00000
     13      10.2929      2.00000
     14      10.2929      2.00000
     15      11.5414      0.00000
     16      11.5415      0.00000
     17      12.8381      0.00000
     18      12.8381      0.00000
     19      17.5826      0.00000
     20      17.5826      0.00000
     21      25.2650      0.00000
     22      25.2650      0.00000
     23      26.7292      0.00000
     24      26.7292      0.00000

 k-point    63 :       0.1000    0.1000    0.5000
  band No.  band energies     occupation 
      1     -41.3988      2.00000
      2     -41.3988      2.00000
      3     -41.3105      2.00000
      4     -41.3105      2.00000
      5     -41.2743      2.00000
      6     -41.2743      2.00000
      7       4.1221      2.00000
      8       4.1221      2.00000
      9       6.7368      2.00000
     10       6.7368      2.00000
     11       7.4083      2.00000
     12       7.4083      2.00000
     13       8.4597      2.00000
     14       8.4597      2.00000
     15      10.2074      2.00000
     16      10.2074      2.00000
     17      10.6330      2.00000
     18      10.6330      2.00000
     19      23.5466      0.00000
     20      23.5466      0.00000
     21      27.4467      0.00000
     22      27.4467      0.00000
     23      28.3912      0.00000
     24      28.3912      0.00000

 k-point    64 :       0.2000    0.1000    0.5000
  band No.  band energies     occupation 
      1     -41.4968      2.00000
      2     -41.4968      2.00000
      3     -41.3438      2.00000
      4     -41.3438      2.00000
      5     -41.2604      2.00000
      6     -41.2604      2.00000
      7       4.8980      2.00000
      8       4.8980      2.00000
      9       6.5080      2.00000
     10       6.5080      2.00000
     11       7.3407      2.00000
     12       7.3407      2.00000
     13       9.0883      2.00000
     14       9.0883      2.00000
     15      10.3940      2.00000
     16      10.3940      2.00000
     17      10.9625      2.00000
     18      10.9625      2.00000
     19      23.5051      0.00000
     20      23.5051      0.00000
     21      25.8056      0.00000
     22      25.8056      0.00000
     23      27.4797      0.00000
     24      27.4797      0.00000

 k-point    65 :       0.3000    0.1000    0.5000
  band No.  band energies     occupation 
      1     -41.5938      2.00000
      2     -41.5938      2.00000
      3     -41.3775      2.00000
      4     -41.3775      2.00000
      5     -41.2473      2.00000
      6     -41.2473      2.00000
      7       5.0147      2.00000
      8       5.0147      2.00000
      9       6.2844      2.00000
     10       6.2844      2.00000
     11       8.3203      2.00000
     12       8.3203      2.00000
     13       9.2032      2.00000
     14       9.2032      2.00000
     15      11.0236      1.99626
     16      11.0236      1.99626
     17      11.8265      0.00000
     18      11.8265      0.00000
     19      21.1099      0.00000
     20      21.1099      0.00000
     21      25.2948      0.00000
     22      25.2948      0.00000
     23      26.4020      0.00000
     24      26.4020      0.00000

 k-point    66 :       0.4000    0.1000    0.5000
  band No.  band energies     occupation 
      1     -41.6526      2.00000
      2     -41.6526      2.00000
      3     -41.3975      2.00000
      4     -41.3975      2.00000
      5     -41.2388      2.00000
      6     -41.2388      2.00000
      7       4.8785      2.00000
      8       4.8785      2.00000
      9       6.1117      2.00000
     10       6.1117      2.00000
     11       8.8097      2.00000
     12       8.8097      2.00000
     13       9.9067      2.00000
     14       9.9067      2.00000
     15      11.1159      1.22723
     16      11.1159      1.22716
     17      13.5055      0.00000
     18      13.5055      0.00000
     19      18.2205      0.00000
     20      18.2205      0.00000
     21      25.1026      0.00000
     22      25.1026      0.00000
     23      25.7796      0.00000
     24      25.7796      0.00000

 k-point    67 :       0.2000    0.2000    0.5000
  band No.  band energies     occupation 
      1     -41.5647      2.00000
      2     -41.5647      2.00000
      3     -41.3947      2.00000
      4     -41.3947      2.00000
      5     -41.2465      2.00000
      6     -41.2465      2.00000
      7       5.3793      2.00000
      8       5.3793      2.00000
      9       6.6534      2.00000
     10       6.6534      2.00000
     11       7.2314      2.00000
     12       7.2314      2.00000
     13       8.9523      2.00000
     14       8.9523      2.00000
     15      11.1192      1.15360
     16      11.1192      1.15353
     17      11.9392      0.00000
     18      11.9392      0.00000
     19      22.3423      0.00000
     20      22.3423      0.00000
     21      24.4297      0.00000
     22      24.4297      0.00000
     23      26.0698      0.00000
     24      26.0698      0.00000

 k-point    68 :       0.3000    0.2000    0.5000
  band No.  band energies     occupation 
      1     -41.6113      2.00000
      2     -41.6113      2.00000
      3     -41.4428      2.00000
      4     -41.4428      2.00000
      5     -41.2356      2.00000
      6     -41.2356      2.00000
      7       5.4624      2.00000
      8       5.4624      2.00000
      9       6.5456      2.00000
     10       6.5456      2.00000
     11       7.8362      2.00000
     12       7.8362      2.00000
     13       8.8928      2.00000
     14       8.8928      2.00000
     15      11.1880      0.07990
     16      11.1880      0.07988
     17      14.0106      0.00000
     18      14.0106      0.00000
     19      19.6626      0.00000
     20      19.6626      0.00000
     21      23.0463      0.00000
     22      23.0463      0.00000
     23      26.4848      0.00000
     24      26.4848      0.00000

 k-point    69 :       0.4000    0.2000    0.5000
  band No.  band energies     occupation 
      1     -41.6272      2.00000
      2     -41.6272      2.00000
      3     -41.4627      2.00000
      4     -41.4627      2.00000
      5     -41.2313      2.00000
      6     -41.2313      2.00000
      7       5.4554      2.00000
      8       5.4554      2.00000
      9       6.4740      2.00000
     10       6.4740      2.00000
     11       7.9254      2.00000
     12       7.9254      2.00000
     13       9.3164      2.00000
     14       9.3164      2.00000
     15      11.0473      1.97415
     16      11.0473      1.97415
     17      15.7031      0.00000
     18      15.7031      0.00000
     19      17.6849      0.00000
     20      17.6849      0.00000
     21      22.4496      0.00000
     22      22.4496      0.00000
     23      26.8954      0.00000
     24      26.8954      0.00000

 k-point    70 :       0.3000    0.3000    0.5000
  band No.  band energies     occupation 
      1     -41.5910      2.00000
      2     -41.5910      2.00000
      3     -41.5145      2.00000
      4     -41.5145      2.00000
      5     -41.2285      2.00000
      6     -41.2285      2.00000
      7       5.9129      2.00000
      8       5.9129      2.00000
      9       6.7328      2.00000
     10       6.7328      2.00000
     11       7.4931      2.00000
     12       7.4931      2.00000
     13       8.7697      2.00000
     14       8.7697      2.00000
     15      11.0317      1.99243
     16      11.0317      1.99243
     17      16.4671      0.00000
     18      16.4671      0.00000
     19      18.4159      0.00000
     20      18.4159      0.00000
     21      20.6397      0.00000
     22      20.6397      0.00000
     23      27.9619      0.00000
     24      27.9619      0.00000


--------------------------------------------------------------------------------------------------------


 soft charge-density along one line, spin component           1
         0         1         2         3         4         5         6         7         8         9
 total charge-density along one line
 
 pseudopotential strength for first ion, spin component:           1
-31.681  -0.000   0.000  10.736   0.000  -0.000  -0.000  -0.000
 -0.000 -31.616  -0.000   0.000  10.670   0.000   0.000   0.000
  0.000  -0.000 -31.681  -0.000   0.000  10.736  -0.000   0.000
 10.736   0.000  -0.000  16.249  -0.000   0.000   0.000   0.000
  0.000  10.670   0.000  -0.000  16.273  -0.000  -0.000  -0.000
 -0.000   0.000  10.736   0.000  -0.000  16.249   0.000  -0.000
 -0.000   0.000  -0.000   0.000  -0.000   0.000  -3.717   0.000
 -0.000   0.000   0.000   0.000  -0.000  -0.000   0.000  -3.673
 -0.000  -0.000   0.000   0.000   0.000  -0.000  -0.000   0.000
  0.000  -0.000   0.000  -0.000   0.000  -0.000  -0.000   0.000
 -0.000   0.000  -0.000   0.000  -0.000   0.000  -0.000   0.000
 -0.000   0.000  -0.000   0.000  -0.000   0.000  -3.947   0.000
 -0.000   0.000   0.000   0.000  -0.000  -0.000   0.000  -3.898
 -0.000  -0.000   0.000   0.000   0.000  -0.000  -0.000   0.000
  0.000  -0.000   0.000  -0.000   0.000  -0.000  -0.000   0.000
 -0.000   0.000  -0.000   0.000  -0.000   0.000  -0.000   0.000
 -0.000   0.000   0.000  -0.000   0.000   0.000  -0.000   0.000
  0.000  -0.000  -0.000   0.000  -0.000  -0.000   0.000  -0.000
 total augmentation occupancy for first ion, spin component:           1
  2.002   0.000  -0.000  -0.021   0.000   0.000   0.000   0.000  -0.000   0.000   0.004  -0.000   0.000   0.000   0.000  -0.004
 -0.000   2.002   0.000   0.000  -0.019   0.000   0.000   0.000   0.000   0.000   0.000   0.000   0.000   0.000   0.000  -0.000
 -0.000   0.000   2.002   0.000   0.000  -0.021   0.004   0.000   0.000  -0.000  -0.000  -0.004   0.000  -0.000   0.000  -0.000
 -0.021   0.000   0.000   0.049  -0.000  -0.000  -0.000  -0.000   0.000   0.000  -0.025   0.000   0.000  -0.000  -0.000   0.024
 -0.000  -0.019   0.000  -0.000   0.042   0.000   0.000   0.000   0.000  -0.000   0.000   0.000   0.000   0.000   0.000  -0.000
  0.000  -0.000  -0.021   0.000  -0.000   0.049  -0.025   0.000  -0.000  -0.000   0.000   0.024   0.000   0.000   0.000   0.000
  0.000   0.000   0.004  -0.000  -0.000  -0.025   4.982   0.000   0.000  -0.000   0.000  -2.704   0.000  -0.000  -0.000  -0.000
  0.000   0.000  -0.000  -0.000   0.000   0.000   0.000   4.239  -0.000  -0.000   0.000   0.000  -2.301   0.000   0.000   0.000
 -0.000   0.000   0.000   0.000   0.000  -0.000   0.000  -0.000   5.031  -0.000  -0.000  -0.000   0.000  -2.753  -0.000   0.000
  0.000   0.000  -0.000   0.000   0.000   0.000  -0.000   0.000   0.000   4.239   0.000   0.000   0.000   0.000  -2.301   0.000
  0.004  -0.000  -0.000  -0.025  -0.000  -0.000   0.000   0.000  -0.000  -0.000   4.982  -0.000   0.000   0.000   0.000  -2.704
 -0.000   0.000  -0.004   0.000   0.000   0.024  -2.704  -0.000  -0.000   0.000  -0.000   2.162   0.000   0.000   0.000   0.000
  0.000  -0.000   0.000  -0.000  -0.000   0.000  -0.000  -2.301   0.000  -0.000   0.000   0.000   2.208  -0.000  -0.000   0.000
  0.000   0.000  -0.000  -0.000   0.000   0.000  -0.000  -0.000  -2.753   0.000   0.000   0.000  -0.000   2.199   0.000  -0.000
  0.000  -0.000   0.000  -0.000   0.000   0.000  -0.000   0.000   0.000  -2.301   0.000   0.000  -0.000   0.000   2.208  -0.000
 -0.004   0.000  -0.000   0.024  -0.000   0.000  -0.000  -0.000   0.000   0.000  -2.704   0.000   0.000  -0.000   0.000   2.162
 -0.000   0.000   0.000   0.000   0.000   0.000  -0.000   0.000  -0.216  -0.000   0.000   0.000   0.000   0.198   0.000  -0.000
  0.000   0.000  -0.000   0.000   0.000   0.000  -0.000   0.000   0.004  -0.000   0.000   0.000  -0.000   0.001   0.000  -0.000


------------------------ aborting loop because EDIFF is reached ----------------------------------------


    CHARGE:  cpu time      0.0193: real time      0.0194
    FORLOC:  cpu time      0.0002: real time      0.0002
    FORNL :  cpu time      0.0146: real time      0.0146
    STRESS:  cpu time      0.1614: real time      0.1620
    FORCOR:  cpu time      0.0027: real time      0.0027
    FORHAR:  cpu time      0.0006: real time      0.0006
    MIXING:  cpu time      0.0002: real time      0.0002
    OFIELD:  cpu time      0.0000: real time      0.0000

  FORCE on cell =-STRESS in cart. coord.  units (eV):
  Direction    XX          YY          ZZ          XY          YZ          ZX
  --------------------------------------------------------------------------------------
  Alpha Z   303.71315   303.71315   303.71315
  Ewald   -1374.27429 -1374.27429 -1492.14368     0.00000     0.00000    -0.00000
  Hartree   277.64309   277.64309   225.51738    -0.00000    -0.00000    -0.00000
  E(xc)    -170.75200  -170.75200  -170.99202    -0.00000    -0.00000    -0.00000
  Local     183.67001   183.66999   341.32322    -0.00001    -0.00000    -0.00000
  n-local   -59.22837   -61.61519   -62.57751   -13.18002     3.59143     3.33705
  augment   145.45678   145.45679   149.05104     0.00001    -0.00000     0.00000
  Kinetic   697.42610   691.34530   705.51546   -16.73141     3.60495     1.04465
  Fock        0.00000     0.00000     0.00000     0.00000     0.00000     0.00000
  -------------------------------------------------------------------------------------
  Total      -0.57935    -0.57935    -0.59297     0.00000     0.00000     0.00000
  in kB     -29.37418   -29.37418   -30.06465     0.00000     0.00000     0.00000
  external pressure =      -29.60 kB  Pullay stress =        0.00 kB


 VOLUME and BASIS-vectors are now :
 -----------------------------------------------------------------------------
  energy-cutoff  :      425.00
  volume of cell :       31.60
      direct lattice vectors                 reciprocal lattice vectors
     2.760000000  0.000000000  0.000000000     0.362318841  0.209184880  0.000000000
    -1.380000000  2.390230114  0.000000000     0.000000000  0.418369760  0.000000000
     0.000000000  0.000000000  4.790000000     0.000000000  0.000000000  0.208768267

  length of vectors
     2.760000000  2.760000000  4.790000000     0.418369760  0.418369760  0.208768267


 FORCES acting on ions
    electron-ion (+dipol)            ewald-force                    non-local-force                 convergence-correction
 -----------------------------------------------------------------------------------------------
   0.382E-06 -.221E-06 -.198E-13   0.179E-11 -.111E-11 -.683E-13   -.382E-16 -.694E-17 0.000E+00   -.555E-08 0.320E-08 0.105E-12
   -.297E-06 0.172E-06 -.308E-11   -.176E-11 0.110E-11 0.683E-13   0.416E-16 0.139E-16 0.000E+00   0.554E-08 -.320E-08 0.476E-13
 -----------------------------------------------------------------------------------------------
   0.852E-07 -.492E-07 -.310E-11   0.219E-13 -.314E-14 0.000E+00   0.347E-17 0.694E-17 0.000E+00   -.673E-11 0.395E-11 0.152E-12
 
 
 POSITION                                       TOTAL-FORCE (eV/Angst)
 -----------------------------------------------------------------------------------
      0.00000      0.00000      0.00000         0.000000      0.000000      0.000000
      0.00000      1.59349      2.39500        -0.000000      0.000000      0.000000
 -----------------------------------------------------------------------------------
    total drift:                                0.000000     -0.000000     -0.000000


--------------------------------------------------------------------------------------------------------



  FREE ENERGIE OF THE ION-ELECTRON SYSTEM (eV)
  ---------------------------------------------------
  free  energy   TOTEN  =       -12.04008336 eV

  energy  without entropy=      -12.03537179  energy(sigma->0) =      -12.03772757
 


--------------------------------------------------------------------------------------------------------


    POTLOK:  cpu time      0.0054: real time      0.0054


--------------------------------------------------------------------------------------------------------


     LOOP+:  cpu time      4.9540: real time      4.9845
    4ORBIT:  cpu time      0.0000: real time      0.0000

 total amount of memory used by VASP MPI-rank0    38357. kBytes
=======================================================================

   base      :      30000. kBytes
   nonl-proj :       6552. kBytes
   fftplans  :        226. kBytes
   grid      :        769. kBytes
   one-center:         31. kBytes
   wavefun   :        779. kBytes
 
  
  
 General timing and accounting informations for this job:
 ========================================================
  
                  Total CPU time used (sec):        5.740
                            User time (sec):        5.257
                          System time (sec):        0.483
                         Elapsed time (sec):        7.145
  
                   Maximum memory used (kb):      229580.
                   Average memory used (kb):          N/A
  
                          Minor page faults:        25378
                          Major page faults:           96
                 Voluntary context switches:         2215
