<?xml version="1.0" encoding="ISO-8859-1"?>
<modeling>
 <generator>
  <i name="program" type="string">vasp </i>
  <i name="version" type="string">6.3.2  </i>
  <i name="subversion" type="string">27Jun22 (build Aug 12 2022 00:53:59) complex                          parallel </i>
  <i name="platform" type="string">tv2STD </i>
  <i name="date" type="string">2024 11 30 </i>
  <i name="time" type="string">15:58:03 </i>
 </generator>
 <incar>
  <i type="string" name="SYSTEM">Pt-hcp</i>
  <i type="int" name="ISTART">     0</i>
  <i type="string" name="PREC">Accurate      normal | accurate</i>
  <i type="string" name="ALGO">Normal     Normal, Fast, Very_Fast</i>
  <i type="logical" name="ADDGRID"> F  </i>
  <i type="int" name="ICHARG">     2</i>
  <i type="int" name="INIWAV">     1</i>
  <i type="int" name="NELM">   100</i>
  <i type="int" name="IBRION">    -1</i>
  <i name="EDIFF">      0.00000100</i>
  <i name="EDIFFG">     -0.02000000</i>
  <i type="int" name="NSW">     0</i>
  <i type="int" name="ISIF">     2</i>
  <i type="int" name="ISYM">     1</i>
  <i name="ENCUT">    425.00000000</i>
  <i type="logical" name="LREAL"> F  </i>
  <i type="int" name="ISMEAR">     0</i>
  <i name="SIGMA">      0.05000000</i>
  <i type="int" name="NWRITE">     2</i>
  <i type="logical" name="LWAVE"> F  </i>
  <i type="logical" name="LCHARG"> F  </i>
 </incar>
 <primitive_cell>
  <structure name="primitive_cell" >
   <crystal>
    <varray name="basis" >
     <v>       2.76000000       0.00000000       0.00000000 </v>
     <v>      -1.38000000       2.39023011       0.00000000 </v>
     <v>       0.00000000       0.00000000       4.79000000 </v>
    </varray>
    <i name="volume">     31.59979821 </i>
    <varray name="rec_basis" >
     <v>       0.36231884       0.20918488       0.00000000 </v>
     <v>       0.00000000       0.41836976       0.00000000 </v>
     <v>       0.00000000       0.00000000       0.20876827 </v>
    </varray>
   </crystal>
   <varray name="positions" >
    <v>       0.00000000       0.00000000       0.00000000 </v>
    <v>       0.33333333       0.66666667       0.50000000 </v>
   </varray>
  </structure>
  <varray name="primitive_index" >
   <v type="int" >        1 </v>
   <v type="int" >        2 </v>
  </varray>
 </primitive_cell>
 <kpoints>
  <generation param="Gamma">
   <v type="int" name="divisions">      10       10        8 </v>
   <v name="usershift">      0.00000000       0.00000000       0.00000000 </v>
   <v name="genvec1">      0.10000000       0.00000000       0.00000000 </v>
   <v name="genvec2">      0.00000000       0.10000000       0.00000000 </v>
   <v name="genvec3">      0.00000000       0.00000000       0.12500000 </v>
   <v name="shift">      0.00000000       0.00000000       0.00000000 </v>
  </generation>
  <varray name="kpointlist" >
   <v>       0.00000000       0.00000000       0.00000000 </v>
   <v>       0.10000000      -0.00000000       0.00000000 </v>
   <v>       0.20000000      -0.00000000       0.00000000 </v>
   <v>       0.30000000       0.00000000       0.00000000 </v>
   <v>       0.40000000      -0.00000000       0.00000000 </v>
   <v>       0.50000000      -0.00000000       0.00000000 </v>
   <v>       0.10000000       0.10000000       0.00000000 </v>
   <v>       0.20000000       0.10000000       0.00000000 </v>
   <v>       0.30000000       0.10000000       0.00000000 </v>
   <v>       0.40000000       0.10000000       0.00000000 </v>
   <v>       0.20000000       0.20000000       0.00000000 </v>
   <v>       0.30000000       0.20000000       0.00000000 </v>
   <v>       0.40000000       0.20000000       0.00000000 </v>
   <v>       0.30000000       0.30000000       0.00000000 </v>
   <v>       0.00000000       0.00000000       0.12500000 </v>
   <v>       0.10000000      -0.00000000       0.12500000 </v>
   <v>       0.20000000      -0.00000000       0.12500000 </v>
   <v>       0.30000000       0.00000000       0.12500000 </v>
   <v>       0.40000000      -0.00000000       0.12500000 </v>
   <v>       0.50000000      -0.00000000       0.12500000 </v>
   <v>       0.10000000       0.10000000       0.12500000 </v>
   <v>       0.20000000       0.10000000       0.12500000 </v>
   <v>       0.30000000       0.10000000       0.12500000 </v>
   <v>       0.40000000       0.10000000       0.12500000 </v>
   <v>       0.20000000       0.20000000       0.12500000 </v>
   <v>       0.30000000       0.20000000       0.12500000 </v>
   <v>       0.40000000       0.20000000       0.12500000 </v>
   <v>       0.30000000       0.30000000       0.12500000 </v>
   <v>       0.00000000       0.00000000       0.25000000 </v>
   <v>       0.10000000      -0.00000000       0.25000000 </v>
   <v>       0.20000000      -0.00000000       0.25000000 </v>
   <v>       0.30000000       0.00000000       0.25000000 </v>
   <v>       0.40000000      -0.00000000       0.25000000 </v>
   <v>       0.50000000      -0.00000000       0.25000000 </v>
   <v>       0.10000000       0.10000000       0.25000000 </v>
   <v>       0.20000000       0.10000000       0.25000000 </v>
   <v>       0.30000000       0.10000000       0.25000000 </v>
   <v>       0.40000000       0.10000000       0.25000000 </v>
   <v>       0.20000000       0.20000000       0.25000000 </v>
   <v>       0.30000000       0.20000000       0.25000000 </v>
   <v>       0.40000000       0.20000000       0.25000000 </v>
   <v>       0.30000000       0.30000000       0.25000000 </v>
   <v>       0.00000000       0.00000000       0.37500000 </v>
   <v>       0.10000000      -0.00000000       0.37500000 </v>
   <v>       0.20000000      -0.00000000       0.37500000 </v>
   <v>       0.30000000       0.00000000       0.37500000 </v>
   <v>       0.40000000      -0.00000000       0.37500000 </v>
   <v>       0.50000000      -0.00000000       0.37500000 </v>
   <v>       0.10000000       0.10000000       0.37500000 </v>
   <v>       0.20000000       0.10000000       0.37500000 </v>
   <v>       0.30000000       0.10000000       0.37500000 </v>
   <v>       0.40000000       0.10000000       0.37500000 </v>
   <v>       0.20000000       0.20000000       0.37500000 </v>
   <v>       0.30000000       0.20000000       0.37500000 </v>
   <v>       0.40000000       0.20000000       0.37500000 </v>
   <v>       0.30000000       0.30000000       0.37500000 </v>
   <v>       0.00000000       0.00000000       0.50000000 </v>
   <v>       0.10000000      -0.00000000       0.50000000 </v>
   <v>       0.20000000      -0.00000000       0.50000000 </v>
   <v>       0.30000000       0.00000000       0.50000000 </v>
   <v>       0.40000000      -0.00000000       0.50000000 </v>
   <v>       0.50000000      -0.00000000       0.50000000 </v>
   <v>       0.10000000       0.10000000       0.50000000 </v>
   <v>       0.20000000       0.10000000       0.50000000 </v>
   <v>       0.30000000       0.10000000       0.50000000 </v>
   <v>       0.40000000       0.10000000       0.50000000 </v>
   <v>       0.20000000       0.20000000       0.50000000 </v>
   <v>       0.30000000       0.20000000       0.50000000 </v>
   <v>       0.40000000       0.20000000       0.50000000 </v>
   <v>       0.30000000       0.30000000       0.50000000 </v>
  </varray>
  <varray name="weights" >
   <v>       0.00125000 </v>
   <v>       0.00750000 </v>
   <v>       0.00750000 </v>
   <v>       0.00750000 </v>
   <v>       0.00750000 </v>
   <v>       0.00375000 </v>
   <v>       0.00750000 </v>
   <v>       0.01500000 </v>
   <v>       0.01500000 </v>
   <v>       0.01500000 </v>
   <v>       0.00750000 </v>
   <v>       0.01500000 </v>
   <v>       0.00750000 </v>
   <v>       0.00750000 </v>
   <v>       0.00250000 </v>
   <v>       0.01500000 </v>
   <v>       0.01500000 </v>
   <v>       0.01500000 </v>
   <v>       0.01500000 </v>
   <v>       0.00750000 </v>
   <v>       0.01500000 </v>
   <v>       0.03000000 </v>
   <v>       0.03000000 </v>
   <v>       0.03000000 </v>
   <v>       0.01500000 </v>
   <v>       0.03000000 </v>
   <v>       0.01500000 </v>
   <v>       0.01500000 </v>
   <v>       0.00250000 </v>
   <v>       0.01500000 </v>
   <v>       0.01500000 </v>
   <v>       0.01500000 </v>
   <v>       0.01500000 </v>
   <v>       0.00750000 </v>
   <v>       0.01500000 </v>
   <v>       0.03000000 </v>
   <v>       0.03000000 </v>
   <v>       0.03000000 </v>
   <v>       0.01500000 </v>
   <v>       0.03000000 </v>
   <v>       0.01500000 </v>
   <v>       0.01500000 </v>
   <v>       0.00250000 </v>
   <v>       0.01500000 </v>
   <v>       0.01500000 </v>
   <v>       0.01500000 </v>
   <v>       0.01500000 </v>
   <v>       0.00750000 </v>
   <v>       0.01500000 </v>
   <v>       0.03000000 </v>
   <v>       0.03000000 </v>
   <v>       0.03000000 </v>
   <v>       0.01500000 </v>
   <v>       0.03000000 </v>
   <v>       0.01500000 </v>
   <v>       0.01500000 </v>
   <v>       0.00125000 </v>
   <v>       0.00750000 </v>
   <v>       0.00750000 </v>
   <v>       0.00750000 </v>
   <v>       0.00750000 </v>
   <v>       0.00375000 </v>
   <v>       0.00750000 </v>
   <v>       0.01500000 </v>
   <v>       0.01500000 </v>
   <v>       0.01500000 </v>
   <v>       0.00750000 </v>
   <v>       0.01500000 </v>
   <v>       0.00750000 </v>
   <v>       0.00750000 </v>
  </varray>
 </kpoints>
 <parameters>
  <separator name="general" >
   <i type="string" name="SYSTEM">Pt-hcp</i>
   <i type="logical" name="LCOMPAT"> F  </i>
  </separator>
  <separator name="electronic" >
   <i type="string" name="PREC">accura</i>
   <i name="ENMAX">    425.00000000</i>
   <i name="ENAUG">    527.01400000</i>
   <i name="EDIFF">      0.00000100</i>
   <i type="int" name="IALGO">    38</i>
   <i type="int" name="IWAVPR">    10</i>
   <i type="int" name="NBANDS">    24</i>
   <i type="int" name="NBANDSLOW">    -1</i>
   <i type="int" name="NBANDSHIGH">    -1</i>
   <i name="NELECT">     32.00000000</i>
   <i type="int" name="TURBO">     0</i>
   <i type="int" name="IRESTART">     0</i>
   <i type="int" name="NREBOOT">     0</i>
   <i type="int" name="NMIN">     0</i>
   <i name="EREF">      0.00000000</i>
   <separator name="electronic smearing" >
    <i type="int" name="ISMEAR">     0</i>
    <i name="SIGMA">      0.05000000</i>
    <i name="KSPACING">      0.50000000</i>
    <i type="logical" name="KGAMMA"> T  </i>
    <i type="logical" name="KBLOWUP"> T  </i>
   </separator>
   <separator name="electronic projectors" >
    <i type="logical" name="LREAL"> F  </i>
    <v name="ROPT">      0.00000000</v>
    <i type="int" name="LMAXPAW">  -100</i>
    <i type="int" name="LMAXMIX">     2</i>
    <i type="logical" name="NLSPLINE"> F  </i>
   </separator>
   <separator name="electronic startup" >
    <i type="int" name="ISTART">     0</i>
    <i type="int" name="ICHARG">     2</i>
    <i type="int" name="INIWAV">     1</i>
   </separator>
   <separator name="electronic spin" >
    <i type="int" name="ISPIN">     1</i>
    <i type="logical" name="LNONCOLLINEAR"> F  </i>
    <v name="MAGMOM">      1.00000000      1.00000000</v>
    <i name="NUPDOWN">     -1.00000000</i>
    <i type="logical" name="LSORBIT"> F  </i>
    <v name="SAXIS">      0.00000000      0.00000000      1.00000000</v>
    <i type="logical" name="LSPIRAL"> F  </i>
    <v name="QSPIRAL">      0.00000000      0.00000000      0.00000000</v>
    <i type="logical" name="LZEROZ"> F  </i>
   </separator>
   <separator name="electronic exchange-correlation" >
    <i type="logical" name="LASPH"> F  </i>
    <i type="logical" name="LMETAGGA"> F  </i>
   </separator>
   <separator name="electronic convergence" >
    <i type="int" name="NELM">   100</i>
    <i type="int" name="NELMDL">    -5</i>
    <i type="int" name="NELMIN">     2</i>
    <i name="ENINI">    425.00000000</i>
    <separator name="electronic convergence detail" >
     <i type="logical" name="LDIAG"> T  </i>
     <i type="logical" name="LSUBROT"> F  </i>
     <i name="WEIMIN">      0.00000000</i>
     <i name="EBREAK">      0.00000001</i>
     <i name="DEPER">      0.30000000</i>
     <i type="int" name="NRMM">     4</i>
     <i name="TIME">      0.40000000</i>
    </separator>
   </separator>
   <separator name="electronic mixer" >
    <i name="AMIX">      0.40000000</i>
    <i name="BMIX">      1.00000000</i>
    <i name="AMIN">      0.10000000</i>
    <i name="AMIX_MAG">      1.60000000</i>
    <i name="BMIX_MAG">      1.00000000</i>
    <separator name="electronic mixer details" >
     <i type="int" name="IMIX">     4</i>
     <i type="logical" name="MIXFIRST"> F  </i>
     <i type="int" name="MAXMIX">   -45</i>
     <i name="WC">    100.00000000</i>
     <i type="int" name="INIMIX">     1</i>
     <i type="int" name="MIXPRE">     1</i>
     <i type="int" name="MREMOVE">     5</i>
    </separator>
   </separator>
   <separator name="electronic dipolcorrection" >
    <i type="logical" name="LDIPOL"> F  </i>
    <i type="logical" name="LMONO"> F  </i>
    <i type="int" name="IDIPOL">     0</i>
    <i name="EPSILON">      1.00000000</i>
    <v name="DIPOL">   -100.00000000   -100.00000000   -100.00000000</v>
    <i name="EFIELD">      0.00000000</i>
   </separator>
  </separator>
  <separator name="grids" >
   <i type="int" name="NGX">    20</i>
   <i type="int" name="NGY">    20</i>
   <i type="int" name="NGZ">    32</i>
   <i type="int" name="NGXF">    40</i>
   <i type="int" name="NGYF">    40</i>
   <i type="int" name="NGZF">    64</i>
   <i type="logical" name="ADDGRID"> F  </i>
  </separator>
  <separator name="ionic" >
   <i type="int" name="NSW">     0</i>
   <i type="int" name="IBRION">    -1</i>
   <i type="int" name="MDALGO">     0</i>
   <i type="int" name="ISIF">     2</i>
   <i name="PSTRESS">      0.00000000</i>
   <i name="EDIFFG">     -0.02000000</i>
   <i type="int" name="NFREE">     0</i>
   <i name="POTIM">      0.50000000</i>
   <i name="SMASS">     -3.00000000</i>
   <i name="SCALEE">      1.00000000</i>
  </separator>
  <separator name="ionic md" >
   <i name="TEBEG">      0.00010000</i>
   <i name="TEEND">      0.00010000</i>
   <i type="int" name="NBLOCK">     1</i>
   <i type="int" name="KBLOCK">     1</i>
   <i type="int" name="NPACO">   256</i>
   <i name="APACO">     10.00000000</i>
  </separator>
  <separator name="symmetry" >
   <i type="int" name="ISYM">     1</i>
   <i name="SYMPREC">      0.00001000</i>
  </separator>
  <separator name="dos" >
   <i type="int" name="LORBIT">     0</i>
   <v name="RWIGS">     -1.00000000</v>
   <i type="int" name="NEDOS">   301</i>
   <i name="EMIN">     10.00000000</i>
   <i name="EMAX">    -10.00000000</i>
   <i name="EFERMI">      0.00000000</i>
  </separator>
  <separator name="writing" >
   <i type="int" name="NWRITE">     2</i>
   <i type="logical" name="LWAVE"> F  </i>
   <i type="logical" name="LDOWNSAMPLE"> F  </i>
   <i type="logical" name="LCHARG"> F  </i>
   <i type="logical" name="LPARD"> F  </i>
   <i type="logical" name="LVTOT"> F  </i>
   <i type="logical" name="LVHAR"> F  </i>
   <i type="logical" name="LELF"> F  </i>
   <i type="logical" name="LOPTICS"> F  </i>
   <v name="STM">      0.00000000      0.00000000      0.00000000      0.00000000      0.00000000      0.00000000      0.00000000</v>
  </separator>
  <separator name="performance" >
   <i type="int" name="NPAR">    24</i>
   <i type="int" name="NSIM">     4</i>
   <i type="int" name="NBLK">    -1</i>
   <i type="logical" name="LPLANE"> T  </i>
   <i type="logical" name="LSCALAPACK"> T  </i>
   <i type="logical" name="LSCAAWARE"> F  </i>
   <i type="logical" name="LSCALU"> F  </i>
   <i type="logical" name="LASYNC"> F  </i>
   <i type="logical" name="LORBITALREAL"> F  </i>
  </separator>
  <separator name="miscellaneous" >
   <i type="int" name="IDIOT">     3</i>
   <i type="int" name="PHON_NSTRUCT">    -1</i>
   <i type="logical" name="LMUSIC"> F  </i>
   <v name="POMASS">    195.08000000</v>
   <v name="DARWINR">      0.00000000</v>
   <v name="DARWINV">      1.00000000</v>
   <i type="logical" name="LCORR"> T  </i>
  </separator>
  <i type="logical" name="GGA_COMPAT"> T  </i>
  <i type="logical" name="LBERRY"> F  </i>
  <i type="int" name="ICORELEVEL">     0</i>
  <i type="logical" name="LDAU"> F  </i>
  <i type="int" name="I_CONSTRAINED_M">     0</i>
  <separator name="electronic exchange-correlation" >
   <i type="string" name="GGA">--</i>
   <i type="int" name="VOSKOWN">     0</i>
   <i type="logical" name="LHFCALC"> F  </i>
   <i type="string" name="PRECFOCK"></i>
   <i type="logical" name="LSYMGRAD"> F  </i>
   <i type="logical" name="LHFONE"> F  </i>
   <i type="logical" name="LRHFCALC"> F  </i>
   <i type="logical" name="LTHOMAS"> F  </i>
   <i type="logical" name="LMODELHF"> F  </i>
   <i type="logical" name="LFOCKACE"> F  </i>
   <i name="ENCUT4O">     -1.00000000</i>
   <i type="int" name="EXXOEP">     0</i>
   <i type="int" name="FOURORBIT">     0</i>
   <i name="AEXX">      0.00000000</i>
   <i name="HFALPHA">      0.00000000</i>
   <i name="MCALPHA">      0.00000000</i>
   <i name="ALDAX">      1.00000000</i>
   <i name="AGGAX">      1.00000000</i>
   <i name="ALDAC">      1.00000000</i>
   <i name="AGGAC">      1.00000000</i>
   <i type="int" name="NKREDX">     1</i>
   <i type="int" name="NKREDY">     1</i>
   <i type="int" name="NKREDZ">     1</i>
   <i type="logical" name="SHIFTRED"> F  </i>
   <i type="logical" name="ODDONLY"> F  </i>
   <i type="logical" name="EVENONLY"> F  </i>
   <i type="int" name="LMAXFOCK">     0</i>
   <i type="int" name="NMAXFOCKAE">     0</i>
   <i type="logical" name="LFOCKAEDFT"> F  </i>
   <i name="HFSCREEN">      0.00000000</i>
   <i name="HFSCREENC">      0.00000000</i>
   <i type="int" name="NBANDSGWLOW">     0</i>
  </separator>
  <separator name="vdW DFT" >
   <i type="logical" name="LUSE_VDW"> F  </i>
   <i name="Zab_VDW">     -0.84910000</i>
   <i name="PARAM1">      0.12340000</i>
   <i name="PARAM2">      1.00000000</i>
   <i name="PARAM3">      0.00000000</i>
  </separator>
  <separator name="model GW" >
   <i type="int" name="MODEL_GW">     0</i>
   <i name="MODEL_EPS0">      9.47993946</i>
   <i name="MODEL_ALPHA">      1.00000000</i>
  </separator>
  <separator name="linear response parameters" >
   <i type="logical" name="LEPSILON"> F  </i>
   <i type="logical" name="LRPA"> F  </i>
   <i type="logical" name="LNABLA"> F  </i>
   <i type="logical" name="LVEL"> F  </i>
   <i name="CSHIFT">      0.10000000</i>
   <i name="OMEGAMAX">     -1.00000000</i>
   <i name="DEG_THRESHOLD">      0.00200000</i>
   <i name="RTIME">     -0.10000000</i>
   <i name="WPLASMAI">      0.00000000</i>
   <v name="DFIELD">      0.00000000      0.00000000      0.00000000</v>
   <v name="WPLASMA">      0.00000000      0.00000000      0.00000000      0.00000000      0.00000000      0.00000000      0.00000000      0.00000000      0.00000000</v>
  </separator>
  <separator name="orbital magnetization" >
   <i type="logical" name="NUCIND"> F  </i>
   <v name="MAGPOS">      0.00000000      0.00000000      0.00000000</v>
   <i type="logical" name="LNICSALL"> T  </i>
   <i type="logical" name="ORBITALMAG"> F  </i>
   <i type="logical" name="LMAGBLOCH"> F  </i>
   <i type="logical" name="LCHIMAG"> F  </i>
   <i type="logical" name="LGAUGE"> T  </i>
   <i type="int" name="MAGATOM">     0</i>
   <v name="MAGDIPOL">      0.00000000      0.00000000      0.00000000</v>
   <v name="AVECCONST">      0.00000000      0.00000000      0.00000000</v>
  </separator>
  <separator name="response functions" >
   <i type="logical" name="LFINITE_TEMPERATURE"> F  </i>
   <i type="logical" name="LADDER"> F  </i>
   <i type="logical" name="LRPAFORCE"> F  </i>
   <i type="logical" name="LFXC"> F  </i>
   <i type="logical" name="LHARTREE"> T  </i>
   <i type="int" name="IBSE">     0</i>
   <v type="int" name="KPOINT">    -1     0     0     0</v>
   <i type="logical" name="LTCTC"> F  </i>
   <i type="logical" name="LTCTE"> F  </i>
   <i type="logical" name="LTETE"> F  </i>
   <i type="logical" name="LTRIPLET"> F  </i>
   <i type="logical" name="LFXCEPS"> F  </i>
   <i type="logical" name="LFXHEG"> F  </i>
   <i type="int" name="NATURALO">     2</i>
   <i type="logical" name="LHOLEGF"> F  </i>
   <i type="logical" name="L2ORDER"> F  </i>
   <i type="logical" name="LDMP1"> F  </i>
   <i type="logical" name="LMP2LT"> F  </i>
   <i type="logical" name="LSMP2LT"> F  </i>
   <i type="logical" name="LGWLF"> F  </i>
   <i name="ENCUTGW">     -2.00000000</i>
   <i name="ENCUTGWSOFT">     -2.00000000</i>
   <i name="ENCUTLF">     -1.00000000</i>
   <i type="logical" name="LESF_SPLINES"> F  </i>
   <i type="int" name="LMAXMP2">    -1</i>
   <i name="SCISSOR">      0.00000000</i>
   <i type="int" name="NOMEGA">     0</i>
   <i type="int" name="NOMEGAR">     0</i>
   <i type="int" name="NBANDSGW">    -1</i>
   <i type="int" name="NBANDSO">    -1</i>
   <i type="int" name="NBANDSV">    -1</i>
   <i type="int" name="NELMGW">     1</i>
   <i type="int" name="NELMHF">     1</i>
   <i type="int" name="DIM">     3</i>
   <i type="int" name="IESPILON">     4</i>
   <i type="int" name="ANTIRES">     0</i>
   <i name="OMEGAMAX">    -30.00000000</i>
   <i name="OMEGAMIN">    -30.00000000</i>
   <i name="OMEGATL">   -200.00000000</i>
   <i type="int" name="OMEGAGRID">     0</i>
   <i name="CSHIFT">     -0.10000000</i>
   <i type="logical" name="LSELFENERGY"> F  </i>
   <i type="logical" name="LSPECTRAL"> F  </i>
   <i type="logical" name="LSPECTRALGW"> F  </i>
   <i type="logical" name="LSINGLES"> F  </i>
   <i type="logical" name="LFERMIGW"> F  </i>
   <i type="logical" name="ODDONLYGW"> F  </i>
   <i type="logical" name="EVENONLYGW"> F  </i>
   <i type="int" name="NKREDLFX">     1</i>
   <i type="int" name="NKREDLFY">     1</i>
   <i type="int" name="NKREDLFZ">     1</i>
   <i type="int" name="MAXMEM">  2800</i>
   <i type="int" name="TELESCOPE">     0</i>
   <i type="int" name="NTAUPAR">    -1</i>
   <i type="int" name="NOMEGAPAR">    -1</i>
   <i name="DAMP_NEWTON">      0.80000001</i>
   <i name="LAMBDA">      1.00000000</i>
  </separator>
  <separator name="External order field" >
   <i name="OFIELD_KAPPA">      0.00000000</i>
   <v name="OFIELD_K">      0.00000000      0.00000000      0.00000000</v>
   <i name="OFIELD_Q6_NEAR">      0.00000000</i>
   <i name="OFIELD_Q6_FAR">      0.00000000</i>
   <i name="OFIELD_A">      0.00000000</i>
  </separator>
  <separator name="optional k-points parameters" >
   <i type="int" name="KPOINTS_OPT_MODE">     1</i>
   <i type="logical" name="LKPOINTS_OPT"> F  </i>
  </separator>
 </parameters>
 <atominfo>
  <atoms>       2 </atoms>
  <types>       1 </types>
  <array name="atoms" >
   <dimension dim="1">ion</dimension>
   <field type="string">element</field>
   <field type="int">atomtype</field>
   <set>
    <rc><c>Pt</c><c>   1</c></rc>
    <rc><c>Pt</c><c>   1</c></rc>
   </set>
  </array>
  <array name="atomtypes" >
   <dimension dim="1">type</dimension>
   <field type="int">atomspertype</field>
   <field type="string">element</field>
   <field>mass</field>
   <field>valence</field>
   <field type="string">pseudopotential</field>
   <set>
    <rc><c>   2</c><c>Pt</c><c>    195.08000000</c><c>     16.00000000</c><c>  PAW_PBE Pt_pv 12Dec2005               </c></rc>
   </set>
  </array>
 </atominfo>
 <structure name="initialpos" >
  <crystal>
   <varray name="basis" >
    <v>       2.76000000       0.00000000       0.00000000 </v>
    <v>      -1.38000000       2.39023011       0.00000000 </v>
    <v>       0.00000000       0.00000000       4.79000000 </v>
   </varray>
   <i name="volume">     31.59979821 </i>
   <varray name="rec_basis" >
    <v>       0.36231884       0.20918488       0.00000000 </v>
    <v>       0.00000000       0.41836976       0.00000000 </v>
    <v>       0.00000000       0.00000000       0.20876827 </v>
   </varray>
  </crystal>
  <varray name="positions" >
   <v>       0.00000000       0.00000000       0.00000000 </v>
   <v>       0.33333333       0.66666667       0.50000000 </v>
  </varray>
 </structure>
 <calculation>
  <scstep>
   <time name="dav">    0.29    0.30</time>
   <time name="total">    0.30    0.30</time>
   <energy>
    <i name="alphaZ">    303.71314961 </i>
    <i name="ewald">  -4240.69024974 </i>
    <i name="hartreedc">   -819.48907223 </i>
    <i name="XCdc">    127.32804847 </i>
    <i name="pawpsdc">   4131.50523274 </i>
    <i name="pawaedc">  -4061.67189606 </i>
    <i name="eentropy">     -0.00254347 </i>
    <i name="bandstr">   -159.54587651 </i>
    <i name="atom">   4856.39002129 </i>
    <i name="e_fr_energy">    137.53681411 </i>
    <i name="e_wo_entrp">    137.53935758 </i>
    <i name="e_0_energy">    137.53808584 </i>
   </energy>
  </scstep>
  <scstep>
   <time name="dav">    0.33    0.33</time>
   <time name="total">    0.33    0.33</time>
   <energy>
    <i name="e_fr_energy">    -11.40891345 </i>
    <i name="e_wo_entrp">    -11.40445615 </i>
    <i name="e_0_energy">    -11.40668480 </i>
   </energy>
  </scstep>
  <scstep>
   <time name="dav">    0.49    0.49</time>
   <time name="total">    0.49    0.49</time>
   <energy>
    <i name="e_fr_energy">    -12.74681755 </i>
    <i name="e_wo_entrp">    -12.74239570 </i>
    <i name="e_0_energy">    -12.74460662 </i>
   </energy>
  </scstep>
  <scstep>
   <time name="dav">    0.53    0.53</time>
   <time name="total">    0.53    0.53</time>
   <energy>
    <i name="e_fr_energy">    -12.75051684 </i>
    <i name="e_wo_entrp">    -12.74609683 </i>
    <i name="e_0_energy">    -12.74830683 </i>
   </energy>
  </scstep>
  <scstep>
   <time name="dav">    0.55    0.55</time>
   <time name="total">    0.57    0.57</time>
   <energy>
    <i name="e_fr_energy">    -12.75051769 </i>
    <i name="e_wo_entrp">    -12.74609768 </i>
    <i name="e_0_energy">    -12.74830769 </i>
   </energy>
  </scstep>
  <scstep>
   <time name="dav">    0.32    0.33</time>
   <time name="total">    0.35    0.35</time>
   <energy>
    <i name="e_fr_energy">    -12.07664537 </i>
    <i name="e_wo_entrp">    -12.07218049 </i>
    <i name="e_0_energy">    -12.07441293 </i>
   </energy>
  </scstep>
  <scstep>
   <time name="dav">    0.48    0.48</time>
   <time name="total">    0.51    0.51</time>
   <energy>
    <i name="e_fr_energy">    -12.04275318 </i>
    <i name="e_wo_entrp">    -12.03806424 </i>
    <i name="e_0_energy">    -12.04040871 </i>
   </energy>
  </scstep>
  <scstep>
   <time name="dav">    0.33    0.33</time>
   <time name="total">    0.36    0.36</time>
   <energy>
    <i name="e_fr_energy">    -12.04024176 </i>
    <i name="e_wo_entrp">    -12.03550162 </i>
    <i name="e_0_energy">    -12.03787169 </i>
   </energy>
  </scstep>
  <scstep>
   <time name="dav">    0.47    0.47</time>
   <time name="total">    0.49    0.50</time>
   <energy>
    <i name="e_fr_energy">    -12.04006995 </i>
    <i name="e_wo_entrp">    -12.03535529 </i>
    <i name="e_0_energy">    -12.03771262 </i>
   </energy>
  </scstep>
  <scstep>
   <time name="dav">    0.42    0.43</time>
   <time name="total">    0.45    0.45</time>
   <energy>
    <i name="e_fr_energy">    -12.04008370 </i>
    <i name="e_wo_entrp">    -12.03537286 </i>
    <i name="e_0_energy">    -12.03772828 </i>
   </energy>
  </scstep>
  <scstep>
   <time name="dav">    0.37    0.37</time>
   <time name="total">    0.37    0.37</time>
   <energy>
    <i name="alphaZ">    303.71314961 </i>
    <i name="ewald">  -4240.69024974 </i>
    <i name="hartreedc">   -780.80116773 </i>
    <i name="XCdc">    125.62485786 </i>
    <i name="pawpsdc">   4627.71612966 </i>
    <i name="pawaedc">  -4562.89705108 </i>
    <i name="eentropy">     -0.00471157 </i>
    <i name="bandstr">   -341.09106165 </i>
    <i name="atom">   4856.39002129 </i>
    <i name="e_fr_energy">    -12.04008336 </i>
    <i name="e_wo_entrp">    -12.03537179 </i>
    <i name="e_0_energy">    -12.03772757 </i>
   </energy>
  </scstep>
  <structure>
   <crystal>
    <varray name="basis" >
     <v>       2.76000000       0.00000000       0.00000000 </v>
     <v>      -1.38000000       2.39023011       0.00000000 </v>
     <v>       0.00000000       0.00000000       4.79000000 </v>
    </varray>
    <i name="volume">     31.59979821 </i>
    <varray name="rec_basis" >
     <v>       0.36231884       0.20918488       0.00000000 </v>
     <v>       0.00000000       0.41836976       0.00000000 </v>
     <v>       0.00000000       0.00000000       0.20876827 </v>
    </varray>
   </crystal>
   <varray name="positions" >
    <v>       0.00000000       0.00000000       0.00000000 </v>
    <v>       0.33333333       0.66666667       0.50000000 </v>
   </varray>
  </structure>
  <varray name="forces" >
   <v>       0.00000000       0.00000000       0.00000000 </v>
   <v>      -0.00000000       0.00000000       0.00000000 </v>
  </varray>
  <varray name="stress" >
   <v>     -29.37418399      -0.00000000       0.00000000 </v>
   <v>       0.00000000     -29.37418399      -0.00000000 </v>
   <v>       0.00000000       0.00000000     -30.06464843 </v>
  </varray>
  <energy>
   <i name="e_fr_energy">    -12.04008336 </i>
   <i name="e_wo_entrp">    -12.03537179 </i>
   <i name="e_0_energy">    -12.03772757 </i>
  </energy>
  <time name="totalsc">    4.95    4.98</time>
  <eigenvalues>
   <array>
    <dimension dim="1">band</dimension>
    <dimension dim="2">kpoint</dimension>
    <dimension dim="3">spin</dimension>
    <field>eigene</field>
    <field>occ</field>
    <set>
     <set comment="spin 1">
      <set comment="kpoint 1">
       <r>  -41.4692    1.0000 </r>
       <r>  -41.3014    1.0000 </r>
       <r>  -41.3014    1.0000 </r>
       <r>  -41.2617    1.0000 </r>
       <r>  -41.2617    1.0000 </r>
       <r>  -41.1408    1.0000 </r>
       <r>    1.4199    1.0000 </r>
       <r>    4.0675    1.0000 </r>
       <r>    7.2051    1.0000 </r>
       <r>    7.7119    1.0000 </r>
       <r>    7.7119    1.0000 </r>
       <r>    8.0763    1.0000 </r>
       <r>    8.0763    1.0000 </r>
       <r>    9.3461    1.0000 </r>
       <r>    9.3461    1.0000 </r>
       <r>   10.4222    1.0000 </r>
       <r>   10.9228    1.0000 </r>
       <r>   10.9228    1.0000 </r>
       <r>   15.8072    0.0000 </r>
       <r>   26.2270    0.0000 </r>
       <r>   26.8072    0.0000 </r>
       <r>   28.3765    0.0000 </r>
       <r>   32.1708    0.0000 </r>
       <r>   32.1708    0.0000 </r>
      </set>
      <set comment="kpoint 2">
       <r>  -41.4571    1.0000 </r>
       <r>  -41.3372    1.0000 </r>
       <r>  -41.3118    1.0000 </r>
       <r>  -41.2986    1.0000 </r>
       <r>  -41.2694    1.0000 </r>
       <r>  -41.1438    1.0000 </r>
       <r>    1.7812    1.0000 </r>
       <r>    4.3952    1.0000 </r>
       <r>    7.1416    1.0000 </r>
       <r>    7.7182    1.0000 </r>
       <r>    7.9273    1.0000 </r>
       <r>    7.9878    1.0000 </r>
       <r>    8.3386    1.0000 </r>
       <r>    8.7619    1.0000 </r>
       <r>    9.1761    1.0000 </r>
       <r>    9.3211    1.0000 </r>
       <r>   10.9848    1.0000 </r>
       <r>   12.6811    0.0000 </r>
       <r>   15.7710    0.0000 </r>
       <r>   26.6599    0.0000 </r>
       <r>   27.3357    0.0000 </r>
       <r>   28.7048    0.0000 </r>
       <r>   30.5450    0.0000 </r>
       <r>   30.6644    0.0000 </r>
      </set>
      <set comment="kpoint 3">
       <r>  -41.4325    1.0000 </r>
       <r>  -41.4245    1.0000 </r>
       <r>  -41.3937    1.0000 </r>
       <r>  -41.3388    1.0000 </r>
       <r>  -41.2889    1.0000 </r>
       <r>  -41.1523    1.0000 </r>
       <r>    2.7665    1.0000 </r>
       <r>    5.1161    1.0000 </r>
       <r>    6.9170    1.0000 </r>
       <r>    7.4004    1.0000 </r>
       <r>    7.4360    1.0000 </r>
       <r>    8.3373    1.0000 </r>
       <r>    8.7686    1.0000 </r>
       <r>    8.7991    1.0000 </r>
       <r>    8.8085    1.0000 </r>
       <r>    9.0760    1.0000 </r>
       <r>   11.0834    0.8863 </r>
       <r>   14.8507    0.0000 </r>
       <r>   15.7032    0.0000 </r>
       <r>   25.1597    0.0000 </r>
       <r>   27.9571    0.0000 </r>
       <r>   28.2373    0.0000 </r>
       <r>   29.1118    0.0000 </r>
       <r>   29.3114    0.0000 </r>
      </set>
      <set comment="kpoint 4">
       <r>  -41.5482    1.0000 </r>
       <r>  -41.5098    1.0000 </r>
       <r>  -41.3784    1.0000 </r>
       <r>  -41.3719    1.0000 </r>
       <r>  -41.3139    1.0000 </r>
       <r>  -41.1683    1.0000 </r>
       <r>    3.9718    1.0000 </r>
       <r>    5.2418    1.0000 </r>
       <r>    6.3478    1.0000 </r>
       <r>    7.1793    1.0000 </r>
       <r>    7.5375    1.0000 </r>
       <r>    8.2976    1.0000 </r>
       <r>    8.4097    1.0000 </r>
       <r>    9.4854    1.0000 </r>
       <r>    9.8903    1.0000 </r>
       <r>   10.1197    1.0000 </r>
       <r>   11.1365    0.3843 </r>
       <r>   15.8259    0.0000 </r>
       <r>   17.0603    0.0000 </r>
       <r>   21.4370    0.0000 </r>
       <r>   25.8556    0.0000 </r>
       <r>   26.4012    0.0000 </r>
       <r>   27.9940    0.0000 </r>
       <r>   29.1026    0.0000 </r>
      </set>
      <set comment="kpoint 5">
       <r>  -41.6423    1.0000 </r>
       <r>  -41.6002    1.0000 </r>
       <r>  -41.3974    1.0000 </r>
       <r>  -41.3332    1.0000 </r>
       <r>  -41.3331    1.0000 </r>
       <r>  -41.1899    1.0000 </r>
       <r>    4.6318    1.0000 </r>
       <r>    4.9283    1.0000 </r>
       <r>    5.6960    1.0000 </r>
       <r>    7.6969    1.0000 </r>
       <r>    7.9236    1.0000 </r>
       <r>    8.1332    1.0000 </r>
       <r>    8.3500    1.0000 </r>
       <r>   10.9719    1.0000 </r>
       <r>   11.1476    0.2711 </r>
       <r>   11.1478    0.2695 </r>
       <r>   11.3565    0.0000 </r>
       <r>   16.6330    0.0000 </r>
       <r>   17.7996    0.0000 </r>
       <r>   19.0236    0.0000 </r>
       <r>   23.5333    0.0000 </r>
       <r>   23.9479    0.0000 </r>
       <r>   25.0485    0.0000 </r>
       <r>   27.8273    0.0000 </r>
      </set>
      <set comment="kpoint 6">
       <r>  -41.6781    1.0000 </r>
       <r>  -41.6353    1.0000 </r>
       <r>  -41.4075    1.0000 </r>
       <r>  -41.3413    1.0000 </r>
       <r>  -41.3104    1.0000 </r>
       <r>  -41.2032    1.0000 </r>
       <r>    4.7229    1.0000 </r>
       <r>    4.8003    1.0000 </r>
       <r>    5.4756    1.0000 </r>
       <r>    7.7880    1.0000 </r>
       <r>    8.0338    1.0000 </r>
       <r>    8.2186    1.0000 </r>
       <r>    8.5539    1.0000 </r>
       <r>   11.1467    0.2799 </r>
       <r>   11.4265    0.0000 </r>
       <r>   11.6265    0.0000 </r>
       <r>   13.4020    0.0000 </r>
       <r>   14.8759    0.0000 </r>
       <r>   18.3934    0.0000 </r>
       <r>   19.9718    0.0000 </r>
       <r>   20.6285    0.0000 </r>
       <r>   23.1685    0.0000 </r>
       <r>   24.4025    0.0000 </r>
       <r>   27.2532    0.0000 </r>
      </set>
      <set comment="kpoint 7">
       <r>  -41.4346    1.0000 </r>
       <r>  -41.3971    1.0000 </r>
       <r>  -41.3713    1.0000 </r>
       <r>  -41.3247    1.0000 </r>
       <r>  -41.2873    1.0000 </r>
       <r>  -41.1489    1.0000 </r>
       <r>    2.4629    1.0000 </r>
       <r>    4.9676    1.0000 </r>
       <r>    6.8760    1.0000 </r>
       <r>    7.6329    1.0000 </r>
       <r>    7.8020    1.0000 </r>
       <r>    7.9366    1.0000 </r>
       <r>    8.5708    1.0000 </r>
       <r>    8.5951    1.0000 </r>
       <r>    8.9260    1.0000 </r>
       <r>    9.2364    1.0000 </r>
       <r>   11.0059    0.9997 </r>
       <r>   14.2785    0.0000 </r>
       <r>   15.7211    0.0000 </r>
       <r>   26.5783    0.0000 </r>
       <r>   27.1866    0.0000 </r>
       <r>   28.2412    0.0000 </r>
       <r>   29.2640    0.0000 </r>
       <r>   30.0108    0.0000 </r>
      </set>
      <set comment="kpoint 8">
       <r>  -41.4949    1.0000 </r>
       <r>  -41.4693    1.0000 </r>
       <r>  -41.3954    1.0000 </r>
       <r>  -41.3627    1.0000 </r>
       <r>  -41.3175    1.0000 </r>
       <r>  -41.1617    1.0000 </r>
       <r>    3.6327    1.0000 </r>
       <r>    5.5798    1.0000 </r>
       <r>    6.6998    1.0000 </r>
       <r>    6.7568    1.0000 </r>
       <r>    7.3615    1.0000 </r>
       <r>    8.1007    1.0000 </r>
       <r>    8.5468    1.0000 </r>
       <r>    8.8703    1.0000 </r>
       <r>    9.6264    1.0000 </r>
       <r>   10.0269    1.0000 </r>
       <r>   11.0054    0.9997 </r>
       <r>   15.7685    0.0000 </r>
       <r>   16.3615    0.0000 </r>
       <r>   23.3382    0.0000 </r>
       <r>   25.2445    0.0000 </r>
       <r>   27.3954    0.0000 </r>
       <r>   29.2931    0.0000 </r>
       <r>   29.9412    0.0000 </r>
      </set>
      <set comment="kpoint 9">
       <r>  -41.5957    1.0000 </r>
       <r>  -41.5611    1.0000 </r>
       <r>  -41.4016    1.0000 </r>
       <r>  -41.3487    1.0000 </r>
       <r>  -41.3459    1.0000 </r>
       <r>  -41.1819    1.0000 </r>
       <r>    4.6895    1.0000 </r>
       <r>    5.3415    1.0000 </r>
       <r>    5.9863    1.0000 </r>
       <r>    7.1956    1.0000 </r>
       <r>    7.8032    1.0000 </r>
       <r>    7.8127    1.0000 </r>
       <r>    8.3817    1.0000 </r>
       <r>    9.6446    1.0000 </r>
       <r>   10.7074    1.0000 </r>
       <r>   10.9915    0.9999 </r>
       <r>   11.4493    0.0000 </r>
       <r>   16.3647    0.0000 </r>
       <r>   18.4904    0.0000 </r>
       <r>   19.5126    0.0000 </r>
       <r>   23.1369    0.0000 </r>
       <r>   25.9381    0.0000 </r>
       <r>   26.2417    0.0000 </r>
       <r>   28.2438    0.0000 </r>
      </set>
      <set comment="kpoint 10">
       <r>  -41.6583    1.0000 </r>
       <r>  -41.6167    1.0000 </r>
       <r>  -41.4257    1.0000 </r>
       <r>  -41.3635    1.0000 </r>
       <r>  -41.3105    1.0000 </r>
       <r>  -41.2032    1.0000 </r>
       <r>    4.9962    1.0000 </r>
       <r>    5.0861    1.0000 </r>
       <r>    5.5855    1.0000 </r>
       <r>    7.7452    1.0000 </r>
       <r>    7.9832    1.0000 </r>
       <r>    7.9834    1.0000 </r>
       <r>    8.3129    1.0000 </r>
       <r>   10.8783    1.0000 </r>
       <r>   10.9740    1.0000 </r>
       <r>   11.2589    0.0001 </r>
       <r>   13.1526    0.0000 </r>
       <r>   16.1051    0.0000 </r>
       <r>   18.0498    0.0000 </r>
       <r>   20.1568    0.0000 </r>
       <r>   20.9279    0.0000 </r>
       <r>   23.2758    0.0000 </r>
       <r>   24.8705    0.0000 </r>
       <r>   27.1748    0.0000 </r>
      </set>
      <set comment="kpoint 11">
       <r>  -41.5526    1.0000 </r>
       <r>  -41.5514    1.0000 </r>
       <r>  -41.4071    1.0000 </r>
       <r>  -41.3676    1.0000 </r>
       <r>  -41.3545    1.0000 </r>
       <r>  -41.1787    1.0000 </r>
       <r>    4.8431    1.0000 </r>
       <r>    6.1854    1.0000 </r>
       <r>    6.1886    1.0000 </r>
       <r>    6.2493    1.0000 </r>
       <r>    7.5759    1.0000 </r>
       <r>    7.6140    1.0000 </r>
       <r>    8.5732    1.0000 </r>
       <r>    8.9071    1.0000 </r>
       <r>   10.6914    1.0000 </r>
       <r>   10.8241    1.0000 </r>
       <r>   11.5307    0.0000 </r>
       <r>   16.3400    0.0000 </r>
       <r>   18.3671    0.0000 </r>
       <r>   20.9664    0.0000 </r>
       <r>   21.8801    0.0000 </r>
       <r>   26.6882    0.0000 </r>
       <r>   27.8880    0.0000 </r>
       <r>   28.3836    0.0000 </r>
      </set>
      <set comment="kpoint 12">
       <r>  -41.6128    1.0000 </r>
       <r>  -41.5845    1.0000 </r>
       <r>  -41.4579    1.0000 </r>
       <r>  -41.4107    1.0000 </r>
       <r>  -41.3108    1.0000 </r>
       <r>  -41.2032    1.0000 </r>
       <r>    5.6263    1.0000 </r>
       <r>    5.8062    1.0000 </r>
       <r>    5.8392    1.0000 </r>
       <r>    6.9853    1.0000 </r>
       <r>    7.4683    1.0000 </r>
       <r>    8.0872    1.0000 </r>
       <r>    8.1256    1.0000 </r>
       <r>    9.6978    1.0000 </r>
       <r>   10.6856    1.0000 </r>
       <r>   11.1268    0.4919 </r>
       <r>   13.2048    0.0000 </r>
       <r>   17.3608    0.0000 </r>
       <r>   18.2871    0.0000 </r>
       <r>   19.9248    0.0000 </r>
       <r>   20.4493    0.0000 </r>
       <r>   24.8510    0.0000 </r>
       <r>   25.9019    0.0000 </r>
       <r>   26.8936    0.0000 </r>
      </set>
      <set comment="kpoint 13">
       <r>  -41.6352    1.0000 </r>
       <r>  -41.5936    1.0000 </r>
       <r>  -41.4828    1.0000 </r>
       <r>  -41.4271    1.0000 </r>
       <r>  -41.2866    1.0000 </r>
       <r>  -41.2202    1.0000 </r>
       <r>    5.6715    1.0000 </r>
       <r>    5.6878    1.0000 </r>
       <r>    5.7422    1.0000 </r>
       <r>    7.5592    1.0000 </r>
       <r>    7.6082    1.0000 </r>
       <r>    7.7089    1.0000 </r>
       <r>    8.3925    1.0000 </r>
       <r>   10.4586    1.0000 </r>
       <r>   10.6346    1.0000 </r>
       <r>   10.9321    1.0000 </r>
       <r>   14.7999    0.0000 </r>
       <r>   15.3138    0.0000 </r>
       <r>   18.6235    0.0000 </r>
       <r>   20.1877    0.0000 </r>
       <r>   21.6580    0.0000 </r>
       <r>   22.6829    0.0000 </r>
       <r>   25.1011    0.0000 </r>
       <r>   26.3923    0.0000 </r>
      </set>
      <set comment="kpoint 14">
       <r>  -41.5990    1.0000 </r>
       <r>  -41.5671    1.0000 </r>
       <r>  -41.5194    1.0000 </r>
       <r>  -41.4790    1.0000 </r>
       <r>  -41.2719    1.0000 </r>
       <r>  -41.2310    1.0000 </r>
       <r>    5.7661    1.0000 </r>
       <r>    6.1779    1.0000 </r>
       <r>    6.4332    1.0000 </r>
       <r>    6.8693    1.0000 </r>
       <r>    7.4203    1.0000 </r>
       <r>    7.6873    1.0000 </r>
       <r>    8.4812    1.0000 </r>
       <r>   10.0584    1.0000 </r>
       <r>   10.4685    1.0000 </r>
       <r>   10.7718    1.0000 </r>
       <r>   14.8103    0.0000 </r>
       <r>   16.0761    0.0000 </r>
       <r>   17.5015    0.0000 </r>
       <r>   21.0189    0.0000 </r>
       <r>   22.5824    0.0000 </r>
       <r>   23.8037    0.0000 </r>
       <r>   24.6211    0.0000 </r>
       <r>   25.0056    0.0000 </r>
      </set>
      <set comment="kpoint 15">
       <r>  -41.4562    1.0000 </r>
       <r>  -41.2995    1.0000 </r>
       <r>  -41.2995    1.0000 </r>
       <r>  -41.2627    1.0000 </r>
       <r>  -41.2627    1.0000 </r>
       <r>  -41.1534    1.0000 </r>
       <r>    1.5534    1.0000 </r>
       <r>    4.0477    1.0000 </r>
       <r>    7.1721    1.0000 </r>
       <r>    7.6931    1.0000 </r>
       <r>    7.6931    1.0000 </r>
       <r>    8.0384    1.0000 </r>
       <r>    8.0384    1.0000 </r>
       <r>    9.4437    1.0000 </r>
       <r>    9.4437    1.0000 </r>
       <r>    9.8069    1.0000 </r>
       <r>   10.8960    1.0000 </r>
       <r>   10.8960    1.0000 </r>
       <r>   16.6724    0.0000 </r>
       <r>   25.7660    0.0000 </r>
       <r>   27.3150    0.0000 </r>
       <r>   28.0928    0.0000 </r>
       <r>   31.6202    0.0000 </r>
       <r>   31.6202    0.0000 </r>
      </set>
      <set comment="kpoint 16">
       <r>  -41.4463    1.0000 </r>
       <r>  -41.3353    1.0000 </r>
       <r>  -41.3099    1.0000 </r>
       <r>  -41.3009    1.0000 </r>
       <r>  -41.2707    1.0000 </r>
       <r>  -41.1548    1.0000 </r>
       <r>    1.9122    1.0000 </r>
       <r>    4.3816    1.0000 </r>
       <r>    7.1444    1.0000 </r>
       <r>    7.6336    1.0000 </r>
       <r>    7.8258    1.0000 </r>
       <r>    7.9600    1.0000 </r>
       <r>    8.2961    1.0000 </r>
       <r>    8.7074    1.0000 </r>
       <r>    9.2911    1.0000 </r>
       <r>    9.3220    1.0000 </r>
       <r>   10.9468    1.0000 </r>
       <r>   12.1437    0.0000 </r>
       <r>   16.7598    0.0000 </r>
       <r>   26.2666    0.0000 </r>
       <r>   27.7409    0.0000 </r>
       <r>   28.4767    0.0000 </r>
       <r>   29.9420    0.0000 </r>
       <r>   30.5862    0.0000 </r>
      </set>
      <set comment="kpoint 17">
       <r>  -41.4428    1.0000 </r>
       <r>  -41.4041    1.0000 </r>
       <r>  -41.3947    1.0000 </r>
       <r>  -41.3369    1.0000 </r>
       <r>  -41.2907    1.0000 </r>
       <r>  -41.1608    1.0000 </r>
       <r>    2.8822    1.0000 </r>
       <r>    5.1254    1.0000 </r>
       <r>    6.9485    1.0000 </r>
       <r>    7.1435    1.0000 </r>
       <r>    7.4445    1.0000 </r>
       <r>    8.2260    1.0000 </r>
       <r>    8.6116    1.0000 </r>
       <r>    8.9528    1.0000 </r>
       <r>    9.0179    1.0000 </r>
       <r>    9.1280    1.0000 </r>
       <r>   11.0240    0.9981 </r>
       <r>   13.6634    0.0000 </r>
       <r>   17.1713    0.0000 </r>
       <r>   25.2567    0.0000 </r>
       <r>   27.7400    0.0000 </r>
       <r>   28.3937    0.0000 </r>
       <r>   28.5985    0.0000 </r>
       <r>   29.7301    0.0000 </r>
      </set>
      <set comment="kpoint 18">
       <r>  -41.5506    1.0000 </r>
       <r>  -41.5135    1.0000 </r>
       <r>  -41.3698    1.0000 </r>
       <r>  -41.3673    1.0000 </r>
       <r>  -41.3160    1.0000 </r>
       <r>  -41.1743    1.0000 </r>
       <r>    4.0251    1.0000 </r>
       <r>    5.2696    1.0000 </r>
       <r>    6.3282    1.0000 </r>
       <r>    7.0143    1.0000 </r>
       <r>    7.5650    1.0000 </r>
       <r>    8.4033    1.0000 </r>
       <r>    8.4712    1.0000 </r>
       <r>    9.5396    1.0000 </r>
       <r>    9.9114    1.0000 </r>
       <r>   10.0719    1.0000 </r>
       <r>   11.0664    0.9542 </r>
       <r>   14.7514    0.0000 </r>
       <r>   18.1667    0.0000 </r>
       <r>   21.7070    0.0000 </r>
       <r>   26.0948    0.0000 </r>
       <r>   26.1302    0.0000 </r>
       <r>   27.6953    0.0000 </r>
       <r>   29.5622    0.0000 </r>
      </set>
      <set comment="kpoint 19">
       <r>  -41.6434    1.0000 </r>
       <r>  -41.6041    1.0000 </r>
       <r>  -41.3953    1.0000 </r>
       <r>  -41.3364    1.0000 </r>
       <r>  -41.3251    1.0000 </r>
       <r>  -41.1932    1.0000 </r>
       <r>    4.5677    1.0000 </r>
       <r>    4.9357    1.0000 </r>
       <r>    5.8497    1.0000 </r>
       <r>    7.0667    1.0000 </r>
       <r>    8.1428    1.0000 </r>
       <r>    8.2171    1.0000 </r>
       <r>    8.8950    1.0000 </r>
       <r>   10.8894    1.0000 </r>
       <r>   10.9870    1.0000 </r>
       <r>   11.2458    0.0004 </r>
       <r>   11.2692    0.0000 </r>
       <r>   15.7813    0.0000 </r>
       <r>   17.8408    0.0000 </r>
       <r>   19.8395    0.0000 </r>
       <r>   23.2586    0.0000 </r>
       <r>   24.2238    0.0000 </r>
       <r>   25.3713    0.0000 </r>
       <r>   28.0488    0.0000 </r>
      </set>
      <set comment="kpoint 20">
       <r>  -41.6792    1.0000 </r>
       <r>  -41.6393    1.0000 </r>
       <r>  -41.4052    1.0000 </r>
       <r>  -41.3444    1.0000 </r>
       <r>  -41.3039    1.0000 </r>
       <r>  -41.2052    1.0000 </r>
       <r>    4.6454    1.0000 </r>
       <r>    4.7521    1.0000 </r>
       <r>    5.6964    1.0000 </r>
       <r>    7.1299    1.0000 </r>
       <r>    8.1231    1.0000 </r>
       <r>    8.2929    1.0000 </r>
       <r>    9.3450    1.0000 </r>
       <r>   10.9703    1.0000 </r>
       <r>   11.4460    0.0000 </r>
       <r>   11.6201    0.0000 </r>
       <r>   13.1653    0.0000 </r>
       <r>   14.7640    0.0000 </r>
       <r>   18.2543    0.0000 </r>
       <r>   18.9992    0.0000 </r>
       <r>   21.8559    0.0000 </r>
       <r>   23.4580    0.0000 </r>
       <r>   24.5349    0.0000 </r>
       <r>   27.5330    0.0000 </r>
      </set>
      <set comment="kpoint 21">
       <r>  -41.4319    1.0000 </r>
       <r>  -41.3881    1.0000 </r>
       <r>  -41.3728    1.0000 </r>
       <r>  -41.3244    1.0000 </r>
       <r>  -41.2892    1.0000 </r>
       <r>  -41.1587    1.0000 </r>
       <r>    2.5858    1.0000 </r>
       <r>    4.9692    1.0000 </r>
       <r>    6.9073    1.0000 </r>
       <r>    7.3568    1.0000 </r>
       <r>    7.7143    1.0000 </r>
       <r>    7.9421    1.0000 </r>
       <r>    8.5038    1.0000 </r>
       <r>    8.7259    1.0000 </r>
       <r>    9.0160    1.0000 </r>
       <r>    9.3066    1.0000 </r>
       <r>   10.9545    1.0000 </r>
       <r>   13.3119    0.0000 </r>
       <r>   17.0160    0.0000 </r>
       <r>   26.5327    0.0000 </r>
       <r>   27.2546    0.0000 </r>
       <r>   28.1394    0.0000 </r>
       <r>   28.8121    0.0000 </r>
       <r>   30.2658    0.0000 </r>
      </set>
      <set comment="kpoint 22">
       <r>  -41.4981    1.0000 </r>
       <r>  -41.4721    1.0000 </r>
       <r>  -41.3822    1.0000 </r>
       <r>  -41.3614    1.0000 </r>
       <r>  -41.3192    1.0000 </r>
       <r>  -41.1686    1.0000 </r>
       <r>    3.7235    1.0000 </r>
       <r>    5.6136    1.0000 </r>
       <r>    6.5782    1.0000 </r>
       <r>    6.7659    1.0000 </r>
       <r>    7.3331    1.0000 </r>
       <r>    7.9945    1.0000 </r>
       <r>    8.7086    1.0000 </r>
       <r>    8.8509    1.0000 </r>
       <r>    9.7367    1.0000 </r>
       <r>    9.9749    1.0000 </r>
       <r>   10.9544    1.0000 </r>
       <r>   14.4790    0.0000 </r>
       <r>   17.8181    0.0000 </r>
       <r>   23.5176    0.0000 </r>
       <r>   25.3738    0.0000 </r>
       <r>   27.3135    0.0000 </r>
       <r>   28.6927    0.0000 </r>
       <r>   30.5202    0.0000 </r>
      </set>
      <set comment="kpoint 23">
       <r>  -41.5970    1.0000 </r>
       <r>  -41.5646    1.0000 </r>
       <r>  -41.4003    1.0000 </r>
       <r>  -41.3495    1.0000 </r>
       <r>  -41.3378    1.0000 </r>
       <r>  -41.1856    1.0000 </r>
       <r>    4.6736    1.0000 </r>
       <r>    5.3756    1.0000 </r>
       <r>    6.0503    1.0000 </r>
       <r>    6.9192    1.0000 </r>
       <r>    7.7734    1.0000 </r>
       <r>    8.1524    1.0000 </r>
       <r>    8.3960    1.0000 </r>
       <r>    9.6614    1.0000 </r>
       <r>   10.7491    1.0000 </r>
       <r>   10.8094    1.0000 </r>
       <r>   11.5079    0.0000 </r>
       <r>   15.5694    0.0000 </r>
       <r>   18.7529    0.0000 </r>
       <r>   20.2643    0.0000 </r>
       <r>   23.2484    0.0000 </r>
       <r>   25.4139    0.0000 </r>
       <r>   26.5922    0.0000 </r>
       <r>   28.4403    0.0000 </r>
      </set>
      <set comment="kpoint 24">
       <r>  -41.6591    1.0000 </r>
       <r>  -41.6206    1.0000 </r>
       <r>  -41.4242    1.0000 </r>
       <r>  -41.3663    1.0000 </r>
       <r>  -41.3034    1.0000 </r>
       <r>  -41.2049    1.0000 </r>
       <r>    4.8743    1.0000 </r>
       <r>    5.0732    1.0000 </r>
       <r>    5.8396    1.0000 </r>
       <r>    7.0722    1.0000 </r>
       <r>    7.8596    1.0000 </r>
       <r>    8.4188    1.0000 </r>
       <r>    8.8220    1.0000 </r>
       <r>   10.7652    1.0000 </r>
       <r>   10.8817    1.0000 </r>
       <r>   11.3008    0.0000 </r>
       <r>   13.1056    0.0000 </r>
       <r>   15.9102    0.0000 </r>
       <r>   17.6991    0.0000 </r>
       <r>   20.0517    0.0000 </r>
       <r>   21.4254    0.0000 </r>
       <r>   23.5383    0.0000 </r>
       <r>   25.0846    0.0000 </r>
       <r>   27.2578    0.0000 </r>
      </set>
      <set comment="kpoint 25">
       <r>  -41.5543    1.0000 </r>
       <r>  -41.5536    1.0000 </r>
       <r>  -41.4068    1.0000 </r>
       <r>  -41.3714    1.0000 </r>
       <r>  -41.3423    1.0000 </r>
       <r>  -41.1831    1.0000 </r>
       <r>    4.8772    1.0000 </r>
       <r>    6.0260    1.0000 </r>
       <r>    6.2682    1.0000 </r>
       <r>    6.3504    1.0000 </r>
       <r>    7.5861    1.0000 </r>
       <r>    7.5950    1.0000 </r>
       <r>    8.4559    1.0000 </r>
       <r>    9.0609    1.0000 </r>
       <r>   10.6127    1.0000 </r>
       <r>   10.8017    1.0000 </r>
       <r>   11.6015    0.0000 </r>
       <r>   15.5660    0.0000 </r>
       <r>   18.9820    0.0000 </r>
       <r>   21.4071    0.0000 </r>
       <r>   22.0425    0.0000 </r>
       <r>   26.5288    0.0000 </r>
       <r>   27.0459    0.0000 </r>
       <r>   29.0356    0.0000 </r>
      </set>
      <set comment="kpoint 26">
       <r>  -41.6137    1.0000 </r>
       <r>  -41.5880    1.0000 </r>
       <r>  -41.4580    1.0000 </r>
       <r>  -41.4137    1.0000 </r>
       <r>  -41.3031    1.0000 </r>
       <r>  -41.2043    1.0000 </r>
       <r>    5.4678    1.0000 </r>
       <r>    5.8529    1.0000 </r>
       <r>    6.0229    1.0000 </r>
       <r>    6.7844    1.0000 </r>
       <r>    7.6078    1.0000 </r>
       <r>    7.9806    1.0000 </r>
       <r>    8.2680    1.0000 </r>
       <r>    9.7599    1.0000 </r>
       <r>   10.4848    1.0000 </r>
       <r>   11.2290    0.0018 </r>
       <r>   13.2478    0.0000 </r>
       <r>   17.3638    0.0000 </r>
       <r>   17.6407    0.0000 </r>
       <r>   20.0037    0.0000 </r>
       <r>   21.2667    0.0000 </r>
       <r>   24.3511    0.0000 </r>
       <r>   25.9058    0.0000 </r>
       <r>   26.9483    0.0000 </r>
      </set>
      <set comment="kpoint 27">
       <r>  -41.6357    1.0000 </r>
       <r>  -41.5969    1.0000 </r>
       <r>  -41.4821    1.0000 </r>
       <r>  -41.4301    1.0000 </r>
       <r>  -41.2803    1.0000 </r>
       <r>  -41.2197    1.0000 </r>
       <r>    5.4142    1.0000 </r>
       <r>    5.7336    1.0000 </r>
       <r>    6.1147    1.0000 </r>
       <r>    7.0048    1.0000 </r>
       <r>    7.4683    1.0000 </r>
       <r>    8.1733    1.0000 </r>
       <r>    8.5610    1.0000 </r>
       <r>   10.4267    1.0000 </r>
       <r>   10.4845    1.0000 </r>
       <r>   11.0078    0.9996 </r>
       <r>   14.8793    0.0000 </r>
       <r>   15.3477    0.0000 </r>
       <r>   18.6977    0.0000 </r>
       <r>   19.8687    0.0000 </r>
       <r>   20.8437    0.0000 </r>
       <r>   23.7865    0.0000 </r>
       <r>   25.3623    0.0000 </r>
       <r>   25.6298    0.0000 </r>
      </set>
      <set comment="kpoint 28">
       <r>  -41.5977    1.0000 </r>
       <r>  -41.5704    1.0000 </r>
       <r>  -41.5216    1.0000 </r>
       <r>  -41.4822    1.0000 </r>
       <r>  -41.2673    1.0000 </r>
       <r>  -41.2296    1.0000 </r>
       <r>    5.8001    1.0000 </r>
       <r>    6.1573    1.0000 </r>
       <r>    6.4671    1.0000 </r>
       <r>    6.7542    1.0000 </r>
       <r>    7.5460    1.0000 </r>
       <r>    7.5871    1.0000 </r>
       <r>    8.4910    1.0000 </r>
       <r>   10.1512    1.0000 </r>
       <r>   10.2583    1.0000 </r>
       <r>   10.8662    1.0000 </r>
       <r>   14.9056    0.0000 </r>
       <r>   16.2194    0.0000 </r>
       <r>   17.7526    0.0000 </r>
       <r>   20.1479    0.0000 </r>
       <r>   22.7792    0.0000 </r>
       <r>   22.8777    0.0000 </r>
       <r>   24.7326    0.0000 </r>
       <r>   26.0289    0.0000 </r>
      </set>
      <set comment="kpoint 29">
       <r>  -41.4222    1.0000 </r>
       <r>  -41.2954    1.0000 </r>
       <r>  -41.2954    1.0000 </r>
       <r>  -41.2675    1.0000 </r>
       <r>  -41.2675    1.0000 </r>
       <r>  -41.1898    1.0000 </r>
       <r>    1.9373    1.0000 </r>
       <r>    3.9498    1.0000 </r>
       <r>    7.0970    1.0000 </r>
       <r>    7.6629    1.0000 </r>
       <r>    7.6629    1.0000 </r>
       <r>    7.9397    1.0000 </r>
       <r>    7.9398    1.0000 </r>
       <r>    8.6621    1.0000 </r>
       <r>    9.6956    1.0000 </r>
       <r>    9.6956    1.0000 </r>
       <r>   10.8016    1.0000 </r>
       <r>   10.8016    1.0000 </r>
       <r>   18.5829    0.0000 </r>
       <r>   25.2397    0.0000 </r>
       <r>   27.4822    0.0000 </r>
       <r>   27.6078    0.0000 </r>
       <r>   31.1130    0.0000 </r>
       <r>   31.1130    0.0000 </r>
      </set>
      <set comment="kpoint 30">
       <r>  -41.4160    1.0000 </r>
       <r>  -41.3279    1.0000 </r>
       <r>  -41.3072    1.0000 </r>
       <r>  -41.3052    1.0000 </r>
       <r>  -41.2755    1.0000 </r>
       <r>  -41.1874    1.0000 </r>
       <r>    2.2897    1.0000 </r>
       <r>    4.2987    1.0000 </r>
       <r>    7.1280    1.0000 </r>
       <r>    7.4848    1.0000 </r>
       <r>    7.5615    1.0000 </r>
       <r>    7.9163    1.0000 </r>
       <r>    8.1918    1.0000 </r>
       <r>    8.3040    1.0000 </r>
       <r>    9.5758    1.0000 </r>
       <r>    9.5769    1.0000 </r>
       <r>   10.8240    1.0000 </r>
       <r>   11.4288    0.0000 </r>
       <r>   18.7378    0.0000 </r>
       <r>   25.7421    0.0000 </r>
       <r>   27.8749    0.0000 </r>
       <r>   27.9911    0.0000 </r>
       <r>   29.6613    0.0000 </r>
       <r>   30.5419    0.0000 </r>
      </set>
      <set comment="kpoint 31">
       <r>  -41.4465    1.0000 </r>
       <r>  -41.4061    1.0000 </r>
       <r>  -41.3650    1.0000 </r>
       <r>  -41.3317    1.0000 </r>
       <r>  -41.2964    1.0000 </r>
       <r>  -41.1868    1.0000 </r>
       <r>    3.2173    1.0000 </r>
       <r>    5.0976    1.0000 </r>
       <r>    6.7688    1.0000 </r>
       <r>    7.0559    1.0000 </r>
       <r>    7.2188    1.0000 </r>
       <r>    8.0286    1.0000 </r>
       <r>    8.5289    1.0000 </r>
       <r>    8.8799    1.0000 </r>
       <r>    9.4329    1.0000 </r>
       <r>    9.4543    1.0000 </r>
       <r>   10.8466    1.0000 </r>
       <r>   12.4403    0.0000 </r>
       <r>   19.1964    0.0000 </r>
       <r>   25.5389    0.0000 </r>
       <r>   27.1609    0.0000 </r>
       <r>   27.9312    0.0000 </r>
       <r>   28.8653    0.0000 </r>
       <r>   29.8753    0.0000 </r>
      </set>
      <set comment="kpoint 32">
       <r>  -41.5534    1.0000 </r>
       <r>  -41.5227    1.0000 </r>
       <r>  -41.3632    1.0000 </r>
       <r>  -41.3374    1.0000 </r>
       <r>  -41.3222    1.0000 </r>
       <r>  -41.1923    1.0000 </r>
       <r>    4.1869    1.0000 </r>
       <r>    5.2992    1.0000 </r>
       <r>    6.2176    1.0000 </r>
       <r>    6.7584    1.0000 </r>
       <r>    7.6890    1.0000 </r>
       <r>    8.4954    1.0000 </r>
       <r>    8.6485    1.0000 </r>
       <r>    9.7707    1.0000 </r>
       <r>    9.8391    1.0000 </r>
       <r>   10.0664    1.0000 </r>
       <r>   10.8844    1.0000 </r>
       <r>   13.3479    0.0000 </r>
       <r>   19.6560    0.0000 </r>
       <r>   22.4927    0.0000 </r>
       <r>   25.2283    0.0000 </r>
       <r>   26.7821    0.0000 </r>
       <r>   27.6781    0.0000 </r>
       <r>   29.0518    0.0000 </r>
      </set>
      <set comment="kpoint 33">
       <r>  -41.6453    1.0000 </r>
       <r>  -41.6147    1.0000 </r>
       <r>  -41.3885    1.0000 </r>
       <r>  -41.3435    1.0000 </r>
       <r>  -41.3033    1.0000 </r>
       <r>  -41.2033    1.0000 </r>
       <r>    4.4892    1.0000 </r>
       <r>    4.9665    1.0000 </r>
       <r>    6.0528    1.0000 </r>
       <r>    6.4531    1.0000 </r>
       <r>    8.4237    1.0000 </r>
       <r>    8.4645    1.0000 </r>
       <r>    9.7518    1.0000 </r>
       <r>   10.4599    1.0000 </r>
       <r>   11.0145    0.9992 </r>
       <r>   11.0242    0.9980 </r>
       <r>   11.2503    0.0002 </r>
       <r>   14.3317    0.0000 </r>
       <r>   18.1744    0.0000 </r>
       <r>   20.5950    0.0000 </r>
       <r>   23.2128    0.0000 </r>
       <r>   24.9963    0.0000 </r>
       <r>   25.9306    0.0000 </r>
       <r>   28.4477    0.0000 </r>
      </set>
      <set comment="kpoint 34">
       <r>  -41.6807    1.0000 </r>
       <r>  -41.6494    1.0000 </r>
       <r>  -41.3981    1.0000 </r>
       <r>  -41.3524    1.0000 </r>
       <r>  -41.2865    1.0000 </r>
       <r>  -41.2116    1.0000 </r>
       <r>    4.4800    1.0000 </r>
       <r>    4.8076    1.0000 </r>
       <r>    5.9717    1.0000 </r>
       <r>    6.4042    1.0000 </r>
       <r>    8.3856    1.0000 </r>
       <r>    8.6152    1.0000 </r>
       <r>   10.4738    1.0000 </r>
       <r>   10.5275    1.0000 </r>
       <r>   11.4749    0.0000 </r>
       <r>   11.6019    0.0000 </r>
       <r>   12.4948    0.0000 </r>
       <r>   14.4017    0.0000 </r>
       <r>   17.9464    0.0000 </r>
       <r>   18.1611    0.0000 </r>
       <r>   23.3803    0.0000 </r>
       <r>   24.2590    0.0000 </r>
       <r>   24.8708    0.0000 </r>
       <r>   28.2680    0.0000 </r>
      </set>
      <set comment="kpoint 35">
       <r>  -41.4236    1.0000 </r>
       <r>  -41.3778    1.0000 </r>
       <r>  -41.3623    1.0000 </r>
       <r>  -41.3223    1.0000 </r>
       <r>  -41.2942    1.0000 </r>
       <r>  -41.1863    1.0000 </r>
       <r>    2.9417    1.0000 </r>
       <r>    4.9210    1.0000 </r>
       <r>    6.9627    1.0000 </r>
       <r>    7.0038    1.0000 </r>
       <r>    7.3431    1.0000 </r>
       <r>    7.9234    1.0000 </r>
       <r>    8.3994    1.0000 </r>
       <r>    8.6860    1.0000 </r>
       <r>    9.4429    1.0000 </r>
       <r>    9.5209    1.0000 </r>
       <r>   10.7995    1.0000 </r>
       <r>   12.2028    0.0000 </r>
       <r>   19.0585    0.0000 </r>
       <r>   26.3261    0.0000 </r>
       <r>   27.4869    0.0000 </r>
       <r>   27.9762    0.0000 </r>
       <r>   28.1960    0.0000 </r>
       <r>   29.6909    0.0000 </r>
      </set>
      <set comment="kpoint 36">
       <r>  -41.5028    1.0000 </r>
       <r>  -41.4790    1.0000 </r>
       <r>  -41.3596    1.0000 </r>
       <r>  -41.3488    1.0000 </r>
       <r>  -41.3236    1.0000 </r>
       <r>  -41.1890    1.0000 </r>
       <r>    3.9870    1.0000 </r>
       <r>    5.6513    1.0000 </r>
       <r>    6.2942    1.0000 </r>
       <r>    6.8508    1.0000 </r>
       <r>    7.1776    1.0000 </r>
       <r>    7.8499    1.0000 </r>
       <r>    8.6774    1.0000 </r>
       <r>    9.2369    1.0000 </r>
       <r>    9.8687    1.0000 </r>
       <r>    9.9558    1.0000 </r>
       <r>   10.8144    1.0000 </r>
       <r>   13.1228    0.0000 </r>
       <r>   19.6580    0.0000 </r>
       <r>   24.0368    0.0000 </r>
       <r>   25.6196    0.0000 </r>
       <r>   27.0127    0.0000 </r>
       <r>   28.1503    0.0000 </r>
       <r>   28.8202    0.0000 </r>
      </set>
      <set comment="kpoint 37">
       <r>  -41.5991    1.0000 </r>
       <r>  -41.5736    1.0000 </r>
       <r>  -41.3959    1.0000 </r>
       <r>  -41.3561    1.0000 </r>
       <r>  -41.3127    1.0000 </r>
       <r>  -41.1979    1.0000 </r>
       <r>    4.6821    1.0000 </r>
       <r>    5.4257    1.0000 </r>
       <r>    6.0709    1.0000 </r>
       <r>    6.6446    1.0000 </r>
       <r>    7.8201    1.0000 </r>
       <r>    8.4387    1.0000 </r>
       <r>    8.5945    1.0000 </r>
       <r>    9.7796    1.0000 </r>
       <r>   10.3402    1.0000 </r>
       <r>   10.9711    1.0000 </r>
       <r>   11.5395    0.0000 </r>
       <r>   14.1868    0.0000 </r>
       <r>   19.3121    0.0000 </r>
       <r>   21.6518    0.0000 </r>
       <r>   23.2829    0.0000 </r>
       <r>   25.1069    0.0000 </r>
       <r>   26.9097    0.0000 </r>
       <r>   28.1450    0.0000 </r>
      </set>
      <set comment="kpoint 38">
       <r>  -41.6603    1.0000 </r>
       <r>  -41.6303    1.0000 </r>
       <r>  -41.4186    1.0000 </r>
       <r>  -41.3739    1.0000 </r>
       <r>  -41.2850    1.0000 </r>
       <r>  -41.2100    1.0000 </r>
       <r>    4.7180    1.0000 </r>
       <r>    5.1337    1.0000 </r>
       <r>    6.1499    1.0000 </r>
       <r>    6.4296    1.0000 </r>
       <r>    7.8639    1.0000 </r>
       <r>    8.8694    1.0000 </r>
       <r>    9.5052    1.0000 </r>
       <r>   10.3081    1.0000 </r>
       <r>   10.8323    1.0000 </r>
       <r>   11.4019    0.0000 </r>
       <r>   12.9997    0.0000 </r>
       <r>   15.2067    0.0000 </r>
       <r>   17.4878    0.0000 </r>
       <r>   19.5535    0.0000 </r>
       <r>   22.5214    0.0000 </r>
       <r>   24.2669    0.0000 </r>
       <r>   25.5587    0.0000 </r>
       <r>   27.1102    0.0000 </r>
      </set>
      <set comment="kpoint 39">
       <r>  -41.5604    1.0000 </r>
       <r>  -41.5567    1.0000 </r>
       <r>  -41.4058    1.0000 </r>
       <r>  -41.3782    1.0000 </r>
       <r>  -41.3150    1.0000 </r>
       <r>  -41.1959    1.0000 </r>
       <r>    4.9807    1.0000 </r>
       <r>    5.8462    1.0000 </r>
       <r>    6.3440    1.0000 </r>
       <r>    6.5118    1.0000 </r>
       <r>    7.5039    1.0000 </r>
       <r>    7.5451    1.0000 </r>
       <r>    8.3247    1.0000 </r>
       <r>    9.5028    1.0000 </r>
       <r>   10.1801    1.0000 </r>
       <r>   11.0254    0.9978 </r>
       <r>   11.6833    0.0000 </r>
       <r>   14.2364    0.0000 </r>
       <r>   20.0085    0.0000 </r>
       <r>   22.4545    0.0000 </r>
       <r>   22.5026    0.0000 </r>
       <r>   25.9400    0.0000 </r>
       <r>   26.1484    0.0000 </r>
       <r>   28.6827    0.0000 </r>
      </set>
      <set comment="kpoint 40">
       <r>  -41.6146    1.0000 </r>
       <r>  -41.5958    1.0000 </r>
       <r>  -41.4565    1.0000 </r>
       <r>  -41.4214    1.0000 </r>
       <r>  -41.2830    1.0000 </r>
       <r>  -41.2087    1.0000 </r>
       <r>    5.3354    1.0000 </r>
       <r>    5.9847    1.0000 </r>
       <r>    6.0144    1.0000 </r>
       <r>    6.7878    1.0000 </r>
       <r>    7.4622    1.0000 </r>
       <r>    8.0482    1.0000 </r>
       <r>    8.4778    1.0000 </r>
       <r>    9.8809    1.0000 </r>
       <r>   10.1359    1.0000 </r>
       <r>   11.4197    0.0000 </r>
       <r>   13.3574    0.0000 </r>
       <r>   16.1035    0.0000 </r>
       <r>   18.0254    0.0000 </r>
       <r>   20.4138    0.0000 </r>
       <r>   22.0244    0.0000 </r>
       <r>   24.0183    0.0000 </r>
       <r>   25.3510    0.0000 </r>
       <r>   27.4648    0.0000 </r>
      </set>
      <set comment="kpoint 41">
       <r>  -41.6354    1.0000 </r>
       <r>  -41.6064    1.0000 </r>
       <r>  -41.4797    1.0000 </r>
       <r>  -41.4386    1.0000 </r>
       <r>  -41.2653    1.0000 </r>
       <r>  -41.2193    1.0000 </r>
       <r>    5.2646    1.0000 </r>
       <r>    5.8472    1.0000 </r>
       <r>    6.4308    1.0000 </r>
       <r>    6.5962    1.0000 </r>
       <r>    7.2101    1.0000 </r>
       <r>    8.4892    1.0000 </r>
       <r>    8.8837    1.0000 </r>
       <r>    9.9347    1.0000 </r>
       <r>   10.5814    1.0000 </r>
       <r>   11.1579    0.1844 </r>
       <r>   15.1160    0.0000 </r>
       <r>   15.4513    0.0000 </r>
       <r>   18.4284    0.0000 </r>
       <r>   19.1134    0.0000 </r>
       <r>   20.6273    0.0000 </r>
       <r>   24.6151    0.0000 </r>
       <r>   25.2436    0.0000 </r>
       <r>   26.0198    0.0000 </r>
      </set>
      <set comment="kpoint 42">
       <r>  -41.5955    1.0000 </r>
       <r>  -41.5783    1.0000 </r>
       <r>  -41.5244    1.0000 </r>
       <r>  -41.4910    1.0000 </r>
       <r>  -41.2544    1.0000 </r>
       <r>  -41.2259    1.0000 </r>
       <r>    5.8625    1.0000 </r>
       <r>    6.0774    1.0000 </r>
       <r>    6.5823    1.0000 </r>
       <r>    6.6506    1.0000 </r>
       <r>    7.3960    1.0000 </r>
       <r>    7.6860    1.0000 </r>
       <r>    8.5138    1.0000 </r>
       <r>    9.7397    1.0000 </r>
       <r>   10.4215    1.0000 </r>
       <r>   11.0458    0.9884 </r>
       <r>   15.1912    0.0000 </r>
       <r>   16.6610    0.0000 </r>
       <r>   18.3895    0.0000 </r>
       <r>   18.8059    0.0000 </r>
       <r>   21.3988    0.0000 </r>
       <r>   22.3895    0.0000 </r>
       <r>   25.7512    0.0000 </r>
       <r>   27.3379    0.0000 </r>
      </set>
      <set comment="kpoint 43">
       <r>  -41.3683    1.0000 </r>
       <r>  -41.2885    1.0000 </r>
       <r>  -41.2885    1.0000 </r>
       <r>  -41.2740    1.0000 </r>
       <r>  -41.2740    1.0000 </r>
       <r>  -41.2436    1.0000 </r>
       <r>    2.5133    1.0000 </r>
       <r>    3.6742    1.0000 </r>
       <r>    7.0580    1.0000 </r>
       <r>    7.6654    1.0000 </r>
       <r>    7.6654    1.0000 </r>
       <r>    7.7088    1.0000 </r>
       <r>    7.8203    1.0000 </r>
       <r>    7.8203    1.0000 </r>
       <r>   10.0230    1.0000 </r>
       <r>   10.0230    1.0000 </r>
       <r>   10.6207    1.0000 </r>
       <r>   10.6207    1.0000 </r>
       <r>   20.8431    0.0000 </r>
       <r>   24.5673    0.0000 </r>
       <r>   26.9075    0.0000 </r>
       <r>   27.0479    0.0000 </r>
       <r>   31.0571    0.0000 </r>
       <r>   31.0571    0.0000 </r>
      </set>
      <set comment="kpoint 44">
       <r>  -41.3735    1.0000 </r>
       <r>  -41.3187    1.0000 </r>
       <r>  -41.3127    1.0000 </r>
       <r>  -41.2984    1.0000 </r>
       <r>  -41.2824    1.0000 </r>
       <r>  -41.2339    1.0000 </r>
       <r>    2.8599    1.0000 </r>
       <r>    4.0298    1.0000 </r>
       <r>    7.0374    1.0000 </r>
       <r>    7.2022    1.0000 </r>
       <r>    7.4755    1.0000 </r>
       <r>    7.8809    1.0000 </r>
       <r>    7.9118    1.0000 </r>
       <r>    8.0686    1.0000 </r>
       <r>    9.9359    1.0000 </r>
       <r>    9.9908    1.0000 </r>
       <r>   10.6050    1.0000 </r>
       <r>   10.9006    1.0000 </r>
       <r>   21.0047    0.0000 </r>
       <r>   24.9460    0.0000 </r>
       <r>   27.3394    0.0000 </r>
       <r>   27.4122    0.0000 </r>
       <r>   29.7114    0.0000 </r>
       <r>   30.7245    0.0000 </r>
      </set>
      <set comment="kpoint 45">
       <r>  -41.4412    1.0000 </r>
       <r>  -41.4175    1.0000 </r>
       <r>  -41.3235    1.0000 </r>
       <r>  -41.3206    1.0000 </r>
       <r>  -41.3043    1.0000 </r>
       <r>  -41.2255    1.0000 </r>
       <r>    3.7307    1.0000 </r>
       <r>    4.8570    1.0000 </r>
       <r>    6.5530    1.0000 </r>
       <r>    6.9037    1.0000 </r>
       <r>    7.2345    1.0000 </r>
       <r>    7.7639    1.0000 </r>
       <r>    8.5358    1.0000 </r>
       <r>    8.7447    1.0000 </r>
       <r>    9.8152    1.0000 </r>
       <r>   10.0174    1.0000 </r>
       <r>   10.5653    1.0000 </r>
       <r>   11.4723    0.0000 </r>
       <r>   21.3657    0.0000 </r>
       <r>   25.4987    0.0000 </r>
       <r>   26.2637    0.0000 </r>
       <r>   27.3013    0.0000 </r>
       <r>   29.1060    0.0000 </r>
       <r>   29.6498    0.0000 </r>
      </set>
      <set comment="kpoint 46">
       <r>  -41.5520    1.0000 </r>
       <r>  -41.5347    1.0000 </r>
       <r>  -41.3539    1.0000 </r>
       <r>  -41.3316    1.0000 </r>
       <r>  -41.2984    1.0000 </r>
       <r>  -41.2208    1.0000 </r>
       <r>    4.4549    1.0000 </r>
       <r>    5.1488    1.0000 </r>
       <r>    6.1686    1.0000 </r>
       <r>    6.5477    1.0000 </r>
       <r>    7.9223    1.0000 </r>
       <r>    8.4103    1.0000 </r>
       <r>    8.9198    1.0000 </r>
       <r>    9.5760    1.0000 </r>
       <r>   10.2120    1.0000 </r>
       <r>   10.2692    1.0000 </r>
       <r>   10.6493    1.0000 </r>
       <r>   12.0884    0.0000 </r>
       <r>   21.0854    0.0000 </r>
       <r>   23.4068    0.0000 </r>
       <r>   24.3101    0.0000 </r>
       <r>   26.7971    0.0000 </r>
       <r>   27.8381    0.0000 </r>
       <r>   29.1278    0.0000 </r>
      </set>
      <set comment="kpoint 47">
       <r>  -41.6438    1.0000 </r>
       <r>  -41.6270    1.0000 </r>
       <r>  -41.3784    1.0000 </r>
       <r>  -41.3540    1.0000 </r>
       <r>  -41.2749    1.0000 </r>
       <r>  -41.2213    1.0000 </r>
       <r>    4.5283    1.0000 </r>
       <r>    4.9029    1.0000 </r>
       <r>    6.0215    1.0000 </r>
       <r>    6.1887    1.0000 </r>
       <r>    8.8562    1.0000 </r>
       <r>    8.9956    1.0000 </r>
       <r>    9.9191    1.0000 </r>
       <r>   10.2838    1.0000 </r>
       <r>   10.9145    1.0000 </r>
       <r>   11.0809    0.8995 </r>
       <r>   11.2086    0.0098 </r>
       <r>   12.9491    0.0000 </r>
       <r>   18.7487    0.0000 </r>
       <r>   20.2496    0.0000 </r>
       <r>   24.1224    0.0000 </r>
       <r>   26.0187    0.0000 </r>
       <r>   26.1304    0.0000 </r>
       <r>   28.8049    0.0000 </r>
      </set>
      <set comment="kpoint 48">
       <r>  -41.6786    1.0000 </r>
       <r>  -41.6617    1.0000 </r>
       <r>  -41.3877    1.0000 </r>
       <r>  -41.3627    1.0000 </r>
       <r>  -41.2636    1.0000 </r>
       <r>  -41.2229    1.0000 </r>
       <r>    4.4694    1.0000 </r>
       <r>    4.7779    1.0000 </r>
       <r>    5.9969    1.0000 </r>
       <r>    6.0288    1.0000 </r>
       <r>    8.8038    1.0000 </r>
       <r>    9.3116    1.0000 </r>
       <r>    9.9459    1.0000 </r>
       <r>   11.2354    0.0010 </r>
       <r>   11.5074    0.0000 </r>
       <r>   11.5743    0.0000 </r>
       <r>   11.9009    0.0000 </r>
       <r>   13.7489    0.0000 </r>
       <r>   17.6780    0.0000 </r>
       <r>   17.7188    0.0000 </r>
       <r>   24.6363    0.0000 </r>
       <r>   25.2250    0.0000 </r>
       <r>   25.4117    0.0000 </r>
       <r>   28.0195    0.0000 </r>
      </set>
      <set comment="kpoint 49">
       <r>  -41.4119    1.0000 </r>
       <r>  -41.3868    1.0000 </r>
       <r>  -41.3234    1.0000 </r>
       <r>  -41.3174    1.0000 </r>
       <r>  -41.3006    1.0000 </r>
       <r>  -41.2271    1.0000 </r>
       <r>    3.4862    1.0000 </r>
       <r>    4.6628    1.0000 </r>
       <r>    6.7009    1.0000 </r>
       <r>    6.9897    1.0000 </r>
       <r>    7.1727    1.0000 </r>
       <r>    7.6888    1.0000 </r>
       <r>    8.3929    1.0000 </r>
       <r>    8.5691    1.0000 </r>
       <r>    9.8459    1.0000 </r>
       <r>   10.0023    1.0000 </r>
       <r>   10.5442    1.0000 </r>
       <r>   11.3399    0.0000 </r>
       <r>   21.2901    0.0000 </r>
       <r>   25.4710    0.0000 </r>
       <r>   27.5618    0.0000 </r>
       <r>   27.7058    0.0000 </r>
       <r>   27.9173    0.0000 </r>
       <r>   28.7620    0.0000 </r>
      </set>
      <set comment="kpoint 50">
       <r>  -41.5028    1.0000 </r>
       <r>  -41.4880    1.0000 </r>
       <r>  -41.3523    1.0000 </r>
       <r>  -41.3359    1.0000 </r>
       <r>  -41.3034    1.0000 </r>
       <r>  -41.2209    1.0000 </r>
       <r>    4.3956    1.0000 </r>
       <r>    5.3974    1.0000 </r>
       <r>    6.2648    1.0000 </r>
       <r>    6.7973    1.0000 </r>
       <r>    7.1205    1.0000 </r>
       <r>    7.6152    1.0000 </r>
       <r>    8.8211    1.0000 </r>
       <r>    9.3396    1.0000 </r>
       <r>   10.1422    1.0000 </r>
       <r>   10.2089    1.0000 </r>
       <r>   10.6167    1.0000 </r>
       <r>   11.9502    0.0000 </r>
       <r>   21.5830    0.0000 </r>
       <r>   24.8168    0.0000 </r>
       <r>   25.1390    0.0000 </r>
       <r>   26.9954    0.0000 </r>
       <r>   27.0049    0.0000 </r>
       <r>   27.9166    0.0000 </r>
      </set>
      <set comment="kpoint 51">
       <r>  -41.5989    1.0000 </r>
       <r>  -41.5843    1.0000 </r>
       <r>  -41.3878    1.0000 </r>
       <r>  -41.3660    1.0000 </r>
       <r>  -41.2800    1.0000 </r>
       <r>  -41.2186    1.0000 </r>
       <r>    4.7899    1.0000 </r>
       <r>    5.2951    1.0000 </r>
       <r>    6.0878    1.0000 </r>
       <r>    6.4982    1.0000 </r>
       <r>    8.0380    1.0000 </r>
       <r>    8.4572    1.0000 </r>
       <r>    8.8867    1.0000 </r>
       <r>    9.6629    1.0000 </r>
       <r>   10.4100    1.0000 </r>
       <r>   11.1608    0.1629 </r>
       <r>   11.5210    0.0000 </r>
       <r>   12.8439    0.0000 </r>
       <r>   20.1293    0.0000 </r>
       <r>   22.0127    0.0000 </r>
       <r>   23.7980    0.0000 </r>
       <r>   25.6126    0.0000 </r>
       <r>   26.7772    0.0000 </r>
       <r>   27.0058    0.0000 </r>
      </set>
      <set comment="kpoint 52">
       <r>  -41.6588    1.0000 </r>
       <r>  -41.6423    1.0000 </r>
       <r>  -41.4093    1.0000 </r>
       <r>  -41.3849    1.0000 </r>
       <r>  -41.2613    1.0000 </r>
       <r>  -41.2211    1.0000 </r>
       <r>    4.7188    1.0000 </r>
       <r>    5.0886    1.0000 </r>
       <r>    6.0580    1.0000 </r>
       <r>    6.2511    1.0000 </r>
       <r>    8.2071    1.0000 </r>
       <r>    9.3614    1.0000 </r>
       <r>    9.5284    1.0000 </r>
       <r>   10.0760    1.0000 </r>
       <r>   10.8574    1.0000 </r>
       <r>   11.3942    0.0000 </r>
       <r>   13.0457    0.0000 </r>
       <r>   14.2839    0.0000 </r>
       <r>   17.7223    0.0000 </r>
       <r>   18.8734    0.0000 </r>
       <r>   23.7936    0.0000 </r>
       <r>   25.1248    0.0000 </r>
       <r>   25.9151    0.0000 </r>
       <r>   26.3182    0.0000 </r>
      </set>
      <set comment="kpoint 53">
       <r>  -41.5640    1.0000 </r>
       <r>  -41.5611    1.0000 </r>
       <r>  -41.4012    1.0000 </r>
       <r>  -41.3864    1.0000 </r>
       <r>  -41.2804    1.0000 </r>
       <r>  -41.2170    1.0000 </r>
       <r>    5.1528    1.0000 </r>
       <r>    5.6253    1.0000 </r>
       <r>    6.4925    1.0000 </r>
       <r>    6.6480    1.0000 </r>
       <r>    7.3439    1.0000 </r>
       <r>    7.3470    1.0000 </r>
       <r>    8.5141    1.0000 </r>
       <r>    9.4774    1.0000 </r>
       <r>   10.4003    1.0000 </r>
       <r>   11.2086    0.0098 </r>
       <r>   11.7217    0.0000 </r>
       <r>   12.9230    0.0000 </r>
       <r>   21.1771    0.0000 </r>
       <r>   22.8164    0.0000 </r>
       <r>   23.7575    0.0000 </r>
       <r>   24.8816    0.0000 </r>
       <r>   25.7628    0.0000 </r>
       <r>   27.3114    0.0000 </r>
      </set>
      <set comment="kpoint 54">
       <r>  -41.6146    1.0000 </r>
       <r>  -41.6045    1.0000 </r>
       <r>  -41.4515    1.0000 </r>
       <r>  -41.4321    1.0000 </r>
       <r>  -41.2584    1.0000 </r>
       <r>  -41.2187    1.0000 </r>
       <r>    5.3305    1.0000 </r>
       <r>    5.7097    1.0000 </r>
       <r>    6.2462    1.0000 </r>
       <r>    6.8270    1.0000 </r>
       <r>    7.4844    1.0000 </r>
       <r>    8.0423    1.0000 </r>
       <r>    8.6558    1.0000 </r>
       <r>    9.3512    1.0000 </r>
       <r>   10.6175    1.0000 </r>
       <r>   11.4697    0.0000 </r>
       <r>   13.5610    0.0000 </r>
       <r>   14.8772    0.0000 </r>
       <r>   18.7660    0.0000 </r>
       <r>   20.4182    0.0000 </r>
       <r>   22.3011    0.0000 </r>
       <r>   23.8511    0.0000 </r>
       <r>   25.5005    0.0000 </r>
       <r>   27.3212    0.0000 </r>
      </set>
      <set comment="kpoint 55">
       <r>  -41.6334    1.0000 </r>
       <r>  -41.6178    1.0000 </r>
       <r>  -41.4731    1.0000 </r>
       <r>  -41.4503    1.0000 </r>
       <r>  -41.2469    1.0000 </r>
       <r>  -41.2224    1.0000 </r>
       <r>    5.2758    1.0000 </r>
       <r>    5.7642    1.0000 </r>
       <r>    6.2361    1.0000 </r>
       <r>    6.7543    1.0000 </r>
       <r>    7.3248    1.0000 </r>
       <r>    8.4262    1.0000 </r>
       <r>    9.1594    1.0000 </r>
       <r>    9.4930    1.0000 </r>
       <r>   10.7850    1.0000 </r>
       <r>   11.2040    0.0138 </r>
       <r>   15.4740    0.0000 </r>
       <r>   15.6116    0.0000 </r>
       <r>   17.8157    0.0000 </r>
       <r>   18.2604    0.0000 </r>
       <r>   21.3849    0.0000 </r>
       <r>   23.5594    0.0000 </r>
       <r>   26.4031    0.0000 </r>
       <r>   26.6504    0.0000 </r>
      </set>
      <set comment="kpoint 56">
       <r>  -41.5934    1.0000 </r>
       <r>  -41.5862    1.0000 </r>
       <r>  -41.5225    1.0000 </r>
       <r>  -41.5027    1.0000 </r>
       <r>  -41.2397    1.0000 </r>
       <r>  -41.2246    1.0000 </r>
       <r>    5.8939    1.0000 </r>
       <r>    5.9727    1.0000 </r>
       <r>    6.6678    1.0000 </r>
       <r>    6.7287    1.0000 </r>
       <r>    7.3202    1.0000 </r>
       <r>    7.6737    1.0000 </r>
       <r>    8.5794    1.0000 </r>
       <r>    9.1748    1.0000 </r>
[...]
       <r>   13.5055    0.0000 </r>
       <r>   13.5055    0.0000 </r>
       <r>   18.2205    0.0000 </r>
       <r>   18.2205    0.0000 </r>
       <r>   25.1026    0.0000 </r>
       <r>   25.1026    0.0000 </r>
       <r>   25.7796    0.0000 </r>
       <r>   25.7796    0.0000 </r>
      </set>
      <set comment="kpoint 67">
       <r>  -41.5647    1.0000 </r>
       <r>  -41.5647    1.0000 </r>
       <r>  -41.3947    1.0000 </r>
       <r>  -41.3947    1.0000 </r>
       <r>  -41.2465    1.0000 </r>
       <r>  -41.2465    1.0000 </r>
       <r>    5.3793    1.0000 </r>
       <r>    5.3793    1.0000 </r>
       <r>    6.6534    1.0000 </r>
       <r>    6.6534    1.0000 </r>
       <r>    7.2314    1.0000 </r>
       <r>    7.2314    1.0000 </r>
       <r>    8.9523    1.0000 </r>
       <r>    8.9523    1.0000 </r>
       <r>   11.1192    0.5768 </r>
       <r>   11.1192    0.5768 </r>
       <r>   11.9392    0.0000 </r>
       <r>   11.9392    0.0000 </r>
       <r>   22.3423    0.0000 </r>
       <r>   22.3423    0.0000 </r>
       <r>   24.4297    0.0000 </r>
       <r>   24.4297    0.0000 </r>
       <r>   26.0698    0.0000 </r>
       <r>   26.0698    0.0000 </r>
      </set>
      <set comment="kpoint 68">
       <r>  -41.6113    1.0000 </r>
       <r>  -41.6113    1.0000 </r>
       <r>  -41.4428    1.0000 </r>
       <r>  -41.4428    1.0000 </r>
       <r>  -41.2356    1.0000 </r>
       <r>  -41.2356    1.0000 </r>
       <r>    5.4624    1.0000 </r>
       <r>    5.4624    1.0000 </r>
       <r>    6.5456    1.0000 </r>
       <r>    6.5456    1.0000 </r>
       <r>    7.8362    1.0000 </r>
       <r>    7.8362    1.0000 </r>
       <r>    8.8928    1.0000 </r>
       <r>    8.8928    1.0000 </r>
       <r>   11.1880    0.0399 </r>
       <r>   11.1880    0.0399 </r>
       <r>   14.0106    0.0000 </r>
       <r>   14.0106    0.0000 </r>
       <r>   19.6626    0.0000 </r>
       <r>   19.6626    0.0000 </r>
       <r>   23.0463    0.0000 </r>
       <r>   23.0463    0.0000 </r>
       <r>   26.4848    0.0000 </r>
       <r>   26.4848    0.0000 </r>
      </set>
      <set comment="kpoint 69">
       <r>  -41.6272    1.0000 </r>
       <r>  -41.6272    1.0000 </r>
       <r>  -41.4627    1.0000 </r>
       <r>  -41.4627    1.0000 </r>
       <r>  -41.2313    1.0000 </r>
       <r>  -41.2313    1.0000 </r>
       <r>    5.4554    1.0000 </r>
       <r>    5.4554    1.0000 </r>
       <r>    6.4740    1.0000 </r>
       <r>    6.4740    1.0000 </r>
       <r>    7.9254    1.0000 </r>
       <r>    7.9254    1.0000 </r>
       <r>    9.3164    1.0000 </r>
       <r>    9.3164    1.0000 </r>
       <r>   11.0473    0.9871 </r>
       <r>   11.0473    0.9871 </r>
       <r>   15.7031    0.0000 </r>
       <r>   15.7031    0.0000 </r>
       <r>   17.6849    0.0000 </r>
       <r>   17.6849    0.0000 </r>
       <r>   22.4496    0.0000 </r>
       <r>   22.4496    0.0000 </r>
       <r>   26.8954    0.0000 </r>
       <r>   26.8954    0.0000 </r>
      </set>
      <set comment="kpoint 70">
       <r>  -41.5910    1.0000 </r>
       <r>  -41.5910    1.0000 </r>
       <r>  -41.5145    1.0000 </r>
       <r>  -41.5145    1.0000 </r>
       <r>  -41.2285    1.0000 </r>
       <r>  -41.2285    1.0000 </r>
       <r>    5.9129    1.0000 </r>
       <r>    5.9129    1.0000 </r>
       <r>    6.7328    1.0000 </r>
       <r>    6.7328    1.0000 </r>
       <r>    7.4931    1.0000 </r>
       <r>    7.4931    1.0000 </r>
       <r>    8.7697    1.0000 </r>
       <r>    8.7697    1.0000 </r>
       <r>   11.0317    0.9962 </r>
       <r>   11.0317    0.9962 </r>
       <r>   16.4671    0.0000 </r>
       <r>   16.4671    0.0000 </r>
       <r>   18.4159    0.0000 </r>
       <r>   18.4159    0.0000 </r>
       <r>   20.6397    0.0000 </r>
       <r>   20.6397    0.0000 </r>
       <r>   27.9619    0.0000 </r>
       <r>   27.9619    0.0000 </r>
      </set>
     </set>
    </set>
   </array>
  </eigenvalues>
  <separator name="orbital magnetization" >
   <v name="MAGDIPOLOUT">      0.00000000      0.00000000      0.00000000</v>
  </separator>
  <dos>
   <i name="efermi">     11.12608243 </i>
   <total>
    <array>
     <dimension dim="1">gridpoints</dimension>
     <dimension dim="2">spin</dimension>
     <field>energy</field>
     <field>total</field>
     <field>integrated</field>
     <set>
      <set comment="spin 1">
       <r>   -45.3733     0.0000     0.0000 </r>
       <r>   -45.1025     0.0000     0.0000 </r>
       <r>   -44.8317     0.0000     0.0000 </r>
       <r>   -44.5609     0.0000     0.0000 </r>
       <r>   -44.2901     0.0000     0.0000 </r>
       <r>   -44.0193     0.0000     0.0000 </r>
       <r>   -43.7485     0.0000     0.0000 </r>
       <r>   -43.4778     0.0000     0.0000 </r>
       <r>   -43.2070     0.0000     0.0000 </r>
       <r>   -42.9362     0.0000     0.0000 </r>
       <r>   -42.6654     0.0000     0.0000 </r>
       <r>   -42.3946     0.0000     0.0000 </r>
       <r>   -42.1238     0.0000     0.0000 </r>
       <r>   -41.8530     0.0000     0.0000 </r>
       <r>   -41.5822     6.7660     1.8322 </r>
       <r>   -41.3114    23.2882     8.1383 </r>
       <r>   -41.0407    14.2602    11.9999 </r>
       <r>   -40.7699     0.0005    12.0000 </r>
       <r>   -40.4991     0.0000    12.0000 </r>
       <r>   -40.2283     0.0000    12.0000 </r>
       <r>   -39.9575     0.0000    12.0000 </r>
       <r>   -39.6867     0.0000    12.0000 </r>
       <r>   -39.4159     0.0000    12.0000 </r>
       <r>   -39.1451     0.0000    12.0000 </r>
       <r>   -38.8743     0.0000    12.0000 </r>
       <r>   -38.6036     0.0000    12.0000 </r>
       <r>   -38.3328     0.0000    12.0000 </r>
       <r>   -38.0620     0.0000    12.0000 </r>
       <r>   -37.7912     0.0000    12.0000 </r>
       <r>   -37.5204     0.0000    12.0000 </r>
       <r>   -37.2496     0.0000    12.0000 </r>
       <r>   -36.9788     0.0000    12.0000 </r>
       <r>   -36.7080     0.0000    12.0000 </r>
       <r>   -36.4372     0.0000    12.0000 </r>
       <r>   -36.1665     0.0000    12.0000 </r>
       <r>   -35.8957     0.0000    12.0000 </r>
       <r>   -35.6249     0.0000    12.0000 </r>
       <r>   -35.3541     0.0000    12.0000 </r>
       <r>   -35.0833     0.0000    12.0000 </r>
       <r>   -34.8125     0.0000    12.0000 </r>
       <r>   -34.5417     0.0000    12.0000 </r>
       <r>   -34.2709     0.0000    12.0000 </r>
       <r>   -34.0001     0.0000    12.0000 </r>
       <r>   -33.7294     0.0000    12.0000 </r>
       <r>   -33.4586     0.0000    12.0000 </r>
       <r>   -33.1878     0.0000    12.0000 </r>
       <r>   -32.9170     0.0000    12.0000 </r>
       <r>   -32.6462     0.0000    12.0000 </r>
       <r>   -32.3754     0.0000    12.0000 </r>
       <r>   -32.1046     0.0000    12.0000 </r>
       <r>   -31.8338     0.0000    12.0000 </r>
       <r>   -31.5631     0.0000    12.0000 </r>
       <r>   -31.2923     0.0000    12.0000 </r>
       <r>   -31.0215     0.0000    12.0000 </r>
       <r>   -30.7507     0.0000    12.0000 </r>
       <r>   -30.4799     0.0000    12.0000 </r>
       <r>   -30.2091     0.0000    12.0000 </r>
       <r>   -29.9383     0.0000    12.0000 </r>
       <r>   -29.6675     0.0000    12.0000 </r>
       <r>   -29.3967     0.0000    12.0000 </r>
       <r>   -29.1260     0.0000    12.0000 </r>
       <r>   -28.8552     0.0000    12.0000 </r>
       <r>   -28.5844     0.0000    12.0000 </r>
       <r>   -28.3136     0.0000    12.0000 </r>
       <r>   -28.0428     0.0000    12.0000 </r>
       <r>   -27.7720     0.0000    12.0000 </r>
       <r>   -27.5012     0.0000    12.0000 </r>
       <r>   -27.2304     0.0000    12.0000 </r>
       <r>   -26.9596     0.0000    12.0000 </r>
       <r>   -26.6889     0.0000    12.0000 </r>
       <r>   -26.4181     0.0000    12.0000 </r>
       <r>   -26.1473     0.0000    12.0000 </r>
       <r>   -25.8765     0.0000    12.0000 </r>
       <r>   -25.6057     0.0000    12.0000 </r>
       <r>   -25.3349     0.0000    12.0000 </r>
       <r>   -25.0641     0.0000    12.0000 </r>
       <r>   -24.7933     0.0000    12.0000 </r>
       <r>   -24.5225     0.0000    12.0000 </r>
       <r>   -24.2518     0.0000    12.0000 </r>
       <r>   -23.9810     0.0000    12.0000 </r>
       <r>   -23.7102     0.0000    12.0000 </r>
       <r>   -23.4394     0.0000    12.0000 </r>
       <r>   -23.1686     0.0000    12.0000 </r>
       <r>   -22.8978     0.0000    12.0000 </r>
       <r>   -22.6270     0.0000    12.0000 </r>
       <r>   -22.3562     0.0000    12.0000 </r>
       <r>   -22.0854     0.0000    12.0000 </r>
       <r>   -21.8147     0.0000    12.0000 </r>
       <r>   -21.5439     0.0000    12.0000 </r>
       <r>   -21.2731     0.0000    12.0000 </r>
       <r>   -21.0023     0.0000    12.0000 </r>
       <r>   -20.7315     0.0000    12.0000 </r>
       <r>   -20.4607     0.0000    12.0000 </r>
       <r>   -20.1899     0.0000    12.0000 </r>
       <r>   -19.9191     0.0000    12.0000 </r>
       <r>   -19.6483     0.0000    12.0000 </r>
       <r>   -19.3776     0.0000    12.0000 </r>
       <r>   -19.1068     0.0000    12.0000 </r>
       <r>   -18.8360     0.0000    12.0000 </r>
       <r>   -18.5652     0.0000    12.0000 </r>
       <r>   -18.2944     0.0000    12.0000 </r>
       <r>   -18.0236     0.0000    12.0000 </r>
       <r>   -17.7528     0.0000    12.0000 </r>
       <r>   -17.4820     0.0000    12.0000 </r>
       <r>   -17.2112     0.0000    12.0000 </r>
       <r>   -16.9405     0.0000    12.0000 </r>
       <r>   -16.6697     0.0000    12.0000 </r>
       <r>   -16.3989     0.0000    12.0000 </r>
       <r>   -16.1281     0.0000    12.0000 </r>
       <r>   -15.8573     0.0000    12.0000 </r>
       <r>   -15.5865     0.0000    12.0000 </r>
       <r>   -15.3157     0.0000    12.0000 </r>
       <r>   -15.0449     0.0000    12.0000 </r>
       <r>   -14.7742     0.0000    12.0000 </r>
       <r>   -14.5034     0.0000    12.0000 </r>
       <r>   -14.2326     0.0000    12.0000 </r>
       <r>   -13.9618     0.0000    12.0000 </r>
       <r>   -13.6910     0.0000    12.0000 </r>
       <r>   -13.4202     0.0000    12.0000 </r>
       <r>   -13.1494     0.0000    12.0000 </r>
       <r>   -12.8786     0.0000    12.0000 </r>
       <r>   -12.6078     0.0000    12.0000 </r>
       <r>   -12.3371     0.0000    12.0000 </r>
       <r>   -12.0663     0.0000    12.0000 </r>
       <r>   -11.7955     0.0000    12.0000 </r>
       <r>   -11.5247     0.0000    12.0000 </r>
       <r>   -11.2539     0.0000    12.0000 </r>
       <r>   -10.9831     0.0000    12.0000 </r>
       <r>   -10.7123     0.0000    12.0000 </r>
       <r>   -10.4415     0.0000    12.0000 </r>
       <r>   -10.1707     0.0000    12.0000 </r>
       <r>    -9.9000     0.0000    12.0000 </r>
       <r>    -9.6292     0.0000    12.0000 </r>
       <r>    -9.3584     0.0000    12.0000 </r>
       <r>    -9.0876     0.0000    12.0000 </r>
       <r>    -8.8168     0.0000    12.0000 </r>
       <r>    -8.5460     0.0000    12.0000 </r>
       <r>    -8.2752     0.0000    12.0000 </r>
       <r>    -8.0044     0.0000    12.0000 </r>
       <r>    -7.7336     0.0000    12.0000 </r>
       <r>    -7.4629     0.0000    12.0000 </r>
       <r>    -7.1921     0.0000    12.0000 </r>
       <r>    -6.9213     0.0000    12.0000 </r>
       <r>    -6.6505     0.0000    12.0000 </r>
       <r>    -6.3797     0.0000    12.0000 </r>
       <r>    -6.1089     0.0000    12.0000 </r>
       <r>    -5.8381     0.0000    12.0000 </r>
       <r>    -5.5673     0.0000    12.0000 </r>
       <r>    -5.2965     0.0000    12.0000 </r>
       <r>    -5.0258     0.0000    12.0000 </r>
       <r>    -4.7550     0.0000    12.0000 </r>
       <r>    -4.4842     0.0000    12.0000 </r>
       <r>    -4.2134     0.0000    12.0000 </r>
       <r>    -3.9426     0.0000    12.0000 </r>
       <r>    -3.6718     0.0000    12.0000 </r>
       <r>    -3.4010     0.0000    12.0000 </r>
       <r>    -3.1302     0.0000    12.0000 </r>
       <r>    -2.8594     0.0000    12.0000 </r>
       <r>    -2.5887     0.0000    12.0000 </r>
       <r>    -2.3179     0.0000    12.0000 </r>
       <r>    -2.0471     0.0000    12.0000 </r>
       <r>    -1.7763     0.0000    12.0000 </r>
       <r>    -1.5055     0.0000    12.0000 </r>
       <r>    -1.2347     0.0000    12.0000 </r>
       <r>    -0.9639     0.0000    12.0000 </r>
       <r>    -0.6931     0.0000    12.0000 </r>
       <r>    -0.4224     0.0000    12.0000 </r>
       <r>    -0.1516     0.0000    12.0000 </r>
       <r>     0.1192     0.0000    12.0000 </r>
       <r>     0.3900     0.0000    12.0000 </r>
       <r>     0.6608     0.0000    12.0000 </r>
       <r>     0.9316     0.0000    12.0000 </r>
       <r>     1.2024     0.0000    12.0000 </r>
       <r>     1.4732     0.0088    12.0024 </r>
       <r>     1.7440     0.0269    12.0097 </r>
       <r>     2.0147     0.1761    12.0574 </r>
       <r>     2.2855     0.0507    12.0711 </r>
       <r>     2.5563     0.1545    12.1129 </r>
       <r>     2.8271     0.1699    12.1590 </r>
       <r>     3.0979     0.3095    12.2428 </r>
       <r>     3.3687     0.1283    12.2775 </r>
       <r>     3.6395     0.2908    12.3563 </r>
       <r>     3.9103     0.4005    12.4647 </r>
       <r>     4.1811     0.6902    12.6516 </r>
       <r>     4.4518     0.7576    12.8568 </r>
       <r>     4.7226     1.5947    13.2886 </r>
       <r>     4.9934     2.5355    13.9752 </r>
       <r>     5.2642     1.8648    14.4802 </r>
       <r>     5.5350     2.4932    15.1553 </r>
       <r>     5.8058     1.8662    15.6606 </r>
       <r>     6.0766     3.3156    16.5585 </r>
       <r>     6.3474     3.2815    17.4471 </r>
       <r>     6.6182     2.6160    18.1555 </r>
       <r>     6.8889     3.3138    19.0528 </r>
       <r>     7.1597     2.6122    19.7602 </r>
       <r>     7.4305     2.7155    20.4955 </r>
       <r>     7.7013     3.6351    21.4799 </r>
       <r>     7.9721     3.6889    22.4788 </r>
       <r>     8.2429     3.1277    23.3257 </r>
       <r>     8.5137     4.1964    24.4620 </r>
       <r>     8.7845     3.1232    25.3078 </r>
       <r>     9.0553     3.0312    26.1286 </r>
       <r>     9.3260     1.9044    26.6443 </r>
       <r>     9.5968     2.5631    27.3383 </r>
       <r>     9.8676     2.5284    28.0230 </r>
       <r>    10.1384     2.7526    28.7684 </r>
       <r>    10.4092     2.4294    29.4262 </r>
       <r>    10.6800     2.5882    30.1271 </r>
       <r>    10.9508     3.8596    31.1722 </r>
       <r>    11.2216     4.3876    32.3603 </r>
       <r>    11.4924     2.4810    33.0322 </r>
       <r>    11.7631     1.3450    33.3964 </r>
       <r>    12.0339     0.7011    33.5862 </r>
       <r>    12.3047     0.3276    33.6749 </r>
       <r>    12.5755     0.1658    33.7199 </r>
       <r>    12.8463     0.2073    33.7760 </r>
       <r>    13.1171     1.0438    34.0586 </r>
       <r>    13.3879     1.0820    34.3516 </r>
       <r>    13.6587     0.5694    34.5058 </r>
       <r>    13.9295     0.1195    34.5382 </r>
       <r>    14.2002     0.3826    34.6418 </r>
       <r>    14.4710     0.7017    34.8318 </r>
       <r>    14.7418     0.1946    34.8845 </r>
       <r>    15.0126     0.7406    35.0850 </r>
       <r>    15.2834     0.4539    35.2079 </r>
       <r>    15.5542     0.4961    35.3423 </r>
       <r>    15.8250     0.9468    35.5987 </r>
       <r>    16.0958     0.4475    35.7198 </r>
       <r>    16.3665     0.4862    35.8515 </r>
       <r>    16.6373     0.2866    35.9291 </r>
       <r>    16.9081     0.2343    35.9925 </r>
       <r>    17.1789     0.2309    36.0550 </r>
       <r>    17.4497     0.5220    36.1964 </r>
       <r>    17.7205     1.0873    36.4908 </r>
       <r>    17.9913     0.9108    36.7375 </r>
       <r>    18.2621     0.8830    36.9766 </r>
       <r>    18.5329     0.7031    37.1670 </r>
       <r>    18.8036     0.8597    37.3998 </r>
       <r>    19.0744     0.7469    37.6020 </r>
       <r>    19.3452     0.4340    37.7195 </r>
       <r>    19.6160     0.5343    37.8642 </r>
       <r>    19.8868     0.6952    38.0525 </r>
       <r>    20.1576     1.0301    38.3314 </r>
       <r>    20.4284     0.9446    38.5872 </r>
       <r>    20.6992     0.5930    38.7478 </r>
       <r>    20.9700     0.2879    38.8257 </r>
       <r>    21.2407     0.6814    39.0102 </r>
       <r>    21.5115     1.0298    39.2891 </r>
       <r>    21.7823     0.6858    39.4748 </r>
       <r>    22.0531     0.5489    39.6235 </r>
       <r>    22.3239     0.3174    39.7094 </r>
       <r>    22.5947     1.0484    39.9933 </r>
       <r>    22.8655     0.3321    40.0832 </r>
       <r>    23.1363     0.3808    40.1863 </r>
       <r>    23.4071     1.1759    40.5048 </r>
       <r>    23.6778     1.1749    40.8229 </r>
       <r>    23.9486     0.9745    41.0868 </r>
       <r>    24.2194     0.6524    41.2635 </r>
       <r>    24.4902     0.7822    41.4753 </r>
       <r>    24.7610     0.3953    41.5823 </r>
       <r>    25.0318     0.9090    41.8285 </r>
       <r>    25.3026     2.0736    42.3900 </r>
       <r>    25.5734     1.8773    42.8983 </r>
       <r>    25.8442     1.3928    43.2755 </r>
       <r>    26.1149     1.5422    43.6931 </r>
       <r>    26.3857     1.0950    43.9896 </r>
       <r>    26.6565     1.1374    44.2976 </r>
       <r>    26.9273     1.1748    44.6157 </r>
       <r>    27.1981     1.9433    45.1419 </r>
       <r>    27.4689     1.9773    45.6774 </r>
       <r>    27.7397     0.9983    45.9477 </r>
       <r>    28.0105     1.3190    46.3049 </r>
       <r>    28.2813     1.2344    46.6391 </r>
       <r>    28.5520     0.7869    46.8522 </r>
       <r>    28.8228     0.8719    47.0883 </r>
       <r>    29.0936     0.5878    47.2475 </r>
       <r>    29.3644     0.6850    47.4330 </r>
       <r>    29.6352     0.1876    47.4838 </r>
       <r>    29.9060     0.6088    47.6486 </r>
       <r>    30.1768     0.3632    47.7470 </r>
       <r>    30.4476     0.1269    47.7814 </r>
       <r>    30.7183     0.5932    47.9420 </r>
       <r>    30.9891     0.0675    47.9603 </r>
       <r>    31.2599     0.0728    47.9800 </r>
       <r>    31.5307     0.0170    47.9846 </r>
       <r>    31.8015     0.0384    47.9950 </r>
       <r>    32.0723     0.0000    47.9950 </r>
       <r>    32.3431     0.0184    48.0000 </r>
       <r>    32.6139     0.0000    48.0000 </r>
       <r>    32.8847     0.0000    48.0000 </r>
       <r>    33.1554     0.0000    48.0000 </r>
       <r>    33.4262     0.0000    48.0000 </r>
       <r>    33.6970     0.0000    48.0000 </r>
       <r>    33.9678     0.0000    48.0000 </r>
       <r>    34.2386     0.0000    48.0000 </r>
       <r>    34.5094     0.0000    48.0000 </r>
       <r>    34.7802     0.0000    48.0000 </r>
       <r>    35.0510     0.0000    48.0000 </r>
       <r>    35.3218     0.0000    48.0000 </r>
       <r>    35.5925     0.0000    48.0000 </r>
       <r>    35.8633     0.0000    48.0000 </r>
      </set>
     </set>
    </array>
   </total>
  </dos>
 </calculation>
 <structure name="finalpos" >
  <crystal>
   <varray name="basis" >
    <v>       2.76000000       0.00000000       0.00000000 </v>
    <v>      -1.38000000       2.39023011       0.00000000 </v>
    <v>       0.00000000       0.00000000       4.79000000 </v>
   </varray>
   <i name="volume">     31.59979821 </i>
   <varray name="rec_basis" >
    <v>       0.36231884       0.20918488       0.00000000 </v>
    <v>       0.00000000       0.41836976       0.00000000 </v>
    <v>       0.00000000       0.00000000       0.20876827 </v>
   </varray>
  </crystal>
  <varray name="positions" >
   <v>       0.00000000       0.00000000       0.00000000 </v>
   <v>       0.33333333       0.66666667       0.50000000 </v>
  </varray>
 </structure>
</modeling>
