Pt-fcc                                  
   1.00000000000000     
     0.000000    2.176733    2.176733
     2.176733    0.000000    2.176733
     2.176733    2.176733    0.000000
   Pt
     1
Direct
  0.000000  0.000000  0.000000
 
   48   48   48
  180.87      180.73      180.01      177.89      173.30      165.25      153.24      137.42      118.67      98.451    
  78.457      60.247      44.928      32.982      24.273      18.188      13.879      10.754      8.5442      7.0111    
  5.9630      5.2608      4.8126      4.5628      4.4824      4.5628      4.8126      5.2608      5.9630      7.0111    
  8.5442      10.754      13.879      18.188      24.273      32.982      44.928      60.247      78.457      98.451    
  118.67      137.42      153.24      165.25      173.30      177.89      180.01      180.73      180.73      180.30    
  178.87      175.47      169.08      158.93      144.85      127.38      107.74      87.528      68.394      51.679    
  38.168      28.008      20.793      15.756      12.110      9.4980      7.6694      6.4095      5.5548      4.9924    
  4.6505      4.4885      4.4885      4.6505      4.9924      5.5548      6.4095      7.6694      9.4980      12.110    
  15.756      20.793      28.008      38.168      51.679      68.394      87.528      107.74      127.38      144.85    
  158.93      169.08      175.47      178.87      180.30      180.73      180.01      178.87      176.13      170.85    
  162.17      149.69      133.65      114.97      95.077      75.587      57.970      43.240      31.808      23.494    
  17.675      13.521      10.505      8.3708      6.8875      5.8708      5.1879      4.7509      4.5067      4.4281    
  4.5067      4.7509      5.1879      5.8708      6.8875      8.3708      10.505      13.521      17.675      23.494    
  31.808      43.240      57.970      75.587      95.077      114.97      133.65      149.69      162.17      170.85    
  176.13      178.87      180.01      180.30      177.89      175.47      170.85      163.21      152.06      137.41    
  119.89      100.71      81.374      63.365      47.841      35.425      26.154      19.574      14.925      11.529    
  9.0942      7.3852      6.2026      5.3961      4.8623      4.5363      4.3814      4.3814      4.5363      4.8623    
  5.3961      6.2026      7.3852      9.0942      11.529      14.925      19.574      26.154      35.425      47.841    
  63.365      81.374      100.71      119.89      137.41      152.06      163.21      170.85      175.47      177.89    
  178.87      178.87      173.30      169.08      162.17      152.06      138.65      122.37      104.18      85.415    
  67.496      51.632      38.591      28.596      21.364      16.253      12.523      9.8112      7.8862      6.5409    
  5.6118      4.9823      4.5763      4.3481      4.2744      4.3481      4.5763      4.9823      5.6118      6.5409    
  7.8862      9.8112      12.523      16.253      21.364      28.596      38.591      51.632      67.496      85.415    
  104.18      122.37      138.65      152.06      162.17      169.08      173.30      175.47      176.13      175.47    
  165.25      158.93      149.69      137.41      122.37      105.35      87.489      70.086      54.329      41.058    
  30.636      22.932      17.434      13.436      10.488      8.3696      6.8732      5.8280      5.1071      4.6248    
  4.3274      4.1852      4.1852      4.3274      4.6248      5.1071      5.8280      6.8732      8.3696      10.488    
  13.436      17.434      22.932      30.636      41.058      54.329      70.086      87.489      105.35      122.37    
  137.41      149.69      158.93      165.25      169.08      170.85      170.85      169.08      153.24      144.85    
  133.65      119.89      104.18      87.489      70.969      55.729      42.625      32.102      24.158      18.405    
  14.213      11.088      8.8115      7.1851      6.0361      5.2318      4.6791      4.3180      4.1131      4.0466    
  4.1131      4.3180      4.6791      5.2318      6.0361      7.1851      8.8115      11.088      14.213      18.405    
  24.158      32.102      42.625      55.729      70.969      87.489      104.18      119.89      133.65      144.85    
  153.24      158.93      162.17      163.21      162.17      158.93      137.42      127.38      114.97      100.71    
  85.415      70.086      55.729      43.162      32.869      24.940      19.097      14.808      11.575      9.1875    
  7.4604      6.2260      5.3503      4.7360      4.3181      4.0570      3.9311      3.9311      4.0570      4.3181    
  4.7360      5.3503      6.2260      7.4604      9.1875      11.575      14.808      19.097      24.940      32.869    
  43.162      55.729      70.086      85.415      100.71      114.97      127.38      137.42      144.85      149.69    
  152.06      152.06      149.69      144.85      118.67      107.74      95.077      81.374      67.496      54.329    
  42.625      32.869      25.208      19.458      15.181      11.919      9.4750      7.6836      6.3876      5.4561    
  4.7911      4.3251      4.0153      3.8374      3.7793      3.8374      4.0153      4.3251      4.7911      5.4561    
  6.3876      7.6836      9.4750      11.919      15.181      19.458      25.208      32.869      42.625      54.329    
  67.496      81.374      95.077      107.74      118.67      127.38      133.65      137.41      138.65      137.41    
  133.65      127.38      98.451      87.528      75.587      63.365      51.632      41.058      32.102      24.940    
  19.458      15.309      12.097      9.6554      7.8410      6.5111      5.5427      4.8402      4.3361      3.9861    
  3.7640      3.6559      3.6559      3.7640      3.9861      4.3361      4.8402      5.5427      6.5111      7.8410    
  9.6554      12.097      15.309      19.458      24.940      32.102      41.058      51.632      63.365      75.587    
  87.528      98.451      107.74      114.97      119.89      122.37      122.37      119.89      114.97      107.74    
  78.457      68.394      57.970      47.841      38.591      30.636      24.158      19.097      15.181      12.097    
  9.7170      7.9224      6.5887      5.6041      4.8790      4.3480      3.9670      3.7090      3.5589      3.5096    
  3.5589      3.7090      3.9670      4.3480      4.8790      5.6041      6.5887      7.9224      9.7170      12.097    
  15.181      19.097      24.158      30.636      38.591      47.841      57.970      68.394      78.457      87.528    
  95.077      100.71      104.18      105.35      104.18      100.71      95.077      87.528      60.247      51.679    
  43.240      35.425      28.596      22.932      18.405      14.808      11.919      9.6554      7.9224      6.6152    
  5.6359      4.9038      4.3578      3.9556      3.6702      3.4863      3.3960      3.3960      3.4863      3.6702    
  3.9556      4.3578      4.9038      5.6359      6.6152      7.9224      9.6554      11.919      14.808      18.405    
  22.932      28.596      35.425      43.240      51.679      60.247      68.394      75.587      81.374      85.415    
  87.489      87.489      85.415      81.374      75.587      68.394      44.928      38.168      31.808      26.154    
  21.364      17.434      14.213      11.575      9.4750      7.8410      6.5887      5.6359      4.9124      4.3634    
  3.9497      3.6457      3.4362      3.3130      3.2723      3.3130      3.4362      3.6457      3.9497      4.3634    
  4.9124      5.6359      6.5887      7.8410      9.4750      11.575      14.213      17.434      21.364      26.154    
  31.808      38.168      44.928      51.679      57.970      63.365      67.496      70.086      70.969      70.086    
  67.496      63.365      57.970      51.679      32.982      28.008      23.494      19.574      16.253      13.436    
  11.088      9.1875      7.6836      6.5111      5.6041      4.9038      4.3634      3.9479      3.6339      3.4070    
  3.2589      3.1856      3.1856      3.2589      3.4070      3.6339      3.9479      4.3634      4.9038      5.6041    
  6.5111      7.6836      9.1875      11.088      13.436      16.253      19.574      23.494      28.008      32.982    
  38.168      43.240      47.841      51.632      54.329      55.729      55.729      54.329      51.632      47.841    
  43.240      38.168      24.273      20.793      17.675      14.925      12.523      10.488      8.8115      7.4604    
  6.3876      5.5427      4.8790      4.3578      3.9497      3.6339      3.3973      3.2322      3.1343      3.1018    
  3.1343      3.2322      3.3973      3.6339      3.9497      4.3578      4.8790      5.5427      6.3876      7.4604    
  8.8115      10.488      12.523      14.925      17.675      20.793      24.273      28.008      31.808      35.425    
  38.591      41.058      42.625      43.162      42.625      41.058      38.591      35.425      31.808      28.008    
  18.188      15.756      13.521      11.529      9.8112      8.3696      7.1851      6.2260      5.4561      4.8402    
  4.3480      3.9556      3.6457      3.4070      3.2322      3.1173      3.0602      3.0602      3.1173      3.2322    
  3.4070      3.6457      3.9556      4.3480      4.8402      5.4561      6.2260      7.1851      8.3696      9.8112    
  11.529      13.521      15.756      18.189      20.793      23.494      26.154      28.596      30.636      32.102    
  32.869      32.869      32.102      30.636      28.596      26.154      23.494      20.793      13.879      12.110    
  10.505      9.0942      7.8862      6.8732      6.0361      5.3503      4.7911      4.3361      3.9670      3.6702    
  3.4362      3.2589      3.1343      3.0602      3.0357      3.0602      3.1343      3.2589      3.4362      3.6702    
  3.9670      4.3361      4.7911      5.3503      6.0360      6.8732      7.8862      9.0942      10.505      12.110    
  13.879      15.756      17.675      19.574      21.364      22.932      24.158      24.940      25.208      24.940    
  24.158      22.932      21.364      19.574      17.675      15.756      10.754      9.4980      8.3708      7.3852    
  6.5409      5.8280      5.2318      4.7360      4.3251      3.9861      3.7090      3.4863      3.3130      3.1856    
  3.1018      3.0602      3.0602      3.1018      3.1856      3.3130      3.4863      3.7090      3.9861      4.3251    
  4.7360      5.2318      5.8280      6.5409      7.3852      8.3708      9.4980      10.754      12.110      13.521    
  14.925      16.253      17.434      18.405      19.097      19.458      19.458      19.097      18.405      17.434    
  16.253      14.925      13.521      12.110      8.5442      7.6694      6.8875      6.2026      5.6118      5.1071    
  4.6791      4.3181      4.0153      3.7640      3.5589      3.3960      3.2723      3.1856      3.1343      3.1173    
  3.1343      3.1856      3.2723      3.3960      3.5589      3.7640      4.0153      4.3181      4.6791      5.1071    
  5.6117      6.2026      6.8874      7.6694      8.5442      9.4980      10.505      11.529      12.523      13.436    
  14.213      14.808      15.181      15.309      15.181      14.808      14.213      13.436      12.523      11.529    
  10.505      9.4980      7.0111      6.4095      5.8708      5.3961      4.9823      4.6248      4.3180      4.0570    
  3.8374      3.6559      3.5096      3.3960      3.3130      3.2589      3.2322      3.2322      3.2589      3.3130    
  3.3960      3.5096      3.6559      3.8374      4.0570      4.3180      4.6248      4.9823      5.3961      5.8708    
  6.4095      7.0111      7.6694      8.3708      9.0942      9.8112      10.488      11.088      11.575      11.919    
  12.097      12.097      11.919      11.575      11.088      10.488      9.8112      9.0942      8.3708      7.6694    
  5.9630      5.5548      5.1879      4.8623      4.5763      4.3274      4.1131      3.9311      3.7793      3.6559    
  3.5589      3.4863      3.4362      3.4070      3.3973      3.4070      3.4362      3.4863      3.5589      3.6559    
  3.7793      3.9311      4.1131      4.3274      4.5763      4.8623      5.1879      5.5548      5.9630      6.4095    
  6.8874      7.3852      7.8862      8.3696      8.8115      9.1875      9.4750      9.6554      9.7170      9.6554    
  9.4750      9.1875      8.8115      8.3696      7.8862      7.3852      6.8875      6.4095      5.2608      4.9924    
  4.7509      4.5363      4.3481      4.1852      4.0466      3.9311      3.8374      3.7640      3.7090      3.6702    
  3.6457      3.6339      3.6339      3.6457      3.6702      3.7090      3.7640      3.8374      3.9311      4.0466    
  4.1852      4.3481      4.5363      4.7509      4.9924      5.2608      5.5548      5.8708      6.2026      6.5409    
  6.8732      7.1851      7.4604      7.6836      7.8410      7.9224      7.9224      7.8410      7.6836      7.4604    
  7.1851      6.8732      6.5409      6.2026      5.8708      5.5548      4.8126      4.6505      4.5067      4.3814    
  4.2744      4.1852      4.1131      4.0570      4.0153      3.9861      3.9670      3.9556      3.9497      3.9479    
  3.9497      3.9556      3.9670      3.9861      4.0153      4.0570      4.1131      4.1852      4.2744      4.3814    
  4.5067      4.6505      4.8126      4.9924      5.1879      5.3961      5.6117      5.8280      6.0360      6.2260    
  6.3876      6.5111      6.5887      6.6152      6.5887      6.5111      6.3876      6.2260      6.0361      5.8280    
  5.6118      5.3961      5.1879      4.9924      4.5628      4.4885      4.4281      4.3814      4.3481      4.3274    
  4.3180      4.3181      4.3251      4.3361      4.3480      4.3578      4.3634      4.3634      4.3578      4.3480    
  4.3361      4.3251      4.3181      4.3180      4.3274      4.3481      4.3814      4.4281      4.4885      4.5628    
  4.6505      4.7509      4.8623      4.9823      5.1071      5.2318      5.3503      5.4561      5.5427      5.6041    
  5.6359      5.6359      5.6041      5.5427      5.4561      5.3503      5.2318      5.1071      4.9823      4.8623    
  4.7509      4.6505      4.4824      4.4885      4.5067      4.5363      4.5763      4.6248      4.6791      4.7360    
  4.7911      4.8402      4.8790      4.9038      4.9124      4.9038      4.8790      4.8402      4.7911      4.7360    
  4.6791      4.6248      4.5763      4.5363      4.5067      4.4885      4.4824      4.4885      4.5067      4.5363    
  4.5763      4.6248      4.6791      4.7360      4.7911      4.8402      4.8790      4.9038      4.9124      4.9038    
  4.8790      4.8402      4.7911      4.7360      4.6791      4.6248      4.5763      4.5363      4.5067      4.4885    
  4.5628      4.6505      4.7509      4.8623      4.9823      5.1071      5.2318      5.3503      5.4561      5.5427    
  5.6041      5.6359      5.6359      5.6041      5.5427      5.4561      5.3503      5.2318      5.1071      4.9823    
  4.8623      4.7509      4.6505      4.5628      4.4885      4.4281      4.3814      4.3481      4.3274      4.3180    
  4.3181      4.3251      4.3361      4.3480      4.3578      4.3634      4.3634      4.3578      4.3480      4.3361    
  4.3251      4.3181      4.3180      4.3274      4.3481      4.3814      4.4281      4.4885      4.8126      4.9924    
  5.1879      5.3961      5.6118      5.8280      6.0361      6.2260      6.3876      6.5111      6.5887      6.6152    
  6.5887      6.5111      6.3876      6.2260      6.0360      5.8280      5.6117      5.3961      5.1879      4.9924    
  4.8126      4.6505      4.5067      4.3814      4.2744      4.1852      4.1131      4.0570      4.0153      3.9861    
  3.9670      3.9556      3.9497      3.9479      3.9497      3.9556      3.9670      3.9861      4.0153      4.0570    
  4.1131      4.1852      4.2744      4.3814      4.5067      4.6505      5.2608      5.5548      5.8708      6.2026    
  6.5409      6.8732      7.1851      7.4604      7.6836      7.8410      7.9224      7.9224      7.8410      7.6836    
  7.4604      7.1851      6.8732      6.5409      6.2026      5.8708      5.5548      5.2608      4.9924      4.7509    
  4.5363      4.3481      4.1852      4.0466      3.9311      3.8374      3.7640      3.7090      3.6702      3.6457    
  3.6339      3.6339      3.6457      3.6702      3.7090      3.7640      3.8374      3.9311      4.0466      4.1852    
  4.3481      4.5363      4.7509      4.9924      5.9630      6.4095      6.8875      7.3852      7.8862      8.3696    
  8.8115      9.1875      9.4750      9.6554      9.7170      9.6554      9.4750      9.1875      8.8115      8.3696    
  7.8862      7.3852      6.8874      6.4095      5.9630      5.5548      5.1879      4.8623      4.5763      4.3274    
  4.1131      3.9311      3.7793      3.6559      3.5589      3.4863      3.4362      3.4070      3.3973      3.4070    
  3.4362      3.4863      3.5589      3.6559      3.7793      3.9311      4.1131      4.3274      4.5763      4.8623    
  5.1879      5.5548      7.0111      7.6694      8.3708      9.0942      9.8112      10.488      11.088      11.575    
  11.919      12.097      12.097      11.919      11.575      11.088      10.488      9.8112      9.0942      8.3708    
  7.6694      7.0111      6.4095      5.8708      5.3961      4.9823      4.6248      4.3180      4.0570      3.8374    
  3.6559      3.5096      3.3960      3.3130      3.2589      3.2322      3.2322      3.2589      3.3130      3.3960    
  3.5096      3.6559      3.8374      4.0570      4.3180      4.6248      4.9823      5.3961      5.8708      6.4095    
  8.5442      9.4980      10.505      11.529      12.523      13.436      14.213      14.808      15.181      15.309    
  15.181      14.808      14.213      13.436      12.523      11.529      10.505      9.4980      8.5442      7.6694    
  6.8874      6.2026      5.6117      5.1071      4.6791      4.3181      4.0153      3.7640      3.5589      3.3960    
  3.2723      3.1856      3.1343      3.1173      3.1343      3.1856      3.2723      3.3960      3.5589      3.7640    
  4.0153      4.3181      4.6791      5.1071      5.6118      6.2026      6.8875      7.6694      10.754      12.110    
  13.521      14.925      16.253      17.434      18.405      19.097      19.458      19.458      19.097      18.405    
  17.434      16.253      14.925      13.521      12.110      10.754      9.4980      8.3708      7.3852      6.5409    
  5.8280      5.2318      4.7360      4.3251      3.9861      3.7090      3.4863      3.3130      3.1856      3.1018    
  3.0602      3.0602      3.1018      3.1856      3.3130      3.4863      3.7090      3.9861      4.3251      4.7360    
  5.2318      5.8280      6.5409      7.3852      8.3708      9.4980      13.879      15.756      17.675      19.574    
  21.364      22.932      24.158      24.940      25.208      24.940      24.158      22.932      21.364      19.574    
  17.675      15.756      13.879      12.110      10.505      9.0942      7.8862      6.8732      6.0360      5.3503    
  4.7911      4.3361      3.9670      3.6702      3.4362      3.2589      3.1343      3.0602      3.0357      3.0602    
  3.1343      3.2589      3.4362      3.6702      3.9670      4.3361      4.7911      5.3503      6.0361      6.8732    
  7.8862      9.0942      10.505      12.110      18.188      20.793      23.494      26.154      28.596      30.636    
  32.102      32.869      32.869      32.102      30.636      28.596      26.154      23.494      20.793      18.189    
  15.756      13.521      11.529      9.8112      8.3696      7.1851      6.2260      5.4561      4.8402      4.3480    
  3.9556      3.6457      3.4070      3.2322      3.1173      3.0602      3.0602      3.1173      3.2322      3.4070    
  3.6457      3.9556      4.3480      4.8402      5.4561      6.2260      7.1851      8.3696      9.8112      11.529    
  13.521      15.756      24.273      28.008      31.808      35.425      38.591      41.058      42.625      43.162    
  42.625      41.058      38.591      35.425      31.808      28.008      24.273      20.793      17.675      14.925    
  12.523      10.488      8.8115      7.4604      6.3876      5.5427      4.8790      4.3578      3.9497      3.6339    
  3.3973      3.2322      3.1343      3.1018      3.1343      3.2322      3.3973      3.6339      3.9497      4.3578    
  4.8790      5.5427      6.3876      7.4604      8.8115      10.488      12.523      14.925      17.675      20.793    
  32.982      38.168      43.240      47.841      51.632      54.329      55.729      55.729      54.329      51.632    
  47.841      43.240      38.168      32.982      28.008      23.494      19.574      16.253      13.436      11.088    
  9.1875      7.6836      6.5111      5.6041      4.9038      4.3634      3.9479      3.6339      3.4070      3.2589    
  3.1856      3.1856      3.2589      3.4070      3.6339      3.9479      4.3634      4.9038      5.6041      6.5111    
  7.6836      9.1875      11.088      13.436      16.253      19.574      23.494      28.008      44.928      51.679    
  57.970      63.365      67.496      70.086      70.969      70.086      67.496      63.365      57.970      51.679    
  44.928      38.168      31.808      26.154      21.364      17.434      14.213      11.575      9.4750      7.8410    
  6.5887      5.6359      4.9124      4.3634      3.9497      3.6457      3.4362      3.3130      3.2723      3.3130    
  3.4362      3.6457      3.9497      4.3634      4.9124      5.6359      6.5887      7.8410      9.4750      11.575    
  14.213      17.434      21.364      26.154      31.808      38.168      60.247      68.394      75.587      81.374    
  85.415      87.489      87.489      85.415      81.374      75.587      68.394      60.247      51.679      43.240    
  35.425      28.596      22.932      18.405      14.808      11.919      9.6554      7.9224      6.6152      5.6359    
  4.9038      4.3578      3.9556      3.6702      3.4863      3.3960      3.3960      3.4863      3.6702      3.9556    
  4.3578      4.9038      5.6359      6.6152      7.9224      9.6554      11.919      14.808      18.405      22.932    
  28.596      35.425      43.240      51.679      78.457      87.528      95.077      100.71      104.18      105.35    
  104.18      100.71      95.077      87.528      78.457      68.394      57.970      47.841      38.591      30.636    
  24.158      19.097      15.181      12.097      9.7170      7.9224      6.5887      5.6041      4.8790      4.3480    
  3.9670      3.7090      3.5589      3.5096      3.5589      3.7090      3.9670      4.3480      4.8790      5.6041    
  6.5887      7.9224      9.7170      12.097      15.181      19.097      24.158      30.636      38.591      47.841    
  57.970      68.394      98.451      107.74      114.97      119.89      122.37      122.37      119.89      114.97    
  107.74      98.451      87.528      75.587      63.365      51.632      41.058      32.102      24.940      19.458    
  15.309      12.097      9.6554      7.8410      6.5111      5.5427      4.8402      4.3361      3.9861      3.7640    
  3.6559      3.6559      3.7640      3.9861      4.3361      4.8402      5.5427      6.5111      7.8410      9.6554    
  12.097      15.309      19.458      24.940      32.102      41.058      51.632      63.365      75.587      87.528    
  118.67      127.38      133.65      137.41      138.65      137.41      133.65      127.38      118.67      107.74    
  95.077      81.374      67.496      54.329      42.625      32.869      25.208      19.458      15.181      11.919    
  9.4750      7.6836      6.3876      5.4561      4.7911      4.3251      4.0153      3.8374      3.7793      3.8374    
  4.0153      4.3251      4.7911      5.4561      6.3876      7.6836      9.4750      11.919      15.181      19.458    
  25.208      32.869      42.625      54.329      67.496      81.374      95.077      107.74      137.42      144.85    
  149.69      152.06      152.06      149.69      144.85      137.42      127.38      114.97      100.71      85.415    
  70.086      55.729      43.162      32.869      24.940      19.097      14.808      11.575      9.1875      7.4604    
  6.2260      5.3503      4.7360      4.3181      4.0570      3.9311      3.9311      4.0570      4.3181      4.7360    
  5.3503      6.2260      7.4604      9.1875      11.575      14.808      19.097      24.940      32.869      43.162    
  55.729      70.086      85.415      100.71      114.97      127.38      153.24      158.93      162.17      163.21    
  162.17      158.93      153.24      144.85      133.65      119.89      104.18      87.489      70.969      55.729    
  42.625      32.102      24.158      18.405      14.213      11.088      8.8115      7.1851      6.0361      5.2318    
  4.6791      4.3180      4.1131      4.0466      4.1131      4.3180      4.6791      5.2318      6.0361      7.1851    
  8.8115      11.088      14.213      18.405      24.158      32.102      42.625      55.729      70.969      87.489    
  104.18      119.89      133.65      144.85      165.25      169.08      170.85      170.85      169.08      165.25    
  158.93      149.69      137.41      122.37      105.35      87.489      70.086      54.329      41.058      30.636    
  22.932      17.434      13.436      10.488      8.3696      6.8732      5.8280      5.1071      4.6248      4.3274    
  4.1852      4.1852      4.3274      4.6248      5.1071      5.8280      6.8732      8.3696      10.488      13.436    
  17.434      22.932      30.636      41.058      54.329      70.086      87.489      105.35      122.37      137.41    
  149.69      158.93      173.30      175.47      176.13      175.47      173.30      169.08      162.17      152.06    
  138.65      122.37      104.18      85.415      67.496      51.632      38.591      28.596      21.364      16.253    
  12.523      9.8112      7.8862      6.5409      5.6118      4.9823      4.5763      4.3481      4.2744      4.3481    
  4.5763      4.9823      5.6118      6.5409      7.8862      9.8112      12.523      16.253      21.364      28.596    
  38.591      51.632      67.496      85.415      104.18      122.37      138.65      152.06      162.17      169.08    
  177.89      178.87      178.87      177.89      175.47      170.85      163.21      152.06      137.41      119.89    
  100.71      81.374      63.365      47.841      35.425      26.154      19.574      14.925      11.529      9.0942    
  7.3852      6.2026      5.3961      4.8623      4.5363      4.3814      4.3814      4.5363      4.8623      5.3961    
  6.2026      7.3852      9.0942      11.529      14.925      19.574      26.154      35.425      47.841      63.365    
  81.374      100.71      119.89      137.41      152.06      163.21      170.85      175.47      180.01      180.30    
  180.01      178.87      176.13      170.85      162.17      149.69      133.65      114.97      95.077      75.587    
  57.970      43.240      31.808      23.494      17.675      13.521      10.505      8.3708      6.8875      5.8708    
  5.1879      4.7509      4.5067      4.4281      4.5067      4.7509      5.1879      5.8708      6.8875      8.3708    
  10.505      13.521      17.675      23.494      31.808      43.240      57.970      75.587      95.077      114.97    
  133.65      149.69      162.17      170.85      176.13      178.87      180.73      180.73      180.30      178.87    
  175.47      169.08      158.93      144.85      127.38      107.74      87.528      68.394      51.679      38.168    
  28.008      20.793      15.756      12.110      9.4980      7.6694      6.4095      5.5548      4.9924      4.6505    
  4.4885      4.4885      4.6505      4.9924      5.5548      6.4095      7.6694      9.4980      12.110      15.756    
  20.793      28.008      38.168      51.679      68.394      87.528      107.74      127.38      144.85      158.93    
  169.08      175.47      178.87      180.30      180.73      180.30      178.87      175.47      169.08      158.93    
  144.85      127.38      107.74      87.528      68.394      51.679      38.168      28.008      20.793      15.756    
  12.110      9.4980      7.6694      6.4095      5.5548      4.9924      4.6505      4.4885      4.4885      4.6505    
  4.9924      5.5548      6.4095      7.6694      9.4980      12.110      15.756      20.793      28.008      38.168    
  51.679      68.394      87.528      107.74      127.38      144.85      158.93      169.08      175.47      178.87    
  180.30      180.73      180.30      179.25      176.65      171.53      163.00      150.64      134.66      115.98    
  96.005      76.389      58.617      43.727      32.151      23.723      17.827      13.629      10.581      8.4248    
  6.9269      5.9011      5.2126      4.7723      4.5265      4.4474      4.5265      4.7723      5.2126      5.9011    
  6.9269      8.4248      10.581      13.629      17.827      23.723      32.151      43.727      58.617      76.389    
  96.005      115.98      134.66      150.64      163.00      171.53      176.65      179.25      180.30      180.56    
  178.87      176.65      172.29      164.92      153.98      139.45      121.94      102.64      83.081      64.776    
  48.931      36.212      26.690      19.929      15.171      11.703      9.2173      7.4738      6.2689      5.4485    
  4.9065      4.5759      4.4190      4.4190      4.5759      4.9065      5.4485      6.2689      7.4738      9.2173    
  11.703      15.171      19.929      26.690      36.212      48.931      64.776      83.081      102.64      121.94    
  139.45      153.98      164.92      172.29      176.65      178.87      179.73      179.73      175.47      171.53    