Pt-fcc                                  
   1.00000000000000     
     0.000000    2.176733    2.176733
     2.176733    0.000000    2.176733
     2.176733    2.176733    0.000000
   Pt
     1
Direct
  0.000000  0.000000  0.000000
 
   48   48   48
 0.18086841061E+03 0.18073053481E+03 0.18001175847E+03 0.17789202335E+03 0.17329727907E+03
 0.16525478471E+03 0.15324100192E+03 0.13741610931E+03 0.11866844882E+03 0.98450561300E+02
 0.78457144799E+02 0.60247450124E+02 0.44928082709E+02 0.32982167408E+02 0.24272654774E+02
 0.18188497917E+02 0.13878989543E+02 0.10754124356E+02 0.85442259243E+01 0.70111393738E+01
 0.59629916565E+01 0.52608488070E+01 0.48126301281E+01 0.45627662720E+01 0.44824187622E+01
 0.45627662720E+01 0.48126301281E+01 0.52608488070E+01 0.59629916565E+01 0.70111393738E+01
 0.85442259243E+01 0.10754124356E+02 0.13878989543E+02 0.18188497917E+02 0.24272654774E+02
 0.32982167408E+02 0.44928082709E+02 0.60247450124E+02 0.78457144799E+02 0.98450561300E+02
 0.11866844882E+03 0.13741610931E+03 0.15324100192E+03 0.16525478471E+03 0.17329727907E+03
 0.17789202335E+03 0.18001175847E+03 0.18073053481E+03 0.18073053481E+03 0.18030057088E+03
 0.17886892425E+03 0.17547386684E+03 0.16907803460E+03 0.15892725459E+03 0.14484732113E+03
 0.12738475058E+03 0.10774261370E+03 0.87528413896E+02 0.68393730796E+02 0.51679080949E+02
 0.38168053955E+02 0.28007960450E+02 0.20792902525E+02 0.15756379004E+02 0.12110379645E+02
 0.94979756807E+01 0.76693761112E+01 0.64094907398E+01 0.55548426433E+01 0.49923816593E+01
 0.46504832033E+01 0.44885346599E+01 0.44885345036E+01 0.46504828256E+01 0.49923812739E+01
 0.55548424755E+01 0.64094908858E+01 0.76693764821E+01 0.94979760310E+01 0.12110379716E+02
 0.15756378682E+02 0.20792901956E+02 0.28007960016E+02 0.38168054114E+02 0.51679081963E+02
 0.68393732479E+02 0.87528415506E+02 0.10774261402E+03 0.12738474828E+03 0.14484731518E+03
 0.15892724480E+03 0.16907802179E+03 0.17547385284E+03 0.17886891158E+03 0.18030056202E+03
 0.18073053163E+03 0.18001175847E+03 0.17886892425E+03 0.17613277338E+03 0.17084648888E+03
 0.16216776410E+03 0.14969014022E+03 0.13365362678E+03 0.11497405082E+03 0.95076949559E+02
 0.75586716898E+02 0.57969602840E+02 0.43239816614E+02 0.31807755789E+02 0.23493649947E+02
 0.17674547791E+02 0.13521006684E+02 0.10505191997E+02 0.83707669557E+01 0.68874510632E+01
 0.58708484826E+01 0.51879481052E+01 0.47508611107E+01 0.45067023557E+01 0.44281015970E+01
 0.45067018122E+01 0.47508603324E+01 0.51879475380E+01 0.58708484584E+01 0.68874515981E+01
 0.83707677192E+01 0.10505192477E+02 0.13521006485E+02 0.17674546914E+02 0.23493648897E+02
 0.31807755409E+02 0.43239817675E+02 0.57969605530E+02 0.75586720458E+02 0.95076952228E+02
 0.11497405022E+03 0.13365362065E+03 0.14969012728E+03 0.16216774480E+03 0.17084646554E+03
 0.17613274991E+03 0.17886890517E+03 0.18001174777E+03 0.18030056202E+03 0.17789202335E+03
 0.17547386684E+03 0.17084648888E+03 0.16321413013E+03 0.15206260507E+03 0.13740621727E+03
 0.11989038067E+03 0.10071132172E+03 0.81374161822E+02 0.63365229650E+02 0.47841098791E+02
 0.35424563185E+02 0.26153503454E+02 0.19573649220E+02 0.14925318748E+02 0.11529038026E+02
 0.90941727330E+01 0.73852238662E+01 0.62026269895E+01 0.53960846294E+01 0.48623333851E+01
 0.45363327446E+01 0.43814183843E+01 0.43814179881E+01 0.45363317766E+01 0.48623323963E+01
 0.53960841879E+01 0.62026273651E+01 0.73852248456E+01 0.90941737148E+01 0.11529038331E+02
 0.14925318048E+02 0.19573647813E+02 0.26153502269E+02 0.35424563405E+02 0.47841101250E+02
 0.63365234201E+02 0.81374167011E+02 0.10071132495E+03 0.11989037890E+03 0.13740620807E+03
 0.15206258762E+03 0.16321410591E+03 0.17084646160E+03 0.17547384167E+03 0.17789200559E+03
 0.17886890517E+03 0.17886891158E+03 0.17329727907E+03 0.16907803460E+03 0.16216776410E+03
 0.15206260507E+03 0.13865268257E+03 0.12236996024E+03 0.10418023902E+03 0.85415374473E+02
 0.67496057791E+02 0.51632153226E+02 0.38591276072E+02 0.28596366413E+02 0.21364339733E+02
 0.16252589143E+02 0.12523184688E+02 0.98111969334E+01 0.78862278763E+01 0.65408596246E+01
 0.56117501455E+01 0.49823399864E+01 0.45762991448E+01 0.43481073415E+01 0.42744069353E+01
 0.43481064993E+01 0.45762979309E+01 0.49823390892E+01 0.56117500928E+01 0.65408604761E+01
 0.78862291549E+01 0.98111978506E+01 0.12523184575E+02 0.16252587886E+02 0.21364337982E+02
 0.28596365409E+02 0.38591277125E+02 0.51632157015E+02 0.67496063791E+02 0.85415380778E+02
 0.10418024274E+03 0.12236995839E+03 0.13865267314E+03 0.15206258803E+03 0.16216774169E+03
 0.16907801102E+03 0.17329725941E+03 0.17547384167E+03 0.17613274991E+03 0.17547385284E+03
 0.16525478471E+03 0.15892725459E+03 0.14969014022E+03 0.13740621727E+03 0.12236996024E+03
 0.10535019343E+03 0.87489436532E+02 0.70086425047E+02 0.54328775138E+02 0.41058271382E+02
 0.30635527959E+02 0.22932089145E+02 0.17434462268E+02 0.13435531143E+02 0.10487916095E+02
 0.83695696641E+01 0.68732344084E+01 0.58279777320E+01 0.51071432788E+01 0.46247808992E+01
 0.43273974730E+01 0.41852066540E+01 0.41852061973E+01 0.43273963547E+01 0.46247797384E+01
 0.51071427391E+01 0.58279781533E+01 0.68732356006E+01 0.83695709609E+01 0.10487916682E+02
 0.13435530500E+02 0.17434460532E+02 0.22932087193E+02 0.30635527125E+02 0.41058272894E+02
 0.54328779476E+02 0.70086431532E+02 0.87489443297E+02 0.10535019794E+03 0.12236996012E+03
 0.13740621121E+03 0.14969012863E+03 0.15892723971E+03 0.16525477000E+03 0.16907801102E+03
 0.17084646160E+03 0.17084646554E+03 0.16907802179E+03 0.15324100192E+03 0.14484732113E+03
 0.13365362678E+03 0.11989038067E+03 0.10418023902E+03 0.87489436532E+02 0.70968564877E+02
 0.55729156049E+02 0.42624854442E+02 0.32102128115E+02 0.24158053120E+02 0.18404729576E+02
 0.14213199810E+02 0.11087756105E+02 0.88114942743E+01 0.71850629918E+01 0.60360523723E+01
 0.52317960462E+01 0.46791488671E+01 0.43180096565E+01 0.41130942243E+01 0.40465744164E+01
 0.41130934746E+01 0.43180085603E+01 0.46791480271E+01 0.52317959514E+01 0.60360531302E+01
 0.71850642348E+01 0.88114953038E+01 0.11087756216E+02 0.14213198672E+02 0.18404727462E+02
 0.24158050911E+02 0.32102127000E+02 0.42624855468E+02 0.55729159621E+02 0.70968570529E+02
 0.87489442950E+02 0.10418024447E+03 0.11989038360E+03 0.13365362638E+03 0.14484731766E+03
 0.15324099669E+03 0.15892723971E+03 0.16216774169E+03 0.16321410591E+03 0.16216774480E+03
 0.15892724480E+03 0.13741610931E+03 0.12738475058E+03 0.11497405082E+03 0.10071132172E+03
 0.85415374473E+02 0.70086425047E+02 0.55729156049E+02 0.43161871610E+02 0.32869317568E+02
 0.24939810543E+02 0.19097049822E+02 0.14807987982E+02 0.11575110956E+02 0.91875214546E+01
 0.74604141340E+01 0.62260367041E+01 0.53503238617E+01 0.47359621998E+01 0.43180631496E+01
 0.40569834930E+01 0.39310851563E+01 0.39310848579E+01 0.40569827484E+01 0.43180623468E+01
 0.47359617706E+01 0.53503240729E+01 0.62260374998E+01 0.74604151303E+01 0.91875220707E+01
 0.11575110658E+02 0.14807986532E+02 0.19097047422E+02 0.24939807835E+02 0.32869315439E+02
 0.43161870937E+02 0.55729157378E+02 0.70086428456E+02 0.85415379517E+02 0.10071132759E+03
 0.11497405663E+03 0.12738475558E+03 0.13741611308E+03 0.14484731766E+03 0.14969012863E+03
 0.15206258803E+03 0.15206258762E+03 0.14969012728E+03 0.14484731518E+03 0.11866844882E+03
 0.10774261370E+03 0.95076949559E+02 0.81374161822E+02 0.67496057791E+02 0.54328775138E+02
 0.42624854442E+02 0.32869317568E+02 0.25208476096E+02 0.19458025712E+02 0.15181423012E+02
 0.11919139031E+02 0.94749645222E+01 0.76836330324E+01 0.63876122602E+01 0.54561414192E+01
 0.47911260447E+01 0.43250731354E+01 0.40153293166E+01 0.38374360911E+01 0.37793271349E+01
 0.38374357901E+01 0.40153288499E+01 0.43250727200E+01 0.47911258931E+01 0.54561416427E+01
 0.63876128028E+01 0.76836336511E+01 0.94749648419E+01 0.11919138636E+02 0.15181421596E+02
 0.19458023184E+02 0.25208472691E+02 0.32869313815E+02 0.42624851133E+02 0.54328773113E+02
 0.67496057782E+02 0.81374164266E+02 0.95076954398E+02 0.10774262042E+03 0.11866845645E+03
 0.12738475558E+03 0.13365362638E+03 0.13740621121E+03 0.13865267314E+03 0.13740620807E+03
 0.13365362065E+03 0.12738474828E+03 0.98450561300E+02 0.87528413896E+02 0.75586716898E+02
 0.63365229650E+02 0.51632153226E+02 0.41058271382E+02 0.32102128115E+02 0.24939810543E+02
 0.19458025712E+02 0.15308746785E+02 0.12097156877E+02 0.96554407586E+01 0.78410233209E+01
 0.65111289382E+01 0.55426691159E+01 0.48402232260E+01 0.43360877191E+01 0.39861191235E+01
 0.37640373443E+01 0.36559089992E+01 0.36559089920E+01 0.37640373080E+01 0.39861190299E+01
 0.43360875687E+01 0.48402230794E+01 0.55426690862E+01 0.65111291301E+01 0.78410237289E+01
 0.96554411913E+01 0.12097156921E+02 0.15308745906E+02 0.19458023395E+02 0.24939806566E+02
 0.32102122676E+02 0.41058265233E+02 0.51632147513E+02 0.63365225636E+02 0.75586715643E+02
 0.87528415817E+02 0.98450566033E+02 0.10774262042E+03 0.11497405663E+03 0.11989038360E+03
 0.12236996012E+03 0.12236995839E+03 0.11989037890E+03 0.11497405022E+03 0.10774261402E+03
 0.78457144799E+02 0.68393730796E+02 0.57969602840E+02 0.47841098791E+02 0.38591276072E+02
 0.30635527959E+02 0.24158053120E+02 0.19097049822E+02 0.15181423012E+02 0.12097156877E+02
 0.97169834150E+01 0.79224237352E+01 0.65886997696E+01 0.56040634386E+01 0.48789877218E+01
 0.43479741829E+01 0.39670025453E+01 0.37089927413E+01 0.35589059969E+01 0.35095676424E+01
 0.35589062374E+01 0.37089930568E+01 0.39670027097E+01 0.43479740517E+01 0.48789873529E+01
 0.56040630891E+01 0.65886997926E+01 0.79224243489E+01 0.97169845344E+01 0.12097157980E+02
 0.15181423280E+02 0.19097048320E+02 0.24158049230E+02 0.30635521597E+02 0.38591267891E+02
 0.47841090066E+02 0.57969595058E+02 0.68393725305E+02 0.78457142288E+02 0.87528415817E+02
 0.95076954398E+02 0.10071132759E+03 0.10418024447E+03 0.10535019794E+03 0.10418024274E+03
 0.10071132495E+03 0.95076952228E+02 0.87528415506E+02 0.60247450124E+02 0.51679080949E+02
 0.43239816614E+02 0.35424563185E+02 0.28596366413E+02 0.22932089145E+02 0.18404729576E+02
 0.14807987982E+02 0.11919139031E+02 0.96554407586E+01 0.79224237352E+01 0.66151565363E+01
 0.56359374281E+01 0.49038441710E+01 0.43578182321E+01 0.39555620760E+01 0.36702251260E+01
 0.34863336338E+01 0.33959845627E+01 0.33959847926E+01 0.34863341924E+01 0.36702256725E+01
 0.39555622707E+01 0.43578179219E+01 0.49038435382E+01 0.56359369263E+01 0.66151567336E+01
 0.79224249891E+01 0.96554430168E+01 0.11919141661E+02 0.14807989960E+02 0.18404729693E+02
 0.22932086483E+02 0.28596360637E+02 0.35424554671E+02 0.43239806478E+02 0.51679070585E+02
 0.60247440893E+02 0.68393725305E+02 0.75586715643E+02 0.81374164266E+02 0.85415379517E+02
 0.87489442950E+02 0.87489443297E+02 0.85415380778E+02 0.81374167011E+02 0.75586720458E+02
 0.68393732479E+02 0.44928082709E+02 0.38168053955E+02 0.31807755789E+02 0.26153503454E+02
 0.21364339733E+02 0.17434462268E+02 0.14213199810E+02 0.11575110956E+02 0.94749645222E+01
 0.78410233209E+01 0.65886997696E+01 0.56359374281E+01 0.49124087731E+01 0.43633588466E+01
 0.39496761588E+01 0.36457360332E+01 0.34362480287E+01 0.33130230827E+01 0.32723004717E+01
 0.33130235891E+01 0.34362487661E+01 0.36457365863E+01 0.39496761992E+01 0.43633583174E+01
 0.49124079950E+01 0.56359369907E+01 0.65887003463E+01 0.78410253338E+01 0.94749679618E+01
 0.11575115210E+02 0.14213203834E+02 0.17434464791E+02 0.21364339607E+02 0.26153500061E+02
 0.31807749047E+02 0.38168044512E+02 0.44928071649E+02 0.51679070585E+02 0.57969595058E+02
 0.63365225636E+02 0.67496057782E+02 0.70086428456E+02 0.70968570529E+02 0.70086431532E+02
 0.67496063791E+02 0.63365234201E+02 0.57969605530E+02 0.51679081963E+02 0.32982167408E+02
 0.28007960450E+02 0.23493649947E+02 0.19573649220E+02 0.16252589143E+02 0.13435531143E+02
 0.11087756105E+02 0.91875214546E+01 0.76836330324E+01 0.65111289382E+01 0.56040634386E+01
 0.49038441710E+01 0.43633588466E+01 0.39478873591E+01 0.36339339113E+01 0.34069690652E+01
 0.32588659100E+01 0.31856042340E+01 0.31856044850E+01 0.32588665284E+01 0.34069697477E+01
 0.36339342839E+01 0.39478871985E+01 0.43633581723E+01 0.49038433475E+01 0.56040630486E+01
 0.65111296639E+01 0.76836353623E+01 0.91875255355E+01 0.11087761567E+02 0.13435537126E+02
 0.16252594500E+02 0.19573652610E+02 0.23493650368E+02 0.28007957275E+02 0.32982160658E+02
 0.38168044512E+02 0.43239806478E+02 0.47841090066E+02 0.51632147513E+02 0.54328773113E+02
 0.55729157378E+02 0.55729159621E+02 0.54328779476E+02 0.51632157015E+02 0.47841101250E+02
 0.43239817675E+02 0.38168054114E+02 0.24272654774E+02 0.20792902525E+02 0.17674547791E+02
 0.14925318748E+02 0.12523184688E+02 0.10487916095E+02 0.88114942743E+01 0.74604141340E+01
 0.63876122602E+01 0.55426691159E+01 0.48789877218E+01 0.43578182321E+01 0.39496761588E+01
 0.36339339113E+01 0.33973461298E+01 0.32321542427E+01 0.31342628422E+01 0.31018067054E+01
 0.31342631521E+01 0.32321547304E+01 0.33973465691E+01 0.36339340565E+01 0.39496758418E+01
 0.43578174538E+01 0.48789867193E+01 0.55426683664E+01 0.63876124073E+01 0.74604158348E+01
 0.88114979694E+01 0.10487921867E+02 0.12523191996E+02 0.14925326641E+02 0.17674554822E+02
 0.20792907217E+02 0.24272656022E+02 0.28007957275E+02 0.31807749047E+02 0.35424554671E+02
 0.38591267891E+02 0.41058265233E+02 0.42624851133E+02 0.43161870937E+02 0.42624855468E+02
 0.41058272894E+02 0.38591277125E+02 0.35424563405E+02 0.31807755409E+02 0.28007960016E+02
 0.18188497917E+02 0.15756379004E+02 0.13521006684E+02 0.11529038026E+02 0.98111969334E+01
 0.83695696641E+01 0.71850629918E+01 0.62260367041E+01 0.54561414192E+01 0.48402232260E+01
 0.43479741829E+01 0.39555620760E+01 0.36457360332E+01 0.34069690652E+01 0.32321542427E+01
 0.31172641092E+01 0.30602405541E+01 0.30602405927E+01 0.31172642265E+01 0.32321544249E+01
 0.34069692381E+01 0.36457360314E+01 0.39555616766E+01 0.43479732037E+01 0.48402216738E+01
 0.54561396123E+01 0.62260353051E+01 0.71850629102E+01 0.83695717599E+01 0.98112017830E+01
 0.11529045509E+02 0.13521015965E+02 0.15756388673E+02 0.18188506147E+02 0.20792907217E+02
 0.23493650368E+02 0.26153500061E+02 0.28596360637E+02 0.30635521597E+02 0.32102122676E+02
 0.32869313815E+02 0.32869315439E+02 0.32102127000E+02 0.30635527125E+02 0.28596365409E+02
 0.26153502269E+02 0.23493648897E+02 0.20792901956E+02 0.13878989543E+02 0.12110379645E+02
 0.10505191997E+02 0.90941727330E+01 0.78862278763E+01 0.68732344084E+01 0.60360523723E+01
 0.53503238617E+01 0.47911260447E+01 0.43360877191E+01 0.39670025453E+01 0.36702251260E+01
 0.34362480287E+01 0.32588659100E+01 0.31342628422E+01 0.30602405541E+01 0.30356801280E+01
 0.30602403765E+01 0.31342626222E+01 0.32588658104E+01 0.34362480905E+01 0.36702251544E+01
 0.39670021347E+01 0.43360864061E+01 0.47911235755E+01 0.53503204213E+01 0.60360486888E+01
 0.68732316631E+01 0.78862273332E+01 0.90941753791E+01 0.10505198115E+02 0.12110388566E+02
 0.13878999886E+02 0.15756388673E+02 0.17674554822E+02 0.19573652610E+02 0.21364339607E+02
 0.22932086483E+02 0.24158049230E+02 0.24939806566E+02 0.25208472691E+02 0.24939807835E+02
 0.24158050911E+02 0.22932087193E+02 0.21364337982E+02 0.19573647813E+02 0.17674546914E+02
 0.15756378682E+02 0.10754124356E+02 0.94979756807E+01 0.83707669557E+01 0.73852238662E+01
 0.65408596246E+01 0.58279777320E+01 0.52317960462E+01 0.47359621998E+01 0.43250731354E+01
 0.39861191235E+01 0.37089927413E+01 0.34863336338E+01 0.33130230827E+01 0.31856042340E+01
 0.31018067054E+01 0.30602405927E+01 0.30602403765E+01 0.31018061935E+01 0.31856037603E+01
 0.33130229510E+01 0.34863339012E+01 0.37089930736E+01 0.39861188677E+01 0.43250715481E+01
 0.47359588075E+01 0.52317909428E+01 0.58279716889E+01 0.65408539978E+01 0.73852201729E+01
 0.83707664396E+01 0.94979789169E+01 0.10754130996E+02 0.12110388566E+02 0.13521015965E+02
 0.14925326641E+02 0.16252594500E+02 0.17434464791E+02 0.18404729693E+02 0.19097048320E+02
 0.19458023395E+02 0.19458023184E+02 0.19097047422E+02 0.18404727462E+02 0.17434460532E+02
 0.16252587886E+02 0.14925318048E+02 0.13521006485E+02 0.12110379716E+02 0.85442259243E+01
 0.76693761112E+01 0.68874510632E+01 0.62026269895E+01 0.56117501455E+01 0.51071432788E+01
 0.46791488671E+01 0.43180631496E+01 0.40153293166E+01 0.37640373443E+01 0.35589059969E+01
 0.33959845627E+01 0.32723004717E+01 0.31856044850E+01 0.31342631521E+01 0.31172642265E+01
 0.31342626222E+01 0.31856037603E+01 0.32723000449E+01 0.33959847960E+01 0.35589068726E+01
 0.37640383593E+01 0.40153296015E+01 0.43180617613E+01 0.46791451669E+01 0.51071372602E+01
 0.56117425090E+01 0.62026190670E+01 0.68874444225E+01 0.76693721053E+01 0.85442253458E+01
 0.94979789169E+01 0.10505198115E+02 0.11529045509E+02 0.12523191996E+02 0.13435537126E+02
 0.14213203834E+02 0.14807989960E+02 0.15181423280E+02 0.15308745906E+02 0.15181421596E+02
 0.14807986532E+02 0.14213198672E+02 0.13435530500E+02 0.12523184575E+02 0.11529038331E+02
 0.10505192477E+02 0.94979760310E+01 0.70111393738E+01 0.64094907398E+01 0.58708484826E+01
 0.53960846294E+01 0.49823399864E+01 0.46247808992E+01 0.43180096565E+01 0.40569834930E+01
 0.38374360911E+01 0.36559089992E+01 0.35095676424E+01 0.33959847926E+01 0.33130235891E+01
 0.32588665284E+01 0.32321547304E+01 0.32321544249E+01 0.32588658104E+01 0.33130229510E+01
 0.33959847960E+01 0.35095686204E+01 0.36559108500E+01 0.38374382056E+01 0.40569849061E+01
 0.43180093319E+01 0.46247780687E+01 0.49823344616E+01 0.53960768761E+01 0.58708395688E+01
 0.64094820846E+01 0.70111323538E+01 0.76693721053E+01 0.83707664396E+01 0.90941753791E+01
 0.98112017830E+01 0.10487921867E+02 0.11087761567E+02 0.11575115210E+02 0.11919141661E+02
 0.12097157980E+02 0.12097156921E+02 0.11919138636E+02 0.11575110658E+02 0.11087756216E+02
 0.10487916682E+02 0.98111978506E+01 0.90941737148E+01 0.83707677192E+01 0.76693764821E+01
 0.59629916565E+01 0.55548426433E+01 0.51879481052E+01 0.48623333851E+01 0.45762991448E+01
 0.43273974730E+01 0.41130942243E+01 0.39310851563E+01 0.37793271349E+01 0.36559089920E+01
 0.35589062374E+01 0.34863341924E+01 0.34362487661E+01 0.34069697477E+01 0.33973465691E+01
 0.34069692381E+01 0.34362480905E+01 0.34863339012E+01 0.35589068726E+01 0.36559108500E+01
 0.37793301038E+01 0.39310886682E+01 0.41130973579E+01 0.43273991882E+01 0.45762985318E+01
 0.48623299677E+01 0.51879419608E+01 0.55548344207E+01 0.59629824722E+01 0.64094820846E+01
 0.68874444225E+01 0.73852201729E+01 0.78862273332E+01 0.83695717599E+01 0.88114979694E+01
 0.91875255355E+01 0.94749679618E+01 0.96554430168E+01 0.97169845344E+01 0.96554411913E+01
 0.94749648419E+01 0.91875220707E+01 0.88114953038E+01 0.83695709609E+01 0.78862291549E+01
 0.73852248456E+01 0.68874515981E+01 0.64094908858E+01 0.52608488070E+01 0.49923816593E+01
 0.47508611107E+01 0.45363327446E+01 0.43481073415E+01 0.41852066540E+01 0.40465744164E+01
 0.39310848579E+01 0.38374357901E+01 0.37640373080E+01 0.37089930568E+01 0.36702256725E+01
 0.36457365863E+01 0.36339342839E+01 0.36339340565E+01 0.36457360314E+01 0.36702251544E+01
 0.37089930736E+01 0.37640383593E+01 0.38374382056E+01 0.39310886682E+01 0.40465792606E+01
 0.41852117825E+01 0.43481117534E+01 0.45363353612E+01 0.47508610689E+01 0.49923785598E+01
 0.52608428371E+01 0.55548344207E+01 0.58708395688E+01 0.62026190670E+01 0.65408539978E+01
 0.68732316631E+01 0.71850629102E+01 0.74604158348E+01 0.76836353623E+01 0.78410253338E+01
 0.79224249891E+01 0.79224243489E+01 0.78410237289E+01 0.76836336511E+01 0.74604151303E+01
 0.71850642348E+01 0.68732356006E+01 0.65408604761E+01 0.62026273651E+01 0.58708484584E+01
 0.55548424755E+01 0.48126301281E+01 0.46504832033E+01 0.45067023557E+01 0.43814183843E+01
 0.42744069353E+01 0.41852061973E+01 0.41130934746E+01 0.40569827484E+01 0.40153288499E+01
 0.39861190299E+01 0.39670027097E+01 0.39555622707E+01 0.39496761992E+01 0.39478871985E+01
 0.39496758418E+01 0.39555616766E+01 0.39670021347E+01 0.39861188677E+01 0.40153296015E+01
 0.40569849061E+01 0.41130973579E+01 0.41852117825E+01 0.42744137146E+01 0.43814254131E+01
 0.45067083862E+01 0.46504869849E+01 0.48126307778E+01 0.49923785598E+01 0.51879419608E+01
 0.53960768761E+01 0.56117425090E+01 0.58279716889E+01 0.60360486888E+01 0.62260353051E+01
 0.63876124073E+01 0.65111296639E+01 0.65887003463E+01 0.66151567336E+01 0.65886997926E+01
 0.65111291301E+01 0.63876128028E+01 0.62260374998E+01 0.60360531302E+01 0.58279781533E+01
 0.56117500928E+01 0.53960841879E+01 0.51879475380E+01 0.49923812739E+01 0.45627662720E+01
 0.44885346599E+01 0.44281015970E+01 0.43814179881E+01 0.43481064993E+01 0.43273963547E+01
 0.43180085603E+01 0.43180623468E+01 0.43250727200E+01 0.43360875687E+01 0.43479740517E+01
 0.43578179219E+01 0.43633583174E+01 0.43633581723E+01 0.43578174538E+01 0.43479732037E+01
 0.43360864061E+01 0.43250715481E+01 0.43180617613E+01 0.43180093319E+01 0.43273991882E+01
 0.43481117534E+01 0.43814254131E+01 0.44281103031E+01 0.44885432778E+01 0.45627732811E+01
 0.46504869849E+01 0.47508610689E+01 0.48623299677E+01 0.49823344616E+01 0.51071372602E+01
 0.52317909428E+01 0.53503204213E+01 0.54561396123E+01 0.55426683664E+01 0.56040630486E+01
 0.56359369907E+01 0.56359369263E+01 0.56040630891E+01 0.55426690862E+01 0.54561416427E+01
 0.53503240728E+01 0.52317959514E+01 0.51071427391E+01 0.49823390892E+01 0.48623323963E+01
 0.47508603324E+01 0.46504828256E+01 0.44824187622E+01 0.44885345036E+01 0.45067018122E+01
 0.45363317766E+01 0.45762979309E+01 0.46247797384E+01 0.46791480271E+01 0.47359617706E+01
 0.47911258931E+01 0.48402230794E+01 0.48789873529E+01 0.49038435382E+01 0.49124079950E+01
 0.49038433475E+01 0.48789867193E+01 0.48402216738E+01 0.47911235755E+01 0.47359588075E+01
 0.46791451669E+01 0.46247780687E+01 0.45762985318E+01 0.45363353612E+01 0.45067083862E+01
 0.44885432778E+01 0.44824283429E+01 0.44885432778E+01 0.45067083862E+01 0.45363353612E+01
 0.45762985318E+01 0.46247780687E+01 0.46791451669E+01 0.47359588075E+01 0.47911235755E+01
 0.48402216738E+01 0.48789867193E+01 0.49038433475E+01 0.49124079950E+01 0.49038435382E+01
 0.48789873529E+01 0.48402230794E+01 0.47911258931E+01 0.47359617706E+01 0.46791480271E+01
 0.46247797384E+01 0.45762979309E+01 0.45363317766E+01 0.45067018122E+01 0.44885345036E+01
 0.45627662720E+01 0.46504828256E+01 0.47508603324E+01 0.48623323963E+01 0.49823390892E+01
 0.51071427391E+01 0.52317959514E+01 0.53503240729E+01 0.54561416427E+01 0.55426690862E+01
 0.56040630891E+01 0.56359369263E+01 0.56359369907E+01 0.56040630486E+01 0.55426683664E+01
 0.54561396123E+01 0.53503204213E+01 0.52317909428E+01 0.51071372602E+01 0.49823344616E+01
 0.48623299677E+01 0.47508610689E+01 0.46504869849E+01 0.45627732811E+01 0.44885432778E+01
 0.44281103031E+01 0.43814254131E+01 0.43481117534E+01 0.43273991882E+01 0.43180093319E+01
 0.43180617613E+01 0.43250715481E+01 0.43360864061E+01 0.43479732037E+01 0.43578174538E+01
 0.43633581723E+01 0.43633583174E+01 0.43578179219E+01 0.43479740517E+01 0.43360875687E+01
 0.43250727200E+01 0.43180623467E+01 0.43180085603E+01 0.43273963547E+01 0.43481064993E+01
 0.43814179881E+01 0.44281015970E+01 0.44885346599E+01 0.48126301281E+01 0.49923812739E+01
 0.51879475380E+01 0.53960841879E+01 0.56117500928E+01 0.58279781533E+01 0.60360531302E+01
 0.62260374998E+01 0.63876128028E+01 0.65111291301E+01 0.65886997926E+01 0.66151567336E+01
 0.65887003463E+01 0.65111296639E+01 0.63876124073E+01 0.62260353051E+01 0.60360486888E+01
 0.58279716889E+01 0.56117425090E+01 0.53960768761E+01 0.51879419608E+01 0.49923785598E+01
 0.48126307778E+01 0.46504869849E+01 0.45067083862E+01 0.43814254131E+01 0.42744137146E+01
 0.41852117825E+01 0.41130973579E+01 0.40569849061E+01 0.40153296015E+01 0.39861188677E+01
 0.39670021347E+01 0.39555616766E+01 0.39496758418E+01 0.39478871985E+01 0.39496761992E+01
 0.39555622707E+01 0.39670027097E+01 0.39861190299E+01 0.40153288499E+01 0.40569827484E+01
 0.41130934746E+01 0.41852061973E+01 0.42744069353E+01 0.43814183843E+01 0.45067023557E+01
 0.46504832033E+01 0.52608488070E+01 0.55548424755E+01 0.58708484584E+01 0.62026273651E+01
 0.65408604761E+01 0.68732356006E+01 0.71850642348E+01 0.74604151303E+01 0.76836336511E+01
 0.78410237289E+01 0.79224243489E+01 0.79224249891E+01 0.78410253338E+01 0.76836353623E+01
 0.74604158348E+01 0.71850629102E+01 0.68732316631E+01 0.65408539978E+01 0.62026190670E+01
 0.58708395688E+01 0.55548344207E+01 0.52608428371E+01 0.49923785598E+01 0.47508610689E+01
 0.45363353612E+01 0.43481117534E+01 0.41852117825E+01 0.40465792606E+01 0.39310886682E+01
 0.38374382056E+01 0.37640383593E+01 0.37089930736E+01 0.36702251544E+01 0.36457360314E+01
 0.36339340565E+01 0.36339342839E+01 0.36457365863E+01 0.36702256725E+01 0.37089930568E+01
 0.37640373080E+01 0.38374357901E+01 0.39310848579E+01 0.40465744164E+01 0.41852066540E+01
 0.43481073415E+01 0.45363327446E+01 0.47508611107E+01 0.49923816593E+01 0.59629916565E+01
 0.64094908858E+01 0.68874515981E+01 0.73852248456E+01 0.78862291549E+01 0.83695709609E+01
 0.88114953038E+01 0.91875220707E+01 0.94749648419E+01 0.96554411913E+01 0.97169845344E+01
 0.96554430168E+01 0.94749679618E+01 0.91875255355E+01 0.88114979694E+01 0.83695717599E+01
 0.78862273332E+01 0.73852201729E+01 0.68874444225E+01 0.64094820846E+01 0.59629824722E+01
 0.55548344207E+01 0.51879419608E+01 0.48623299677E+01 0.45762985318E+01 0.43273991882E+01
 0.41130973579E+01 0.39310886682E+01 0.37793301038E+01 0.36559108500E+01 0.35589068726E+01
 0.34863339012E+01 0.34362480905E+01 0.34069692381E+01 0.33973465691E+01 0.34069697477E+01
 0.34362487661E+01 0.34863341924E+01 0.35589062374E+01 0.36559089920E+01 0.37793271349E+01
 0.39310851563E+01 0.41130942243E+01 0.43273974730E+01 0.45762991448E+01 0.48623333851E+01
 0.51879481052E+01 0.55548426433E+01 0.70111393738E+01 0.76693764821E+01 0.83707677192E+01
 0.90941737148E+01 0.98111978506E+01 0.10487916682E+02 0.11087756216E+02 0.11575110658E+02
 0.11919138636E+02 0.12097156921E+02 0.12097157980E+02 0.11919141661E+02 0.11575115210E+02
 0.11087761567E+02 0.10487921867E+02 0.98112017830E+01 0.90941753791E+01 0.83707664396E+01
 0.76693721053E+01 0.70111323538E+01 0.64094820846E+01 0.58708395688E+01 0.53960768761E+01
 0.49823344616E+01 0.46247780687E+01 0.43180093319E+01 0.40569849061E+01 0.38374382056E+01
 0.36559108500E+01 0.35095686204E+01 0.33959847960E+01 0.33130229510E+01 0.32588658104E+01
 0.32321544249E+01 0.32321547304E+01 0.32588665284E+01 0.33130235891E+01 0.33959847926E+01
 0.35095676424E+01 0.36559089992E+01 0.38374360911E+01 0.40569834930E+01 0.43180096565E+01
 0.46247808992E+01 0.49823399864E+01 0.53960846294E+01 0.58708484826E+01 0.64094907398E+01
 0.85442259243E+01 0.94979760310E+01 0.10505192477E+02 0.11529038331E+02 0.12523184575E+02
 0.13435530500E+02 0.14213198672E+02 0.14807986532E+02 0.15181421596E+02 0.15308745906E+02
 0.15181423280E+02 0.14807989960E+02 0.14213203834E+02 0.13435537126E+02 0.12523191996E+02
 0.11529045509E+02 0.10505198115E+02 0.94979789169E+01 0.85442253458E+01 0.76693721053E+01
 0.68874444225E+01 0.62026190670E+01 0.56117425090E+01 0.51071372602E+01 0.46791451669E+01
 0.43180617613E+01 0.40153296015E+01 0.37640383593E+01 0.35589068726E+01 0.33959847960E+01
 0.32723000449E+01 0.31856037603E+01 0.31342626222E+01 0.31172642265E+01 0.31342631521E+01
 0.31856044850E+01 0.32723004717E+01 0.33959845627E+01 0.35589059969E+01 0.37640373443E+01
 0.40153293166E+01 0.43180631496E+01 0.46791488671E+01 0.51071432788E+01 0.56117501455E+01
 0.62026269895E+01 0.68874510632E+01 0.76693761112E+01 0.10754124356E+02 0.12110379716E+02
 0.13521006485E+02 0.14925318048E+02 0.16252587886E+02 0.17434460532E+02 0.18404727462E+02
 0.19097047422E+02 0.19458023184E+02 0.19458023395E+02 0.19097048320E+02 0.18404729693E+02
 0.17434464791E+02 0.16252594500E+02 0.14925326641E+02 0.13521015965E+02 0.12110388566E+02
 0.10754130996E+02 0.94979789169E+01 0.83707664396E+01 0.73852201729E+01 0.65408539978E+01
 0.58279716889E+01 0.52317909428E+01 0.47359588075E+01 0.43250715481E+01 0.39861188677E+01
 0.37089930736E+01 0.34863339012E+01 0.33130229510E+01 0.31856037603E+01 0.31018061935E+01
 0.30602403765E+01 0.30602405927E+01 0.31018067054E+01 0.31856042340E+01 0.33130230827E+01
 0.34863336338E+01 0.37089927413E+01 0.39861191235E+01 0.43250731354E+01 0.47359621998E+01
 0.52317960462E+01 0.58279777320E+01 0.65408596246E+01 0.73852238662E+01 0.83707669557E+01
 0.94979756807E+01 0.13878989543E+02 0.15756378682E+02 0.17674546914E+02 0.19573647813E+02
 0.21364337982E+02 0.22932087193E+02 0.24158050911E+02 0.24939807835E+02 0.25208472691E+02
 0.24939806566E+02 0.24158049230E+02 0.22932086483E+02 0.21364339607E+02 0.19573652610E+02
 0.17674554822E+02 0.15756388673E+02 0.13878999886E+02 0.12110388566E+02 0.10505198115E+02
 0.90941753791E+01 0.78862273332E+01 0.68732316631E+01 0.60360486888E+01 0.53503204213E+01
 0.47911235755E+01 0.43360864061E+01 0.39670021347E+01 0.36702251544E+01 0.34362480905E+01
 0.32588658104E+01 0.31342626222E+01 0.30602403765E+01 0.30356801280E+01 0.30602405541E+01
 0.31342628422E+01 0.32588659100E+01 0.34362480287E+01 0.36702251260E+01 0.39670025453E+01
 0.43360877191E+01 0.47911260447E+01 0.53503238617E+01 0.60360523723E+01 0.68732344084E+01
 0.78862278763E+01 0.90941727330E+01 0.10505191997E+02 0.12110379645E+02 0.18188497917E+02
 0.20792901956E+02 0.23493648897E+02 0.26153502269E+02 0.28596365409E+02 0.30635527125E+02
 0.32102127000E+02 0.32869315439E+02 0.32869313815E+02 0.32102122676E+02 0.30635521597E+02
 0.28596360637E+02 0.26153500061E+02 0.23493650368E+02 0.20792907217E+02 0.18188506147E+02
 0.15756388673E+02 0.13521015965E+02 0.11529045509E+02 0.98112017830E+01 0.83695717599E+01
 0.71850629102E+01 0.62260353051E+01 0.54561396123E+01 0.48402216738E+01 0.43479732037E+01
 0.39555616766E+01 0.36457360314E+01 0.34069692381E+01 0.32321544249E+01 0.31172642265E+01
 0.30602405927E+01 0.30602405541E+01 0.31172641092E+01 0.32321542427E+01 0.34069690652E+01
 0.36457360332E+01 0.39555620760E+01 0.43479741829E+01 0.48402232260E+01 0.54561414192E+01
 0.62260367041E+01 0.71850629918E+01 0.83695696641E+01 0.98111969334E+01 0.11529038026E+02