   1   1   1   0
  0.2062746E+02  0.3078366E-09  0.3078366E-09  0.3078366E-09  0.5000000E-15
  1.000000000000000E-004
  CAR 
 Pt-fcc                                  
     55.79780931    -49.80284184  301      6.80431200      1.00000000
    -49.803  0.0000E+00  0.0000E+00
    -49.451  0.0000E+00  0.0000E+00
    -49.099  0.0000E+00  0.0000E+00
    -48.747  0.0000E+00  0.0000E+00
    -48.395  0.0000E+00  0.0000E+00
    -48.043  0.0000E+00  0.0000E+00
    -47.691  0.0000E+00  0.0000E+00
    -47.339  0.0000E+00  0.0000E+00
    -46.987  0.0000E+00  0.0000E+00
    -46.635  0.0000E+00  0.0000E+00
    -46.283  0.0000E+00  0.0000E+00
    -45.931  0.0000E+00  0.0000E+00
    -45.579  0.0000E+00  0.0000E+00
    -45.227  0.2739E-12  0.9643E-13
    -44.875  0.1438E+00  0.5060E-01
    -44.523  0.2515E-01  0.6000E-01
    -44.171  0.0000E+00  0.6000E-01
    -43.819  0.0000E+00  0.6000E-01
    -43.467  0.0000E+00  0.6000E-01
    -43.115  0.0000E+00  0.6000E-01
    -42.763  0.0000E+00  0.6000E-01
    -42.411  0.0000E+00  0.6000E-01
    -42.059  0.0000E+00  0.6000E-01
    -41.707  0.0000E+00  0.6000E-01
    -41.355  0.0000E+00  0.6000E-01
    -41.003  0.0000E+00  0.6000E-01
    -40.651  0.0000E+00  0.6000E-01
    -40.299  0.0000E+00  0.6000E-01
    -39.947  0.0000E+00  0.6000E-01
    -39.595  0.0000E+00  0.6000E-01
    -39.243  0.0000E+00  0.6000E-01
    -38.891  0.0000E+00  0.6000E-01
    -38.539  0.0000E+00  0.6000E-01
    -38.187  0.0000E+00  0.6000E-01
    -37.835  0.0000E+00  0.6000E-01
    -37.483  0.0000E+00  0.6000E-01
    -37.131  0.0000E+00  0.6000E-01
    -36.779  0.0000E+00  0.6000E-01
    -36.427  0.0000E+00  0.6000E-01
    -36.075  0.0000E+00  0.6000E-01
    -35.723  0.0000E+00  0.6000E-01
    -35.371  0.0000E+00  0.6000E-01
    -35.019  0.0000E+00  0.6000E-01
    -34.667  0.0000E+00  0.6000E-01
    -34.315  0.0000E+00  0.6000E-01
    -33.963  0.0000E+00  0.6000E-01
    -33.611  0.0000E+00  0.6000E-01
    -33.259  0.0000E+00  0.6000E-01
    -32.907  0.0000E+00  0.6000E-01
    -32.555  0.0000E+00  0.6000E-01
    -32.203  0.0000E+00  0.6000E-01
    -31.851  0.0000E+00  0.6000E-01
    -31.499  0.0000E+00  0.6000E-01
    -31.147  0.0000E+00  0.6000E-01
    -30.795  0.0000E+00  0.6000E-01
    -30.443  0.0000E+00  0.6000E-01
    -30.091  0.0000E+00  0.6000E-01
    -29.739  0.0000E+00  0.6000E-01
    -29.387  0.0000E+00  0.6000E-01
    -29.035  0.0000E+00  0.6000E-01
    -28.683  0.0000E+00  0.6000E-01
    -28.331  0.0000E+00  0.6000E-01
    -27.979  0.0000E+00  0.6000E-01
    -27.627  0.0000E+00  0.6000E-01
    -27.275  0.0000E+00  0.6000E-01
    -26.923  0.0000E+00  0.6000E-01
    -26.571  0.0000E+00  0.6000E-01
    -26.219  0.0000E+00  0.6000E-01
    -25.867  0.0000E+00  0.6000E-01
    -25.515  0.0000E+00  0.6000E-01
    -25.163  0.0000E+00  0.6000E-01
    -24.811  0.0000E+00  0.6000E-01
    -24.459  0.0000E+00  0.6000E-01
    -24.107  0.0000E+00  0.6000E-01
    -23.755  0.0000E+00  0.6000E-01
    -23.403  0.0000E+00  0.6000E-01
    -23.051  0.0000E+00  0.6000E-01
    -22.699  0.0000E+00  0.6000E-01
    -22.347  0.0000E+00  0.6000E-01
    -21.995  0.0000E+00  0.6000E-01
    -21.643  0.0000E+00  0.6000E-01
    -21.291  0.0000E+00  0.6000E-01
    -20.939  0.0000E+00  0.6000E-01
    -20.587  0.0000E+00  0.6000E-01
    -20.235  0.0000E+00  0.6000E-01
    -19.883  0.0000E+00  0.6000E-01
    -19.531  0.0000E+00  0.6000E-01
    -19.179  0.0000E+00  0.6000E-01
    -18.827  0.0000E+00  0.6000E-01
    -18.475  0.0000E+00  0.6000E-01
    -18.123  0.0000E+00  0.6000E-01
    -17.771  0.0000E+00  0.6000E-01
    -17.419  0.0000E+00  0.6000E-01
    -17.067  0.0000E+00  0.6000E-01
    -16.715  0.0000E+00  0.6000E-01
    -16.363  0.0000E+00  0.6000E-01
    -16.011  0.0000E+00  0.6000E-01
    -15.659  0.0000E+00  0.6000E-01
    -15.307  0.0000E+00  0.6000E-01
    -14.955  0.0000E+00  0.6000E-01
    -14.603  0.0000E+00  0.6000E-01
    -14.251  0.0000E+00  0.6000E-01
    -13.899  0.0000E+00  0.6000E-01
    -13.547  0.0000E+00  0.6000E-01
    -13.195  0.0000E+00  0.6000E-01
    -12.843  0.0000E+00  0.6000E-01
    -12.491  0.0000E+00  0.6000E-01
    -12.139  0.0000E+00  0.6000E-01
    -11.787  0.0000E+00  0.6000E-01
    -11.435  0.0000E+00  0.6000E-01
    -11.083  0.0000E+00  0.6000E-01
    -10.731  0.0000E+00  0.6000E-01
    -10.379  0.0000E+00  0.6000E-01
    -10.027  0.0000E+00  0.6000E-01
     -9.675  0.0000E+00  0.6000E-01
     -9.323  0.0000E+00  0.6000E-01
     -8.971  0.0000E+00  0.6000E-01
     -8.619  0.0000E+00  0.6000E-01
     -8.267  0.0000E+00  0.6000E-01
     -7.915  0.0000E+00  0.6000E-01
     -7.563  0.0000E+00  0.6000E-01
     -7.211  0.0000E+00  0.6000E-01
     -6.859  0.0000E+00  0.6000E-01
     -6.507  0.0000E+00  0.6000E-01
     -6.155  0.0000E+00  0.6000E-01
     -5.803  0.0000E+00  0.6000E-01
     -5.451  0.0000E+00  0.6000E-01
     -5.099  0.0000E+00  0.6000E-01
     -4.747  0.0000E+00  0.6000E-01
     -4.395  0.0000E+00  0.6000E-01
     -4.043  0.0000E+00  0.6000E-01
     -3.691  0.0000E+00  0.6000E-01
     -3.339  0.0000E+00  0.6000E-01
     -2.987  0.0000E+00  0.6000E-01
     -2.635  0.0000E+00  0.6000E-01
     -2.283  0.0000E+00  0.6000E-01
     -1.931  0.0000E+00  0.6000E-01
     -1.579  0.0000E+00  0.6000E-01
     -1.227  0.0000E+00  0.6000E-01
     -0.875  0.0000E+00  0.6000E-01
     -0.523  0.1087E-12  0.6000E-01
     -0.171  0.1293E-03  0.6005E-01
      0.181  0.6671E-03  0.6028E-01
      0.533  0.1122E-02  0.6068E-01
      0.885  0.9978E-03  0.6103E-01
      1.237  0.1429E-02  0.6155E-01
      1.589  0.1900E-02  0.6221E-01
      1.941  0.2955E-02  0.6326E-01
      2.293  0.4957E-02  0.6500E-01
      2.645  0.8545E-02  0.6802E-01
      2.997  0.1585E-01  0.7360E-01
      3.349  0.1860E-01  0.8018E-01
      3.701  0.1507E-01  0.8552E-01
      4.053  0.1941E-01  0.9237E-01
      4.405  0.2523E-01  0.1013E+00
      4.757  0.2844E-01  0.1114E+00
      5.109  0.2869E-01  0.1215E+00
      5.461  0.1869E-01  0.1281E+00
      5.814  0.2442E-01  0.1367E+00
      6.166  0.2080E-01  0.1441E+00
      6.518  0.2002E-01  0.1512E+00
      6.870  0.3133E-01  0.1622E+00
      7.222  0.1159E-01  0.1663E+00
      7.574  0.3285E-02  0.1675E+00
      7.926  0.2531E-02  0.1684E+00
      8.278  0.4844E-02  0.1701E+00
      8.630  0.2119E-02  0.1708E+00
      8.982  0.3948E-02  0.1722E+00
      9.334  0.4028E-02  0.1736E+00
      9.686  0.2758E-02  0.1746E+00
     10.038  0.3327E-02  0.1758E+00
     10.390  0.3235E-02  0.1769E+00
     10.742  0.4065E-02  0.1784E+00
     11.094  0.4584E-02  0.1800E+00
     11.446  0.2947E-02  0.1810E+00
     11.798  0.3856E-02  0.1824E+00
     12.150  0.9782E-03  0.1827E+00
     12.502  0.5150E-02  0.1845E+00
     12.854  0.4567E-02  0.1862E+00
     13.206  0.3811E-02  0.1875E+00
     13.558  0.3738E-02  0.1888E+00
     13.910  0.3877E-02  0.1902E+00
     14.262  0.1986E-02  0.1909E+00
     14.614  0.3808E-02  0.1922E+00
     14.966  0.4287E-02  0.1937E+00
     15.318  0.5309E-02  0.1956E+00
     15.670  0.5587E-03  0.1958E+00
     16.022  0.5414E-02  0.1977E+00
     16.374  0.3657E-02  0.1990E+00
     16.726  0.5132E-02  0.2008E+00
     17.078  0.4988E-02  0.2026E+00
     17.430  0.4813E-02  0.2043E+00
     17.782  0.5816E-02  0.2064E+00
     18.134  0.4209E-02  0.2078E+00
     18.486  0.7980E-02  0.2107E+00
     18.838  0.4958E-02  0.2124E+00
     19.190  0.4170E-02  0.2139E+00
     19.542  0.6177E-02  0.2161E+00
     19.894  0.5009E-02  0.2178E+00
     20.246  0.5380E-02  0.2197E+00
     20.598  0.6298E-02  0.2220E+00
     20.950  0.5826E-02  0.2240E+00
     21.302  0.3004E-02  0.2251E+00
     21.654  0.7872E-02  0.2279E+00
     22.006  0.7343E-02  0.2305E+00
     22.358  0.6223E-02  0.2327E+00
     22.710  0.4442E-02  0.2342E+00
     23.062  0.6942E-02  0.2367E+00
     23.414  0.8380E-02  0.2397E+00
     23.766  0.8421E-02  0.2426E+00
     24.118  0.1036E-01  0.2463E+00
     24.470  0.9125E-02  0.2495E+00
     24.822  0.6490E-02  0.2518E+00
     25.174  0.7392E-02  0.2545E+00
     25.526  0.6231E-02  0.2567E+00
     25.878  0.6087E-02  0.2588E+00
     26.230  0.4893E-02  0.2605E+00
     26.582  0.4392E-02  0.2621E+00
     26.934  0.6319E-02  0.2643E+00
     27.286  0.3193E-02  0.2654E+00
     27.638  0.3513E-02  0.2667E+00
     27.990  0.5649E-02  0.2687E+00
     28.342  0.5419E-02  0.2706E+00
     28.694  0.1878E-02  0.2712E+00
     29.046  0.7598E-02  0.2739E+00
     29.398  0.6155E-02  0.2761E+00
     29.750  0.8750E-02  0.2792E+00
     30.102  0.7135E-02  0.2817E+00
     30.454  0.1024E-01  0.2853E+00
     30.806  0.1092E-01  0.2892E+00
     31.158  0.1452E-01  0.2943E+00
     31.510  0.9246E-02  0.2976E+00
     31.862  0.1210E-01  0.3019E+00
     32.214  0.8449E-02  0.3049E+00
     32.566  0.1115E-01  0.3088E+00
     32.918  0.1359E-01  0.3136E+00
     33.270  0.1169E-01  0.3177E+00
     33.622  0.8623E-02  0.3208E+00
     33.974  0.6541E-02  0.3231E+00
     34.326  0.6053E-02  0.3253E+00
     34.678  0.7841E-02  0.3281E+00
     35.030  0.8957E-02  0.3312E+00
     35.382  0.8604E-02  0.3343E+00
     35.734  0.7105E-02  0.3368E+00
     36.086  0.9481E-02  0.3401E+00
     36.438  0.6431E-02  0.3424E+00
     36.790  0.8056E-02  0.3453E+00
     37.142  0.1002E-01  0.3488E+00
     37.494  0.1321E-01  0.3534E+00
     37.846  0.7939E-02  0.3563E+00
     38.198  0.1342E-01  0.3610E+00
     38.550  0.1266E-01  0.3655E+00
     38.902  0.1581E-01  0.3711E+00
     39.254  0.9214E-02  0.3743E+00
     39.606  0.9512E-02  0.3777E+00
     39.958  0.7989E-02  0.3805E+00
     40.310  0.8571E-02  0.3835E+00
     40.662  0.1029E-01  0.3871E+00
     41.014  0.1041E-01  0.3908E+00
     41.366  0.9230E-02  0.3941E+00
     41.718  0.9254E-02  0.3974E+00
     42.070  0.8931E-02  0.4005E+00
     42.422  0.1030E-01  0.4041E+00
     42.774  0.9343E-02  0.4075E+00
     43.126  0.1033E-01  0.4111E+00
     43.478  0.1267E-01  0.4156E+00
     43.830  0.9547E-02  0.4190E+00
     44.182  0.9047E-02  0.4222E+00
     44.534  0.1203E-01  0.4264E+00
     44.886  0.7732E-02  0.4291E+00
     45.238  0.1014E-01  0.4327E+00
     45.590  0.9992E-02  0.4363E+00
     45.942  0.4832E-02  0.4380E+00
     46.294  0.1073E-01  0.4418E+00
     46.646  0.8802E-02  0.4449E+00
     46.998  0.1083E-01  0.4487E+00
     47.350  0.1187E-01  0.4529E+00
     47.702  0.1062E-01  0.4567E+00
     48.054  0.1073E-01  0.4605E+00
     48.406  0.9404E-02  0.4638E+00
     48.758  0.4154E-01  0.4784E+00
     49.110  0.1673E-02  0.4790E+00
     49.462  0.9887E-03  0.4793E+00
     49.814  0.7377E-03  0.4796E+00
     50.166  0.4321E-03  0.4798E+00
     50.518  0.3408E-03  0.4799E+00
     50.870  0.5014E-07  0.4799E+00
     51.222  0.3409E-03  0.4800E+00
     51.574  0.0000E+00  0.4800E+00
     51.926  0.0000E+00  0.4800E+00
     52.278  0.0000E+00  0.4800E+00
     52.630  0.0000E+00  0.4800E+00
     52.982  0.0000E+00  0.4800E+00
     53.334  0.0000E+00  0.4800E+00
     53.686  0.0000E+00  0.4800E+00
     54.038  0.0000E+00  0.4800E+00
     54.390  0.0000E+00  0.4800E+00
     54.742  0.0000E+00  0.4800E+00
     55.094  0.0000E+00  0.4800E+00
     55.446  0.0000E+00  0.4800E+00
     55.798  0.0000E+00  0.4800E+00
     55.79780931    -49.80284184  301      6.80431200      1.00000000
    -49.803  0.0000E+00  0.0000E+00  0.0000E+00  0.0000E+00  0.0000E+00  0.0000E+00  0.0000E+00  0.0000E+00  0.0000E+00
    -49.451  0.0000E+00  0.0000E+00  0.0000E+00  0.0000E+00  0.0000E+00  0.0000E+00  0.0000E+00  0.0000E+00  0.0000E+00
    -49.099  0.0000E+00  0.0000E+00  0.0000E+00  0.0000E+00  0.0000E+00  0.0000E+00  0.0000E+00  0.0000E+00  0.0000E+00
    -48.747  0.0000E+00  0.0000E+00  0.0000E+00  0.0000E+00  0.0000E+00  0.0000E+00  0.0000E+00  0.0000E+00  0.0000E+00
    -48.395  0.0000E+00  0.0000E+00  0.0000E+00  0.0000E+00  0.0000E+00  0.0000E+00  0.0000E+00  0.0000E+00  0.0000E+00
    -48.043  0.0000E+00  0.0000E+00  0.0000E+00  0.0000E+00  0.0000E+00  0.0000E+00  0.0000E+00  0.0000E+00  0.0000E+00
    -47.691  0.0000E+00  0.0000E+00  0.0000E+00  0.0000E+00  0.0000E+00  0.0000E+00  0.0000E+00  0.0000E+00  0.0000E+00
    -47.339  0.0000E+00  0.0000E+00  0.0000E+00  0.0000E+00  0.0000E+00  0.0000E+00  0.0000E+00  0.0000E+00  0.0000E+00
    -46.987  0.0000E+00  0.0000E+00  0.0000E+00  0.0000E+00  0.0000E+00  0.0000E+00  0.0000E+00  0.0000E+00  0.0000E+00
    -46.635  0.0000E+00  0.0000E+00  0.0000E+00  0.0000E+00  0.0000E+00  0.0000E+00  0.0000E+00  0.0000E+00  0.0000E+00
    -46.283  0.0000E+00  0.0000E+00  0.0000E+00  0.0000E+00  0.0000E+00  0.0000E+00  0.0000E+00  0.0000E+00  0.0000E+00
    -45.931  0.0000E+00  0.0000E+00  0.0000E+00  0.0000E+00  0.0000E+00  0.0000E+00  0.0000E+00  0.0000E+00  0.0000E+00
    -45.579  0.0000E+00  0.0000E+00  0.0000E+00  0.0000E+00  0.0000E+00  0.0000E+00  0.0000E+00  0.0000E+00  0.0000E+00
    -45.227  0.2426E-16  0.9023E-11  0.9023E-11  0.9023E-11  0.1004E-16  0.1004E-16  0.5674E-17  0.1004E-16  0.5674E-17
    -44.875  0.2617E-04  0.4748E+01  0.4748E+01  0.4748E+01  0.1228E-04  0.1228E-04  0.6194E-05  0.1228E-04  0.6194E-05
    -44.523  0.1033E-05  0.8322E+00  0.8322E+00  0.8322E+00  0.1294E-05  0.1294E-05  0.9733E-06  0.1294E-05  0.9733E-06
    -44.171  0.0000E+00  0.0000E+00  0.0000E+00  0.0000E+00  0.0000E+00  0.0000E+00  0.0000E+00  0.0000E+00  0.0000E+00
    -43.819  0.0000E+00  0.0000E+00  0.0000E+00  0.0000E+00  0.0000E+00  0.0000E+00  0.0000E+00  0.0000E+00  0.0000E+00
    -43.467  0.0000E+00  0.0000E+00  0.0000E+00  0.0000E+00  0.0000E+00  0.0000E+00  0.0000E+00  0.0000E+00  0.0000E+00
    -43.115  0.0000E+00  0.0000E+00  0.0000E+00  0.0000E+00  0.0000E+00  0.0000E+00  0.0000E+00  0.0000E+00  0.0000E+00
    -42.763  0.0000E+00  0.0000E+00  0.0000E+00  0.0000E+00  0.0000E+00  0.0000E+00  0.0000E+00  0.0000E+00  0.0000E+00
    -42.411  0.0000E+00  0.0000E+00  0.0000E+00  0.0000E+00  0.0000E+00  0.0000E+00  0.0000E+00  0.0000E+00  0.0000E+00
    -42.059  0.0000E+00  0.0000E+00  0.0000E+00  0.0000E+00  0.0000E+00  0.0000E+00  0.0000E+00  0.0000E+00  0.0000E+00
    -41.707  0.0000E+00  0.0000E+00  0.0000E+00  0.0000E+00  0.0000E+00  0.0000E+00  0.0000E+00  0.0000E+00  0.0000E+00
    -41.355  0.0000E+00  0.0000E+00  0.0000E+00  0.0000E+00  0.0000E+00  0.0000E+00  0.0000E+00  0.0000E+00  0.0000E+00
    -41.003  0.0000E+00  0.0000E+00  0.0000E+00  0.0000E+00  0.0000E+00  0.0000E+00  0.0000E+00  0.0000E+00  0.0000E+00
    -40.651  0.0000E+00  0.0000E+00  0.0000E+00  0.0000E+00  0.0000E+00  0.0000E+00  0.0000E+00  0.0000E+00  0.0000E+00
    -40.299  0.0000E+00  0.0000E+00  0.0000E+00  0.0000E+00  0.0000E+00  0.0000E+00  0.0000E+00  0.0000E+00  0.0000E+00
    -39.947  0.0000E+00  0.0000E+00  0.0000E+00  0.0000E+00  0.0000E+00  0.0000E+00  0.0000E+00  0.0000E+00  0.0000E+00
    -39.595  0.0000E+00  0.0000E+00  0.0000E+00  0.0000E+00  0.0000E+00  0.0000E+00  0.0000E+00  0.0000E+00  0.0000E+00
    -39.243  0.0000E+00  0.0000E+00  0.0000E+00  0.0000E+00  0.0000E+00  0.0000E+00  0.0000E+00  0.0000E+00  0.0000E+00
    -38.891  0.0000E+00  0.0000E+00  0.0000E+00  0.0000E+00  0.0000E+00  0.0000E+00  0.0000E+00  0.0000E+00  0.0000E+00
    -38.539  0.0000E+00  0.0000E+00  0.0000E+00  0.0000E+00  0.0000E+00  0.0000E+00  0.0000E+00  0.0000E+00  0.0000E+00
    -38.187  0.0000E+00  0.0000E+00  0.0000E+00  0.0000E+00  0.0000E+00  0.0000E+00  0.0000E+00  0.0000E+00  0.0000E+00
    -37.835  0.0000E+00  0.0000E+00  0.0000E+00  0.0000E+00  0.0000E+00  0.0000E+00  0.0000E+00  0.0000E+00  0.0000E+00
    -37.483  0.0000E+00  0.0000E+00  0.0000E+00  0.0000E+00  0.0000E+00  0.0000E+00  0.0000E+00  0.0000E+00  0.0000E+00
    -37.131  0.0000E+00  0.0000E+00  0.0000E+00  0.0000E+00  0.0000E+00  0.0000E+00  0.0000E+00  0.0000E+00  0.0000E+00
    -36.779  0.0000E+00  0.0000E+00  0.0000E+00  0.0000E+00  0.0000E+00  0.0000E+00  0.0000E+00  0.0000E+00  0.0000E+00
    -36.427  0.0000E+00  0.0000E+00  0.0000E+00  0.0000E+00  0.0000E+00  0.0000E+00  0.0000E+00  0.0000E+00  0.0000E+00
    -36.075  0.0000E+00  0.0000E+00  0.0000E+00  0.0000E+00  0.0000E+00  0.0000E+00  0.0000E+00  0.0000E+00  0.0000E+00
    -35.723  0.0000E+00  0.0000E+00  0.0000E+00  0.0000E+00  0.0000E+00  0.0000E+00  0.0000E+00  0.0000E+00  0.0000E+00
    -35.371  0.0000E+00  0.0000E+00  0.0000E+00  0.0000E+00  0.0000E+00  0.0000E+00  0.0000E+00  0.0000E+00  0.0000E+00
    -35.019  0.0000E+00  0.0000E+00  0.0000E+00  0.0000E+00  0.0000E+00  0.0000E+00  0.0000E+00  0.0000E+00  0.0000E+00
    -34.667  0.0000E+00  0.0000E+00  0.0000E+00  0.0000E+00  0.0000E+00  0.0000E+00  0.0000E+00  0.0000E+00  0.0000E+00
    -34.315  0.0000E+00  0.0000E+00  0.0000E+00  0.0000E+00  0.0000E+00  0.0000E+00  0.0000E+00  0.0000E+00  0.0000E+00
    -33.963  0.0000E+00  0.0000E+00  0.0000E+00  0.0000E+00  0.0000E+00  0.0000E+00  0.0000E+00  0.0000E+00  0.0000E+00
    -33.611  0.0000E+00  0.0000E+00  0.0000E+00  0.0000E+00  0.0000E+00  0.0000E+00  0.0000E+00  0.0000E+00  0.0000E+00
    -33.259  0.0000E+00  0.0000E+00  0.0000E+00  0.0000E+00  0.0000E+00  0.0000E+00  0.0000E+00  0.0000E+00  0.0000E+00
    -32.907  0.0000E+00  0.0000E+00  0.0000E+00  0.0000E+00  0.0000E+00  0.0000E+00  0.0000E+00  0.0000E+00  0.0000E+00
    -32.555  0.0000E+00  0.0000E+00  0.0000E+00  0.0000E+00  0.0000E+00  0.0000E+00  0.0000E+00  0.0000E+00  0.0000E+00
    -32.203  0.0000E+00  0.0000E+00  0.0000E+00  0.0000E+00  0.0000E+00  0.0000E+00  0.0000E+00  0.0000E+00  0.0000E+00
    -31.851  0.0000E+00  0.0000E+00  0.0000E+00  0.0000E+00  0.0000E+00  0.0000E+00  0.0000E+00  0.0000E+00  0.0000E+00
    -31.499  0.0000E+00  0.0000E+00  0.0000E+00  0.0000E+00  0.0000E+00  0.0000E+00  0.0000E+00  0.0000E+00  0.0000E+00
    -31.147  0.0000E+00  0.0000E+00  0.0000E+00  0.0000E+00  0.0000E+00  0.0000E+00  0.0000E+00  0.0000E+00  0.0000E+00
    -30.795  0.0000E+00  0.0000E+00  0.0000E+00  0.0000E+00  0.0000E+00  0.0000E+00  0.0000E+00  0.0000E+00  0.0000E+00
    -30.443  0.0000E+00  0.0000E+00  0.0000E+00  0.0000E+00  0.0000E+00  0.0000E+00  0.0000E+00  0.0000E+00  0.0000E+00
    -30.091  0.0000E+00  0.0000E+00  0.0000E+00  0.0000E+00  0.0000E+00  0.0000E+00  0.0000E+00  0.0000E+00  0.0000E+00
    -29.739  0.0000E+00  0.0000E+00  0.0000E+00  0.0000E+00  0.0000E+00  0.0000E+00  0.0000E+00  0.0000E+00  0.0000E+00
    -29.387  0.0000E+00  0.0000E+00  0.0000E+00  0.0000E+00  0.0000E+00  0.0000E+00  0.0000E+00  0.0000E+00  0.0000E+00
    -29.035  0.0000E+00  0.0000E+00  0.0000E+00  0.0000E+00  0.0000E+00  0.0000E+00  0.0000E+00  0.0000E+00  0.0000E+00
    -28.683  0.0000E+00  0.0000E+00  0.0000E+00  0.0000E+00  0.0000E+00  0.0000E+00  0.0000E+00  0.0000E+00  0.0000E+00
    -28.331  0.0000E+00  0.0000E+00  0.0000E+00  0.0000E+00  0.0000E+00  0.0000E+00  0.0000E+00  0.0000E+00  0.0000E+00
    -27.979  0.0000E+00  0.0000E+00  0.0000E+00  0.0000E+00  0.0000E+00  0.0000E+00  0.0000E+00  0.0000E+00  0.0000E+00
    -27.627  0.0000E+00  0.0000E+00  0.0000E+00  0.0000E+00  0.0000E+00  0.0000E+00  0.0000E+00  0.0000E+00  0.0000E+00
    -27.275  0.0000E+00  0.0000E+00  0.0000E+00  0.0000E+00  0.0000E+00  0.0000E+00  0.0000E+00  0.0000E+00  0.0000E+00
    -26.923  0.0000E+00  0.0000E+00  0.0000E+00  0.0000E+00  0.0000E+00  0.0000E+00  0.0000E+00  0.0000E+00  0.0000E+00
    -26.571  0.0000E+00  0.0000E+00  0.0000E+00  0.0000E+00  0.0000E+00  0.0000E+00  0.0000E+00  0.0000E+00  0.0000E+00
    -26.219  0.0000E+00  0.0000E+00  0.0000E+00  0.0000E+00  0.0000E+00  0.0000E+00  0.0000E+00  0.0000E+00  0.0000E+00
    -25.867  0.0000E+00  0.0000E+00  0.0000E+00  0.0000E+00  0.0000E+00  0.0000E+00  0.0000E+00  0.0000E+00  0.0000E+00
    -25.515  0.0000E+00  0.0000E+00  0.0000E+00  0.0000E+00  0.0000E+00  0.0000E+00  0.0000E+00  0.0000E+00  0.0000E+00
    -25.163  0.0000E+00  0.0000E+00  0.0000E+00  0.0000E+00  0.0000E+00  0.0000E+00  0.0000E+00  0.0000E+00  0.0000E+00
    -24.811  0.0000E+00  0.0000E+00  0.0000E+00  0.0000E+00  0.0000E+00  0.0000E+00  0.0000E+00  0.0000E+00  0.0000E+00
    -24.459  0.0000E+00  0.0000E+00  0.0000E+00  0.0000E+00  0.0000E+00  0.0000E+00  0.0000E+00  0.0000E+00  0.0000E+00
    -24.107  0.0000E+00  0.0000E+00  0.0000E+00  0.0000E+00  0.0000E+00  0.0000E+00  0.0000E+00  0.0000E+00  0.0000E+00
    -23.755  0.0000E+00  0.0000E+00  0.0000E+00  0.0000E+00  0.0000E+00  0.0000E+00  0.0000E+00  0.0000E+00  0.0000E+00
    -23.403  0.0000E+00  0.0000E+00  0.0000E+00  0.0000E+00  0.0000E+00  0.0000E+00  0.0000E+00  0.0000E+00  0.0000E+00
    -23.051  0.0000E+00  0.0000E+00  0.0000E+00  0.0000E+00  0.0000E+00  0.0000E+00  0.0000E+00  0.0000E+00  0.0000E+00
    -22.699  0.0000E+00  0.0000E+00  0.0000E+00  0.0000E+00  0.0000E+00  0.0000E+00  0.0000E+00  0.0000E+00  0.0000E+00
    -22.347  0.0000E+00  0.0000E+00  0.0000E+00  0.0000E+00  0.0000E+00  0.0000E+00  0.0000E+00  0.0000E+00  0.0000E+00
    -21.995  0.0000E+00  0.0000E+00  0.0000E+00  0.0000E+00  0.0000E+00  0.0000E+00  0.0000E+00  0.0000E+00  0.0000E+00
    -21.643  0.0000E+00  0.0000E+00  0.0000E+00  0.0000E+00  0.0000E+00  0.0000E+00  0.0000E+00  0.0000E+00  0.0000E+00
    -21.291  0.0000E+00  0.0000E+00  0.0000E+00  0.0000E+00  0.0000E+00  0.0000E+00  0.0000E+00  0.0000E+00  0.0000E+00
    -20.939  0.0000E+00  0.0000E+00  0.0000E+00  0.0000E+00  0.0000E+00  0.0000E+00  0.0000E+00  0.0000E+00  0.0000E+00
    -20.587  0.0000E+00  0.0000E+00  0.0000E+00  0.0000E+00  0.0000E+00  0.0000E+00  0.0000E+00  0.0000E+00  0.0000E+00
    -20.235  0.0000E+00  0.0000E+00  0.0000E+00  0.0000E+00  0.0000E+00  0.0000E+00  0.0000E+00  0.0000E+00  0.0000E+00
    -19.883  0.0000E+00  0.0000E+00  0.0000E+00  0.0000E+00  0.0000E+00  0.0000E+00  0.0000E+00  0.0000E+00  0.0000E+00
    -19.531  0.0000E+00  0.0000E+00  0.0000E+00  0.0000E+00  0.0000E+00  0.0000E+00  0.0000E+00  0.0000E+00  0.0000E+00
    -19.179  0.0000E+00  0.0000E+00  0.0000E+00  0.0000E+00  0.0000E+00  0.0000E+00  0.0000E+00  0.0000E+00  0.0000E+00
    -18.827  0.0000E+00  0.0000E+00  0.0000E+00  0.0000E+00  0.0000E+00  0.0000E+00  0.0000E+00  0.0000E+00  0.0000E+00
    -18.475  0.0000E+00  0.0000E+00  0.0000E+00  0.0000E+00  0.0000E+00  0.0000E+00  0.0000E+00  0.0000E+00  0.0000E+00
    -18.123  0.0000E+00  0.0000E+00  0.0000E+00  0.0000E+00  0.0000E+00  0.0000E+00  0.0000E+00  0.0000E+00  0.0000E+00
    -17.771  0.0000E+00  0.0000E+00  0.0000E+00  0.0000E+00  0.0000E+00  0.0000E+00  0.0000E+00  0.0000E+00  0.0000E+00
    -17.419  0.0000E+00  0.0000E+00  0.0000E+00  0.0000E+00  0.0000E+00  0.0000E+00  0.0000E+00  0.0000E+00  0.0000E+00
    -17.067  0.0000E+00  0.0000E+00  0.0000E+00  0.0000E+00  0.0000E+00  0.0000E+00  0.0000E+00  0.0000E+00  0.0000E+00
    -16.715  0.0000E+00  0.0000E+00  0.0000E+00  0.0000E+00  0.0000E+00  0.0000E+00  0.0000E+00  0.0000E+00  0.0000E+00
    -16.363  0.0000E+00  0.0000E+00  0.0000E+00  0.0000E+00  0.0000E+00  0.0000E+00  0.0000E+00  0.0000E+00  0.0000E+00
    -16.011  0.0000E+00  0.0000E+00  0.0000E+00  0.0000E+00  0.0000E+00  0.0000E+00  0.0000E+00  0.0000E+00  0.0000E+00
    -15.659  0.0000E+00  0.0000E+00  0.0000E+00  0.0000E+00  0.0000E+00  0.0000E+00  0.0000E+00  0.0000E+00  0.0000E+00
    -15.307  0.0000E+00  0.0000E+00  0.0000E+00  0.0000E+00  0.0000E+00  0.0000E+00  0.0000E+00  0.0000E+00  0.0000E+00
    -14.955  0.0000E+00  0.0000E+00  0.0000E+00  0.0000E+00  0.0000E+00  0.0000E+00  0.0000E+00  0.0000E+00  0.0000E+00
    -14.603  0.0000E+00  0.0000E+00  0.0000E+00  0.0000E+00  0.0000E+00  0.0000E+00  0.0000E+00  0.0000E+00  0.0000E+00
    -14.251  0.0000E+00  0.0000E+00  0.0000E+00  0.0000E+00  0.0000E+00  0.0000E+00  0.0000E+00  0.0000E+00  0.0000E+00
    -13.899  0.0000E+00  0.0000E+00  0.0000E+00  0.0000E+00  0.0000E+00  0.0000E+00  0.0000E+00  0.0000E+00  0.0000E+00
    -13.547  0.0000E+00  0.0000E+00  0.0000E+00  0.0000E+00  0.0000E+00  0.0000E+00  0.0000E+00  0.0000E+00  0.0000E+00
    -13.195  0.0000E+00  0.0000E+00  0.0000E+00  0.0000E+00  0.0000E+00  0.0000E+00  0.0000E+00  0.0000E+00  0.0000E+00
    -12.843  0.0000E+00  0.0000E+00  0.0000E+00  0.0000E+00  0.0000E+00  0.0000E+00  0.0000E+00  0.0000E+00  0.0000E+00
    -12.491  0.0000E+00  0.0000E+00  0.0000E+00  0.0000E+00  0.0000E+00  0.0000E+00  0.0000E+00  0.0000E+00  0.0000E+00
    -12.139  0.0000E+00  0.0000E+00  0.0000E+00  0.0000E+00  0.0000E+00  0.0000E+00  0.0000E+00  0.0000E+00  0.0000E+00
    -11.787  0.0000E+00  0.0000E+00  0.0000E+00  0.0000E+00  0.0000E+00  0.0000E+00  0.0000E+00  0.0000E+00  0.0000E+00
    -11.435  0.0000E+00  0.0000E+00  0.0000E+00  0.0000E+00  0.0000E+00  0.0000E+00  0.0000E+00  0.0000E+00  0.0000E+00
    -11.083  0.0000E+00  0.0000E+00  0.0000E+00  0.0000E+00  0.0000E+00  0.0000E+00  0.0000E+00  0.0000E+00  0.0000E+00
    -10.731  0.0000E+00  0.0000E+00  0.0000E+00  0.0000E+00  0.0000E+00  0.0000E+00  0.0000E+00  0.0000E+00  0.0000E+00
    -10.379  0.0000E+00  0.0000E+00  0.0000E+00  0.0000E+00  0.0000E+00  0.0000E+00  0.0000E+00  0.0000E+00  0.0000E+00
    -10.027  0.0000E+00  0.0000E+00  0.0000E+00  0.0000E+00  0.0000E+00  0.0000E+00  0.0000E+00  0.0000E+00  0.0000E+00
     -9.675  0.0000E+00  0.0000E+00  0.0000E+00  0.0000E+00  0.0000E+00  0.0000E+00  0.0000E+00  0.0000E+00  0.0000E+00
     -9.323  0.0000E+00  0.0000E+00  0.0000E+00  0.0000E+00  0.0000E+00  0.0000E+00  0.0000E+00  0.0000E+00  0.0000E+00
     -8.971  0.0000E+00  0.0000E+00  0.0000E+00  0.0000E+00  0.0000E+00  0.0000E+00  0.0000E+00  0.0000E+00  0.0000E+00
     -8.619  0.0000E+00  0.0000E+00  0.0000E+00  0.0000E+00  0.0000E+00  0.0000E+00  0.0000E+00  0.0000E+00  0.0000E+00
     -8.267  0.0000E+00  0.0000E+00  0.0000E+00  0.0000E+00  0.0000E+00  0.0000E+00  0.0000E+00  0.0000E+00  0.0000E+00
     -7.915  0.0000E+00  0.0000E+00  0.0000E+00  0.0000E+00  0.0000E+00  0.0000E+00  0.0000E+00  0.0000E+00  0.0000E+00
     -7.563  0.0000E+00  0.0000E+00  0.0000E+00  0.0000E+00  0.0000E+00  0.0000E+00  0.0000E+00  0.0000E+00  0.0000E+00
     -7.211  0.0000E+00  0.0000E+00  0.0000E+00  0.0000E+00  0.0000E+00  0.0000E+00  0.0000E+00  0.0000E+00  0.0000E+00
     -6.859  0.0000E+00  0.0000E+00  0.0000E+00  0.0000E+00  0.0000E+00  0.0000E+00  0.0000E+00  0.0000E+00  0.0000E+00
     -6.507  0.0000E+00  0.0000E+00  0.0000E+00  0.0000E+00  0.0000E+00  0.0000E+00  0.0000E+00  0.0000E+00  0.0000E+00
     -6.155  0.0000E+00  0.0000E+00  0.0000E+00  0.0000E+00  0.0000E+00  0.0000E+00  0.0000E+00  0.0000E+00  0.0000E+00
     -5.803  0.0000E+00  0.0000E+00  0.0000E+00  0.0000E+00  0.0000E+00  0.0000E+00  0.0000E+00  0.0000E+00  0.0000E+00
     -5.451  0.0000E+00  0.0000E+00  0.0000E+00  0.0000E+00  0.0000E+00  0.0000E+00  0.0000E+00  0.0000E+00  0.0000E+00
     -5.099  0.0000E+00  0.0000E+00  0.0000E+00  0.0000E+00  0.0000E+00  0.0000E+00  0.0000E+00  0.0000E+00  0.0000E+00
     -4.747  0.0000E+00  0.0000E+00  0.0000E+00  0.0000E+00  0.0000E+00  0.0000E+00  0.0000E+00  0.0000E+00  0.0000E+00
     -4.395  0.0000E+00  0.0000E+00  0.0000E+00  0.0000E+00  0.0000E+00  0.0000E+00  0.0000E+00  0.0000E+00  0.0000E+00
     -4.043  0.0000E+00  0.0000E+00  0.0000E+00  0.0000E+00  0.0000E+00  0.0000E+00  0.0000E+00  0.0000E+00  0.0000E+00
     -3.691  0.0000E+00  0.0000E+00  0.0000E+00  0.0000E+00  0.0000E+00  0.0000E+00  0.0000E+00  0.0000E+00  0.0000E+00
     -3.339  0.0000E+00  0.0000E+00  0.0000E+00  0.0000E+00  0.0000E+00  0.0000E+00  0.0000E+00  0.0000E+00  0.0000E+00
     -2.987  0.0000E+00  0.0000E+00  0.0000E+00  0.0000E+00  0.0000E+00  0.0000E+00  0.0000E+00  0.0000E+00  0.0000E+00
     -2.635  0.0000E+00  0.0000E+00  0.0000E+00  0.0000E+00  0.0000E+00  0.0000E+00  0.0000E+00  0.0000E+00  0.0000E+00
     -2.283  0.0000E+00  0.0000E+00  0.0000E+00  0.0000E+00  0.0000E+00  0.0000E+00  0.0000E+00  0.0000E+00  0.0000E+00
     -1.931  0.0000E+00  0.0000E+00  0.0000E+00  0.0000E+00  0.0000E+00  0.0000E+00  0.0000E+00  0.0000E+00  0.0000E+00
     -1.579  0.0000E+00  0.0000E+00  0.0000E+00  0.0000E+00  0.0000E+00  0.0000E+00  0.0000E+00  0.0000E+00  0.0000E+00
     -1.227  0.0000E+00  0.0000E+00  0.0000E+00  0.0000E+00  0.0000E+00  0.0000E+00  0.0000E+00  0.0000E+00  0.0000E+00
     -0.875  0.0000E+00  0.0000E+00  0.0000E+00  0.0000E+00  0.0000E+00  0.0000E+00  0.0000E+00  0.0000E+00  0.0000E+00
     -0.523  0.3370E-11  0.2727E-14  0.2727E-14  0.2727E-14  0.1973E-15  0.1973E-15  0.1389E-27  0.1973E-15  0.1389E-27
     -0.171  0.4003E-02  0.4272E-05  0.4272E-05  0.4272E-05  0.3928E-06  0.3928E-06  0.1596E-06  0.3928E-06  0.1596E-06
      0.181  0.2033E-01  0.8167E-04  0.8167E-04  0.8167E-04  0.2631E-04  0.2631E-04  0.6597E-05  0.2631E-04  0.6597E-05
      0.533  0.3331E-01  0.2789E-03  0.2789E-03  0.2789E-03  0.1548E-03  0.1548E-03  0.8845E-04  0.1548E-03  0.8845E-04
      0.885  0.2867E-01  0.3573E-03  0.3573E-03  0.3573E-03  0.3551E-03  0.3551E-03  0.2165E-03  0.3551E-03  0.2165E-03
      1.237  0.3971E-01  0.6077E-03  0.6077E-03  0.6077E-03  0.1094E-02  0.1094E-02  0.4424E-03  0.1094E-02  0.4424E-03
      1.589  0.4975E-01  0.9542E-03  0.9542E-03  0.9542E-03  0.2849E-02  0.2849E-02  0.1171E-02  0.2849E-02  0.1171E-02
      1.941  0.7071E-01  0.1612E-02  0.1612E-02  0.1612E-02  0.8492E-02  0.8492E-02  0.2782E-02  0.8492E-02  0.2782E-02
      2.293  0.8984E-01  0.1966E-02  0.1966E-02  0.1966E-02  0.3818E-01  0.3818E-01  0.7156E-02  0.3818E-01  0.7156E-02
      2.645  0.1131E+00  0.2741E-02  0.2741E-02  0.2741E-02  0.7899E-01  0.7899E-01  0.4342E-01  0.7899E-01  0.4342E-01
      2.997  0.1175E+00  0.3820E-02  0.3820E-02  0.3820E-02  0.1489E+00  0.1489E+00  0.1859E+00  0.1489E+00  0.1859E+00
      3.349  0.7205E-01  0.3799E-02  0.3799E-02  0.3799E-02  0.2762E+00  0.2762E+00  0.1563E+00  0.2762E+00  0.1563E+00
      3.701  0.2354E-01  0.4139E-02  0.4139E-02  0.4139E-02  0.2276E+00  0.2276E+00  0.1562E+00  0.2276E+00  0.1562E+00
      4.053  0.9171E-02  0.6192E-02  0.6192E-02  0.6192E-02  0.2724E+00  0.2724E+00  0.2620E+00  0.2724E+00  0.2620E+00
      4.405  0.1865E-01  0.7166E-02  0.7166E-02  0.7166E-02  0.3980E+00  0.3980E+00  0.3065E+00  0.3980E+00  0.3065E+00
      4.757  0.2623E-01  0.8255E-02  0.8255E-02  0.8255E-02  0.4402E+00  0.4402E+00  0.3841E+00  0.4402E+00  0.3841E+00
      5.109  0.2284E-01  0.7210E-02  0.7210E-02  0.7210E-02  0.4848E+00  0.4848E+00  0.3665E+00  0.4848E+00  0.3665E+00