 vasp.6.3.2 27Jun22 (build Aug 12 2022 00:53:59) complex                        
  
 executed on               tv2STD date 2024.12.03  01:39:47
 running   24 mpi-ranks, with    1 threads/rank
 distrk:  each k-point on   24 cores,    1 groups
 distr:  one band on NCORE=   1 cores,   24 groups


--------------------------------------------------------------------------------------------------------


 INCAR:
   SYSTEM = Pt-fcc
   NWRITE = 2    write-flag
   ISTART = 0    job   : 0-new, 1-cont, 2-samecut
   ICHARG = 2    charge: 0-wave, 1-file, 2-atom, >10-const
   INIWAV = 1    electr: 0-lowe 1-rand  2-diag
   ENCUT = 425.0     energy cutoff in eV
   PREC = accurate      normal | accurate
   ADDGRID = .FALSE.  (use fine grid)
   NELM = 100     number of ELM steps
   EDIFF = 1E-06    energy stopping-criterion for ELM
   LREAL = .FALSE.      real-space projection (.FALSE., .TRUE., On, Auto)
   ALGO = Normal     Normal, Fast, Very_Fast
   LWAVE = .TRUE.
   LCHARG = .TRUE.
   NSW = 100       max number of geometry steps
   IBRION = 2     ionic relax: 0-MD, 1-quasi-Newton, 2-CG, 3-Damped MD
   EDIFFG = -0.02  force (eV/A) stopping-criterion for geometry steps
   ISIF = 2     (1:force\=y stress\=trace only ions\=y shape\=n volume\=n)
   ISYM = 1     (1-use symmetry, 0-no symmetry)
   ISMEAR = 0     (-1-Fermi, 1-Methfessel/Paxton)
   SIGMA = 0.05   broadening in eV
   LORBIT = 11

 POTCAR:    PAW_PBE Pt_pv 12Dec2005               
 POTCAR:    PAW_PBE Pt_pv 12Dec2005               
   SHA256 =  e5abf7e8cd8db70d0153315afc5ad66b6e3eeee29cc2d5b91b16730957c1d208 Pt_pv/POTCAR          
   COPYR  = (c) Copyright 12Dec2005 Georg Kresse                                                    
   COPYR  = This file is part of the software VASP. Any use, copying, and all other rights are regul
   COPYR  = If you do not have a valid VASP license, you may not use, copy or distribute this file. 
   VRHFIN =Pt: 5ps1d9                                                                               
   LEXCH  = PE                                                                                      
   EATOM  =  2428.2504 eV,  178.4714 Ry                                                             
                                                                                                    
   TITEL  = PAW_PBE Pt_pv 12Dec2005                                                                 
   LULTRA =        F    use ultrasoft PP ?                                                          
   IUNSCR =        1    unscreen: 0-lin 1-nonlin 2-no                                               
   RPACOR =    2.000    partial core radius                                                         
   POMASS =  195.080; ZVAL   =   16.000    mass and valenz                                          
   RCORE  =    2.200    outmost cutoff radius                                                       
   RWIGS  =    2.200; RWIGS  =    1.164    wigner-seitz radius (au A)                               
   ENMAX  =  294.607; ENMIN  =  220.955 eV                                                          
   ICORE  =        3    local potential                                                             
   LCOR   =        T    correct aug charges                                                         
   LPAW   =        T    paw PP                                                                      
   EAUG   =  527.014                                                                                
   DEXC   =    0.000                                                                                
   RMAX   =    2.247    core radius for proj-oper                                                   
   RAUG   =    1.300    factor for augmentation sphere                                              
   RDEP   =    2.279    radius for radial grids                                                     
   RDEPT  =    1.878    core radius for aug-charge                                                  
                                                                                                    
   Atomic configuration                                                                             
   16 entries                                                                                       
     n  l   j            E        occ.                                                              
     1  0  0.50    -78401.1885   2.0000                                                             
     2  0  0.50    -13770.7750   2.0000                                                             
     2  1  1.50    -11931.0468   6.0000                                                             
     3  0  0.50     -3234.7234   2.0000                                                             
     3  1  1.50     -2699.2216   6.0000                                                             
     3  2  2.50     -2119.5714  10.0000                                                             
     4  0  0.50      -695.1528   2.0000                                                             
     4  1  1.50      -519.6034   6.0000                                                             
     4  2  2.50      -306.6786  10.0000                                                             
     4  3  3.50       -70.1041  14.0000                                                             
     5  0  0.50      -101.7747   2.0000                                                             
     5  1  1.50       -55.9873   6.0000                                                             
     6  1  1.50        -6.8029   0.0000                                                             
     5  2  2.50        -6.1423   9.0000                                                             
     6  0  0.50        -5.6573   1.0000                                                             
     5  3  2.50        -1.3606   0.0000                                                             
   Description                                                                                      
     l       E           TYP  RCUT    TYP  RCUT                                                     
     1    -55.9873477     23  2.000                                                                 
     1     27.2116520     23  2.000                                                                 
     2     -6.1423404     23  2.200                                                                 
     2     -4.6754623     23  2.200                                                                 
     0     -5.6573207     23  2.200                                                                 
     0     47.6203910     23  2.200                                                                 
     3      6.8029130     23  2.200                                                                 
  local pseudopotential read in
  partial core-charges read in
  partial kinetic energy density read in
  atomic valenz-charges read in
  non local Contribution for L=           1  read in
    real space projection operators read in
  non local Contribution for L=           1  read in
    real space projection operators read in
  non local Contribution for L=           2  read in
    real space projection operators read in
  non local Contribution for L=           2  read in
    real space projection operators read in
  non local Contribution for L=           0  read in
    real space projection operators read in
  non local Contribution for L=           0  read in
    real space projection operators read in
    PAW grid and wavefunctions read in
 
   number of l-projection  operators is LMAX  =           6
   number of lm-projection operators is LMMAX =          18
 
  PAW_PBE Pt_pv 12Dec2005               :
 energy of atom  1       EATOM=-2428.2504
 kinetic energy error for atom=    0.0554 (will be added to EATOM!!)
 
 
 POSCAR: Pt
  positions in cartesian coordinates
  No initial velocities read in
 exchange correlation table for  LEXCH =        8
   RHO(1)=    0.500       N(1)  =     2000
   RHO(2)=  100.500       N(2)  =     4000
 


--------------------------------------------------------------------------------------------------------


 ion  position               nearest neighbor table
   1  0.000  0.000  0.000-
 
  LATTYP: Found a face centered cubic cell.
 ALAT       =     4.3534669848
  
  Lattice vectors:
  
 A1 = (   0.0000000000,   2.1767334924,   2.1767334924)
 A2 = (   2.1767334924,   0.0000000000,   2.1767334924)
 A3 = (   2.1767334924,   2.1767334924,   0.0000000000)


Analysis of symmetry for initial positions (statically):
=====================================================================
 Subroutine PRICEL returns:
 Original cell was already a primitive cell.
 

 Routine SETGRP: Setting up the symmetry group for a 
 face centered cubic supercell.


 Subroutine GETGRP returns: Found 48 space group operations
 (whereof 48 operations were pure point group operations)
 out of a pool of 48 trial point group operations.


The static configuration has the point symmetry O_h .


Analysis of symmetry for dynamics (positions and initial velocities):
=====================================================================
 Subroutine PRICEL returns:
 Original cell was already a primitive cell.
 

 Routine SETGRP: Setting up the symmetry group for a 
 face centered cubic supercell.


 Subroutine GETGRP returns: Found 48 space group operations
 (whereof 48 operations were pure point group operations)
 out of a pool of 48 trial point group operations.


The dynamic configuration has the point symmetry O_h .


 Subroutine INISYM returns: Found 48 space group operations
 (whereof 48 operations are pure point group operations),
 and found     1 'primitive' translations


----------------------------------------------------------------------------------------

                                     Primitive cell                                     

  volume of cell :      20.6275

  direct lattice vectors                    reciprocal lattice vectors
     0.000000000  2.176733492  2.176733492    -0.229701983  0.229701983  0.229701983
     2.176733492  0.000000000  2.176733492     0.229701983 -0.229701983  0.229701983
     2.176733492  2.176733492  0.000000000     0.229701983  0.229701983 -0.229701983

  length of vectors
     3.078366027  3.078366027  3.078366027     0.397855505  0.397855505  0.397855505

  position of ions in fractional coordinates (direct lattice)
     0.000000000  0.000000000  0.000000000

  ion indices of the primitive-cell ions
   primitive index   ion index
                 1           1

----------------------------------------------------------------------------------------

 
 
 KPOINTS: Automatic mesh                          

Automatic generation of k-mesh.
 Grid dimensions read from file:
 generate k-points for:   10   10   10

 Generating k-lattice:

  Cartesian coordinates                     Fractional coordinates (reciprocal lattice)
    -0.022970198  0.022970198  0.022970198     0.100000000  0.000000000  0.000000000
     0.022970198 -0.022970198  0.022970198     0.000000000  0.100000000  0.000000000
     0.022970198  0.022970198 -0.022970198     0.000000000  0.000000000  0.100000000

  Length of vectors
     0.039785551  0.039785551  0.039785551

  Shift w.r.t. Gamma in fractional coordinates (k-lattice)
     0.500000000  0.500000000  0.500000000

 
 Subroutine IBZKPT returns following result:
 ===========================================
 
 Found    110 irreducible k-points:
 
 Following reciprocal coordinates:
            Coordinates               Weight
  0.050000  0.050000  0.050000      8.000000
  0.150000  0.050000  0.050000     24.000000
  0.250000  0.050000  0.050000     24.000000
  0.350000  0.050000  0.050000     24.000000
  0.450000  0.050000  0.050000     24.000000
 -0.450000  0.050000  0.050000     24.000000
 -0.350000  0.050000  0.050000     24.000000
 -0.250000  0.050000  0.050000     24.000000
 -0.150000  0.050000  0.050000     24.000000
 -0.050000  0.050000  0.050000     24.000000
  0.150000  0.150000  0.050000     24.000000
  0.250000  0.150000  0.050000     48.000000
  0.350000  0.150000  0.050000     48.000000
  0.450000  0.150000  0.050000     48.000000
 -0.450000  0.150000  0.050000     48.000000
 -0.350000  0.150000  0.050000     48.000000
 -0.250000  0.150000  0.050000     48.000000
 -0.150000  0.150000  0.050000     48.000000
 -0.050000  0.150000  0.050000     48.000000
  0.250000  0.250000  0.050000     24.000000
  0.350000  0.250000  0.050000     48.000000
  0.450000  0.250000  0.050000     48.000000
 -0.450000  0.250000  0.050000     48.000000
 -0.350000  0.250000  0.050000     48.000000
 -0.250000  0.250000  0.050000     48.000000
 -0.150000  0.250000  0.050000     48.000000
 -0.050000  0.250000  0.050000     48.000000
  0.350000  0.350000  0.050000     24.000000
  0.450000  0.350000  0.050000     48.000000
 -0.450000  0.350000  0.050000     48.000000
 -0.350000  0.350000  0.050000     48.000000
 -0.250000  0.350000  0.050000     48.000000
 -0.150000  0.350000  0.050000     48.000000
 -0.050000  0.350000  0.050000     48.000000
  0.450000  0.450000  0.050000     24.000000
 -0.450000  0.450000  0.050000     48.000000
 -0.350000  0.450000  0.050000     48.000000
 -0.250000  0.450000  0.050000     48.000000
 -0.150000  0.450000  0.050000     48.000000
 -0.050000  0.450000  0.050000     48.000000
 -0.450000 -0.450000  0.050000     24.000000
 -0.350000 -0.450000  0.050000     48.000000
 -0.250000 -0.450000  0.050000     48.000000
 -0.150000 -0.450000  0.050000     48.000000
 -0.350000 -0.350000  0.050000     24.000000
 -0.250000 -0.350000  0.050000     48.000000
 -0.150000 -0.350000  0.050000     48.000000
 -0.250000 -0.250000  0.050000     24.000000
 -0.150000 -0.250000  0.050000     48.000000
 -0.150000 -0.150000  0.050000     24.000000
  0.150000  0.150000  0.150000      8.000000
  0.250000  0.150000  0.150000     24.000000
  0.350000  0.150000  0.150000     24.000000
  0.450000  0.150000  0.150000     24.000000
 -0.450000  0.150000  0.150000     24.000000
 -0.350000  0.150000  0.150000     24.000000
 -0.250000  0.150000  0.150000     24.000000
 -0.150000  0.150000  0.150000     24.000000
  0.250000  0.250000  0.150000     24.000000
  0.350000  0.250000  0.150000     48.000000
  0.450000  0.250000  0.150000     48.000000
 -0.450000  0.250000  0.150000     48.000000
 -0.350000  0.250000  0.150000     48.000000
 -0.250000  0.250000  0.150000     48.000000
 -0.150000  0.250000  0.150000     48.000000
  0.350000  0.350000  0.150000     24.000000
  0.450000  0.350000  0.150000     48.000000
 -0.450000  0.350000  0.150000     48.000000
 -0.350000  0.350000  0.150000     48.000000
 -0.250000  0.350000  0.150000     48.000000
 -0.150000  0.350000  0.150000     48.000000
  0.450000  0.450000  0.150000     24.000000
 -0.450000  0.450000  0.150000     48.000000
 -0.350000  0.450000  0.150000     48.000000
 -0.250000  0.450000  0.150000     48.000000
 -0.150000  0.450000  0.150000     48.000000
 -0.450000 -0.450000  0.150000     24.000000
 -0.350000 -0.450000  0.150000     48.000000
 -0.250000 -0.450000  0.150000     48.000000
 -0.350000 -0.350000  0.150000     24.000000
 -0.250000 -0.350000  0.150000     48.000000
 -0.250000 -0.250000  0.150000     24.000000
  0.250000  0.250000  0.250000      8.000000
  0.350000  0.250000  0.250000     24.000000
  0.450000  0.250000  0.250000     24.000000
 -0.450000  0.250000  0.250000     24.000000
 -0.350000  0.250000  0.250000     24.000000
 -0.250000  0.250000  0.250000     24.000000
  0.350000  0.350000  0.250000     24.000000
  0.450000  0.350000  0.250000     48.000000
 -0.450000  0.350000  0.250000     48.000000
 -0.350000  0.350000  0.250000     48.000000
 -0.250000  0.350000  0.250000     48.000000
  0.450000  0.450000  0.250000     24.000000
 -0.450000  0.450000  0.250000     48.000000
 -0.350000  0.450000  0.250000     48.000000
 -0.250000  0.450000  0.250000     48.000000
 -0.450000 -0.450000  0.250000     24.000000
 -0.350000 -0.450000  0.250000     48.000000
 -0.350000 -0.350000  0.250000     24.000000
  0.350000  0.350000  0.350000      8.000000
  0.450000  0.350000  0.350000     24.000000
 -0.450000  0.350000  0.350000     24.000000
 -0.350000  0.350000  0.350000     24.000000
  0.450000  0.450000  0.350000     24.000000
 -0.450000  0.450000  0.350000     48.000000
 -0.350000  0.450000  0.350000     48.000000
 -0.450000 -0.450000  0.350000     24.000000
  0.450000  0.450000  0.450000      8.000000
 -0.450000  0.450000  0.450000     24.000000
 
 Following cartesian coordinates:
            Coordinates               Weight
  0.011485  0.011485  0.011485      8.000000
 -0.011485  0.034455  0.034455     24.000000
 -0.034455  0.057425  0.057425     24.000000
 -0.057425  0.080396  0.080396     24.000000
 -0.080396  0.103366  0.103366     24.000000
  0.126336 -0.103366 -0.103366     24.000000
  0.103366 -0.080396 -0.080396     24.000000
  0.080396 -0.057425 -0.057425     24.000000
  0.057425 -0.034455 -0.034455     24.000000
  0.034455 -0.011485 -0.011485     24.000000
  0.011485  0.011485  0.057425     24.000000
 -0.011485  0.034455  0.080396     48.000000
 -0.034455  0.057425  0.103366     48.000000
 -0.057425  0.080396  0.126336     48.000000
  0.149306 -0.126336 -0.080396     48.000000
  0.126336 -0.103366 -0.057425     48.000000
  0.103366 -0.080396 -0.034455     48.000000
  0.080396 -0.057425 -0.011485     48.000000
  0.057425 -0.034455  0.011485     48.000000
  0.011485  0.011485  0.103366     24.000000
 -0.011485  0.034455  0.126336     48.000000
 -0.034455  0.057425  0.149306     48.000000
  0.172276 -0.149306 -0.057425     48.000000
  0.149306 -0.126336 -0.034455     48.000000
  0.126336 -0.103366 -0.011485     48.000000
  0.103366 -0.080396  0.011485     48.000000
  0.080396 -0.057425  0.034455     48.000000
  0.011485  0.011485  0.149306     24.000000
 -0.011485  0.034455  0.172276     48.000000
  0.195247 -0.172276 -0.034455     48.000000
  0.172276 -0.149306 -0.011485     48.000000
  0.149306 -0.126336  0.011485     48.000000
  0.126336 -0.103366  0.034455     48.000000
  0.103366 -0.080396  0.057425     48.000000
  0.011485  0.011485  0.195247     24.000000
  0.218217 -0.195247 -0.011485     48.000000
  0.195247 -0.172276  0.011485     48.000000
  0.172276 -0.149306  0.034455     48.000000
  0.149306 -0.126336  0.057425     48.000000
  0.126336 -0.103366  0.080396     48.000000
  0.011485  0.011485 -0.218217     24.000000
 -0.011485  0.034455 -0.195247     48.000000
 -0.034455  0.057425 -0.172276     48.000000
 -0.057425  0.080396 -0.149306     48.000000
  0.011485  0.011485 -0.172276     24.000000
 -0.011485  0.034455 -0.149306     48.000000
 -0.034455  0.057425 -0.126336     48.000000
  0.011485  0.011485 -0.126336     24.000000
 -0.011485  0.034455 -0.103366     48.000000
  0.011485  0.011485 -0.080396     24.000000
  0.034455  0.034455  0.034455      8.000000
  0.011485  0.057425  0.057425     24.000000
 -0.011485  0.080396  0.080396     24.000000
 -0.034455  0.103366  0.103366     24.000000
  0.172276 -0.103366 -0.103366     24.000000
  0.149306 -0.080396 -0.080396     24.000000
  0.126336 -0.057425 -0.057425     24.000000
  0.103366 -0.034455 -0.034455     24.000000
  0.034455  0.034455  0.080396     24.000000
  0.011485  0.057425  0.103366     48.000000
 -0.011485  0.080396  0.126336     48.000000
  0.195247 -0.126336 -0.080396     48.000000
  0.172276 -0.103366 -0.057425     48.000000
  0.149306 -0.080396 -0.034455     48.000000
  0.126336 -0.057425 -0.011485     48.000000
  0.034455  0.034455  0.126336     24.000000
  0.011485  0.057425  0.149306     48.000000
  0.218217 -0.149306 -0.057425     48.000000
  0.195247 -0.126336 -0.034455     48.000000
  0.172276 -0.103366 -0.011485     48.000000
  0.149306 -0.080396  0.011485     48.000000
  0.034455  0.034455  0.172276     24.000000
  0.241187 -0.172276 -0.034455     48.000000
  0.218217 -0.149306 -0.011485     48.000000
  0.195247 -0.126336  0.011485     48.000000
  0.172276 -0.103366  0.034455     48.000000
  0.034455  0.034455 -0.241187     24.000000
  0.011485  0.057425 -0.218217     48.000000
 -0.011485  0.080396 -0.195247     48.000000
  0.034455  0.034455 -0.195247     24.000000
  0.011485  0.057425 -0.172276     48.000000
  0.034455  0.034455 -0.149306     24.000000
  0.057425  0.057425  0.057425      8.000000
  0.034455  0.080396  0.080396     24.000000
  0.011485  0.103366  0.103366     24.000000
  0.218217 -0.103366 -0.103366     24.000000
  0.195247 -0.080396 -0.080396     24.000000
  0.172276 -0.057425 -0.057425     24.000000
  0.057425  0.057425  0.103366     24.000000
  0.034455  0.080396  0.126336     48.000000
  0.241187 -0.126336 -0.080396     48.000000
  0.218217 -0.103366 -0.057425     48.000000
  0.195247 -0.080396 -0.034455     48.000000
  0.057425  0.057425  0.149306     24.000000
  0.264157 -0.149306 -0.057425     48.000000
  0.241187 -0.126336 -0.034455     48.000000
  0.218217 -0.103366 -0.011485     48.000000
  0.057425  0.057425 -0.264157     24.000000
  0.034455  0.080396 -0.241187     48.000000
  0.057425  0.057425 -0.218217     24.000000
  0.080396  0.080396  0.080396      8.000000
  0.057425  0.103366  0.103366     24.000000
  0.264157 -0.103366 -0.103366     24.000000
  0.241187 -0.080396 -0.080396     24.000000
  0.080396  0.080396  0.126336     24.000000
  0.287127 -0.126336 -0.080396     48.000000
  0.264157 -0.103366 -0.057425     48.000000
  0.080396  0.080396 -0.287127     24.000000
  0.103366  0.103366  0.103366      8.000000
  0.310098 -0.103366 -0.103366     24.000000
 


--------------------------------------------------------------------------------------------------------




 Dimension of arrays:
   k-points           NKPTS =    110   k-points in BZ     NKDIM =    110   number of bands    NBANDS=     24
   number of dos      NEDOS =    301   number of ions     NIONS =      1
   non local maximal  LDIM  =      6   non local SUM 2l+1 LMDIM =     18
   total plane-waves  NPLWV =  13824
   max r-space proj   IRMAX =      1   max aug-charges    IRDMAX=  23015
   dimension x,y,z NGX =    24 NGY =   24 NGZ =   24
   dimension x,y,z NGXF=    48 NGYF=   48 NGZF=   48
   support grid    NGXF=    48 NGYF=   48 NGZF=   48
   ions per type =               1
   NGX,Y,Z   is equivalent  to a cutoff of  12.96, 12.96, 12.96 a.u.
   NGXF,Y,Z  is equivalent  to a cutoff of  25.92, 25.92, 25.92 a.u.

 SYSTEM =  Pt-fcc                                  
 POSCAR =  Pt                                      

 Startparameter for this run:
   NWRITE =      2    write-flag & timer
   PREC   = accura    normal or accurate (medium, high low for compatibility)
   ISTART =      0    job   : 0-new  1-cont  2-samecut
   ICHARG =      2    charge: 1-file 2-atom 10-const
   ISPIN  =      1    spin polarized calculation?
   LNONCOLLINEAR =      F non collinear calculations
   LSORBIT =      F    spin-orbit coupling
   INIWAV =      1    electr: 0-lowe 1-rand  2-diag
   LASPH  =      F    aspherical Exc in radial PAW
 Electronic Relaxation 1
   ENCUT  =  425.0 eV  31.24 Ry    5.59 a.u.   5.17  5.17  5.17*2*pi/ulx,y,z
   ENINI  =  425.0     initial cutoff
   ENAUG  =  527.0 eV  augmentation charge cutoff
   NELM   =    100;   NELMIN=  2; NELMDL= -5     # of ELM steps 
   EDIFF  = 0.1E-05   stopping-criterion for ELM
   LREAL  =      F    real-space projection
   NLSPLINE    = F    spline interpolate recip. space projectors
   LCOMPAT=      F    compatible to vasp.4.4
   GGA_COMPAT  = T    GGA compatible to vasp.4.4-vasp.4.6
   LMAXPAW     = -100 max onsite density
   LMAXMIX     =    2 max onsite mixed and CHGCAR
   VOSKOWN=      0    Vosko Wilk Nusair interpolation
   ROPT   =    0.00000
 Ionic relaxation
   EDIFFG = -.2E-01   stopping-criterion for IOM
   NSW    =    100    number of steps for IOM
   NBLOCK =      1;   KBLOCK =    100    inner block; outer block 
   IBRION =      2    ionic relax: 0-MD 1-quasi-New 2-CG
   NFREE  =      1    steps in history (QN), initial steepest desc. (CG)
   ISIF   =      2    stress and relaxation
   IWAVPR =     11    prediction:  0-non 1-charg 2-wave 3-comb
   ISYM   =      1    0-nonsym 1-usesym 2-fastsym
   LCORR  =      T    Harris-Foulkes like correction to forces

   POTIM  = 0.5000    time-step for ionic-motion
   TEIN   =    0.0    initial temperature
   TEBEG  =    0.0;   TEEND  =   0.0 temperature during run
   SMASS  =  -3.00    Nose mass-parameter (am)
   estimated Nose-frequenzy (Omega)   =  0.10E-29 period in steps = 0.13E+47 mass=  -0.217E-27a.u.
   SCALEE = 1.0000    scale energy and forces
   NPACO  =    256;   APACO  = 10.0  distance and # of slots for P.C.
   PSTRESS=    0.0 pullay stress

  Mass of Ions in am
   POMASS = 195.08
  Ionic Valenz
   ZVAL   =  16.00
  Atomic Wigner-Seitz radii
   RWIGS  =  -1.00
  virtual crystal weights 
   VCA    =   1.00
   NELECT =      16.0000    total number of electrons
   NUPDOWN=      -1.0000    fix difference up-down

 DOS related values:
   EMIN   =  10.00;   EMAX   =-10.00  energy-range for DOS
   EFERMI =   0.00
   ISMEAR =     0;   SIGMA  =   0.05  broadening in eV -4-tet -1-fermi 0-gaus

 Electronic relaxation 2 (details)
   IALGO  =     38    algorithm
   LDIAG  =      T    sub-space diagonalisation (order eigenvalues)
   LSUBROT=      F    optimize rotation matrix (better conditioning)
   TURBO    =      0    0=normal 1=particle mesh
   IRESTART =      0    0=no restart 2=restart with 2 vectors
   NREBOOT  =      0    no. of reboots
   NMIN     =      0    reboot dimension
   EREF     =   0.00    reference energy to select bands
   IMIX   =      4    mixing-type and parameters
     AMIX     =   0.40;   BMIX     =  1.00
     AMIX_MAG =   1.60;   BMIX_MAG =  1.00
     AMIN     =   0.10
     WC   =   100.;   INIMIX=   1;  MIXPRE=   1;  MAXMIX= -45

 Intra band minimization:
   WEIMIN = 0.0010     energy-eigenvalue tresh-hold
   EBREAK =  0.10E-07  absolut break condition
   DEPER  =   0.30     relativ break condition  

   TIME   =   0.40     timestep for ELM

  volume/ion in A,a.u.               =      20.63       139.20
  Fermi-wavevector in a.u.,A,eV,Ry     =   1.504179  2.842486 30.783929  2.262555
  Thomas-Fermi vector in A             =   2.615193
 
 Write flags
   LWAVE        =      T    write WAVECAR
   LDOWNSAMPLE  =      F    k-point downsampling of WAVECAR
   LCHARG       =      T    write CHGCAR
   LVTOT        =      F    write LOCPOT, total local potential
   LVHAR        =      F    write LOCPOT, Hartree potential only
   LELF         =      F    write electronic localiz. function (ELF)
   LORBIT       =     11    0 simple, 1 ext, 2 COOP (PROOUT), +10 PAW based schemes


 Dipole corrections
   LMONO  =      F    monopole corrections only (constant potential shift)
   LDIPOL =      F    correct potential (dipole corrections)
   IDIPOL =      0    1-x, 2-y, 3-z, 4-all directions 
   EPSILON=  1.0000000 bulk dielectric constant

 Exchange correlation treatment:
   GGA     =    --    GGA type
   LEXCH   =     8    internal setting for exchange type
   LIBXC   =     F    Libxc                    
   VOSKOWN =     0    Vosko Wilk Nusair interpolation
   LHFCALC =     F    Hartree Fock is set to
   LHFONE  =     F    Hartree Fock one center treatment
   AEXX    =    0.0000 exact exchange contribution

 Linear response parameters
   LEPSILON=     F    determine dielectric tensor
   LRPA    =     F    only Hartree local field effects (RPA)
   LNABLA  =     F    use nabla operator in PAW spheres
   LVEL    =     F    velocity operator in full k-point grid
   CSHIFT  =0.1000    complex shift for real part using Kramers Kronig
   OMEGAMAX=  -1.0    maximum frequency
   DEG_THRESHOLD= 0.2000000E-02 threshold for treating states as degnerate
   RTIME   =   -0.100 relaxation time in fs
  (WPLASMAI=    0.000 imaginary part of plasma frequency in eV, 0.658/RTIME)
   DFIELD  = 0.0000000 0.0000000 0.0000000 field for delta impulse in time
 
  Optional k-point grid parameters
   LKPOINTS_OPT  =     F    use optional k-point grid
   KPOINTS_OPT_MODE=     1    mode for optional k-point grid
 
 Orbital magnetization related:
   ORBITALMAG=     F  switch on orbital magnetization
   LCHIMAG   =     F  perturbation theory with respect to B field
   DQ        =  0.001000  dq finite difference perturbation B field
   LLRAUG    =     F  two centre corrections for induced B field



--------------------------------------------------------------------------------------------------------


 conjugate gradient relaxation of ions
 charge density and potential will be updated during run
 non-spin polarized calculation
 Variant of blocked Davidson
 Davidson routine will perform the subspace rotation
 perform sub-space diagonalisation
    after iterative eigenvector-optimisation
 modified Broyden-mixing scheme, WC =      100.0
 initial mixing is a Kerker type mixing with AMIX =  0.4000 and BMIX =      1.0000
 Hartree-type preconditioning will be used
 using additional bands           16
 reciprocal scheme for non local part
 use partial core corrections
 calculate Harris-corrections to forces 
   (improved forces if not selfconsistent)
 use gradient corrections 
 use of overlap-Matrix (Vanderbilt PP)
 Gauss-broadening in eV      SIGMA  =   0.05


--------------------------------------------------------------------------------------------------------


  energy-cutoff  :      425.00
  volume of cell :       20.63
      direct lattice vectors                 reciprocal lattice vectors
     0.000000000  2.176733492  2.176733492    -0.229701983  0.229701983  0.229701983
     2.176733492  0.000000000  2.176733492     0.229701983 -0.229701983  0.229701983
     2.176733492  2.176733492  0.000000000     0.229701983  0.229701983 -0.229701983

  length of vectors
     3.078366027  3.078366027  3.078366027     0.397855505  0.397855505  0.397855505


 
 k-points in units of 2pi/SCALE and weight: Automatic mesh                          
   0.01148510  0.01148510  0.01148510       0.002
  -0.01148510  0.03445530  0.03445530       0.006
  -0.03445530  0.05742550  0.05742550       0.006
  -0.05742550  0.08039569  0.08039569       0.006
  -0.08039569  0.10336589  0.10336589       0.006
   0.12633609 -0.10336589 -0.10336589       0.006
   0.10336589 -0.08039569 -0.08039569       0.006
   0.08039569 -0.05742550 -0.05742550       0.006
   0.05742550 -0.03445530 -0.03445530       0.006
   0.03445530 -0.01148510 -0.01148510       0.006
   0.01148510  0.01148510  0.05742550       0.006
  -0.01148510  0.03445530  0.08039569       0.012
  -0.03445530  0.05742550  0.10336589       0.012
  -0.05742550  0.08039569  0.12633609       0.012
   0.14930629 -0.12633609 -0.08039569       0.012
   0.12633609 -0.10336589 -0.05742550       0.012
   0.10336589 -0.08039569 -0.03445530       0.012
   0.08039569 -0.05742550 -0.01148510       0.012
   0.05742550 -0.03445530  0.01148510       0.012
   0.01148510  0.01148510  0.10336589       0.006
  -0.01148510  0.03445530  0.12633609       0.012
  -0.03445530  0.05742550  0.14930629       0.012
   0.17227649 -0.14930629 -0.05742550       0.012
   0.14930629 -0.12633609 -0.03445530       0.012
   0.12633609 -0.10336589 -0.01148510       0.012
   0.10336589 -0.08039569  0.01148510       0.012
   0.08039569 -0.05742550  0.03445530       0.012
   0.01148510  0.01148510  0.14930629       0.006
  -0.01148510  0.03445530  0.17227649       0.012
   0.19524669 -0.17227649 -0.03445530       0.012
   0.17227649 -0.14930629 -0.01148510       0.012
   0.14930629 -0.12633609  0.01148510       0.012
   0.12633609 -0.10336589  0.03445530       0.012
   0.10336589 -0.08039569  0.05742550       0.012
   0.01148510  0.01148510  0.19524669       0.006
   0.21821688 -0.19524669 -0.01148510       0.012
   0.19524669 -0.17227649  0.01148510       0.012
   0.17227649 -0.14930629  0.03445530       0.012
   0.14930629 -0.12633609  0.05742550       0.012
   0.12633609 -0.10336589  0.08039569       0.012
   0.01148510  0.01148510 -0.21821688       0.006
  -0.01148510  0.03445530 -0.19524669       0.012
  -0.03445530  0.05742550 -0.17227649       0.012
  -0.05742550  0.08039569 -0.14930629       0.012
   0.01148510  0.01148510 -0.17227649       0.006
  -0.01148510  0.03445530 -0.14930629       0.012
  -0.03445530  0.05742550 -0.12633609       0.012
   0.01148510  0.01148510 -0.12633609       0.006
  -0.01148510  0.03445530 -0.10336589       0.012
   0.01148510  0.01148510 -0.08039569       0.006
   0.03445530  0.03445530  0.03445530       0.002
   0.01148510  0.05742550  0.05742550       0.006
  -0.01148510  0.08039569  0.08039569       0.006
  -0.03445530  0.10336589  0.10336589       0.006
   0.17227649 -0.10336589 -0.10336589       0.006
   0.14930629 -0.08039569 -0.08039569       0.006
   0.12633609 -0.05742550 -0.05742550       0.006
   0.10336589 -0.03445530 -0.03445530       0.006
   0.03445530  0.03445530  0.08039569       0.006
   0.01148510  0.05742550  0.10336589       0.012
  -0.01148510  0.08039569  0.12633609       0.012
   0.19524669 -0.12633609 -0.08039569       0.012
   0.17227649 -0.10336589 -0.05742550       0.012
   0.14930629 -0.08039569 -0.03445530       0.012
   0.12633609 -0.05742550 -0.01148510       0.012
   0.03445530  0.03445530  0.12633609       0.006
   0.01148510  0.05742550  0.14930629       0.012
   0.21821688 -0.14930629 -0.05742550       0.012
   0.19524669 -0.12633609 -0.03445530       0.012
   0.17227649 -0.10336589 -0.01148510       0.012
   0.14930629 -0.08039569  0.01148510       0.012
   0.03445530  0.03445530  0.17227649       0.006
   0.24118708 -0.17227649 -0.03445530       0.012
   0.21821688 -0.14930629 -0.01148510       0.012
   0.19524669 -0.12633609  0.01148510       0.012
   0.17227649 -0.10336589  0.03445530       0.012
   0.03445530  0.03445530 -0.24118708       0.006
   0.01148510  0.05742550 -0.21821688       0.012
  -0.01148510  0.08039569 -0.19524669       0.012
   0.03445530  0.03445530 -0.19524669       0.006
   0.01148510  0.05742550 -0.17227649       0.012
   0.03445530  0.03445530 -0.14930629       0.006
   0.05742550  0.05742550  0.05742550       0.002
   0.03445530  0.08039569  0.08039569       0.006
   0.01148510  0.10336589  0.10336589       0.006
   0.21821688 -0.10336589 -0.10336589       0.006
   0.19524669 -0.08039569 -0.08039569       0.006
   0.17227649 -0.05742550 -0.05742550       0.006
   0.05742550  0.05742550  0.10336589       0.006
   0.03445530  0.08039569  0.12633609       0.012
   0.24118708 -0.12633609 -0.08039569       0.012
   0.21821688 -0.10336589 -0.05742550       0.012
   0.19524669 -0.08039569 -0.03445530       0.012
   0.05742550  0.05742550  0.14930629       0.006
   0.26415728 -0.14930629 -0.05742550       0.012
   0.24118708 -0.12633609 -0.03445530       0.012
   0.21821688 -0.10336589 -0.01148510       0.012
   0.05742550  0.05742550 -0.26415728       0.006
   0.03445530  0.08039569 -0.24118708       0.012
   0.05742550  0.05742550 -0.21821688       0.006
   0.08039569  0.08039569  0.08039569       0.002
   0.05742550  0.10336589  0.10336589       0.006
   0.26415728 -0.10336589 -0.10336589       0.006
   0.24118708 -0.08039569 -0.08039569       0.006
   0.08039569  0.08039569  0.12633609       0.006
   0.28712748 -0.12633609 -0.08039569       0.012
   0.26415728 -0.10336589 -0.05742550       0.012
   0.08039569  0.08039569 -0.28712748       0.006
   0.10336589  0.10336589  0.10336589       0.002
   0.31009768 -0.10336589 -0.10336589       0.006
 
 k-points in reciprocal lattice and weights: Automatic mesh                          
   0.05000000  0.05000000  0.05000000       0.002
   0.15000000  0.05000000  0.05000000       0.006
   0.25000000  0.05000000  0.05000000       0.006
   0.35000000  0.05000000  0.05000000       0.006
   0.45000000  0.05000000  0.05000000       0.006
  -0.45000000  0.05000000  0.05000000       0.006
  -0.35000000  0.05000000  0.05000000       0.006
  -0.25000000  0.05000000  0.05000000       0.006
  -0.15000000  0.05000000  0.05000000       0.006
  -0.05000000  0.05000000  0.05000000       0.006
   0.15000000  0.15000000  0.05000000       0.006
   0.25000000  0.15000000  0.05000000       0.012
   0.35000000  0.15000000  0.05000000       0.012
   0.45000000  0.15000000  0.05000000       0.012
  -0.45000000  0.15000000  0.05000000       0.012
  -0.35000000  0.15000000  0.05000000       0.012
  -0.25000000  0.15000000  0.05000000       0.012
  -0.15000000  0.15000000  0.05000000       0.012
  -0.05000000  0.15000000  0.05000000       0.012
   0.25000000  0.25000000  0.05000000       0.006
   0.35000000  0.25000000  0.05000000       0.012
   0.45000000  0.25000000  0.05000000       0.012
  -0.45000000  0.25000000  0.05000000       0.012
  -0.35000000  0.25000000  0.05000000       0.012
  -0.25000000  0.25000000  0.05000000       0.012
  -0.15000000  0.25000000  0.05000000       0.012
  -0.05000000  0.25000000  0.05000000       0.012
   0.35000000  0.35000000  0.05000000       0.006
   0.45000000  0.35000000  0.05000000       0.012
  -0.45000000  0.35000000  0.05000000       0.012
  -0.35000000  0.35000000  0.05000000       0.012
  -0.25000000  0.35000000  0.05000000       0.012
  -0.15000000  0.35000000  0.05000000       0.012
  -0.05000000  0.35000000  0.05000000       0.012
   0.45000000  0.45000000  0.05000000       0.006
  -0.45000000  0.45000000  0.05000000       0.012
  -0.35000000  0.45000000  0.05000000       0.012
  -0.25000000  0.45000000  0.05000000       0.012
  -0.15000000  0.45000000  0.05000000       0.012
  -0.05000000  0.45000000  0.05000000       0.012
  -0.45000000 -0.45000000  0.05000000       0.006
  -0.35000000 -0.45000000  0.05000000       0.012
  -0.25000000 -0.45000000  0.05000000       0.012
  -0.15000000 -0.45000000  0.05000000       0.012
  -0.35000000 -0.35000000  0.05000000       0.006
  -0.25000000 -0.35000000  0.05000000       0.012
  -0.15000000 -0.35000000  0.05000000       0.012
  -0.25000000 -0.25000000  0.05000000       0.006
  -0.15000000 -0.25000000  0.05000000       0.012
  -0.15000000 -0.15000000  0.05000000       0.006
   0.15000000  0.15000000  0.15000000       0.002
   0.25000000  0.15000000  0.15000000       0.006
   0.35000000  0.15000000  0.15000000       0.006
   0.45000000  0.15000000  0.15000000       0.006
  -0.45000000  0.15000000  0.15000000       0.006
  -0.35000000  0.15000000  0.15000000       0.006
  -0.25000000  0.15000000  0.15000000       0.006
  -0.15000000  0.15000000  0.15000000       0.006
   0.25000000  0.25000000  0.15000000       0.006
   0.35000000  0.25000000  0.15000000       0.012
   0.45000000  0.25000000  0.15000000       0.012
  -0.45000000  0.25000000  0.15000000       0.012
  -0.35000000  0.25000000  0.15000000       0.012
  -0.25000000  0.25000000  0.15000000       0.012
  -0.15000000  0.25000000  0.15000000       0.012
   0.35000000  0.35000000  0.15000000       0.006
   0.45000000  0.35000000  0.15000000       0.012
  -0.45000000  0.35000000  0.15000000       0.012
  -0.35000000  0.35000000  0.15000000       0.012
  -0.25000000  0.35000000  0.15000000       0.012
  -0.15000000  0.35000000  0.15000000       0.012
   0.45000000  0.45000000  0.15000000       0.006
  -0.45000000  0.45000000  0.15000000       0.012
  -0.35000000  0.45000000  0.15000000       0.012
  -0.25000000  0.45000000  0.15000000       0.012
  -0.15000000  0.45000000  0.15000000       0.012
  -0.45000000 -0.45000000  0.15000000       0.006
  -0.35000000 -0.45000000  0.15000000       0.012
  -0.25000000 -0.45000000  0.15000000       0.012
  -0.35000000 -0.35000000  0.15000000       0.006
  -0.25000000 -0.35000000  0.15000000       0.012
  -0.25000000 -0.25000000  0.15000000       0.006
   0.25000000  0.25000000  0.25000000       0.002
   0.35000000  0.25000000  0.25000000       0.006
   0.45000000  0.25000000  0.25000000       0.006
  -0.45000000  0.25000000  0.25000000       0.006
  -0.35000000  0.25000000  0.25000000       0.006
  -0.25000000  0.25000000  0.25000000       0.006
   0.35000000  0.35000000  0.25000000       0.006
   0.45000000  0.35000000  0.25000000       0.012
  -0.45000000  0.35000000  0.25000000       0.012
  -0.35000000  0.35000000  0.25000000       0.012
  -0.25000000  0.35000000  0.25000000       0.012
   0.45000000  0.45000000  0.25000000       0.006
  -0.45000000  0.45000000  0.25000000       0.012
  -0.35000000  0.45000000  0.25000000       0.012
  -0.25000000  0.45000000  0.25000000       0.012
  -0.45000000 -0.45000000  0.25000000       0.006
  -0.35000000 -0.45000000  0.25000000       0.012
  -0.35000000 -0.35000000  0.25000000       0.006
   0.35000000  0.35000000  0.35000000       0.002
   0.45000000  0.35000000  0.35000000       0.006
  -0.45000000  0.35000000  0.35000000       0.006
  -0.35000000  0.35000000  0.35000000       0.006
   0.45000000  0.45000000  0.35000000       0.006
  -0.45000000  0.45000000  0.35000000       0.012
  -0.35000000  0.45000000  0.35000000       0.012
  -0.45000000 -0.45000000  0.35000000       0.006
   0.45000000  0.45000000  0.45000000       0.002
  -0.45000000  0.45000000  0.45000000       0.006
 
 position of ions in fractional coordinates (direct lattice) 
   0.00000000  0.00000000  0.00000000
 
 position of ions in cartesian coordinates  (Angst):
   0.00000000  0.00000000  0.00000000
 


--------------------------------------------------------------------------------------------------------


 k-point   1 :   0.0500 0.0500 0.0500  plane waves:     411
 k-point   2 :   0.1500 0.0500 0.0500  plane waves:     409
 k-point   3 :   0.2500 0.0500 0.0500  plane waves:     403
 k-point   4 :   0.3500 0.0500 0.0500  plane waves:     408
 k-point   5 :   0.4500 0.0500 0.0500  plane waves:     414
 k-point   6 :  -0.4500 0.0500 0.0500  plane waves:     405
 k-point   7 :  -0.3500 0.0500 0.0500  plane waves:     415
 k-point   8 :  -0.2500 0.0500 0.0500  plane waves:     411
 k-point   9 :  -0.1500 0.0500 0.0500  plane waves:     401
 k-point  10 :  -0.0500 0.0500 0.0500  plane waves:     407
 k-point  11 :   0.1500 0.1500 0.0500  plane waves:     405
 k-point  12 :   0.2500 0.1500 0.0500  plane waves:     407
 k-point  13 :   0.3500 0.1500 0.0500  plane waves:     408
 k-point  14 :   0.4500 0.1500 0.0500  plane waves:     410
 k-point  15 :  -0.4500 0.1500 0.0500  plane waves:     408
 k-point  16 :  -0.3500 0.1500 0.0500  plane waves:     408
 k-point  17 :  -0.2500 0.1500 0.0500  plane waves:     411
 k-point  18 :  -0.1500 0.1500 0.0500  plane waves:     404
 k-point  19 :  -0.0500 0.1500 0.0500  plane waves:     402
 k-point  20 :   0.2500 0.2500 0.0500  plane waves:     417
 k-point  21 :   0.3500 0.2500 0.0500  plane waves:     415
 k-point  22 :   0.4500 0.2500 0.0500  plane waves:     410
 k-point  23 :  -0.4500 0.2500 0.0500  plane waves:     411
 k-point  24 :  -0.3500 0.2500 0.0500  plane waves:     408
 k-point  25 :  -0.2500 0.2500 0.0500  plane waves:     412
 k-point  26 :  -0.1500 0.2500 0.0500  plane waves:     410
 k-point  27 :  -0.0500 0.2500 0.0500  plane waves:     406
 k-point  28 :   0.3500 0.3500 0.0500  plane waves:     419
 k-point  29 :   0.4500 0.3500 0.0500  plane waves:     417
 k-point  30 :  -0.4500 0.3500 0.0500  plane waves:     413
 k-point  31 :  -0.3500 0.3500 0.0500  plane waves:     411
 k-point  32 :  -0.2500 0.3500 0.0500  plane waves:     409
 k-point  33 :  -0.1500 0.3500 0.0500  plane waves:     414
 k-point  34 :  -0.0500 0.3500 0.0500  plane waves:     411
 k-point  35 :   0.4500 0.4500 0.0500  plane waves:     415
 k-point  36 :  -0.4500 0.4500 0.0500  plane waves:     417
 k-point  37 :  -0.3500 0.4500 0.0500  plane waves:     417
 k-point  38 :  -0.2500 0.4500 0.0500  plane waves:     410
 k-point  39 :  -0.1500 0.4500 0.0500  plane waves:     411
 k-point  40 :  -0.0500 0.4500 0.0500  plane waves:     409
 k-point  41 :  -0.4500-0.4500 0.0500  plane waves:     417
 k-point  42 :  -0.3500-0.4500 0.0500  plane waves:     414
 k-point  43 :  -0.2500-0.4500 0.0500  plane waves:     413
 k-point  44 :  -0.1500-0.4500 0.0500  plane waves:     412
 k-point  45 :  -0.3500-0.3500 0.0500  plane waves:     414
 k-point  46 :  -0.2500-0.3500 0.0500  plane waves:     417
 k-point  47 :  -0.1500-0.3500 0.0500  plane waves:     410
 k-point  48 :  -0.2500-0.2500 0.0500  plane waves:     419
 k-point  49 :  -0.1500-0.2500 0.0500  plane waves:     410
 k-point  50 :  -0.1500-0.1500 0.0500  plane waves:     403
 k-point  51 :   0.1500 0.1500 0.1500  plane waves:     402
 k-point  52 :   0.2500 0.1500 0.1500  plane waves:     397
 k-point  53 :   0.3500 0.1500 0.1500  plane waves:     406
 k-point  54 :   0.4500 0.1500 0.1500  plane waves:     410
 k-point  55 :  -0.4500 0.1500 0.1500  plane waves:     408
 k-point  56 :  -0.3500 0.1500 0.1500  plane waves:     409
 k-point  57 :  -0.2500 0.1500 0.1500  plane waves:     413
 k-point  58 :  -0.1500 0.1500 0.1500  plane waves:     406
 k-point  59 :   0.2500 0.2500 0.1500  plane waves:     406
 k-point  60 :   0.3500 0.2500 0.1500  plane waves:     410
 k-point  61 :   0.4500 0.2500 0.1500  plane waves:     412
 k-point  62 :  -0.4500 0.2500 0.1500  plane waves:     413
 k-point  63 :  -0.3500 0.2500 0.1500  plane waves:     416
 k-point  64 :  -0.2500 0.2500 0.1500  plane waves:     409
 k-point  65 :  -0.1500 0.2500 0.1500  plane waves:     410
 k-point  66 :   0.3500 0.3500 0.1500  plane waves:     414
 k-point  67 :   0.4500 0.3500 0.1500  plane waves:     411
 k-point  68 :  -0.4500 0.3500 0.1500  plane waves:     410
 k-point  69 :  -0.3500 0.3500 0.1500  plane waves:     410
 k-point  70 :  -0.2500 0.3500 0.1500  plane waves:     410
 k-point  71 :  -0.1500 0.3500 0.1500  plane waves:     412
 k-point  72 :   0.4500 0.4500 0.1500  plane waves:     418
 k-point  73 :  -0.4500 0.4500 0.1500  plane waves:     413
 k-point  74 :  -0.3500 0.4500 0.1500  plane waves:     411
 k-point  75 :  -0.2500 0.4500 0.1500  plane waves:     410
 k-point  76 :  -0.1500 0.4500 0.1500  plane waves:     412
 k-point  77 :  -0.4500-0.4500 0.1500  plane waves:     418
 k-point  78 :  -0.3500-0.4500 0.1500  plane waves:     414
 k-point  79 :  -0.2500-0.4500 0.1500  plane waves:     412
 k-point  80 :  -0.3500-0.3500 0.1500  plane waves:     416
 k-point  81 :  -0.2500-0.3500 0.1500  plane waves:     414
 k-point  82 :  -0.2500-0.2500 0.1500  plane waves:     414
 k-point  83 :   0.2500 0.2500 0.2500  plane waves:     401
 k-point  84 :   0.3500 0.2500 0.2500  plane waves:     407
 k-point  85 :   0.4500 0.2500 0.2500  plane waves:     408
 k-point  86 :  -0.4500 0.2500 0.2500  plane waves:     410
 k-point  87 :  -0.3500 0.2500 0.2500  plane waves:     408
 k-point  88 :  -0.2500 0.2500 0.2500  plane waves:     412
 k-point  89 :   0.3500 0.3500 0.2500  plane waves:     411
 k-point  90 :   0.4500 0.3500 0.2500  plane waves:     413
 k-point  91 :  -0.4500 0.3500 0.2500  plane waves:     412
 k-point  92 :  -0.3500 0.3500 0.2500  plane waves:     406
 k-point  93 :  -0.2500 0.3500 0.2500  plane waves:     410
 k-point  94 :   0.4500 0.4500 0.2500  plane waves:     414
 k-point  95 :  -0.4500 0.4500 0.2500  plane waves:     410
 k-point  96 :  -0.3500 0.4500 0.2500  plane waves:     409
 k-point  97 :  -0.2500 0.4500 0.2500  plane waves:     405
 k-point  98 :  -0.4500-0.4500 0.2500  plane waves:     413
 k-point  99 :  -0.3500-0.4500 0.2500  plane waves:     411
 k-point 100 :  -0.3500-0.3500 0.2500  plane waves:     412
 k-point 101 :   0.3500 0.3500 0.3500  plane waves:     407
 k-point 102 :   0.4500 0.3500 0.3500  plane waves:     408
 k-point 103 :  -0.4500 0.3500 0.3500  plane waves:     410
 k-point 104 :  -0.3500 0.3500 0.3500  plane waves:     403
 k-point 105 :   0.4500 0.4500 0.3500  plane waves:     412
 k-point 106 :  -0.4500 0.4500 0.3500  plane waves:     413
 k-point 107 :  -0.3500 0.4500 0.3500  plane waves:     409
 k-point 108 :  -0.4500-0.4500 0.3500  plane waves:     407
 k-point 109 :   0.4500 0.4500 0.4500  plane waves:     413
 k-point 110 :  -0.4500 0.4500 0.4500  plane waves:     408

 maximum and minimum number of plane-waves per node :       419      397

 maximum number of plane-waves:       419
 maximum index in each direction: 
   IXMAX=    5   IYMAX=    5   IZMAX=    5
   IXMIN=   -5   IYMIN=   -5   IZMIN=   -5


 serial   3D FFT for wavefunctions
 parallel 3D FFT for charge:
    minimum data exchange during FFTs selected (reduces bandwidth)


 total amount of memory used by VASP MPI-rank0    38676. kBytes
=======================================================================

   base      :      30000. kBytes
   nonl-proj :       6849. kBytes
   fftplans  :        221. kBytes
   grid      :        789. kBytes
   one-center:         15. kBytes
   wavefun   :        802. kBytes
 
     INWAV:  cpu time      0.0000: real time      0.0004
 Broyden mixing: mesh for mixing (old mesh)
   NGX = 11   NGY = 11   NGZ = 11
  (NGX  = 48   NGY  = 48   NGZ  = 48)
  gives a total of   1331 points

 initial charge density was supplied:
 charge density of overlapping atoms calculated
 number of electron      16.0000000 magnetization 
 keeping initial charge density in first step


--------------------------------------------------------------------------------------------------------


 Maximum index for augmentation-charges          859 (set IRDMAX)


--------------------------------------------------------------------------------------------------------


 First call to EWALD:  gamma=   0.646
 Maximum number of real-space cells 3x 3x 3
 Maximum number of reciprocal cells 3x 3x 3

    FEWALD:  cpu time      0.0014: real time      0.0014


--------------------------------------- Iteration      1(   1)  ---------------------------------------


    POTLOK:  cpu time      0.0040: real time      0.0041
    SETDIJ:  cpu time      0.0023: real time      0.0023
     EDDAV:  cpu time      0.4968: real time      0.4998
       DOS:  cpu time      0.0009: real time      0.0009
    --------------------------------------------
      LOOP:  cpu time      0.5040: real time      0.5071

 eigenvalue-minimisations  :  5688
 total energy-change (2. order) : 0.2298365E+02  (-0.1135223E+04)
 number of electron      16.0000000 magnetization 
 augmentation part       16.0000000 magnetization 

 Free energy of the ion-electron system (eV)
  ---------------------------------------------------
  alpha Z        PSCENC =       116.31671785
  Ewald energy   TEWEN  =     -1941.14091128
  -Hartree energ DENC   =      -499.70043116
  -exchange      EXHF   =         0.00000000
  -V(xc)+E(xc)   XCENC  =        62.57928138
  PAW double counting   =      2065.75261637    -2030.83594803
  entropy T*S    EENTRO =        -0.00118337
  eigenvalues    EBANDS =      -178.18150441
  atomic energy  EATOM  =      2428.19501064
  Solvation  Ediel_sol  =         0.00000000
  ---------------------------------------------------
  free energy    TOTEN  =        22.98364800 eV

  energy without entropy =       22.98483137  energy(sigma->0) =       22.98423969


--------------------------------------------------------------------------------------------------------




--------------------------------------- Iteration      1(   2)  ---------------------------------------


     EDDAV:  cpu time      0.7908: real time      0.7956
       DOS:  cpu time      0.0005: real time      0.0005
    --------------------------------------------
      LOOP:  cpu time      0.7913: real time      0.7961

 eigenvalue-minimisations  :  7632
 total energy-change (2. order) :-0.2869194E+02  (-0.2838070E+02)
 number of electron      16.0000000 magnetization 
 augmentation part       16.0000000 magnetization 

 Free energy of the ion-electron system (eV)
  ---------------------------------------------------
  alpha Z        PSCENC =       116.31671785
  Ewald energy   TEWEN  =     -1941.14091128
  -Hartree energ DENC   =      -499.70043116
  -exchange      EXHF   =         0.00000000
  -V(xc)+E(xc)   XCENC  =        62.57928138
  PAW double counting   =      2065.75261637    -2030.83594803
  entropy T*S    EENTRO =        -0.00367095
  eigenvalues    EBANDS =      -206.87095250
  atomic energy  EATOM  =      2428.19501064
  Solvation  Ediel_sol  =         0.00000000
  ---------------------------------------------------
  free energy    TOTEN  =        -5.70828766 eV

  energy without entropy =       -5.70461672  energy(sigma->0) =       -5.70645219


--------------------------------------------------------------------------------------------------------




--------------------------------------- Iteration      1(   3)  ---------------------------------------


     EDDAV:  cpu time      0.6367: real time      0.6402
       DOS:  cpu time      0.0005: real time      0.0005
    --------------------------------------------
      LOOP:  cpu time      0.6372: real time      0.6407

 eigenvalue-minimisations  :  6432
 total energy-change (2. order) :-0.4043951E-01  (-0.4043707E-01)
 number of electron      16.0000000 magnetization 
 augmentation part       16.0000000 magnetization 

 Free energy of the ion-electron system (eV)
  ---------------------------------------------------
  alpha Z        PSCENC =       116.31671785
  Ewald energy   TEWEN  =     -1941.14091128
  -Hartree energ DENC   =      -499.70043116
  -exchange      EXHF   =         0.00000000
  -V(xc)+E(xc)   XCENC  =        62.57928138
  PAW double counting   =      2065.75261637    -2030.83594803
  entropy T*S    EENTRO =        -0.00369856
  eigenvalues    EBANDS =      -206.91136440
  atomic energy  EATOM  =      2428.19501064
  Solvation  Ediel_sol  =         0.00000000
  ---------------------------------------------------
  free energy    TOTEN  =        -5.74872717 eV

  energy without entropy =       -5.74502862  energy(sigma->0) =       -5.74687789


--------------------------------------------------------------------------------------------------------




--------------------------------------- Iteration      1(   4)  ---------------------------------------


     EDDAV:  cpu time      1.0554: real time      1.0612
       DOS:  cpu time      0.0005: real time      0.0005
    --------------------------------------------
      LOOP:  cpu time      1.0558: real time      1.0616

 eigenvalue-minimisations  :  8904
 total energy-change (2. order) :-0.4257704E-04  (-0.4257769E-04)
 number of electron      16.0000000 magnetization 
 augmentation part       16.0000000 magnetization 

 Free energy of the ion-electron system (eV)
  ---------------------------------------------------
  alpha Z        PSCENC =       116.31671785
  Ewald energy   TEWEN  =     -1941.14091128
  -Hartree energ DENC   =      -499.70043116
  -exchange      EXHF   =         0.00000000
  -V(xc)+E(xc)   XCENC  =        62.57928138
  PAW double counting   =      2065.75261637    -2030.83594803
  entropy T*S    EENTRO =        -0.00369857
  eigenvalues    EBANDS =      -206.91140696
  atomic energy  EATOM  =      2428.19501064
  Solvation  Ediel_sol  =         0.00000000
  ---------------------------------------------------
  free energy    TOTEN  =        -5.74876975 eV

  energy without entropy =       -5.74507118  energy(sigma->0) =       -5.74692046


--------------------------------------------------------------------------------------------------------




--------------------------------------- Iteration      1(   5)  ---------------------------------------


     EDDAV:  cpu time      0.6188: real time      0.6222
       DOS:  cpu time      0.0005: real time      0.0005
    CHARGE:  cpu time      0.0275: real time      0.0276
    MIXING:  cpu time      0.0004: real time      0.0004
    --------------------------------------------
      LOOP:  cpu time      0.6471: real time      0.6506

 eigenvalue-minimisations  :  6312
 total energy-change (2. order) :-0.2330580E-08  (-0.1878531E-08)
 number of electron      16.0000000 magnetization 
 augmentation part        3.9739101 magnetization 

 Broyden mixing:
  rms(total) = 0.73947E+00    rms(broyden)= 0.73941E+00
  rms(prec ) = 0.15108E+01
  weight for this iteration     100.00

 Free energy of the ion-electron system (eV)
  ---------------------------------------------------
  alpha Z        PSCENC =       116.31671785
  Ewald energy   TEWEN  =     -1941.14091128
  -Hartree energ DENC   =      -499.70043116
  -exchange      EXHF   =         0.00000000
  -V(xc)+E(xc)   XCENC  =        62.57928138
  PAW double counting   =      2065.75261637    -2030.83594803
  entropy T*S    EENTRO =        -0.00369857
  eigenvalues    EBANDS =      -206.91140696
  atomic energy  EATOM  =      2428.19501064
  Solvation  Ediel_sol  =         0.00000000
  ---------------------------------------------------
  free energy    TOTEN  =        -5.74876975 eV

  energy without entropy =       -5.74507118  energy(sigma->0) =       -5.74692047


--------------------------------------------------------------------------------------------------------




--------------------------------------- Iteration      1(   6)  ---------------------------------------


    POTLOK:  cpu time      0.0034: real time      0.0036
    SETDIJ:  cpu time      0.0022: real time      0.0022
     EDDAV:  cpu time      0.6021: real time      0.6055
       DOS:  cpu time      0.0005: real time      0.0005
    CHARGE:  cpu time      0.0264: real time      0.0264
    MIXING:  cpu time      0.0003: real time      0.0003
    --------------------------------------------
      LOOP:  cpu time      0.6349: real time      0.6386

 eigenvalue-minimisations  :  6240
 total energy-change (2. order) : 0.3298396E+00  (-0.1787434E+00)
 number of electron      16.0000000 magnetization 
 augmentation part        4.1167215 magnetization 

 Broyden mixing:
  rms(total) = 0.12527E+00    rms(broyden)= 0.12527E+00
  rms(prec ) = 0.24678E+00
  weight for this iteration     100.00

 eigenvalues of (default mixing * dielectric matrix)
  average eigenvalue GAMMA=   1.0754
  1.0754

 Free energy of the ion-electron system (eV)
  ---------------------------------------------------
  alpha Z        PSCENC =       116.31671785
  Ewald energy   TEWEN  =     -1941.14091128
  -Hartree energ DENC   =      -482.26092777
  -exchange      EXHF   =         0.00000000
  -V(xc)+E(xc)   XCENC  =        61.85398886
  PAW double counting   =      2105.40842349    -2072.15417115
  entropy T*S    EENTRO =        -0.00391873
  eigenvalues    EBANDS =      -221.63314210
  atomic energy  EATOM  =      2428.19501064
  Solvation  Ediel_sol  =         0.00000000
  ---------------------------------------------------
  free energy    TOTEN  =        -5.41893019 eV

  energy without entropy =       -5.41501146  energy(sigma->0) =       -5.41697082


--------------------------------------------------------------------------------------------------------




--------------------------------------- Iteration      1(   7)  ---------------------------------------


    POTLOK:  cpu time      0.0031: real time      0.0033
    SETDIJ:  cpu time      0.0018: real time      0.0018
     EDDAV:  cpu time      0.9741: real time      0.9792
       DOS:  cpu time      0.0005: real time      0.0005
    CHARGE:  cpu time      0.0261: real time      0.0262
    MIXING:  cpu time      0.0004: real time      0.0004
    --------------------------------------------
      LOOP:  cpu time      1.0061: real time      1.0114

 eigenvalue-minimisations  :  8424
 total energy-change (2. order) : 0.3729683E-02  (-0.8507634E-03)
 number of electron      16.0000000 magnetization 
 augmentation part        4.1231235 magnetization 

 Broyden mixing:
  rms(total) = 0.68819E-01    rms(broyden)= 0.68818E-01
  rms(prec ) = 0.13179E+00
  weight for this iteration     100.00

 eigenvalues of (default mixing * dielectric matrix)
  average eigenvalue GAMMA=   1.7783
  1.0385  2.5181

 Free energy of the ion-electron system (eV)
  ---------------------------------------------------
  alpha Z        PSCENC =       116.31671785
  Ewald energy   TEWEN  =     -1941.14091128
  -Hartree energ DENC   =      -481.08168148
  -exchange      EXHF   =         0.00000000
  -V(xc)+E(xc)   XCENC  =        61.79407802
  PAW double counting   =      2094.41982697    -2061.10134159
  entropy T*S    EENTRO =        -0.00393972
  eigenvalues    EBANDS =      -222.81295992
  atomic energy  EATOM  =      2428.19501064
  Solvation  Ediel_sol  =         0.00000000
  ---------------------------------------------------
  free energy    TOTEN  =        -5.41520051 eV

  energy without entropy =       -5.41126079  energy(sigma->0) =       -5.41323065


--------------------------------------------------------------------------------------------------------




--------------------------------------- Iteration      1(   8)  ---------------------------------------


    POTLOK:  cpu time      0.0031: real time      0.0032
    SETDIJ:  cpu time      0.0019: real time      0.0019
     EDDAV:  cpu time      0.7322: real time      0.7361
       DOS:  cpu time      0.0005: real time      0.0005
    CHARGE:  cpu time      0.0263: real time      0.0264
    MIXING:  cpu time      0.0003: real time      0.0003
    --------------------------------------------
      LOOP:  cpu time      0.7643: real time      0.7685

 eigenvalue-minimisations  :  7128
 total energy-change (2. order) : 0.5276505E-03  (-0.4222606E-03)
 number of electron      16.0000000 magnetization 
 augmentation part        4.1219050 magnetization 

 Broyden mixing:
  rms(total) = 0.32275E-02    rms(broyden)= 0.32157E-02
  rms(prec ) = 0.68323E-02
  weight for this iteration     100.00

 eigenvalues of (default mixing * dielectric matrix)
  average eigenvalue GAMMA=   1.6087
  2.3838  1.0383  1.4040

 Free energy of the ion-electron system (eV)
  ---------------------------------------------------
  alpha Z        PSCENC =       116.31671785
  Ewald energy   TEWEN  =     -1941.14091128
  -Hartree energ DENC   =      -480.73484004
  -exchange      EXHF   =         0.00000000
  -V(xc)+E(xc)   XCENC  =        61.76550839
  PAW double counting   =      2079.44571533    -2045.88598974
  entropy T*S    EENTRO =        -0.00399228
  eigenvalues    EBANDS =      -223.37189172
  atomic energy  EATOM  =      2428.19501064
  Solvation  Ediel_sol  =         0.00000000
  ---------------------------------------------------
  free energy    TOTEN  =        -5.41467285 eV

  energy without entropy =       -5.41068057  energy(sigma->0) =       -5.41267671


--------------------------------------------------------------------------------------------------------




--------------------------------------- Iteration      1(   9)  ---------------------------------------


    POTLOK:  cpu time      0.0030: real time      0.0031
    SETDIJ:  cpu time      0.0018: real time      0.0018
     EDDAV:  cpu time      0.7622: real time      0.7662
       DOS:  cpu time      0.0005: real time      0.0005
    CHARGE:  cpu time      0.0265: real time      0.0265
    MIXING:  cpu time      0.0005: real time      0.0005
    --------------------------------------------
      LOOP:  cpu time      0.7945: real time      0.7988

 eigenvalue-minimisations  :  7296
 total energy-change (2. order) :-0.1753148E-04  (-0.2398026E-05)
 number of electron      16.0000000 magnetization 
 augmentation part        4.1217366 magnetization 

 Broyden mixing:
  rms(total) = 0.16027E-02    rms(broyden)= 0.16018E-02
  rms(prec ) = 0.32483E-02
  weight for this iteration     100.00

 eigenvalues of (default mixing * dielectric matrix)
  average eigenvalue GAMMA=   1.8154
  1.0235  1.0877  2.8250  2.3252

 Free energy of the ion-electron system (eV)
  ---------------------------------------------------
  alpha Z        PSCENC =       116.31671785
  Ewald energy   TEWEN  =     -1941.14091128
  -Hartree energ DENC   =      -480.79012020
  -exchange      EXHF   =         0.00000000
  -V(xc)+E(xc)   XCENC  =        61.76791852
  PAW double counting   =      2081.07725505    -2047.49298976
  entropy T*S    EENTRO =        -0.00398967
  eigenvalues    EBANDS =      -223.34358154
  atomic energy  EATOM  =      2428.19501064
  Solvation  Ediel_sol  =         0.00000000
  ---------------------------------------------------
  free energy    TOTEN  =        -5.41469039 eV

  energy without entropy =       -5.41070071  energy(sigma->0) =       -5.41269555


--------------------------------------------------------------------------------------------------------




--------------------------------------- Iteration      1(  10)  ---------------------------------------


    POTLOK:  cpu time      0.0030: real time      0.0032
    SETDIJ:  cpu time      0.0020: real time      0.0020
     EDDAV:  cpu time      0.7523: real time      0.7563
       DOS:  cpu time      0.0005: real time      0.0005
    CHARGE:  cpu time      0.0265: real time      0.0266
    MIXING:  cpu time      0.0003: real time      0.0003
    --------------------------------------------
      LOOP:  cpu time      0.7846: real time      0.7890

 eigenvalue-minimisations  :  7224
 total energy-change (2. order) :-0.1018983E-04  (-0.1038296E-05)
 number of electron      16.0000000 magnetization 
 augmentation part        4.1218554 magnetization 

 Broyden mixing:
  rms(total) = 0.45215E-03    rms(broyden)= 0.45202E-03
  rms(prec ) = 0.48508E-03
  weight for this iteration     100.00

 eigenvalues of (default mixing * dielectric matrix)
  average eigenvalue GAMMA=   1.8639
  1.0020  1.0701  2.5510  2.5510  2.1452

 Free energy of the ion-electron system (eV)
  ---------------------------------------------------
  alpha Z        PSCENC =       116.31671785
  Ewald energy   TEWEN  =     -1941.14091128
  -Hartree energ DENC   =      -480.79951553
  -exchange      EXHF   =         0.00000000
  -V(xc)+E(xc)   XCENC  =        61.76819964
  PAW double counting   =      2082.30289327    -2048.69399957
  entropy T*S    EENTRO =        -0.00398929
  eigenvalues    EBANDS =      -223.35910632
  atomic energy  EATOM  =      2428.19501064
  Solvation  Ediel_sol  =         0.00000000
  ---------------------------------------------------
  free energy    TOTEN  =        -5.41470058 eV

  energy without entropy =       -5.41071129  energy(sigma->0) =       -5.41270593


--------------------------------------------------------------------------------------------------------




--------------------------------------- Iteration      1(  11)  ---------------------------------------


    POTLOK:  cpu time      0.0029: real time      0.0032
    SETDIJ:  cpu time      0.0018: real time      0.0018
     EDDAV:  cpu time      0.6799: real time      0.6836
       DOS:  cpu time      0.0005: real time      0.0005
    --------------------------------------------
      LOOP:  cpu time      0.6851: real time      0.6890

 eigenvalue-minimisations  :  6312
 total energy-change (2. order) : 0.8028928E-07  (-0.4035238E-08)
 number of electron      16.0000000 magnetization 
 augmentation part        4.1218554 magnetization 

 Free energy of the ion-electron system (eV)
  ---------------------------------------------------
  alpha Z        PSCENC =       116.31671785
  Ewald energy   TEWEN  =     -1941.14091128
  -Hartree energ DENC   =      -480.79950109
  -exchange      EXHF   =         0.00000000
  -V(xc)+E(xc)   XCENC  =        61.76820932
  PAW double counting   =      2082.08823483    -2048.48124900
  entropy T*S    EENTRO =        -0.00398917
  eigenvalues    EBANDS =      -223.35722259
  atomic energy  EATOM  =      2428.19501064
  Solvation  Ediel_sol  =         0.00000000
  ---------------------------------------------------
  free energy    TOTEN  =        -5.41470050 eV

  energy without entropy =       -5.41071132  energy(sigma->0) =       -5.41270591


--------------------------------------------------------------------------------------------------------




 average (electrostatic) potential at core
  the test charge radii are     0.9952
  (the norm of the test charge is              1.0000)
       1 -93.0601
 
 
 
 E-fermi :   6.8043     XC(G=0): -12.0539     alpha+bet :-12.7174

 Fermi energy:         6.8043120045

 k-point     1 :       0.0500    0.0500    0.0500
  band No.  band energies     occupation 
      1     -44.8698      2.00000
      2     -44.8670      2.00000
      3     -44.8670      2.00000
      4      -0.3102      2.00000
      5       4.5185      2.00000
      6       4.5685      2.00000
      7       4.5685      2.00000
      8       5.8160      2.00000
      9       5.8160      2.00000
     10      21.8177      0.00000
     11      24.4338      0.00000
     12      25.0686      0.00000
     13      25.0686      0.00000
     14      29.7698      0.00000
     15      31.7943      0.00000
     16      32.3035      0.00000
     17      32.3035      0.00000
     18      34.0758      0.00000
     19      34.0758      0.00000
     20      34.7997      0.00000
     21      40.9103      0.00000
     22      40.9103      0.00000
     23      43.9103      0.00000
     24      48.6002      0.00000

 k-point     2 :       0.1500    0.0500    0.0500
  band No.  band energies     occupation 
      1     -44.8857      2.00000
      2     -44.8718      2.00000
      3     -44.8684      2.00000
      4       0.0827      2.00000
      5       4.3899      2.00000
      6       4.6826      2.00000
      7       4.7072      2.00000
      8       5.6957      2.00000
      9       5.8564      2.00000
     10      22.0414      0.00000
     11      22.7642      0.00000
     12      24.7255      0.00000
     13      25.8605      0.00000
     14      28.7808      0.00000
     15      30.9212      0.00000
     16      31.5064      0.00000
     17      32.4115      0.00000
     18      33.1117      0.00000
     19      35.3222      0.00000
     20      37.0046      0.00000
     21      40.4012      0.00000
     22      42.0695      0.00000
     23      46.0588      0.00000
     24      48.6065      0.00000

 k-point     3 :       0.2500    0.0500    0.0500
  band No.  band energies     occupation 
      1     -44.9214      2.00000
      2     -44.8785      2.00000
      3     -44.8730      2.00000
      4       0.9578      2.00000
      5       4.2706      2.00000
      6       4.8080      2.00000
      7       4.8291      2.00000
      8       5.7020      2.00000
      9       6.0262      2.00000
     10      19.2123      0.00000
     11      22.6148      0.00000
     12      24.8024      0.00000
     13      26.8767      0.00000
     14      27.0236      0.00000
     15      29.0034      0.00000
     16      30.0560      0.00000
     17      33.7307      0.00000
     18      34.8587      0.00000
     19      36.6801      0.00000
     20      38.2839      0.00000
     21      41.2309      0.00000
     22      43.1163      0.00000
     23      48.6078      0.00000
     24      49.2635      0.00000

 k-point     4 :       0.3500    0.0500    0.0500
  band No.  band energies     occupation 
      1     -44.9639      2.00000
      2     -44.8854      2.00000
      3     -44.8797      2.00000
      4       1.8571      2.00000
      5       4.6326      2.00000
      6       4.7413      2.00000
      7       4.7605      2.00000
      8       6.0939      2.00000
      9       6.4756      2.00000
     10      15.6063      0.00000
     11      22.0820      0.00000
     12      23.8837      0.00000
     13      25.7030      0.00000
     14      28.0776      0.00000
     15      29.1329      0.00000
     16      30.1300      0.00000
     17      34.4903      0.00000
     18      35.7351      0.00000
     19      37.9482      0.00000
     20      40.9128      0.00000
     21      42.6064      0.00000
     22      44.0693      0.00000
     23      48.3128      0.00000
     24      48.3410      0.00000

 k-point     5 :       0.4500    0.0500    0.0500
  band No.  band energies     occupation 
      1     -44.9951      2.00000
      2     -44.8899      2.00000
      3     -44.8861      2.00000
      4       2.1902      2.00000
      5       4.5474      2.00000
      6       4.6061      2.00000
      7       5.9800      2.00000
      8       6.5767      2.00000
      9       7.1412      0.00000
     10      12.2469      0.00000
     11      21.4626      0.00000
     12      23.0543      0.00000
     13      23.9874      0.00000
     14      29.7291      0.00000
     15      30.0645      0.00000
     16      30.9394      0.00000
     17      35.5988      0.00000
     18      36.3210      0.00000
     19      38.0660      0.00000
     20      42.5551      0.00000
     21      45.0194      0.00000
     22      45.0203      0.00000
     23      45.7425      0.00000
     24      46.9375      0.00000

 k-point     6 :      -0.4500    0.0500    0.0500
  band No.  band energies     occupation 
      1     -45.0028      2.00000
      2     -44.8895      2.00000
      3     -44.8887      2.00000
      4       2.2245      2.00000
      5       4.4944      2.00000
      6       4.5739      2.00000
      7       6.3862      2.00000
      8       6.8063      0.95426
      9       7.8807      0.00000
     10      10.7255      0.00000
     11      21.2943      0.00000
     12      23.0873      0.00000
     13      23.2006      0.00000
     14      30.2511      0.00000
     15      30.3379      0.00000
     16      31.3410      0.00000
     17      35.9998      0.00000
     18      36.7218      0.00000
     19      37.8575      0.00000
     20      43.6053      0.00000
     21      44.1196      0.00000
     22      44.3263      0.00000
     23      45.7474      0.00000
     24      46.1527      0.00000

 k-point     7 :      -0.3500    0.0500    0.0500
  band No.  band energies     occupation 
      1     -44.9869      2.00000
      2     -44.8873      2.00000
      3     -44.8861      2.00000
      4       2.1346      2.00000
      5       4.5732      2.00000
      6       4.6620      2.00000
      7       5.4866      2.00000
      8       6.6429      2.00000
      9       6.7029      1.99586
     10      13.2931      0.00000
     11      21.6672      0.00000
     12      23.4631      0.00000
     13      24.1393      0.00000
     14      29.7006      0.00000
     15      29.7982      0.00000
     16      30.3133      0.00000
     17      34.6642      0.00000
     18      37.0482      0.00000
     19      37.7919      0.00000
     20      42.3455      0.00000
     21      43.9488      0.00000
     22      45.0218      0.00000
     23      46.0798      0.00000
     24      47.8063      0.00000

 k-point     8 :      -0.2500    0.0500    0.0500
  band No.  band energies     occupation 
      1     -44.9506      2.00000
      2     -44.8819      2.00000
      3     -44.8793      2.00000
      4       1.6039      2.00000
      5       4.4243      2.00000
      6       4.7482      2.00000
      7       4.7992      2.00000
      8       6.0119      2.00000
      9       6.2381      2.00000
     10      16.8091      0.00000
     11      22.4087      0.00000
     12      24.3250      0.00000
     13      25.8361      0.00000
     14      27.8044      0.00000
     15      29.3152      0.00000
     16      29.4678      0.00000
     17      33.8549      0.00000
     18      36.7225      0.00000
     19      36.9144      0.00000
     20      40.1538      0.00000
     21      41.5006      0.00000
     22      44.0254      0.00000
     23      48.5767      0.00000
     24      48.6001      0.00000

 k-point     9 :      -0.1500    0.0500    0.0500
  band No.  band energies     occupation 
      1     -44.9077      2.00000
      2     -44.8751      2.00000
      3     -44.8720      2.00000
      4       0.6300      2.00000
      5       4.2747      2.00000
      6       4.8012      2.00000
      7       4.8114      2.00000
      8       5.6656      2.00000
      9       5.9292      2.00000
     10      20.3730      0.00000
     11      22.7123      0.00000
     12      24.8284      0.00000
     13      26.2650      0.00000
     14      27.5232      0.00000
     15      29.7689      0.00000
     16      30.1286      0.00000
     17      33.3195      0.00000
     18      34.6499      0.00000
     19      36.3165      0.00000
     20      37.6074      0.00000
     21      40.7207      0.00000
     22      42.8047      0.00000
     23      48.4839      0.00000
     24      48.6319      0.00000

 k-point    10 :      -0.0500    0.0500    0.0500
  band No.  band energies     occupation 
      1     -44.8765      2.00000
      2     -44.8694      2.00000
      3     -44.8687      2.00000
      4      -0.1109      2.00000
      5       4.4295      2.00000
      6       4.6460      2.00000
      7       4.6505      2.00000
      8       5.7149      2.00000
      9       5.8628      2.00000
     10      22.0118      0.00000
     11      23.6584      0.00000
     12      24.8278      0.00000
     13      25.1786      0.00000
     14      29.9570      0.00000
     15      31.1088      0.00000
     16      31.5960      0.00000
     17      32.0429      0.00000
     18      32.9685      0.00000
     19      35.6900      0.00000
     20      36.0102      0.00000
     21      40.3091      0.00000
     22      41.5846      0.00000
     23      45.1807      0.00000
     24      48.6073      0.00000

 k-point    11 :       0.1500    0.1500    0.0500
  band No.  band energies     occupation 
      1     -44.8887      2.00000
      2     -44.8743      2.00000
      3     -44.8733      2.00000
      4       0.2782      2.00000
      5       4.2516      2.00000
      6       4.8090      2.00000
      7       4.8119      2.00000
      8       5.5365      2.00000
      9       5.9526      2.00000
     10      22.2994      0.00000
     11      22.9162      0.00000
     12      24.2173      0.00000
     13      24.8402      0.00000
     14      28.7756      0.00000
     15      30.4385      0.00000
     16      30.7123      0.00000
     17      33.1004      0.00000
     18      33.1355      0.00000
     19      37.2752      0.00000
     20      37.4350      0.00000
     21      39.3599      0.00000
     22      41.9591      0.00000
     23      47.4660      0.00000
     24      48.6118      0.00000

 k-point    12 :       0.2500    0.1500    0.0500
  band No.  band energies     occupation 
      1     -44.9144      2.00000
      2     -44.8837      2.00000
      3     -44.8771      2.00000
      4       0.9986      2.00000
      5       4.0438      2.00000
      6       4.8953      2.00000
      7       5.0399      2.00000
      8       5.4813      2.00000
      9       6.1283      2.00000
     10      20.5854      0.00000
     11      22.2128      0.00000
     12      23.9543      0.00000
     13      25.0997      0.00000
     14      26.9321      0.00000
     15      29.7701      0.00000
     16      30.8274      0.00000
     17      33.0620      0.00000
     18      35.7812      0.00000
     19      37.2797      0.00000
     20      38.5445      0.00000
     21      39.9898      0.00000
     22      43.2748      0.00000
     23      48.6038      0.00000
     24      48.9297      0.00000

 k-point    13 :       0.3500    0.1500    0.0500
  band No.  band energies     occupation 
      1     -44.9514      2.00000
      2     -44.8922      2.00000
      3     -44.8834      2.00000
      4       1.9586      2.00000
      5       4.0701      2.00000
      6       4.6557      2.00000
      7       5.0536      2.00000
      8       6.0023      2.00000
      9       6.5774      2.00000
     10      17.0028      0.00000
     11      21.7209      0.00000
     12      23.0591      0.00000
     13      24.7195      0.00000
     14      27.9151      0.00000
     15      29.6304      0.00000
     16      31.2547      0.00000
     17      32.7379      0.00000
     18      37.2473      0.00000
     19      38.6080      0.00000
     20      39.8605      0.00000
     21      41.1466      0.00000
     22      45.1908      0.00000
     23      47.4062      0.00000
     24      48.6037      0.00000

[...]
     13      25.2199      0.00000
     14      29.3991      0.00000
     15      30.6208      0.00000
     16      34.3255      0.00000
     17      35.3141      0.00000
     18      38.4504      0.00000
     19      41.0649      0.00000
     20      41.7972      0.00000
     21      42.3906      0.00000
     22      46.3467      0.00000
     23      46.6961      0.00000
     24      48.1305      0.00000

 k-point   100 :      -0.3500   -0.3500    0.2500
  band No.  band energies     occupation 
      1     -44.9770      2.00000
      2     -44.9472      2.00000
      3     -44.9096      2.00000
      4       3.0453      2.00000
      5       3.5712      2.00000
      6       5.1744      2.00000
      7       6.0295      2.00000
      8       6.7100      1.99233
      9      11.2285      0.00000
     10      12.1853      0.00000
     11      14.9546      0.00000
     12      19.3541      0.00000
     13      23.8227      0.00000
     14      29.3362      0.00000
     15      31.8212      0.00000
     16      32.8520      0.00000
     17      37.4472      0.00000
     18      39.1632      0.00000
     19      39.3290      0.00000
     20      41.8701      0.00000
     21      42.2425      0.00000
     22      45.9080      0.00000
     23      46.3309      0.00000
     24      48.4976      0.00000

 k-point   101 :       0.3500    0.3500    0.3500
  band No.  band energies     occupation 
      1     -44.9768      2.00000
      2     -44.8830      2.00000
      3     -44.8830      2.00000
      4       1.9688      2.00000
      5       4.6590      2.00000
      6       4.6590      2.00000
      7       5.1990      2.00000
      8       6.3986      2.00000
      9       6.3986      2.00000
     10      14.3920      0.00000
     11      21.8523      0.00000
     12      24.5201      0.00000
     13      24.5201      0.00000
     14      29.1913      0.00000
     15      29.4129      0.00000
     16      29.4129      0.00000
     17      35.8680      0.00000
     18      35.8680      0.00000
     19      36.9831      0.00000
     20      43.0163      0.00000
     21      43.2926      0.00000
     22      43.2926      0.00000
     23      48.0401      0.00000
     24      48.0403      0.00000

 k-point   102 :       0.4500    0.3500    0.3500
  band No.  band energies     occupation 
      1     -44.9844      2.00000
      2     -44.8963      2.00000
      3     -44.8846      2.00000
      4       2.3169      2.00000
      5       4.5074      2.00000
      6       4.7523      2.00000
      7       5.1884      2.00000
      8       6.3092      2.00000
      9       7.3483      0.00000
     10      13.4194      0.00000
     11      21.1972      0.00000
     12      22.5308      0.00000
     13      24.5269      0.00000
     14      28.8439      0.00000
     15      30.1714      0.00000
     16      31.8977      0.00000
     17      34.5141      0.00000
     18      35.8220      0.00000
     19      39.3180      0.00000
     20      40.6832      0.00000
     21      45.0531      0.00000
     22      45.3291      0.00000
     23      46.1841      0.00000
     24      47.1203      0.00000

 k-point   103 :      -0.4500    0.3500    0.3500
  band No.  band energies     occupation 
      1     -44.9814      2.00000
      2     -44.9227      2.00000
      3     -44.8915      2.00000
      4       2.9697      2.00000
      5       4.1946      2.00000
      6       4.7816      2.00000
      7       5.1269      2.00000
      8       6.2880      2.00000
      9       8.6997      0.00000
     10      12.9870      0.00000
     11      18.2398      0.00000
     12      22.7828      0.00000
     13      23.0739      0.00000
     14      29.2596      0.00000
     15      30.9526      0.00000
     16      33.5980      0.00000
     17      35.2637      0.00000
     18      36.5925      0.00000
     19      38.0850      0.00000
     20      40.6155      0.00000
     21      43.8155      0.00000
     22      46.0694      0.00000
     23      47.1742      0.00000
     24      48.2062      0.00000

 k-point   104 :      -0.3500    0.3500    0.3500
  band No.  band energies     occupation 
      1     -44.9679      2.00000
      2     -44.9516      2.00000
      3     -44.9009      2.00000
      4       3.2945      2.00000
      5       4.0055      2.00000
      6       4.5965      2.00000
      7       5.6379      2.00000
      8       6.4036      2.00000
      9       9.9766      0.00000
     10      13.3700      0.00000
     11      15.1725      0.00000
     12      21.1037      0.00000
     13      23.3655      0.00000
     14      30.7247      0.00000
     15      31.3340      0.00000
     16      32.0348      0.00000
     17      36.8587      0.00000
     18      37.4611      0.00000
     19      39.0837      0.00000
     20      42.4229      0.00000
     21      42.4851      0.00000
     22      43.5751      0.00000
     23      48.2052      0.00000
     24      48.6049      0.00000

 k-point   105 :       0.4500    0.4500    0.3500
  band No.  band energies     occupation 
      1     -44.9926      2.00000
      2     -44.8932      2.00000
      3     -44.8911      2.00000
      4       2.3551      2.00000
      5       4.4375      2.00000
      6       4.7511      2.00000
      7       5.3874      2.00000
      8       6.7944      1.22130
      9       7.5799      0.00000
     10      12.3128      0.00000
     11      21.5420      0.00000
     12      22.5957      0.00000
     13      22.9807      0.00000
     14      30.2249      0.00000
     15      30.6009      0.00000
     16      31.4666      0.00000
     17      33.6176      0.00000
     18      37.9175      0.00000
     19      38.6222      0.00000
     20      41.4682      0.00000
     21      44.2141      0.00000
     22      44.8220      0.00000
     23      46.1440      0.00000
     24      47.7537      0.00000

 k-point   106 :      -0.4500    0.4500    0.3500
  band No.  band energies     occupation 
      1     -44.9901      2.00000
      2     -44.9125      2.00000
      3     -44.8950      2.00000
      4       2.7833      2.00000
      5       4.1862      2.00000
      6       4.9654      2.00000
      7       5.1075      2.00000
      8       6.6728      1.99980
      9       9.0357      0.00000
     10      11.6487      0.00000
     11      19.9488      0.00000
     12      20.9000      0.00000
     13      23.6338      0.00000
     14      29.6483      0.00000
     15      31.5956      0.00000
     16      33.0967      0.00000
     17      34.1126      0.00000
     18      37.1467      0.00000
     19      38.8678      0.00000
     20      40.9906      0.00000
     21      43.5383      0.00000
     22      46.1174      0.00000
     23      47.0972      0.00000
     24      48.0169      0.00000

 k-point   107 :      -0.3500    0.4500    0.3500
  band No.  band energies     occupation 
      1     -44.9784      2.00000
      2     -44.9375      2.00000
      3     -44.9035      2.00000
      4       3.3376      2.00000
      5       3.8858      2.00000
      6       4.5921      2.00000
      7       5.5048      2.00000
      8       6.6328      2.00000
      9      10.4488      0.00000
     10      11.8012      0.00000
     11      16.9880      0.00000
     12      19.6661      0.00000
     13      24.6068      0.00000
     14      29.5170      0.00000
     15      32.5054      0.00000
     16      32.8025      0.00000
     17      34.3891      0.00000
     18      37.3054      0.00000
     19      40.1372      0.00000
     20      41.8911      0.00000
     21      43.0487      0.00000
     22      44.7626      0.00000
     23      47.1863      0.00000
     24      48.5993      0.00000

 k-point   108 :      -0.4500   -0.4500    0.3500
  band No.  band energies     occupation 
      1     -44.9892      2.00000
      2     -44.9192      2.00000
      3     -44.8975      2.00000
      4       2.9049      2.00000
      5       4.1065      2.00000
      6       4.9632      2.00000
      7       5.1503      2.00000
      8       6.7515      1.86439
      9      10.1397      0.00000
     10      10.7613      0.00000
     11      18.8973      0.00000
     12      21.4932      0.00000
     13      22.7091      0.00000
     14      30.9778      0.00000
     15      30.9844      0.00000
     16      32.4794      0.00000
     17      35.1201      0.00000
     18      38.0644      0.00000
     19      38.0705      0.00000
     20      41.3251      0.00000
     21      43.1491      0.00000
     22      45.4628      0.00000
     23      47.9913      0.00000
     24      48.5999      0.00000

 k-point   109 :       0.4500    0.4500    0.4500
  band No.  band energies     occupation 
      1     -45.0014      2.00000
      2     -44.8876      2.00000
      3     -44.8876      2.00000
      4       2.1571      2.00000
      5       4.5452      2.00000
      6       4.5452      2.00000
      7       6.7514      1.86516
      8       6.7514      1.86516
      9       6.9774      0.00000
     10      11.3167      0.00000
     11      21.3102      0.00000
     12      23.5204      0.00000
     13      23.5204      0.00000
     14      30.1096      0.00000
     15      30.1096      0.00000
     16      30.8265      0.00000
     17      36.3957      0.00000
     18      36.3957      0.00000
     19      37.6847      0.00000
     20      44.2544      0.00000
     21      44.2836      0.00000
     22      44.2836      0.00000
     23      45.7975      0.00000
     24      45.7975      0.00000

 k-point   110 :      -0.4500    0.4500    0.4500
  band No.  band energies     occupation 
      1     -44.9998      2.00000
      2     -44.8973      2.00000
      3     -44.8899      2.00000
      4       2.3908      2.00000
      5       4.4016      2.00000
      6       4.6887      2.00000
      7       5.8779      2.00000
      8       6.7331      1.95602
      9       8.5971      0.00000
     10      10.7367      0.00000
     11      21.1580      0.00000
     12      22.2506      0.00000
     13      23.0458      0.00000
     14      30.3049      0.00000
     15      30.4554      0.00000
     16      32.2162      0.00000
     17      35.9063      0.00000
     18      36.5095      0.00000
     19      37.6881      0.00000
     20      42.8056      0.00000
     21      43.3294      0.00000
     22      45.2914      0.00000
     23      46.5835      0.00000
     24      46.8714      0.00000


--------------------------------------------------------------------------------------------------------


 soft charge-density along one line, spin component           1
         0         1         2         3         4         5         6         7         8         9
 total charge-density along one line
 
 pseudopotential strength for first ion, spin component:           1
-32.951  -0.000  -0.000  12.001   0.000   0.000   0.000   0.000
 -0.000 -32.951  -0.000   0.000  12.001   0.000   0.000  -0.000
 -0.000  -0.000 -32.951   0.000   0.000  12.001   0.000   0.000
 12.001   0.000   0.000  15.748  -0.000  -0.000   0.000   0.000
  0.000  12.001   0.000  -0.000  15.748  -0.000  -0.000   0.000
  0.000   0.000  12.001  -0.000  -0.000  15.748   0.000   0.000
  0.000   0.000   0.000   0.000  -0.000   0.000  -4.560   0.000
  0.000  -0.000   0.000   0.000   0.000   0.000   0.000  -4.560
  0.000   0.000   0.000   0.000  -0.000   0.000   0.000  -0.000
  0.000   0.000   0.000   0.000   0.000   0.000   0.000   0.000
  0.000  -0.000   0.000   0.000   0.000   0.000   0.000   0.000
 -0.000   0.000   0.000   0.000   0.000   0.000  -4.891   0.000
  0.000   0.000   0.000  -0.000   0.000  -0.000   0.000  -4.891
  0.000   0.000   0.000   0.000  -0.000  -0.000   0.000  -0.000
  0.000   0.000   0.000  -0.000   0.000   0.000   0.000   0.000
  0.000  -0.000  -0.000  -0.000   0.000   0.000   0.000   0.000
  0.000   0.000   0.000   0.000  -0.000   0.000   0.000   0.000
 -0.000   0.000   0.000  -0.000   0.000   0.000  -0.000  -0.000
 total augmentation occupancy for first ion, spin component:           1
  2.001  -0.000   0.000  -0.016   0.000   0.000   0.000   0.000   0.000   0.000   0.000   0.000   0.000   0.000   0.000   0.000
  0.000   2.001  -0.000   0.000  -0.016  -0.000   0.000   0.000   0.000   0.000   0.000   0.000   0.000   0.000   0.000   0.000
 -0.000   0.000   2.001  -0.000  -0.000  -0.016   0.000   0.000   0.000   0.000   0.000   0.000   0.000   0.000   0.000   0.000
 -0.016   0.000   0.000   0.026   0.000  -0.000   0.000   0.000   0.000   0.000   0.000   0.000   0.000   0.000   0.000   0.000
  0.000  -0.016  -0.000   0.000   0.026  -0.000   0.000   0.000   0.000   0.000   0.000   0.000   0.000   0.000   0.000   0.000
  0.000   0.000  -0.016  -0.000  -0.000   0.026   0.000   0.000   0.000   0.000   0.000   0.000   0.000   0.000   0.000   0.000
  0.000   0.000   0.000   0.000   0.000   0.000   2.854   0.000  -0.000  -0.000   0.000  -1.058  -0.000   0.000   0.000   0.000
  0.000   0.000   0.000   0.000   0.000   0.000   0.000   2.854  -0.000   0.000  -0.000  -0.000  -1.058  -0.000   0.000   0.000
  0.000   0.000   0.000   0.000   0.000   0.000   0.000  -0.000   2.391  -0.000   0.000  -0.000   0.000  -0.737   0.000  -0.000
  0.000   0.000   0.000   0.000   0.000   0.000   0.000  -0.000  -0.000   2.854  -0.000   0.000  -0.000  -0.000  -1.058  -0.000
  0.000   0.000   0.000   0.000   0.000   0.000  -0.000  -0.000   0.000  -0.000   2.391  -0.000   0.000  -0.000   0.000  -0.737
  0.000   0.000   0.000   0.000   0.000   0.000  -1.058  -0.000   0.000   0.000  -0.000   0.935  -0.000   0.000   0.000   0.000
  0.000   0.000   0.000   0.000   0.000   0.000  -0.000  -1.058  -0.000  -0.000   0.000   0.000   0.935   0.000  -0.000   0.000
  0.000   0.000   0.000   0.000   0.000   0.000   0.000  -0.000  -0.737   0.000  -0.000   0.000  -0.000   0.894   0.000   0.000
  0.000   0.000   0.000   0.000   0.000   0.000   0.000   0.000   0.000  -1.058   0.000   0.000   0.000   0.000   0.935   0.000
  0.000   0.000   0.000   0.000   0.000   0.000   0.000   0.000  -0.000  -0.000  -0.737  -0.000   0.000   0.000   0.000   0.894
  0.000   0.000   0.000   0.000   0.000   0.000   0.000   0.000  -0.000   0.000   0.000  -0.000   0.000   0.000   0.000   0.000
  0.000   0.000   0.000   0.000   0.000   0.000   0.000   0.000  -0.000  -0.000  -0.000   0.000  -0.000   0.000   0.000   0.000


------------------------ aborting loop because EDIFF is reached ----------------------------------------





 total charge

# of ion       s       p       d       tot
------------------------------------------
    1        0.282   6.019   7.067  13.367
 
    CHARGE:  cpu time      0.0259: real time      0.0260
    FORLOC:  cpu time      0.0002: real time      0.0002
    FORNL :  cpu time      0.0080: real time      0.0080
    STRESS:  cpu time      0.1553: real time      0.1560
    FORCOR:  cpu time      0.0026: real time      0.0026
    FORHAR:  cpu time      0.0005: real time      0.0005
    MIXING:  cpu time      0.0002: real time      0.0002
    OFIELD:  cpu time      0.0000: real time      0.0000

  FORCE on cell =-STRESS in cart. coord.  units (eV):
  Direction    XX          YY          ZZ          XY          YZ          ZX
  --------------------------------------------------------------------------------------
  Alpha Z   116.31672   116.31672   116.31672
  Ewald    -647.04699  -647.04699  -647.04699    -0.00000     0.00000     0.00000
  Hartree   160.26610   160.26610   160.26610     0.00000     0.00000     0.00000
  E(xc)     -84.65157   -84.65157   -84.65157     0.00000     0.00000     0.00000
  Local      65.32567    65.32567    65.32567     0.00002     0.00002     0.00002
  n-local   -35.06786   -33.24150   -37.98091     3.01285    -2.81121     0.13144
  augment    73.29550    73.29550    73.29550    -0.00001    -0.00001    -0.00001
  Kinetic   347.18804   351.02292   344.61649     3.52175    -2.68765    -0.37389
  Fock        0.00000     0.00000     0.00000     0.00000     0.00000     0.00000
  -------------------------------------------------------------------------------------
  Total      -4.31551    -4.31551    -4.31551    -0.00000     0.00000    -0.00000
  in kB    -335.19429  -335.19429  -335.19429    -0.00000     0.00000    -0.00000
  external pressure =     -335.19 kB  Pullay stress =        0.00 kB


 VOLUME and BASIS-vectors are now :
 -----------------------------------------------------------------------------
  energy-cutoff  :      425.00
  volume of cell :       20.63
      direct lattice vectors                 reciprocal lattice vectors
     0.000000000  2.176733492  2.176733492    -0.229701983  0.229701983  0.229701983
     2.176733492  0.000000000  2.176733492     0.229701983 -0.229701983  0.229701983
     2.176733492  2.176733492  0.000000000     0.229701983  0.229701983 -0.229701983

  length of vectors
     3.078366027  3.078366027  3.078366027     0.397855505  0.397855505  0.397855505


 FORCES acting on ions
    electron-ion (+dipol)            ewald-force                    non-local-force                 convergence-correction
 -----------------------------------------------------------------------------------------------
   -.434E-14 -.466E-14 -.447E-16   -.732E-15 0.221E-14 0.542E-15   0.517E-25 0.103E-24 -.129E-24   0.103E-13 -.964E-14 0.354E-14
 -----------------------------------------------------------------------------------------------
   -.434E-14 -.466E-14 -.447E-16   -.732E-15 0.221E-14 0.542E-15   0.517E-25 0.103E-24 -.129E-24   0.103E-13 -.964E-14 0.354E-14
 
 
 POSITION                                       TOTAL-FORCE (eV/Angst)
 -----------------------------------------------------------------------------------
      0.00000      0.00000      0.00000         0.000000     -0.000000     -0.000000
 -----------------------------------------------------------------------------------
    total drift:                                0.000000     -0.000000      0.000000


--------------------------------------------------------------------------------------------------------



  FREE ENERGIE OF THE ION-ELECTRON SYSTEM (eV)
  ---------------------------------------------------
  free  energy   TOTEN  =        -5.41470050 eV

  energy  without entropy=       -5.41071132  energy(sigma->0) =       -5.41270591
 


--------------------------------------------------------------------------------------------------------


    POTLOK:  cpu time      0.0050: real time      0.0050


--------------------------------------------------------------------------------------------------------




--------------------------------------------------------------------------------------------------------


  
 reached required accuracy - stopping structural energy minimisation
 writing wavefunctions
     LOOP+:  cpu time      8.6424: real time      8.7482
    4ORBIT:  cpu time      0.0000: real time      0.0000



 total charge

# of ion       s       p       d       tot
------------------------------------------
    1        0.282   6.019   7.067  13.367
 

 total amount of memory used by VASP MPI-rank0    38676. kBytes
=======================================================================

   base      :      30000. kBytes
   nonl-proj :       6849. kBytes
   fftplans  :        221. kBytes
   grid      :        789. kBytes
   one-center:         15. kBytes
   wavefun   :        802. kBytes
 
  
  
 General timing and accounting informations for this job:
 ========================================================
  
                  Total CPU time used (sec):        9.855
                            User time (sec):        9.335
                          System time (sec):        0.520
                         Elapsed time (sec):       11.317
  
                   Maximum memory used (kb):      232440.
                   Average memory used (kb):          N/A
  
                          Minor page faults:        27970
                          Major page faults:           83
                 Voluntary context switches:         2707
