PROCAR lm decomposed
# of k-points:  110         # of bands:   24         # of ions:    1

 k-point     1 :    0.05000000 0.05000000 0.05000000     weight = 0.00200000

band     1 # energy  -44.86982797 # occ.  2.00000000
 
ion      s     py     pz     px    dxy    dyz    dz2    dxz  x2-y2    tot
    1  0.000  0.331  0.331  0.331  0.000  0.000  0.000  0.000  0.000  0.993
 
band     2 # energy  -44.86696741 # occ.  2.00000000
 
ion      s     py     pz     px    dxy    dyz    dz2    dxz  x2-y2    tot
    1  0.000  0.258  0.504  0.232  0.000  0.000  0.000  0.000  0.000  0.994
 
band     3 # energy  -44.86696741 # occ.  2.00000000
 
ion      s     py     pz     px    dxy    dyz    dz2    dxz  x2-y2    tot
    1  0.000  0.404  0.159  0.431  0.000  0.000  0.000  0.000  0.000  0.994
 
band     4 # energy   -0.31022886 # occ.  2.00000000
 
ion      s     py     pz     px    dxy    dyz    dz2    dxz  x2-y2    tot
    1  0.310  0.000  0.000  0.000  0.000  0.000  0.000  0.000  0.000  0.311
 
band     5 # energy    4.51845448 # occ.  2.00000000
 
ion      s     py     pz     px    dxy    dyz    dz2    dxz  x2-y2    tot
    1  0.000  0.000  0.000  0.000  0.273  0.273  0.000  0.273  0.000  0.820
 
band     6 # energy    4.56850311 # occ.  2.00000000
 
ion      s     py     pz     px    dxy    dyz    dz2    dxz  x2-y2    tot
    1  0.000  0.000  0.000  0.000  0.000  0.408  0.000  0.415  0.000  0.824
 
band     7 # energy    4.56850311 # occ.  2.00000000
 
ion      s     py     pz     px    dxy    dyz    dz2    dxz  x2-y2    tot
    1  0.000  0.000  0.000  0.000  0.549  0.141  0.000  0.134  0.000  0.824
 
band     8 # energy    5.81597194 # occ.  2.00000000
 
ion      s     py     pz     px    dxy    dyz    dz2    dxz  x2-y2    tot
    1  0.000  0.000  0.000  0.000  0.000  0.000  0.000  0.000  0.884  0.885
 
band     9 # energy    5.81597194 # occ.  2.00000000
 
ion      s     py     pz     px    dxy    dyz    dz2    dxz  x2-y2    tot
    1  0.000  0.000  0.000  0.000  0.000  0.000  0.884  0.000  0.000  0.885
 
band    10 # energy   21.81770534 # occ.  0.00000000
 
ion      s     py     pz     px    dxy    dyz    dz2    dxz  x2-y2    tot
    1  0.000  0.000  0.000  0.000  0.002  0.002  0.000  0.002  0.000  0.008
 
band    11 # energy   24.43376575 # occ.  0.00000000
 
ion      s     py     pz     px    dxy    dyz    dz2    dxz  x2-y2    tot
    1  0.014  0.033  0.033  0.033  0.003  0.003  0.000  0.003  0.000  0.120
 
band    12 # energy   25.06860917 # occ.  0.00000000
 
ion      s     py     pz     px    dxy    dyz    dz2    dxz  x2-y2    tot
    1  0.000  0.049  0.008  0.050  0.000  0.001  0.000  0.001  0.002  0.111
 
band    13 # energy   25.06860917 # occ.  0.00000000
 
ion      s     py     pz     px    dxy    dyz    dz2    dxz  x2-y2    tot
    1  0.000  0.022  0.063  0.021  0.002  0.001  0.002  0.001  0.000  0.111
 
band    14 # energy   29.76981997 # occ.  0.00000000
 
ion      s     py     pz     px    dxy    dyz    dz2    dxz  x2-y2    tot
    1  0.058  0.011  0.011  0.011  0.003  0.003  0.000  0.003  0.000  0.100
 
band    15 # energy   31.79432865 # occ.  0.00000000
 
ion      s     py     pz     px    dxy    dyz    dz2    dxz  x2-y2    tot
    1  0.019  0.038  0.038  0.038  0.056  0.056  0.000  0.056  0.000  0.300
 
band    16 # energy   32.30345971 # occ.  0.00000000
 
ion      s     py     pz     px    dxy    dyz    dz2    dxz  x2-y2    tot
    1  0.000  0.055  0.002  0.038  0.004  0.096  0.000  0.140  0.002  0.338
 
band    17 # energy   32.30345971 # occ.  0.00000000
 
ion      s     py     pz     px    dxy    dyz    dz2    dxz  x2-y2    tot
    1  0.000  0.008  0.062  0.025  0.156  0.065  0.002  0.020  0.000  0.338
 
band    18 # energy   34.07580604 # occ.  0.00000000
 
ion      s     py     pz     px    dxy    dyz    dz2    dxz  x2-y2    tot
    1  0.000  0.172  0.004  0.134  0.001  0.045  0.000  0.057  0.008  0.422
 
band    19 # energy   34.07580604 # occ.  0.00000000
 
ion      s     py     pz     px    dxy    dyz    dz2    dxz  x2-y2    tot
    1  0.000  0.035  0.203  0.073  0.067  0.024  0.008  0.012  0.000  0.422
 
band    20 # energy   34.79972252 # occ.  0.00000000
 
ion      s     py     pz     px    dxy    dyz    dz2    dxz  x2-y2    tot
    1  0.024  0.083  0.083  0.083  0.055  0.055  0.000  0.055  0.000  0.437
 
band    21 # energy   40.91029269 # occ.  0.00000000
 
ion      s     py     pz     px    dxy    dyz    dz2    dxz  x2-y2    tot
    1  0.000  0.006  0.001  0.005  0.000  0.000  0.039  0.000  0.296  0.347
 
band    22 # energy   40.91029269 # occ.  0.00000000
 
ion      s     py     pz     px    dxy    dyz    dz2    dxz  x2-y2    tot
    1  0.000  0.002  0.007  0.003  0.000  0.000  0.296  0.000  0.039  0.347
 
band    23 # energy   43.91027172 # occ.  0.00000000
 
ion      s     py     pz     px    dxy    dyz    dz2    dxz  x2-y2    tot
    1  0.481  0.012  0.012  0.012  0.000  0.000  0.000  0.000  0.000  0.518
 
band    24 # energy   48.60023548 # occ.  0.00000000
 
ion      s     py     pz     px    dxy    dyz    dz2    dxz  x2-y2    tot
    1  6.285  0.000  0.000  0.000  0.000  0.000  0.000  0.000  0.000  6.285
 

 k-point     2 :    0.15000000 0.05000000 0.05000000     weight = 0.00600000

band     1 # energy  -44.88572853 # occ.  2.00000000
 
ion      s     py     pz     px    dxy    dyz    dz2    dxz  x2-y2    tot
    1  0.000  0.456  0.456  0.081  0.000  0.000  0.000  0.000  0.000  0.993
 
band     2 # energy  -44.87175087 # occ.  2.00000000
 
ion      s     py     pz     px    dxy    dyz    dz2    dxz  x2-y2    tot
    1  0.000  0.041  0.041  0.912  0.000  0.000  0.000  0.000  0.000  0.993
 
band     3 # energy  -44.86839984 # occ.  2.00000000
 
ion      s     py     pz     px    dxy    dyz    dz2    dxz  x2-y2    tot
    1  0.000  0.497  0.497  0.000  0.000  0.000  0.000  0.000  0.000  0.993
 
band     4 # energy    0.08268483 # occ.  2.00000000
 
ion      s     py     pz     px    dxy    dyz    dz2    dxz  x2-y2    tot
    1  0.303  0.002  0.002  0.000  0.000  0.002  0.000  0.000  0.000  0.310
 
band     5 # energy    4.38989825 # occ.  2.00000000
 
ion      s     py     pz     px    dxy    dyz    dz2    dxz  x2-y2    tot
    1  0.000  0.000  0.000  0.001  0.387  0.028  0.000  0.387  0.000  0.804
 
band     6 # energy    4.68262040 # occ.  2.00000000
 
ion      s     py     pz     px    dxy    dyz    dz2    dxz  x2-y2    tot
    1  0.000  0.000  0.000  0.000  0.412  0.000  0.003  0.412  0.001  0.828
 
band     7 # energy    4.70720101 # occ.  2.00000000
 
ion      s     py     pz     px    dxy    dyz    dz2    dxz  x2-y2    tot
    1  0.000  0.000  0.000  0.000  0.014  0.772  0.006  0.014  0.018  0.825
 
band     8 # energy    5.69569808 # occ.  2.00000000
 
ion      s     py     pz     px    dxy    dyz    dz2    dxz  x2-y2    tot
    1  0.000  0.000  0.000  0.000  0.002  0.000  0.653  0.002  0.218  0.875
 
band     9 # energy    5.85644412 # occ.  2.00000000
 
ion      s     py     pz     px    dxy    dyz    dz2    dxz  x2-y2    tot
    1  0.000  0.000  0.000  0.000  0.001  0.024  0.215  0.001  0.644  0.884
 
band    10 # energy   22.04142897 # occ.  0.00000000
 
ion      s     py     pz     px    dxy    dyz    dz2    dxz  x2-y2    tot
    1  0.007  0.006  0.006  0.012  0.028  0.009  0.000  0.028  0.000  0.096
 
band    11 # energy   22.76423683 # occ.  0.00000000
 
ion      s     py     pz     px    dxy    dyz    dz2    dxz  x2-y2    tot
    1  0.042  0.035  0.035  0.005  0.000  0.016  0.001  0.000  0.002  0.136
 
band    12 # energy   24.72550351 # occ.  0.00000000
 
ion      s     py     pz     px    dxy    dyz    dz2    dxz  x2-y2    tot
    1  0.001  0.006  0.006  0.123  0.012  0.005  0.001  0.012  0.002  0.166
 
band    13 # energy   25.86045009 # occ.  0.00000000
 
ion      s     py     pz     px    dxy    dyz    dz2    dxz  x2-y2    tot
    1  0.000  0.055  0.055  0.000  0.002  0.000  0.013  0.002  0.004  0.130
 
band    14 # energy   28.78075633 # occ.  0.00000000
 
ion      s     py     pz     px    dxy    dyz    dz2    dxz  x2-y2    tot
    1  0.005  0.075  0.075  0.003  0.002  0.066  0.001  0.002  0.003  0.232
 
band    15 # energy   30.92115254 # occ.  0.00000000
 
ion      s     py     pz     px    dxy    dyz    dz2    dxz  x2-y2    tot
    1  0.000  0.001  0.001  0.104  0.045  0.012  0.001  0.045  0.004  0.214
 
band    16 # energy   31.50643446 # occ.  0.00000000
 
ion      s     py     pz     px    dxy    dyz    dz2    dxz  x2-y2    tot
    1  0.000  0.101  0.101  0.000  0.054  0.000  0.026  0.054  0.009  0.343
 
band    17 # energy   32.41149845 # occ.  0.00000000
 
ion      s     py     pz     px    dxy    dyz    dz2    dxz  x2-y2    tot
    1  0.096  0.000  0.000  0.002  0.001  0.000  0.001  0.001  0.004  0.106
 
band    18 # energy   33.11174364 # occ.  0.00000000
 
ion      s     py     pz     px    dxy    dyz    dz2    dxz  x2-y2    tot
    1  0.000  0.073  0.073  0.000  0.105  0.000  0.017  0.105  0.006  0.378
 
band    19 # energy   35.32222057 # occ.  0.00000000
 
ion      s     py     pz     px    dxy    dyz    dz2    dxz  x2-y2    tot
    1  0.056  0.065  0.065  0.018  0.000  0.211  0.003  0.000  0.008  0.426
 
band    20 # energy   37.00459049 # occ.  0.00000000
 
ion      s     py     pz     px    dxy    dyz    dz2    dxz  x2-y2    tot
    1  0.024  0.001  0.001  0.229  0.099  0.003  0.002  0.099  0.005  0.464
 
band    21 # energy   40.40123036 # occ.  0.00000000
 
ion      s     py     pz     px    dxy    dyz    dz2    dxz  x2-y2    tot
    1  0.015  0.002  0.002  0.020  0.001  0.003  0.060  0.001  0.181  0.285
 
band    22 # energy   42.06945250 # occ.  0.00000000
 
ion      s     py     pz     px    dxy    dyz    dz2    dxz  x2-y2    tot
    1  0.000  0.031  0.031  0.000  0.000  0.000  0.192  0.000  0.064  0.320
 
band    23 # energy   46.05883936 # occ.  0.00000000
 
ion      s     py     pz     px    dxy    dyz    dz2    dxz  x2-y2    tot
    1  0.347  0.080  0.080  0.010  0.002  0.003  0.000  0.002  0.000  0.524
 
band    24 # energy   48.60654271 # occ.  0.00000000
 
ion      s     py     pz     px    dxy    dyz    dz2    dxz  x2-y2    tot
    1  6.279  0.000  0.000  0.000  0.000  0.000  0.000  0.000  0.000  6.279
 

 k-point     3 :    0.25000000 0.05000000 0.05000000     weight = 0.00600000

band     1 # energy  -44.92144154 # occ.  2.00000000
 
ion      s     py     pz     px    dxy    dyz    dz2    dxz  x2-y2    tot
    1  0.000  0.389  0.389  0.214  0.000  0.000  0.000  0.000  0.000  0.991
 
band     2 # energy  -44.87854291 # occ.  2.00000000
 
ion      s     py     pz     px    dxy    dyz    dz2    dxz  x2-y2    tot
    1  0.000  0.107  0.107  0.779  0.000  0.000  0.000  0.000  0.000  0.993
 
band     3 # energy  -44.87303940 # occ.  2.00000000
 
ion      s     py     pz     px    dxy    dyz    dz2    dxz  x2-y2    tot
    1  0.000  0.497  0.497  0.000  0.000  0.000  0.000  0.000  0.000  0.993
 
band     4 # energy    0.95781108 # occ.  2.00000000
 
ion      s     py     pz     px    dxy    dyz    dz2    dxz  x2-y2    tot
    1  0.279  0.005  0.005  0.002  0.008  0.016  0.000  0.008  0.001  0.323
 
band     5 # energy    4.27063207 # occ.  2.00000000
 
ion      s     py     pz     px    dxy    dyz    dz2    dxz  x2-y2    tot
    1  0.006  0.002  0.002  0.003  0.340  0.062  0.000  0.340  0.000  0.755
 
band     6 # energy    4.80804662 # occ.  2.00000000
 
ion      s     py     pz     px    dxy    dyz    dz2    dxz  x2-y2    tot
    1  0.001  0.001  0.001  0.000  0.031  0.569  0.047  0.031  0.142  0.823
 
band     7 # energy    4.82906756 # occ.  2.00000000
 
ion      s     py     pz     px    dxy    dyz    dz2    dxz  x2-y2    tot
    1  0.000  0.000  0.000  0.000  0.341  0.000  0.113  0.341  0.038  0.832
 
band     8 # energy    5.70201814 # occ.  2.00000000
 
ion      s     py     pz     px    dxy    dyz    dz2    dxz  x2-y2    tot
    1  0.000  0.000  0.000  0.000  0.079  0.000  0.533  0.079  0.178  0.869
 
band     9 # energy    6.02623894 # occ.  2.00000000
 
ion      s     py     pz     px    dxy    dyz    dz2    dxz  x2-y2    tot
    1  0.002  0.000  0.000  0.000  0.011  0.177  0.171  0.011  0.512  0.884
 
band    10 # energy   19.21228991 # occ.  0.00000000
 
ion      s     py     pz     px    dxy    dyz    dz2    dxz  x2-y2    tot
    1  0.094  0.036  0.036  0.034  0.037  0.043  0.000  0.037  0.001  0.320
 
band    11 # energy   22.61480086 # occ.  0.00000000
 
ion      s     py     pz     px    dxy    dyz    dz2    dxz  x2-y2    tot
    1  0.005  0.001  0.001  0.013  0.032  0.000  0.001  0.032  0.002  0.087
 
band    12 # energy   24.80236831 # occ.  0.00000000
 
ion      s     py     pz     px    dxy    dyz    dz2    dxz  x2-y2    tot
    1  0.003  0.029  0.029  0.119  0.009  0.038  0.001  0.009  0.004  0.243
 
band    13 # energy   26.87665730 # occ.  0.00000000
 
ion      s     py     pz     px    dxy    dyz    dz2    dxz  x2-y2    tot
    1  0.000  0.095  0.095  0.000  0.021  0.000  0.014  0.021  0.005  0.250
 
band    14 # energy   27.02355359 # occ.  0.00000000
 
ion      s     py     pz     px    dxy    dyz    dz2    dxz  x2-y2    tot
    1  0.024  0.037  0.037  0.012  0.000  0.004  0.004  0.000  0.011  0.129
 
band    15 # energy   29.00344663 # occ.  0.00000000
 
ion      s     py     pz     px    dxy    dyz    dz2    dxz  x2-y2    tot
    1  0.000  0.049  0.049  0.000  0.012  0.000  0.066  0.012  0.022  0.209
 
band    16 # energy   30.05602992 # occ.  0.00000000
 
ion      s     py     pz     px    dxy    dyz    dz2    dxz  x2-y2    tot
    1  0.003  0.000  0.000  0.059  0.005  0.005  0.009  0.005  0.028  0.114
 
band    17 # energy   33.73070294 # occ.  0.00000000
 
ion      s     py     pz     px    dxy    dyz    dz2    dxz  x2-y2    tot
    1  0.000  0.065  0.065  0.000  0.103  0.000  0.019  0.103  0.006  0.361
 
band    18 # energy   34.85869014 # occ.  0.00000000
 
ion      s     py     pz     px    dxy    dyz    dz2    dxz  x2-y2    tot
    1  0.180  0.005  0.005  0.009  0.001  0.095  0.004  0.001  0.013  0.313
 
band    19 # energy   36.68014057 # occ.  0.00000000
 
ion      s     py     pz     px    dxy    dyz    dz2    dxz  x2-y2    tot
    1  0.003  0.034  0.034  0.071  0.013  0.090  0.005  0.013  0.014  0.277
 
band    20 # energy   38.28388934 # occ.  0.00000000
 
ion      s     py     pz     px    dxy    dyz    dz2    dxz  x2-y2    tot
    1  0.072  0.002  0.002  0.043  0.083  0.008  0.009  0.083  0.027  0.328
 
band    21 # energy   41.23089275 # occ.  0.00000000
 
ion      s     py     pz     px    dxy    dyz    dz2    dxz  x2-y2    tot
    1  0.000  0.006  0.006  0.101  0.009  0.016  0.023  0.009  0.070  0.242
 
band    22 # energy   43.11626993 # occ.  0.00000000
 
ion      s     py     pz     px    dxy    dyz    dz2    dxz  x2-y2    tot
    1  0.000  0.047  0.047  0.000  0.002  0.000  0.107  0.002  0.036  0.241
 
band    23 # energy   48.60777530 # occ.  0.00000000
 
ion      s     py     pz     px    dxy    dyz    dz2    dxz  x2-y2    tot
    1  6.309  0.000  0.000  0.000  0.000  0.000  0.000  0.000  0.000  6.310
 
band    24 # energy   49.26350864 # occ.  0.00000000
 
ion      s     py     pz     px    dxy    dyz    dz2    dxz  x2-y2    tot
    1  0.077  0.092  0.092  0.049  0.022  0.011  0.017  0.022  0.050  0.432
 

 k-point     4 :    0.35000000 0.05000000 0.05000000     weight = 0.00600000

band     1 # energy  -44.96389859 # occ.  2.00000000
 
ion      s     py     pz     px    dxy    dyz    dz2    dxz  x2-y2    tot
    1  0.000  0.361  0.361  0.268  0.000  0.000  0.000  0.000  0.000  0.989
 
band     2 # energy  -44.88542937 # occ.  2.00000000
 
ion      s     py     pz     px    dxy    dyz    dz2    dxz  x2-y2    tot
    1  0.000  0.135  0.135  0.724  0.000  0.000  0.000  0.000  0.000  0.993
 
band     3 # energy  -44.87972466 # occ.  2.00000000
 
ion      s     py     pz     px    dxy    dyz    dz2    dxz  x2-y2    tot
    1  0.000  0.496  0.496  0.000  0.000  0.000  0.000  0.000  0.000  0.993
 
band     4 # energy    1.85707706 # occ.  2.00000000
 
ion      s     py     pz     px    dxy    dyz    dz2    dxz  x2-y2    tot
    1  0.206  0.005  0.005  0.001  0.066  0.080  0.000  0.066  0.001  0.428
 
band     5 # energy    4.63260633 # occ.  2.00000000
 
ion      s     py     pz     px    dxy    dyz    dz2    dxz  x2-y2    tot
    1  0.021  0.003  0.003  0.006  0.256  0.059  0.030  0.256  0.091  0.725
 
band     6 # energy    4.74125769 # occ.  2.00000000
 
ion      s     py     pz     px    dxy    dyz    dz2    dxz  x2-y2    tot
    1  0.000  0.000  0.000  0.000  0.215  0.000  0.296  0.215  0.099  0.824
 
band     7 # energy    4.76054168 # occ.  2.00000000
 
ion      s     py     pz     px    dxy    dyz    dz2    dxz  x2-y2    tot
    1  0.024  0.006  0.006  0.004  0.030  0.318  0.069  0.030  0.206  0.694
 
band     8 # energy    6.09392190 # occ.  2.00000000
 
ion      s     py     pz     px    dxy    dyz    dz2    dxz  x2-y2    tot
    1  0.000  0.000  0.000  0.000  0.214  0.000  0.343  0.214  0.114  0.885
 
band     9 # energy    6.47564842 # occ.  2.00000000
 
ion      s     py     pz     px    dxy    dyz    dz2    dxz  x2-y2    tot
    1  0.007  0.001  0.001  0.000  0.022  0.366  0.116  0.022  0.349  0.886
 
band    10 # energy   15.60628940 # occ.  0.00000000
 
ion      s     py     pz     px    dxy    dyz    dz2    dxz  x2-y2    tot
    1  0.155  0.030  0.030  0.032  0.059  0.055  0.000  0.059  0.001  0.421
 
band    11 # energy   22.08204452 # occ.  0.00000000
 
ion      s     py     pz     px    dxy    dyz    dz2    dxz  x2-y2    tot
    1  0.001  0.000  0.000  0.016  0.020  0.000  0.001  0.020  0.004  0.063
 
band    12 # energy   23.88374692 # occ.  0.00000000
 
ion      s     py     pz     px    dxy    dyz    dz2    dxz  x2-y2    tot
    1  0.009  0.043  0.043  0.118  0.015  0.022  0.000  0.015  0.001  0.267
 
band    13 # energy   25.70299966 # occ.  0.00000000
 
ion      s     py     pz     px    dxy    dyz    dz2    dxz  x2-y2    tot
    1  0.000  0.124  0.124  0.000  0.019  0.000  0.006  0.019  0.002  0.294
 
band    14 # energy   28.07760225 # occ.  0.00000000
 
ion      s     py     pz     px    dxy    dyz    dz2    dxz  x2-y2    tot
    1  0.032  0.007  0.007  0.022  0.005  0.024  0.011  0.005  0.032  0.145
 
band    15 # energy   29.13291974 # occ.  0.00000000
 
ion      s     py     pz     px    dxy    dyz    dz2    dxz  x2-y2    tot
    1  0.000  0.002  0.002  0.000  0.014  0.000  0.118  0.014  0.039  0.189
 
band    16 # energy   30.12999500 # occ.  0.00000000
 
ion      s     py     pz     px    dxy    dyz    dz2    dxz  x2-y2    tot
    1  0.025  0.002  0.002  0.024  0.008  0.000  0.017  0.008  0.052  0.137
 
band    17 # energy   34.49034402 # occ.  0.00000000
 
ion      s     py     pz     px    dxy    dyz    dz2    dxz  x2-y2    tot
    1  0.000  0.078  0.078  0.000  0.069  0.000  0.009  0.069  0.003  0.306
 
band    18 # energy   35.73514281 # occ.  0.00000000
 
ion      s     py     pz     px    dxy    dyz    dz2    dxz  x2-y2    tot
    1  0.146  0.006  0.006  0.055  0.000  0.134  0.007  0.000  0.020  0.374
 
band    19 # energy   37.94821497 # occ.  0.00000000
 
ion      s     py     pz     px    dxy    dyz    dz2    dxz  x2-y2    tot
    1  0.090  0.028  0.028  0.055  0.061  0.003  0.006  0.061  0.018  0.352
 
band    20 # energy   40.91280512 # occ.  0.00000000
 
ion      s     py     pz     px    dxy    dyz    dz2    dxz  x2-y2    tot
    1  0.002  0.018  0.018  0.018  0.010  0.000  0.005  0.010  0.015  0.097
 
band    21 # energy   42.60641879 # occ.  0.00000000
 
ion      s     py     pz     px    dxy    dyz    dz2    dxz  x2-y2    tot
    1  0.000  0.004  0.004  0.059  0.007  0.044  0.003  0.007  0.009  0.137
 
band    22 # energy   44.06933257 # occ.  0.00000000
 
ion      s     py     pz     px    dxy    dyz    dz2    dxz  x2-y2    tot
    1  0.000  0.050  0.050  0.000  0.009  0.000  0.043  0.009  0.014  0.176
 
band    23 # energy   48.31280420 # occ.  0.00000000
 
ion      s     py     pz     px    dxy    dyz    dz2    dxz  x2-y2    tot
    1  0.000  0.001  0.001  0.000  0.050  0.000  0.060  0.050  0.020  0.182
 
band    24 # energy   48.34100143 # occ.  0.00000000
 
ion      s     py     pz     px    dxy    dyz    dz2    dxz  x2-y2    tot
    1  0.025  0.023  0.023  0.045  0.026  0.054  0.021  0.026  0.062  0.304
 

 k-point     5 :    0.45000000 0.05000000 0.05000000     weight = 0.00600000

band     1 # energy  -44.99506618 # occ.  2.00000000
 
ion      s     py     pz     px    dxy    dyz    dz2    dxz  x2-y2    tot
    1  0.000  0.341  0.341  0.306  0.000  0.000  0.000  0.000  0.000  0.988
 
band     2 # energy  -44.88994139 # occ.  2.00000000
 
ion      s     py     pz     px    dxy    dyz    dz2    dxz  x2-y2    tot
    1  0.000  0.153  0.153  0.686  0.000  0.000  0.000  0.000  0.000  0.993
 
band     3 # energy  -44.88608226 # occ.  2.00000000
 
ion      s     py     pz     px    dxy    dyz    dz2    dxz  x2-y2    tot
    1  0.000  0.496  0.496  0.000  0.000  0.000  0.000  0.000  0.000  0.993
 
band     4 # energy    2.19023126 # occ.  2.00000000
 
ion      s     py     pz     px    dxy    dyz    dz2    dxz  x2-y2    tot
    1  0.126  0.001  0.001  0.000  0.141  0.148  0.000  0.141  0.000  0.560
 
band     5 # energy    4.54742009 # occ.  2.00000000
 
ion      s     py     pz     px    dxy    dyz    dz2    dxz  x2-y2    tot
    1  0.000  0.000  0.000  0.000  0.057  0.243  0.114  0.057  0.341  0.811
 
band     6 # energy    4.60606218 # occ.  2.00000000
 
ion      s     py     pz     px    dxy    dyz    dz2    dxz  x2-y2    tot
    1  0.000  0.000  0.000  0.000  0.172  0.000  0.354  0.172  0.118  0.816
 
band     7 # energy    5.98002627 # occ.  2.00000000
 
ion      s     py     pz     px    dxy    dyz    dz2    dxz  x2-y2    tot
    1  0.038  0.016  0.016  0.017  0.140  0.029  0.034  0.140  0.102  0.532
 
band     8 # energy    6.57666119 # occ.  2.00000000
 
ion      s     py     pz     px    dxy    dyz    dz2    dxz  x2-y2    tot
    1  0.000  0.000  0.000  0.000  0.266  0.000  0.284  0.266  0.095  0.911
 
band     9 # energy    7.14117388 # occ.  0.00000000
 
ion      s     py     pz     px    dxy    dyz    dz2    dxz  x2-y2    tot
    1  0.036  0.010  0.010  0.007  0.005  0.389  0.066  0.005  0.198  0.727
 
band    10 # energy   12.24691477 # occ.  0.00000000
 
ion      s     py     pz     px    dxy    dyz    dz2    dxz  x2-y2    tot
    1  0.232  0.016  0.016  0.019  0.094  0.074  0.001  0.094  0.002  0.548
 
band    11 # energy   21.46260610 # occ.  0.00000000
 
ion      s     py     pz     px    dxy    dyz    dz2    dxz  x2-y2    tot
    1  0.000  0.001  0.001  0.010  0.006  0.000  0.002  0.006  0.005  0.030
 
band    12 # energy   23.05428099 # occ.  0.00000000
 
ion      s     py     pz     px    dxy    dyz    dz2    dxz  x2-y2    tot
    1  0.009  0.038  0.038  0.128  0.011  0.002  0.001  0.011  0.002  0.239
 
band    13 # energy   23.98736984 # occ.  0.00000000
 
ion      s     py     pz     px    dxy    dyz    dz2    dxz  x2-y2    tot
    1  0.000  0.110  0.110  0.000  0.003  0.000  0.008  0.003  0.003  0.237
 
band    14 # energy   29.72905841 # occ.  0.00000000
 
ion      s     py     pz     px    dxy    dyz    dz2    dxz  x2-y2    tot
    1  0.025  0.001  0.001  0.006  0.001  0.075  0.032  0.001  0.095  0.235
 
band    15 # energy   30.06449311 # occ.  0.00000000
 
ion      s     py     pz     px    dxy    dyz    dz2    dxz  x2-y2    tot
    1  0.000  0.001  0.001  0.000  0.041  0.000  0.146  0.041  0.049  0.281
 
band    16 # energy   30.93941984 # occ.  0.00000000
 
ion      s     py     pz     px    dxy    dyz    dz2    dxz  x2-y2    tot
    1  0.103  0.001  0.001  0.013  0.051  0.009  0.010  0.051  0.029  0.269
 
band    17 # energy   35.59880272 # occ.  0.00000000
 
ion      s     py     pz     px    dxy    dyz    dz2    dxz  x2-y2    tot
    1  0.000  0.101  0.101  0.000  0.021  0.000  0.000  0.021  0.000  0.243
 
band    18 # energy   36.32104242 # occ.  0.00000000
 
ion      s     py     pz     px    dxy    dyz    dz2    dxz  x2-y2    tot
    1  0.060  0.007  0.007  0.127  0.000  0.053  0.006  0.000  0.017  0.278
 
band    19 # energy   38.06599937 # occ.  0.00000000
 
ion      s     py     pz     px    dxy    dyz    dz2    dxz  x2-y2    tot
    1  0.049  0.055  0.055  0.013  0.021  0.007  0.001  0.021  0.004  0.226
 
band    20 # energy   42.55513314 # occ.  0.00000000
 
ion      s     py     pz     px    dxy    dyz    dz2    dxz  x2-y2    tot
    1  0.004  0.013  0.013  0.025  0.012  0.055  0.001  0.012  0.002  0.136
 
band    21 # energy   45.01942602 # occ.  0.00000000
 
ion      s     py     pz     px    dxy    dyz    dz2    dxz  x2-y2    tot
    1  0.098  0.000  0.000  0.022  0.002  0.002  0.000  0.002  0.000  0.127
 
band    22 # energy   45.02026850 # occ.  0.00000000
 
ion      s     py     pz     px    dxy    dyz    dz2    dxz  x2-y2    tot
    1  0.000  0.042  0.042  0.000  0.017  0.000  0.007  0.017  0.002  0.128
 
band    23 # energy   45.74245495 # occ.  0.00000000
 
ion      s     py     pz     px    dxy    dyz    dz2    dxz  x2-y2    tot
    1  0.000  0.000  0.000  0.000  0.074  0.000  0.019  0.074  0.006  0.174
 
band    24 # energy   46.93752860 # occ.  0.00000000
 
ion      s     py     pz     px    dxy    dyz    dz2    dxz  x2-y2    tot
    1  0.013  0.002  0.002  0.055  0.032  0.014  0.005  0.032  0.015  0.169
 

 k-point     6 :   -0.45000000 0.05000000 0.05000000     weight = 0.00600000

band     1 # energy  -45.00281224 # occ.  2.00000000
 
ion      s     py     pz     px    dxy    dyz    dz2    dxz  x2-y2    tot
    1  0.000  0.325  0.325  0.337  0.000  0.000  0.000  0.000  0.000  0.988
 
band     2 # energy  -44.88951244 # occ.  2.00000000
 
ion      s     py     pz     px    dxy    dyz    dz2    dxz  x2-y2    tot
    1  0.000  0.169  0.169  0.654  0.000  0.000  0.000  0.000  0.000  0.993
 
band     3 # energy  -44.88868766 # occ.  2.00000000
 
ion      s     py     pz     px    dxy    dyz    dz2    dxz  x2-y2    tot
    1  0.000  0.496  0.496  0.000  0.000  0.000  0.000  0.000  0.000  0.993
 
band     4 # energy    2.22453854 # occ.  2.00000000
 
ion      s     py     pz     px    dxy    dyz    dz2    dxz  x2-y2    tot
    1  0.109  0.000  0.000  0.001  0.156  0.165  0.000  0.156  0.000  0.588
 
band     5 # energy    4.49441966 # occ.  2.00000000
 
ion      s     py     pz     px    dxy    dyz    dz2    dxz  x2-y2    tot
    1  0.000  0.000  0.000  0.000  0.058  0.209  0.121  0.058  0.362  0.808
 
band     6 # energy    4.57389975 # occ.  2.00000000
 
ion      s     py     pz     px    dxy    dyz    dz2    dxz  x2-y2    tot
    1  0.000  0.000  0.000  0.000  0.168  0.000  0.358  0.168  0.119  0.814
 
band     7 # energy    6.38620301 # occ.  2.00000000
 
ion      s     py     pz     px    dxy    dyz    dz2    dxz  x2-y2    tot
    1  0.001  0.010  0.010  0.009  0.057  0.316  0.064  0.057  0.193  0.718
 
band     8 # energy    6.80633982 # occ.  0.95426211
 
ion      s     py     pz     px    dxy    dyz    dz2    dxz  x2-y2    tot
    1  0.000  0.000  0.000  0.000  0.274  0.000  0.283  0.274  0.094  0.925
 
band     9 # energy    7.88068183 # occ.  0.00000000
 
ion      s     py     pz     px    dxy    dyz    dz2    dxz  x2-y2    tot
    1  0.007  0.031  0.031  0.033  0.046  0.051  0.027  0.046  0.082  0.354
 
band    10 # energy   10.72553990 # occ.  0.00000000
 
ion      s     py     pz     px    dxy    dyz    dz2    dxz  x2-y2    tot
    1  0.319  0.002  0.002  0.001  0.124  0.138  0.000  0.124  0.000  0.710
 
band    11 # energy   21.29427563 # occ.  0.00000000
 
ion      s     py     pz     px    dxy    dyz    dz2    dxz  x2-y2    tot
    1  0.000  0.001  0.001  0.005  0.001  0.003  0.002  0.001  0.005  0.019
 
band    12 # energy   23.08725393 # occ.  0.00000000
 
ion      s     py     pz     px    dxy    dyz    dz2    dxz  x2-y2    tot
    1  0.009  0.035  0.035  0.135  0.004  0.004  0.002  0.004  0.005  0.232
 
band    13 # energy   23.20055732 # occ.  0.00000000
 
ion      s     py     pz     px    dxy    dyz    dz2    dxz  x2-y2    tot
    1  0.000  0.106  0.106  0.000  0.001  0.000  0.005  0.001  0.002  0.221
 
band    14 # energy   30.25113765 # occ.  0.00000000
 
ion      s     py     pz     px    dxy    dyz    dz2    dxz  x2-y2    tot
    1  0.000  0.000  0.000  0.000  0.043  0.000  0.145  0.043  0.048  0.279
 
band    15 # energy   30.33790471 # occ.  0.00000000
 
ion      s     py     pz     px    dxy    dyz    dz2    dxz  x2-y2    tot
    1  0.003  0.000  0.000  0.000  0.007  0.075  0.049  0.007  0.147  0.289
 
band    16 # energy   31.34100143 # occ.  0.00000000
 
ion      s     py     pz     px    dxy    dyz    dz2    dxz  x2-y2    tot
    1  0.166  0.002  0.002  0.002  0.065  0.045  0.000  0.065  0.001  0.350
 
band    17 # energy   35.99982750 # occ.  0.00000000
 
ion      s     py     pz     px    dxy    dyz    dz2    dxz  x2-y2    tot
    1  0.013  0.046  0.046  0.111  0.000  0.003  0.001  0.000  0.003  0.225
 
band    18 # energy   36.72183491 # occ.  0.00000000
 
ion      s     py     pz     px    dxy    dyz    dz2    dxz  x2-y2    tot
    1  0.000  0.116  0.116  0.000  0.001  0.000  0.008  0.001  0.003  0.244
 
band    19 # energy   37.85748865 # occ.  0.00000000
 
ion      s     py     pz     px    dxy    dyz    dz2    dxz  x2-y2    tot
    1  0.002  0.017  0.017  0.062  0.004  0.001  0.000  0.004  0.001  0.110
 
band    20 # energy   43.60528794 # occ.  0.00000000
 
ion      s     py     pz     px    dxy    dyz    dz2    dxz  x2-y2    tot
    1  0.000  0.012  0.012  0.000  0.056  0.000  0.002  0.056  0.001  0.138
 
band    21 # energy   44.11958173 # occ.  0.00000000
 
ion      s     py     pz     px    dxy    dyz    dz2    dxz  x2-y2    tot
    1  0.137  0.006  0.006  0.010  0.001  0.081  0.001  0.001  0.003  0.245
 
band    22 # energy   44.32627326 # occ.  0.00000000
 
ion      s     py     pz     px    dxy    dyz    dz2    dxz  x2-y2    tot
    1  0.057  0.000  0.000  0.003  0.014  0.025  0.001  0.014  0.002  0.117
 