   2   2   1   0
  0.9868500E+01  0.2417507E-09  0.2417507E-09  0.3899554E-09  0.5000000E-15
  1.000000000000000E-004
  CAR 
 Co-hcc                                  
     60.81791343     -0.59620750  301     11.67797399      1.00000000
     -0.596  0.0000E+00  0.0000E+00  0.0000E+00  0.0000E+00
     -0.391  0.0000E+00  0.0000E+00  0.0000E+00  0.0000E+00
     -0.187  0.0000E+00  0.0000E+00  0.0000E+00  0.0000E+00
      0.018  0.0000E+00  0.0000E+00  0.0000E+00  0.0000E+00
      0.223  0.0000E+00  0.0000E+00  0.0000E+00  0.0000E+00
      0.427  0.0000E+00  0.0000E+00  0.0000E+00  0.0000E+00
      0.632  0.0000E+00  0.0000E+00  0.0000E+00  0.0000E+00
      0.837  0.0000E+00  0.0000E+00  0.0000E+00  0.0000E+00
      1.042  0.0000E+00  0.0000E+00  0.0000E+00  0.0000E+00
      1.246  0.0000E+00  0.0000E+00  0.0000E+00  0.0000E+00
      1.451  0.0000E+00  0.0000E+00  0.0000E+00  0.0000E+00
      1.656  0.0000E+00  0.0000E+00  0.0000E+00  0.0000E+00
      1.860  0.0000E+00  0.0000E+00  0.0000E+00  0.0000E+00
      2.065  0.4855E-08  0.4375E-08  0.9940E-09  0.8957E-09
      2.270  0.4194E-04  0.4185E-04  0.8586E-05  0.8568E-05
      2.474  0.2618E-03  0.2566E-03  0.6219E-04  0.6110E-04
      2.679  0.5566E-03  0.5565E-03  0.1761E-03  0.1750E-03
      2.884  0.9400E-04  0.9385E-04  0.1954E-03  0.1942E-03
      3.089  0.4775E-03  0.4261E-03  0.2931E-03  0.2815E-03
      3.293  0.1078E-02  0.1127E-02  0.5139E-03  0.5121E-03
      3.498  0.5020E-03  0.5093E-03  0.6167E-03  0.6164E-03
      3.703  0.5882E-03  0.5806E-03  0.7371E-03  0.7352E-03
      3.907  0.1135E-02  0.8804E-03  0.9695E-03  0.9155E-03
      4.112  0.1356E-02  0.1433E-02  0.1247E-02  0.1209E-02
      4.317  0.3471E-03  0.3001E-03  0.1318E-02  0.1270E-02
      4.522  0.2127E-02  0.1527E-02  0.1754E-02  0.1583E-02
      4.726  0.4743E-03  0.1297E-02  0.1851E-02  0.1848E-02
      4.931  0.1036E-02  0.7601E-03  0.2063E-02  0.2004E-02
      5.136  0.1939E-02  0.6387E-03  0.2460E-02  0.2135E-02
      5.340  0.2002E-02  0.2812E-02  0.2869E-02  0.2710E-02
      5.545  0.2708E-02  0.1642E-02  0.3424E-02  0.3046E-02
      5.750  0.1439E-02  0.1755E-02  0.3718E-02  0.3406E-02
      5.955  0.2946E-02  0.1058E-02  0.4321E-02  0.3622E-02
      6.159  0.7488E-02  0.2386E-02  0.5854E-02  0.4111E-02
      6.364  0.9918E-02  0.2112E-02  0.7885E-02  0.4543E-02
      6.569  0.9879E-02  0.3394E-02  0.9907E-02  0.5238E-02
      6.773  0.1374E-01  0.3528E-02  0.1272E-01  0.5960E-02
      6.978  0.1849E-01  0.5834E-02  0.1651E-01  0.7154E-02
      7.183  0.1338E-01  0.6132E-02  0.1925E-01  0.8410E-02
      7.388  0.1338E-01  0.7208E-02  0.2198E-01  0.9885E-02
      7.592  0.1659E-01  0.1055E-01  0.2538E-01  0.1204E-01
      7.797  0.1622E-01  0.9354E-02  0.2870E-01  0.1396E-01
      8.002  0.1707E-01  0.1150E-01  0.3220E-01  0.1631E-01
      8.206  0.2069E-01  0.1365E-01  0.3643E-01  0.1911E-01
      8.411  0.8697E-02  0.1181E-01  0.3821E-01  0.2153E-01
      8.616  0.1528E-01  0.1125E-01  0.4134E-01  0.2383E-01
      8.821  0.2544E-01  0.1245E-01  0.4655E-01  0.2638E-01
      9.025  0.2322E-01  0.1604E-01  0.5130E-01  0.2966E-01
      9.230  0.2682E-01  0.1780E-01  0.5679E-01  0.3331E-01
      9.435  0.2641E-01  0.1604E-01  0.6220E-01  0.3659E-01
      9.639  0.2420E-01  0.7793E-02  0.6715E-01  0.3819E-01
      9.844  0.1924E-01  0.7409E-02  0.7109E-01  0.3970E-01
     10.049  0.1547E-01  0.1768E-01  0.7426E-01  0.4332E-01
     10.254  0.1842E-01  0.2048E-01  0.7803E-01  0.4751E-01
     10.458  0.1141E-01  0.2221E-01  0.8037E-01  0.5206E-01
     10.663  0.1705E-01  0.2169E-01  0.8386E-01  0.5650E-01
     10.868  0.2189E-01  0.2620E-01  0.8834E-01  0.6186E-01
     11.072  0.3023E-01  0.2504E-01  0.9453E-01  0.6699E-01
     11.277  0.4122E-01  0.1380E-01  0.1030E+00  0.6981E-01
     11.482  0.7571E-02  0.1566E-01  0.1045E+00  0.7302E-01
     11.687  0.2328E-02  0.1043E-01  0.1050E+00  0.7516E-01
     11.891  0.6294E-02  0.1630E-01  0.1063E+00  0.7849E-01
     12.096  0.2873E-02  0.9312E-02  0.1069E+00  0.8040E-01
     12.301  0.2112E-02  0.1275E-01  0.1073E+00  0.8301E-01
     12.505  0.1398E-02  0.2092E-01  0.1076E+00  0.8729E-01
     12.710  0.1381E-02  0.2159E-01  0.1079E+00  0.9171E-01
     12.915  0.2816E-02  0.3266E-01  0.1084E+00  0.9840E-01
     13.120  0.5681E-02  0.3028E-01  0.1096E+00  0.1046E+00
     13.324  0.3348E-02  0.7924E-02  0.1103E+00  0.1062E+00
     13.529  0.2175E-02  0.3686E-02  0.1107E+00  0.1070E+00
     13.734  0.1240E-02  0.3024E-02  0.1110E+00  0.1076E+00
     13.938  0.2348E-02  0.2619E-02  0.1115E+00  0.1081E+00
     14.143  0.2540E-02  0.3618E-02  0.1120E+00  0.1089E+00
     14.348  0.1386E-02  0.3492E-02  0.1123E+00  0.1096E+00
     14.553  0.2818E-02  0.4560E-02  0.1129E+00  0.1105E+00
     14.757  0.1660E-02  0.3093E-02  0.1132E+00  0.1112E+00
     14.962  0.3539E-02  0.3011E-02  0.1139E+00  0.1118E+00
     15.167  0.4980E-03  0.1749E-02  0.1140E+00  0.1121E+00
     15.371  0.2048E-02  0.1278E-02  0.1144E+00  0.1124E+00
     15.576  0.2157E-02  0.4051E-02  0.1149E+00  0.1132E+00
     15.781  0.4745E-02  0.9961E-03  0.1159E+00  0.1134E+00
     15.986  0.9439E-03  0.3055E-02  0.1160E+00  0.1140E+00
     16.190  0.2140E-02  0.1750E-02  0.1165E+00  0.1144E+00
     16.395  0.2596E-02  0.3643E-02  0.1170E+00  0.1151E+00
     16.600  0.5549E-03  0.3290E-02  0.1171E+00  0.1158E+00
     16.804  0.1529E-02  0.1035E-02  0.1174E+00  0.1160E+00
     17.009  0.8416E-03  0.1617E-02  0.1176E+00  0.1164E+00
     17.214  0.1350E-02  0.3245E-02  0.1179E+00  0.1170E+00
     17.419  0.7688E-03  0.1536E-02  0.1180E+00  0.1173E+00
     17.623  0.4209E-02  0.1099E-02  0.1189E+00  0.1176E+00
     17.828  0.2475E-02  0.1370E-02  0.1194E+00  0.1178E+00
     18.033  0.9162E-03  0.4221E-03  0.1196E+00  0.1179E+00
     18.237  0.3240E-03  0.2193E-02  0.1197E+00  0.1184E+00
     18.442  0.1554E-04  0.4605E-02  0.1197E+00  0.1193E+00
     18.647  0.3102E-03  0.1164E-02  0.1197E+00  0.1196E+00
     18.852  0.9466E-03  0.5074E-03  0.1199E+00  0.1197E+00
     19.056  0.5194E-03  0.2740E-06  0.1200E+00  0.1197E+00
     19.261  0.5859E-03  0.1647E-03  0.1202E+00  0.1197E+00
     19.466  0.9002E-03  0.1252E-02  0.1203E+00  0.1200E+00
     19.670  0.1301E-02  0.2533E-04  0.1206E+00  0.1200E+00
     19.875  0.4420E-03  0.2281E-04  0.1207E+00  0.1200E+00
     20.080  0.6339E-02  0.1180E-02  0.1220E+00  0.1202E+00
     20.285  0.4665E-02  0.1534E-02  0.1230E+00  0.1205E+00
     20.489  0.3382E-02  0.9288E-03  0.1236E+00  0.1207E+00
     20.694  0.3507E-02  0.3466E-02  0.1244E+00  0.1214E+00
     20.899  0.3203E-02  0.3722E-02  0.1250E+00  0.1222E+00
     21.103  0.4092E-02  0.4904E-02  0.1259E+00  0.1232E+00
     21.308  0.2869E-02  0.4416E-02  0.1264E+00  0.1241E+00
     21.513  0.2237E-02  0.4114E-02  0.1269E+00  0.1249E+00
     21.718  0.3245E-02  0.3487E-02  0.1276E+00  0.1257E+00
     21.922  0.1713E-02  0.3922E-02  0.1279E+00  0.1265E+00
     22.127  0.3188E-02  0.1684E-02  0.1286E+00  0.1268E+00
     22.332  0.2583E-02  0.3845E-02  0.1291E+00  0.1276E+00
     22.536  0.3997E-02  0.2330E-02  0.1299E+00  0.1281E+00
     22.741  0.3383E-02  0.3143E-02  0.1306E+00  0.1287E+00
     22.946  0.4302E-02  0.2452E-02  0.1315E+00  0.1292E+00
     23.151  0.4786E-02  0.4176E-02  0.1325E+00  0.1301E+00
     23.355  0.9595E-03  0.4463E-02  0.1327E+00  0.1310E+00
     23.560  0.6929E-02  0.5747E-02  0.1341E+00  0.1322E+00
     23.765  0.2807E-02  0.2007E-02  0.1347E+00  0.1326E+00
     23.969  0.3101E-02  0.3583E-02  0.1353E+00  0.1333E+00
     24.174  0.1248E-02  0.5760E-02  0.1355E+00  0.1345E+00
     24.379  0.3930E-02  0.3052E-02  0.1364E+00  0.1351E+00
     24.584  0.3932E-02  0.2242E-02  0.1372E+00  0.1356E+00
     24.788  0.3640E-02  0.2832E-02  0.1379E+00  0.1361E+00
     24.993  0.1698E-02  0.3825E-02  0.1382E+00  0.1369E+00
     25.198  0.1803E-02  0.3744E-02  0.1386E+00  0.1377E+00
     25.402  0.3812E-02  0.2416E-02  0.1394E+00  0.1382E+00
     25.607  0.1586E-02  0.2068E-02  0.1397E+00  0.1386E+00
     25.812  0.1822E-02  0.2747E-02  0.1401E+00  0.1392E+00
     26.017  0.6648E-02  0.2685E-02  0.1415E+00  0.1397E+00
     26.221  0.9711E-03  0.1741E-02  0.1417E+00  0.1401E+00
     26.426  0.2438E-02  0.6060E-02  0.1422E+00  0.1413E+00
     26.631  0.2367E-02  0.1571E-02  0.1426E+00  0.1416E+00
     26.835  0.5841E-02  0.2465E-02  0.1438E+00  0.1421E+00
     27.040  0.3142E-02  0.3494E-02  0.1445E+00  0.1429E+00
     27.245  0.1551E-02  0.4125E-02  0.1448E+00  0.1437E+00
     27.450  0.3300E-02  0.3664E-02  0.1455E+00  0.1445E+00
     27.654  0.2971E-02  0.1903E-02  0.1461E+00  0.1448E+00
     27.859  0.6158E-02  0.3544E-02  0.1473E+00  0.1456E+00
     28.064  0.2772E-02  0.3068E-02  0.1479E+00  0.1462E+00
     28.268  0.6179E-02  0.7000E-02  0.1492E+00  0.1476E+00
     28.473  0.4577E-02  0.3506E-02  0.1501E+00  0.1483E+00
     28.678  0.3064E-02  0.5789E-02  0.1507E+00  0.1495E+00
     28.883  0.3028E-02  0.3919E-02  0.1514E+00  0.1503E+00
     29.087  0.3592E-02  0.2665E-02  0.1521E+00  0.1509E+00
     29.292  0.5548E-02  0.3959E-02  0.1532E+00  0.1517E+00
     29.497  0.1461E-02  0.5402E-02  0.1535E+00  0.1528E+00
     29.701  0.6519E-02  0.3288E-02  0.1549E+00  0.1535E+00
     29.906  0.4035E-02  0.3319E-02  0.1557E+00  0.1541E+00
     30.111  0.3592E-02  0.5500E-02  0.1564E+00  0.1553E+00
     30.316  0.5180E-02  0.3612E-02  0.1575E+00  0.1560E+00
     30.520  0.3787E-02  0.5700E-02  0.1583E+00  0.1572E+00
     30.725  0.3562E-02  0.4270E-02  0.1590E+00  0.1581E+00
     30.930  0.3009E-02  0.3842E-02  0.1596E+00  0.1588E+00
     31.134  0.2726E-02  0.3042E-02  0.1602E+00  0.1595E+00
     31.339  0.4398E-02  0.2753E-02  0.1611E+00  0.1600E+00
     31.544  0.5020E-02  0.4286E-02  0.1621E+00  0.1609E+00
     31.749  0.3973E-02  0.5046E-02  0.1629E+00  0.1619E+00
     31.953  0.4678E-02  0.4640E-02  0.1639E+00  0.1629E+00
     32.158  0.3600E-02  0.3743E-02  0.1646E+00  0.1637E+00
     32.363  0.4071E-02  0.4364E-02  0.1654E+00  0.1645E+00
     32.567  0.3834E-02  0.3582E-02  0.1662E+00  0.1653E+00
     32.772  0.5217E-02  0.5037E-02  0.1673E+00  0.1663E+00
     32.977  0.3706E-02  0.5911E-02  0.1680E+00  0.1675E+00
     33.182  0.4885E-02  0.3585E-02  0.1690E+00  0.1683E+00
     33.386  0.2846E-02  0.3476E-02  0.1696E+00  0.1690E+00
     33.591  0.2655E-02  0.3684E-02  0.1702E+00  0.1697E+00
     33.796  0.3758E-02  0.3212E-02  0.1709E+00  0.1704E+00
     34.000  0.3347E-02  0.3232E-02  0.1716E+00  0.1710E+00
     34.205  0.4840E-02  0.3565E-02  0.1726E+00  0.1718E+00
     34.410  0.3317E-02  0.4712E-02  0.1733E+00  0.1727E+00
     34.615  0.5289E-02  0.3903E-02  0.1744E+00  0.1735E+00
     34.819  0.5152E-02  0.4890E-02  0.1754E+00  0.1745E+00
     35.024  0.2986E-02  0.4381E-02  0.1760E+00  0.1754E+00
     35.229  0.2701E-02  0.4099E-02  0.1766E+00  0.1763E+00
     35.433  0.5771E-02  0.3543E-02  0.1778E+00  0.1770E+00
     35.638  0.3287E-02  0.4633E-02  0.1784E+00  0.1779E+00
     35.843  0.4826E-02  0.2713E-02  0.1794E+00  0.1785E+00
     36.048  0.4534E-02  0.3109E-02  0.1804E+00  0.1791E+00
     36.252  0.1256E-02  0.4956E-02  0.1806E+00  0.1802E+00
     36.457  0.2732E-02  0.2946E-02  0.1812E+00  0.1808E+00
     36.662  0.4257E-02  0.2317E-02  0.1821E+00  0.1812E+00
     36.866  0.4026E-02  0.4266E-02  0.1829E+00  0.1821E+00
     37.071  0.3007E-02  0.3603E-02  0.1835E+00  0.1828E+00
     37.276  0.5499E-02  0.4018E-02  0.1846E+00  0.1837E+00
     37.481  0.8853E-02  0.5704E-02  0.1864E+00  0.1848E+00
     37.685  0.5901E-02  0.5804E-02  0.1876E+00  0.1860E+00
     37.890  0.3107E-02  0.6791E-02  0.1883E+00  0.1874E+00
     38.095  0.5364E-02  0.4383E-02  0.1894E+00  0.1883E+00
     38.299  0.3727E-02  0.6342E-02  0.1901E+00  0.1896E+00
     38.504  0.4999E-02  0.3103E-02  0.1912E+00  0.1902E+00
     38.709  0.2982E-02  0.3444E-02  0.1918E+00  0.1909E+00
     38.914  0.1283E-02  0.4058E-02  0.1920E+00  0.1918E+00
     39.118  0.3692E-02  0.2882E-02  0.1928E+00  0.1924E+00
     39.323  0.3266E-02  0.2574E-02  0.1935E+00  0.1929E+00
     39.528  0.2137E-02  0.2526E-02  0.1939E+00  0.1934E+00
     39.732  0.4687E-02  0.3798E-02  0.1949E+00  0.1942E+00
     39.937  0.4784E-02  0.4602E-02  0.1958E+00  0.1951E+00
     40.142  0.2805E-02  0.4041E-02  0.1964E+00  0.1960E+00
     40.347  0.4813E-02  0.1793E-02  0.1974E+00  0.1963E+00
     40.551  0.4150E-02  0.5772E-02  0.1982E+00  0.1975E+00
     40.756  0.4644E-02  0.3463E-02  0.1992E+00  0.1982E+00
     40.961  0.4540E-02  0.3635E-02  0.2001E+00  0.1990E+00
     41.165  0.3338E-02  0.3939E-02  0.2008E+00  0.1998E+00
     41.370  0.4703E-02  0.3601E-02  0.2018E+00  0.2005E+00
     41.575  0.2056E-02  0.6106E-02  0.2022E+00  0.2018E+00
     41.780  0.6718E-02  0.3055E-02  0.2036E+00  0.2024E+00
     41.984  0.3392E-02  0.5947E-02  0.2043E+00  0.2036E+00
     42.189  0.5496E-02  0.3361E-02  0.2054E+00  0.2043E+00
     42.394  0.3806E-02  0.5456E-02  0.2062E+00  0.2054E+00
     42.598  0.6338E-02  0.4503E-02  0.2075E+00  0.2063E+00
     42.803  0.1137E-02  0.6072E-02  0.2077E+00  0.2076E+00
     43.008  0.2296E-02  0.7221E-03  0.2082E+00  0.2077E+00
     43.213  0.4827E-02  0.4212E-02  0.2092E+00  0.2086E+00
     43.417  0.6597E-02  0.2490E-02  0.2105E+00  0.2091E+00
     43.622  0.5626E-02  0.6575E-02  0.2117E+00  0.2104E+00
     43.827  0.5621E-02  0.6882E-02  0.2128E+00  0.2118E+00
     44.031  0.4867E-02  0.4343E-02  0.2138E+00  0.2127E+00
     44.236  0.4357E-02  0.6069E-02  0.2147E+00  0.2140E+00
     44.441  0.4629E-02  0.3869E-02  0.2156E+00  0.2148E+00
     44.646  0.3586E-02  0.4020E-02  0.2164E+00  0.2156E+00
     44.850  0.5075E-02  0.3220E-02  0.2174E+00  0.2162E+00
     45.055  0.2950E-02  0.5822E-02  0.2180E+00  0.2174E+00
     45.260  0.1178E-02  0.3703E-02  0.2183E+00  0.2182E+00
     45.464  0.2179E-02  0.6921E-03  0.2187E+00  0.2183E+00
     45.669  0.6011E-02  0.1992E-02  0.2199E+00  0.2187E+00
     45.874  0.5235E-02  0.4950E-02  0.2210E+00  0.2198E+00
     46.079  0.9010E-02  0.5689E-02  0.2229E+00  0.2209E+00
     46.283  0.6560E-02  0.4329E-02  0.2242E+00  0.2218E+00
     46.488  0.4693E-02  0.8061E-02  0.2252E+00  0.2235E+00
     46.693  0.4609E-02  0.5642E-02  0.2261E+00  0.2246E+00
     46.897  0.7183E-02  0.4132E-02  0.2276E+00  0.2255E+00
     47.102  0.5522E-02  0.6516E-02  0.2287E+00  0.2268E+00
     47.307  0.8333E-02  0.4873E-02  0.2304E+00  0.2278E+00
     47.512  0.7774E-02  0.7379E-02  0.2320E+00  0.2293E+00
     47.716  0.5617E-02  0.5480E-02  0.2331E+00  0.2304E+00
     47.921  0.1321E-01  0.6118E-02  0.2359E+00  0.2317E+00
     48.126  0.1344E-01  0.1515E-02  0.2386E+00  0.2320E+00
     48.330  0.2041E-01  0.3223E-02  0.2428E+00  0.2326E+00
     48.535  0.1741E-01  0.4491E-02  0.2463E+00  0.2336E+00
     48.740  0.2276E-01  0.5887E-02  0.2510E+00  0.2348E+00
     48.945  0.1348E-01  0.5174E-02  0.2538E+00  0.2358E+00
     49.149  0.5321E-02  0.6024E-02  0.2549E+00  0.2371E+00
     49.354  0.7073E-02  0.4101E-02  0.2563E+00  0.2379E+00
     49.559  0.3214E-02  0.3047E-02  0.2570E+00  0.2385E+00
     49.763  0.9702E-02  0.5397E-02  0.2589E+00  0.2396E+00
     49.968  0.6407E-02  0.7650E-02  0.2603E+00  0.2412E+00
     50.173  0.1291E-02  0.5034E-02  0.2605E+00  0.2422E+00
     50.378  0.6517E-02  0.6530E-02  0.2619E+00  0.2436E+00
     50.582  0.3472E-02  0.4254E-02  0.2626E+00  0.2444E+00
     50.787  0.2217E-02  0.7786E-02  0.2630E+00  0.2460E+00
     50.992  0.3082E-02  0.5420E-02  0.2636E+00  0.2471E+00
     51.196  0.3618E-02  0.6210E-02  0.2644E+00  0.2484E+00
     51.401  0.5492E-02  0.1591E-01  0.2655E+00  0.2517E+00
     51.606  0.5356E-02  0.1310E-01  0.2666E+00  0.2543E+00
     51.811  0.2499E-02  0.1826E-01  0.2671E+00  0.2581E+00
     52.015  0.3068E-02  0.2623E-01  0.2677E+00  0.2635E+00
     52.220  0.4744E-02  0.9948E-02  0.2687E+00  0.2655E+00
     52.425  0.2628E-02  0.1121E-01  0.2693E+00  0.2678E+00
     52.629  0.5732E-02  0.4438E-02  0.2704E+00  0.2687E+00
     52.834  0.4649E-02  0.3005E-02  0.2714E+00  0.2693E+00
     53.039  0.3098E-02  0.4728E-02  0.2720E+00  0.2703E+00
     53.244  0.3070E-02  0.3131E-02  0.2726E+00  0.2709E+00
     53.448  0.2545E-02  0.4122E-02  0.2732E+00  0.2718E+00
     53.653  0.1758E-02  0.1252E-02  0.2735E+00  0.2720E+00
     53.858  0.4843E-02  0.5239E-02  0.2745E+00  0.2731E+00
     54.062  0.1599E-02  0.3455E-02  0.2748E+00  0.2738E+00
     54.267  0.3881E-02  0.2344E-02  0.2756E+00  0.2743E+00
     54.472  0.2094E-02  0.4464E-02  0.2761E+00  0.2752E+00
     54.677  0.3165E-02  0.2082E-02  0.2767E+00  0.2756E+00
     54.881  0.2817E-02  0.4158E-02  0.2773E+00  0.2765E+00
     55.086  0.1381E-02  0.2220E-02  0.2776E+00  0.2769E+00
     55.291  0.1933E-02  0.3551E-02  0.2780E+00  0.2777E+00
     55.495  0.1345E-02  0.1829E-02  0.2782E+00  0.2780E+00
     55.700  0.1804E-02  0.8343E-03  0.2786E+00  0.2782E+00
     55.905  0.7771E-03  0.2292E-02  0.2788E+00  0.2787E+00
     56.109  0.1032E-02  0.5000E-03  0.2790E+00  0.2788E+00
     56.314  0.7538E-03  0.8769E-03  0.2791E+00  0.2789E+00
     56.519  0.7148E-03  0.1452E-02  0.2793E+00  0.2792E+00
     56.724  0.3016E-03  0.2325E-04  0.2793E+00  0.2792E+00
     56.928  0.2612E-03  0.5100E-03  0.2794E+00  0.2794E+00
     57.133  0.1013E-02  0.2353E-03  0.2796E+00  0.2794E+00
     57.338  0.5065E-03  0.8155E-03  0.2797E+00  0.2796E+00
     57.542  0.1627E-05  0.6993E-03  0.2797E+00  0.2797E+00
     57.747  0.5840E-03  0.1194E-04  0.2798E+00  0.2797E+00
     57.952  0.6906E-03  0.1019E-02  0.2800E+00  0.2799E+00
     58.157  0.1235E-03  0.3805E-03  0.2800E+00  0.2800E+00
     58.361  0.0000E+00  0.2978E-07  0.2800E+00  0.2800E+00
     58.566  0.0000E+00  0.0000E+00  0.2800E+00  0.2800E+00
     58.771  0.0000E+00  0.0000E+00  0.2800E+00  0.2800E+00
     58.975  0.0000E+00  0.0000E+00  0.2800E+00  0.2800E+00
     59.180  0.0000E+00  0.0000E+00  0.2800E+00  0.2800E+00
     59.385  0.0000E+00  0.0000E+00  0.2800E+00  0.2800E+00
     59.590  0.0000E+00  0.0000E+00  0.2800E+00  0.2800E+00
     59.794  0.0000E+00  0.0000E+00  0.2800E+00  0.2800E+00
     59.999  0.0000E+00  0.0000E+00  0.2800E+00  0.2800E+00
     60.204  0.0000E+00  0.0000E+00  0.2800E+00  0.2800E+00
     60.408  0.0000E+00  0.0000E+00  0.2800E+00  0.2800E+00
     60.613  0.0000E+00  0.0000E+00  0.2800E+00  0.2800E+00
     60.818  0.0000E+00  0.0000E+00  0.2800E+00  0.2800E+00
     60.81791343     -0.59620750  301     11.67797399      1.00000000
     -0.596  0.0000E+00  0.0000E+00  0.0000E+00  0.0000E+00  0.0000E+00  0.0000E+00  0.0000E+00  0.0000E+00  0.0000E+00  0.0000E+00  0.0000E+00  0.0000E+00  0.0000E+00  0.0000E+00  0.0000E+00  0.0000E+00  0.0000E+00  0.0000E+00
     -0.391  0.0000E+00  0.0000E+00  0.0000E+00  0.0000E+00  0.0000E+00  0.0000E+00  0.0000E+00  0.0000E+00  0.0000E+00  0.0000E+00  0.0000E+00  0.0000E+00  0.0000E+00  0.0000E+00  0.0000E+00  0.0000E+00  0.0000E+00  0.0000E+00
     -0.187  0.0000E+00  0.0000E+00  0.0000E+00  0.0000E+00  0.0000E+00  0.0000E+00  0.0000E+00  0.0000E+00  0.0000E+00  0.0000E+00  0.0000E+00  0.0000E+00  0.0000E+00  0.0000E+00  0.0000E+00  0.0000E+00  0.0000E+00  0.0000E+00
      0.018  0.0000E+00  0.0000E+00  0.0000E+00  0.0000E+00  0.0000E+00  0.0000E+00  0.0000E+00  0.0000E+00  0.0000E+00  0.0000E+00  0.0000E+00  0.0000E+00  0.0000E+00  0.0000E+00  0.0000E+00  0.0000E+00  0.0000E+00  0.0000E+00
      0.223  0.0000E+00  0.0000E+00  0.0000E+00  0.0000E+00  0.0000E+00  0.0000E+00  0.0000E+00  0.0000E+00  0.0000E+00  0.0000E+00  0.0000E+00  0.0000E+00  0.0000E+00  0.0000E+00  0.0000E+00  0.0000E+00  0.0000E+00  0.0000E+00
      0.427  0.0000E+00  0.0000E+00  0.0000E+00  0.0000E+00  0.0000E+00  0.0000E+00  0.0000E+00  0.0000E+00  0.0000E+00  0.0000E+00  0.0000E+00  0.0000E+00  0.0000E+00  0.0000E+00  0.0000E+00  0.0000E+00  0.0000E+00  0.0000E+00
      0.632  0.0000E+00  0.0000E+00  0.0000E+00  0.0000E+00  0.0000E+00  0.0000E+00  0.0000E+00  0.0000E+00  0.0000E+00  0.0000E+00  0.0000E+00  0.0000E+00  0.0000E+00  0.0000E+00  0.0000E+00  0.0000E+00  0.0000E+00  0.0000E+00
      0.837  0.0000E+00  0.0000E+00  0.0000E+00  0.0000E+00  0.0000E+00  0.0000E+00  0.0000E+00  0.0000E+00  0.0000E+00  0.0000E+00  0.0000E+00  0.0000E+00  0.0000E+00  0.0000E+00  0.0000E+00  0.0000E+00  0.0000E+00  0.0000E+00
      1.042  0.0000E+00  0.0000E+00  0.0000E+00  0.0000E+00  0.0000E+00  0.0000E+00  0.0000E+00  0.0000E+00  0.0000E+00  0.0000E+00  0.0000E+00  0.0000E+00  0.0000E+00  0.0000E+00  0.0000E+00  0.0000E+00  0.0000E+00  0.0000E+00
      1.246  0.0000E+00  0.0000E+00  0.0000E+00  0.0000E+00  0.0000E+00  0.0000E+00  0.0000E+00  0.0000E+00  0.0000E+00  0.0000E+00  0.0000E+00  0.0000E+00  0.0000E+00  0.0000E+00  0.0000E+00  0.0000E+00  0.0000E+00  0.0000E+00
      1.451  0.0000E+00  0.0000E+00  0.0000E+00  0.0000E+00  0.0000E+00  0.0000E+00  0.0000E+00  0.0000E+00  0.0000E+00  0.0000E+00  0.0000E+00  0.0000E+00  0.0000E+00  0.0000E+00  0.0000E+00  0.0000E+00  0.0000E+00  0.0000E+00
      1.656  0.0000E+00  0.0000E+00  0.0000E+00  0.0000E+00  0.0000E+00  0.0000E+00  0.0000E+00  0.0000E+00  0.0000E+00  0.0000E+00  0.0000E+00  0.0000E+00  0.0000E+00  0.0000E+00  0.0000E+00  0.0000E+00  0.0000E+00  0.0000E+00
      1.860  0.0000E+00  0.0000E+00  0.0000E+00  0.0000E+00  0.0000E+00  0.0000E+00  0.0000E+00  0.0000E+00  0.0000E+00  0.0000E+00  0.0000E+00  0.0000E+00  0.0000E+00  0.0000E+00  0.0000E+00  0.0000E+00  0.0000E+00  0.0000E+00
      2.065  0.1965E-06  0.1776E-06  0.6128E-23  0.7124E-22  0.1455E-29  0.3354E-28  0.6128E-23  0.7124E-22  0.2570E-20  0.1368E-19  0.3243E-32  0.2621E-31  0.1049E-11  0.7911E-12  0.3243E-32  0.2621E-31  0.2570E-20  0.1368E-19
      2.270  0.1697E-02  0.1699E-02  0.7930E-11  0.5789E-11  0.1818E-06  0.1595E-06  0.7930E-11  0.5789E-11  0.1379E-12  0.7776E-13  0.1656E-21  0.1615E-20  0.1105E-07  0.8882E-08  0.1656E-21  0.1615E-20  0.1379E-12  0.7776E-13
      2.474  0.1037E-01  0.1019E-01  0.8616E-04  0.8412E-04  0.5402E-04  0.5433E-04  0.8616E-04  0.8412E-04  0.1498E-05  0.1128E-05  0.1199E-09  0.6388E-10  0.2094E-05  0.1580E-05  0.1199E-09  0.6388E-10  0.1498E-05  0.1128E-05
      2.679  0.2168E-01  0.2174E-01  0.2692E-03  0.2709E-03  0.3020E-03  0.3003E-03  0.2692E-03  0.2709E-03  0.4816E-05  0.3712E-05  0.9541E-05  0.7387E-05  0.6757E-06  0.5562E-06  0.9541E-05  0.7387E-05  0.4816E-05  0.3712E-05
      2.884  0.3591E-02  0.3603E-02  0.1860E-04  0.1986E-04  0.1680E-03  0.1619E-03  0.1860E-04  0.1986E-04  0.4756E-06  0.3408E-06  0.5988E-06  0.5547E-06  0.1030E-04  0.7027E-05  0.5988E-06  0.5547E-06  0.4756E-06  0.3408E-06
      3.089  0.1781E-01  0.1597E-01  0.5200E-03  0.4768E-03  0.4061E-03  0.3271E-03  0.5200E-03  0.4768E-03  0.2571E-04  0.1811E-04  0.1538E-04  0.8498E-05  0.3433E-04  0.2329E-04  0.1538E-04  0.8498E-05  0.2571E-04  0.1811E-04
      3.293  0.3969E-01  0.4163E-01  0.1259E-02  0.1307E-02  0.1195E-02  0.1297E-02  0.1259E-02  0.1307E-02  0.7768E-04  0.5887E-04  0.6153E-04  0.4982E-04  0.7839E-04  0.6046E-04  0.6153E-04  0.4982E-04  0.7768E-04  0.5887E-04
      3.498  0.1800E-01  0.1835E-01  0.9009E-03  0.9288E-03  0.3007E-03  0.3045E-03  0.9009E-03  0.9288E-03  0.8136E-04  0.6048E-04  0.4933E-04  0.3666E-04  0.2958E-04  0.2186E-04  0.4933E-04  0.3666E-04  0.8136E-04  0.6048E-04
      3.703  0.2050E-01  0.2035E-01  0.6779E-03  0.6872E-03  0.1585E-02  0.1574E-02  0.6779E-03  0.6872E-03  0.4329E-04  0.3185E-04  0.1413E-03  0.1049E-03  0.9704E-04  0.6300E-04  0.1413E-03  0.1049E-03  0.4329E-04  0.3185E-04
      3.907  0.3825E-01  0.2993E-01  0.1697E-02  0.1276E-02  0.3183E-02  0.2629E-02  0.1697E-02  0.1276E-02  0.2008E-03  0.9875E-04  0.2783E-03  0.1835E-03  0.4374E-03  0.2046E-03  0.2783E-03  0.1835E-03  0.2008E-03  0.9875E-04
      4.112  0.4479E-01  0.4791E-01  0.3729E-02  0.3722E-02  0.1022E-02  0.1613E-02  0.3729E-02  0.3722E-02  0.6011E-03  0.4155E-03  0.2228E-03  0.1507E-03  0.4344E-03  0.3788E-03  0.2228E-03  0.1507E-03  0.6011E-03  0.4155E-03
      4.317  0.1099E-01  0.9863E-02  0.7044E-03  0.8205E-03  0.1048E-02  0.3776E-03  0.7044E-03  0.8205E-03  0.1328E-03  0.9386E-04  0.1483E-03  0.5873E-04  0.1684E-03  0.6464E-04  0.1483E-03  0.5873E-04  0.1328E-03  0.9386E-04
      4.522  0.6529E-01  0.4798E-01  0.5567E-02  0.3980E-02  0.4640E-02  0.3671E-02  0.5567E-02  0.3980E-02  0.1325E-02  0.6092E-03  0.1375E-02  0.6076E-03  0.6356E-03  0.3765E-03  0.1375E-02  0.6076E-03  0.1325E-02  0.6092E-03
      4.726  0.1433E-01  0.4012E-01  0.7267E-03  0.3054E-02  0.2166E-02  0.4127E-02  0.7267E-03  0.3054E-02  0.1346E-03  0.4446E-03  0.3437E-03  0.6615E-03  0.5261E-03  0.4668E-03  0.3437E-03  0.6615E-03  0.1346E-03  0.4446E-03
      4.931  0.2931E-01  0.2223E-01  0.1874E-02  0.1221E-02  0.4472E-02  0.4054E-02  0.1874E-02  0.1221E-02  0.6957E-03  0.2622E-03  0.8238E-03  0.3755E-03  0.2208E-02  0.1223E-02  0.8238E-03  0.3755E-03  0.6957E-03  0.2622E-03
      5.136  0.5259E-01  0.1841E-01  0.6770E-02  0.2369E-02  0.3950E-02  0.1098E-02  0.6770E-02  0.2369E-02  0.2359E-02  0.5102E-03  0.2018E-02  0.2688E-03  0.1250E-02  0.4432E-03  0.2018E-02  0.2688E-03  0.2359E-02  0.5102E-03
      5.340  0.5221E-01  0.7777E-01  0.6342E-02  0.9738E-02  0.5131E-02  0.7714E-02  0.6342E-02  0.9738E-02  0.3135E-02  0.2440E-02  0.1879E-02  0.1978E-02  0.3071E-02  0.1919E-02  0.1879E-02  0.1978E-02  0.3135E-02  0.2440E-02
      5.545  0.6397E-01  0.4340E-01  0.7983E-02  0.5252E-02  0.7536E-02  0.5961E-02  0.7983E-02  0.5252E-02  0.5310E-02  0.1470E-02  0.5637E-02  0.1725E-02  0.3990E-02  0.1458E-02  0.5637E-02  0.1725E-02  0.5310E-02  0.1470E-02
      5.750  0.2940E-01  0.4394E-01  0.3209E-02  0.6491E-02  0.3719E-02  0.4292E-02  0.3209E-02  0.6491E-02  0.4551E-02  0.2609E-02  0.2270E-02  0.2386E-02  0.8430E-02  0.1618E-02  0.2270E-02  0.2386E-02  0.4551E-02  0.2609E-02
      5.955  0.5670E-01  0.2516E-01  0.6794E-02  0.3008E-02  0.1147E-01  0.3915E-02  0.6794E-02  0.3008E-02  0.6395E-02  0.1894E-02  0.1315E-01  0.4668E-03  0.4068E-02  0.4563E-02  0.1315E-01  0.4668E-03  0.6395E-02  0.1894E-02
      6.159  0.1014E+00  0.5318E-01  0.1450E-01  0.7029E-02  0.9736E-02  0.1116E-01  0.1450E-01  0.7029E-02  0.3980E-01  0.3350E-02  0.3516E-01  0.6137E-02  0.4071E-01  0.1959E-02  0.3516E-01  0.6137E-02  0.3980E-01  0.3350E-02
      6.364  0.1002E+00  0.4486E-01  0.1328E-01  0.6745E-02  0.1108E-01  0.9409E-02  0.1328E-01  0.6745E-02  0.5715E-01  0.3353E-02  0.7126E-01  0.4627E-02  0.4927E-01  0.4661E-02  0.7126E-01  0.4627E-02  0.5715E-01  0.3353E-02
      6.569  0.7025E-01  0.6696E-01  0.9980E-02  0.1379E-01  0.1064E-01  0.7045E-02  0.9980E-02  0.1379E-01  0.6526E-01  0.1114E-01  0.7423E-01  0.4951E-02  0.6760E-01  0.1008E-01  0.7423E-01  0.4951E-02  0.6526E-01  0.1114E-01
      6.773  0.7879E-01  0.6069E-01  0.1318E-01  0.1179E-01  0.2002E-01  0.7510E-02  0.1318E-01  0.1179E-01  0.1195E+00  0.1156E-01  0.8721E-01  0.1078E-01  0.8567E-01  0.1480E-01  0.8721E-01  0.1078E-01  0.1195E+00  0.1156E-01
      6.978  0.6604E-01  0.8251E-01  0.1964E-01  0.1299E-01  0.1963E-01  0.1698E-01  0.1964E-01  0.1299E-01  0.1224E+00  0.2570E-01  0.1685E+00  0.3152E-01  0.1409E+00  0.1293E-01  0.1685E+00  0.3152E-01  0.1224E+00  0.2570E-01
      7.183  0.3407E-01  0.6334E-01  0.1381E-01  0.6073E-02  0.1784E-01  0.1183E-01  0.1381E-01  0.6073E-02  0.9599E-01  0.3007E-01  0.1169E+00  0.4057E-01  0.1106E+00  0.4515E-01  0.1169E+00  0.4057E-01  0.9599E-01  0.3007E-01
      7.388  0.2686E-01  0.7050E-01  0.1913E-01  0.1394E-01  0.1885E-01  0.9745E-02  0.1913E-01  0.1394E-01  0.8848E-01  0.4650E-01  0.1235E+00  0.4452E-01  0.1120E+00  0.3083E-01  0.1235E+00  0.4452E-01  0.8848E-01  0.4650E-01
      7.592  0.2150E-01  0.8819E-01  0.2376E-01  0.2073E-01  0.1714E-01  0.1800E-01  0.2376E-01  0.2073E-01  0.1289E+00  0.6271E-01  0.1195E+00  0.6880E-01  0.1921E+00  0.5821E-01  0.1195E+00  0.6880E-01  0.1289E+00  0.6271E-01
      7.797  0.1088E-01  0.5133E-01  0.2092E-01  0.1240E-01  0.1582E-01  0.1788E-01  0.2092E-01  0.1240E-01  0.1551E+00  0.8197E-01  0.9710E-01  0.5424E-01  0.1884E+00  0.5345E-01  0.9710E-01  0.5424E-01  0.1551E+00  0.8197E-01
      8.002  0.1005E-01  0.4502E-01  0.2423E-01  0.1493E-01  0.1427E-01  0.1863E-01  0.2423E-01  0.1493E-01  0.1822E+00  0.7343E-01  0.9938E-01  0.9338E-01  0.1678E+00  0.9423E-01  0.9938E-01  0.9338E-01  0.1822E+00  0.7343E-01
      8.206  0.1472E-01  0.3170E-01  0.2979E-01  0.1705E-01  0.2551E-01  0.2258E-01  0.2979E-01  0.1705E-01  0.2193E+00  0.8370E-01  0.1223E+00  0.1442E+00  0.1889E+00  0.7508E-01  0.1223E+00  0.1442E+00  0.2193E+00  0.8370E-01
      8.411  0.6170E-02  0.1911E-01  0.1287E-01  0.2003E-01  0.9438E-02  0.2056E-01  0.1287E-01  0.2003E-01  0.1028E+00  0.6618E-01  0.3917E-01  0.1254E+00  0.8402E-01  0.7542E-01  0.3917E-01  0.1254E+00  0.1028E+00  0.6618E-01
      8.616  0.4543E-02  0.1060E-01  0.1229E-01  0.2061E-01  0.1859E-01  0.1638E-01  0.1229E-01  0.2061E-01  0.1163E+00  0.1010E+00  0.1368E+00  0.6608E-01  0.1750E+00  0.1179E+00  0.1368E+00  0.6608E-01  0.1163E+00  0.1010E+00
      8.821  0.1235E-01  0.1033E-01  0.2204E-01  0.2652E-01  0.2210E-01  0.1250E-01  0.2204E-01  0.2652E-01  0.1527E+00  0.1063E+00  0.2557E+00  0.6833E-01  0.3213E+00  0.1535E+00  0.2557E+00  0.6833E-01  0.1527E+00  0.1063E+00
      9.025  0.1172E-01  0.1003E-01  0.1730E-01  0.3273E-01  0.2420E-01  0.1881E-01  0.1730E-01  0.3273E-01  0.2034E+00  0.1488E+00  0.2230E+00  0.8233E-01  0.1911E+00  0.1908E+00  0.2230E+00  0.8233E-01  0.2034E+00  0.1488E+00
      9.230  0.1298E-01  0.1074E-01  0.1571E-01  0.3799E-01  0.2779E-01  0.2698E-01  0.1571E-01  0.3799E-01  0.2532E+00  0.1724E+00  0.2679E+00  0.9878E-01  0.1779E+00  0.1720E+00  0.2679E+00  0.9878E-01  0.2532E+00  0.1724E+00
      9.435  0.1183E-01  0.9175E-02  0.1785E-01  0.3327E-01  0.2651E-01  0.2295E-01  0.1785E-01  0.3327E-01  0.2464E+00  0.1794E+00  0.2576E+00  0.7140E-01  0.1922E+00  0.1478E+00  0.2576E+00  0.7140E-01  0.2464E+00  0.1794E+00
      9.639  0.1070E-01  0.3019E-02  0.2366E-01  0.1067E-01  0.2434E-01  0.1279E-01  0.2366E-01  0.1067E-01  0.2100E+00  0.9895E-01  0.2309E+00  0.2850E-01  0.2005E+00  0.7320E-01  0.2309E+00  0.2850E-01  0.2100E+00  0.9895E-01