    2    2  100    2
  0.9868500E+01  0.2417507E-09  0.2417507E-09  0.3899554E-09  0.5000000E-15
  1.000000000000000E-004
  CAR 
 Co-hcc                                  
     18     95     28
 
  0.0000000E+00  0.0000000E+00  0.0000000E+00  0.8680556E-03
      1          2.195343        2.196278   1.000000   1.000000
      2          6.080811        6.964700   1.000000   1.000000
      3          8.942526       10.474782   1.000000   1.000000
      4          8.960088       10.474783   1.000000   1.000000
      5          8.960088       10.480478   1.000000   1.000000
      6          9.330351       10.899555   1.000000   1.000000
      7          9.330351       10.899555   1.000000   1.000000
      8          9.722787       11.371168   1.000000   1.000000
      9          9.722787       11.371168   1.000000   1.000000
     10         11.007293       11.539978   1.000000   0.999953
     11         11.007293       12.771820   1.000000   0.000000
     12         11.582774       12.771821   0.996456   0.000000
     13         18.963212       19.931845   0.000000   0.000000
     14         34.412852       34.158257   0.000000   0.000000
     15         37.833560       37.696018   0.000000   0.000000
     16         37.958747       37.999672   0.000000   0.000000
     17         37.958749       38.300646   0.000000   0.000000
     18         38.211691       38.300647   0.000000   0.000000
     19         39.211734       39.498799   0.000000   0.000000
     20         39.211734       39.498807   0.000000   0.000000
     21         43.556166       43.512232   0.000000   0.000000
     22         43.556166       43.512236   0.000000   0.000000
     23         45.038180       44.774081   0.000000   0.000000
     24         45.069338       45.288422   0.000000   0.000000
     25         47.314652       47.512821   0.000000   0.000000
     26         47.314652       47.512823   0.000000   0.000000
     27         47.887376       49.336273   0.000000   0.000000
     28         48.188622       50.616280   0.000000   0.000000
 
  0.8333333E-01  0.0000000E+00  0.0000000E+00  0.5208333E-02
      1          2.456530        2.458599   1.000000   1.000000
      2          6.240547        7.143056   1.000000   1.000000
      3          8.685633       10.162432   1.000000   1.000000
      4          9.090634       10.616556   1.000000   1.000000
      5          9.171512       10.724986   1.000000   1.000000
      6          9.276217       10.725723   1.000000   1.000000
      7          9.445745       10.831145   1.000000   1.000000
      8          9.540677       11.024842   1.000000   1.000000
      9          9.639627       11.275901   1.000000   1.000000
     10         10.074372       11.317177   1.000000   1.000000
     11         11.043521       12.813993   1.000000   0.000000
     12         12.864004       13.791356   0.000000   0.000000
     13         18.998581       19.946138   0.000000   0.000000
     14         32.865203       32.911092   0.000000   0.000000
     15         35.348521       35.439636   0.000000   0.000000
     16         35.648783       35.968804   0.000000   0.000000
     17         38.234265       38.040973   0.000000   0.000000
     18         38.891866       38.860555   0.000000   0.000000
     19         40.289707       40.180956   0.000000   0.000000
     20         41.722851       42.007261   0.000000   0.000000
     21         42.489004       42.716383   0.000000   0.000000
     22         43.120715       43.142351   0.000000   0.000000
     23         44.614256       44.886879   0.000000   0.000000
     24         44.919455       45.196010   0.000000   0.000000
     25         47.253149       48.133339   0.000000   0.000000
     26         47.710791       48.251070   0.000000   0.000000
     27         48.055374       48.353765   0.000000   0.000000
     28         48.213775       48.485130   0.000000   0.000000
 
  0.1666667E+00  0.0000000E+00  0.0000000E+00  0.5208333E-02
      1          3.208904        3.218847   1.000000   1.000000
      2          6.633223        7.595893   1.000000   1.000000
      3          8.364807        9.729209   1.000000   1.000000
      4          8.710393        9.760255   1.000000   1.000000
      5          9.076936       10.581930   1.000000   1.000000
      6          9.435067       11.018533   1.000000   1.000000
      7          9.459127       11.043057   1.000000   1.000000
      8          9.522295       11.105038   1.000000   1.000000
      9          9.671349       11.135822   1.000000   1.000000
     10          9.768950       11.376444   1.000000   1.000000
     11         11.120576       12.902748   1.000000   0.000000
     12         14.608491       15.434872   0.000000   0.000000
     13         19.125047       20.006488   0.000000   0.000000
     14         29.093004       29.410231   0.000000   0.000000
     15         33.089339       33.389851   0.000000   0.000000
     16         34.324607       34.415718   0.000000   0.000000
     17         36.265697       36.279835   0.000000   0.000000
     18         38.353014       38.158076   0.000000   0.000000
     19         39.686694       39.764517   0.000000   0.000000
     20         42.224804       42.499241   0.000000   0.000000
     21         42.387532       42.585523   0.000000   0.000000
     22         43.471729       43.727584   0.000000   0.000000
     23         43.921215       44.168783   0.000000   0.000000
     24         45.917299       46.301887   0.000000   0.000000
     25         46.015327       46.563806   0.000000   0.000000
     26         47.765750       48.135320   0.000000   0.000000
     27         48.110440       50.391417   0.000000   0.000000
     28         48.823256       51.273806   0.000000   0.000000
 
  0.2500000E+00  0.2775558E-16  0.0000000E+00  0.5208333E-02
      1          4.334899        4.383660   1.000000   1.000000
      2          6.938762        8.015363   1.000000   1.000000
      3          7.881926        8.929434   1.000000   1.000000
      4          8.170357        9.426303   1.000000   1.000000
      5          8.972222       10.421645   1.000000   1.000000
      6          9.190165       10.766164   1.000000   1.000000
      7          9.445697       10.895239   1.000000   1.000000
      8          9.994770       11.608820   1.000000   0.974766
      9         10.014461       11.610991   1.000000   0.970925
     10         10.234368       11.884866   1.000000   0.000000
     11         11.193449       12.985597   1.000000   0.000000
     12         16.548542       17.291714   0.000000   0.000000
     13         19.365242       20.129828   0.000000   0.000000
     14         25.287268       25.746395   0.000000   0.000000
     15         30.857258       31.121668   0.000000   0.000000
     16         32.840283       32.971804   0.000000   0.000000
     17         33.153697       33.368434   0.000000   0.000000
     18         37.367592       37.233605   0.000000   0.000000
     19         37.803925       38.242657   0.000000   0.000000
     20         41.783110       41.964639   0.000000   0.000000
     21         42.017517       42.371041   0.000000   0.000000
     22         42.568439       42.656379   0.000000   0.000000
     23         43.960685       44.141351   0.000000   0.000000
     24         46.782043       47.301716   0.000000   0.000000
     25         48.075031       49.385120   0.000000   0.000000
     26         48.991240       51.137970   0.000000   0.000000
     27         48.999580       52.114379   0.000000   0.000000
     28         52.001125       52.288717   0.000000   0.000000
 
  0.3333333E+00  0.0000000E+00  0.0000000E+00  0.5208333E-02
      1          5.531088        5.739834   1.000000   1.000000
      2          6.850272        8.003877   1.000000   1.000000
      3          7.276056        8.357546   1.000000   1.000000
      4          8.300539        9.343748   1.000000   1.000000
      5          8.970211       10.518672   1.000000   1.000000
      6          9.113286       10.545510   1.000000   1.000000
      7          9.245031       10.660613   1.000000   1.000000
      8         10.567444       12.249919   1.000000   0.000000
      9         10.740064       12.360274   1.000000   0.000000
     10         10.796466       12.440448   1.000000   0.000000
     11         11.243386       13.041673   1.000000   0.000000
     12         18.640942       19.293270   0.000000   0.000000
     13         19.304486       19.930961   0.000000   0.000000
     14         22.387061       22.969431   0.000000   0.000000
     15         29.073435       29.286201   0.000000   0.000000
     16         29.693256       29.957895   0.000000   0.000000
     17         30.971925       31.328261   0.000000   0.000000
     18         36.203010       36.081574   0.000000   0.000000
     19         36.203819       36.649568   0.000000   0.000000
     20         40.098484       40.424393   0.000000   0.000000
     21         41.369662       41.601297   0.000000   0.000000
     22         43.484444       43.652410   0.000000   0.000000
     23         45.806130       45.961717   0.000000   0.000000
     24         47.469984       48.272643   0.000000   0.000000
     25         48.306761       51.597391   0.000000   0.000000
     26         49.501694       52.281505   0.000000   0.000000
     27         52.612706       52.977895   0.000000   0.000000
     28         55.110368       55.289544   0.000000   0.000000
 
  0.4166667E+00  0.2775558E-16  0.0000000E+00  0.5208333E-02
      1          6.269343        6.867270   1.000000   1.000000
      2          6.645327        7.760509   1.000000   1.000000
      3          6.910741        8.016213   1.000000   1.000000
      4          8.715314        9.459637   1.000000   1.000000
      5          8.820343       10.350557   1.000000   1.000000
      6          9.103652       10.491920   1.000000   1.000000
      7          9.343708       10.802011   1.000000   1.000000
      8         10.997394       12.736042   1.000000   0.000000
      9         11.159427       12.909054   1.000000   0.000000
     10         11.270020       13.071252   1.000000   0.000000
     11         12.035388       13.440401   0.000000   0.000000
     12         17.303399       18.041904   0.000000   0.000000
     13         20.784155       21.323952   0.000000   0.000000
     14         22.268685       22.754991   0.000000   0.000000
     15         26.935141       27.344988   0.000000   0.000000
     16         27.891759       28.052330   0.000000   0.000000
     17         28.358405       28.818485   0.000000   0.000000
     18         35.383481       35.251297   0.000000   0.000000
     19         35.632641       36.078549   0.000000   0.000000
     20         38.831806       39.122901   0.000000   0.000000
     21         41.134873       41.396825   0.000000   0.000000
     22         44.071216       44.330823   0.000000   0.000000
     23         47.749891       48.518598   0.000000   0.000000
     24         48.364165       48.726814   0.000000   0.000000
     25         48.365897       51.673004   0.000000   0.000000
     26         49.771996       52.304509   0.000000   0.000000
     27         54.829564       55.139218   0.000000   0.000000
     28         56.020914       56.336379   0.000000   0.000000
 
  0.5000000E+00  0.5551115E-16  0.0000000E+00  0.2604167E-02
      1          6.455182        7.360705   1.000000   1.000000
      2          6.554502        7.553940   1.000000   1.000000
      3          6.789000        7.903101   1.000000   1.000000
      4          8.767475        9.603714   1.000000   1.000000
      5          8.989334       10.291354   1.000000   1.000000
      6          9.052761       10.430811   1.000000   1.000000
      7          9.432170       10.903700   1.000000   1.000000
      8         11.153181       12.911282   1.000000   0.000000
      9         11.278114       13.080178   1.000000   0.000000
     10         11.329670       13.103869   1.000000   0.000000
     11         13.267335       14.457846   0.000000   0.000000
     12         15.505559       16.426101   0.000000   0.000000
     13         22.175336       22.600460   0.000000   0.000000
     14         22.949727       23.323874   0.000000   0.000000
     15         25.342685       25.879343   0.000000   0.000000
     16         26.943835       27.480019   0.000000   0.000000
     17         27.473353       27.610555   0.000000   0.000000
     18         35.095545       34.957217   0.000000   0.000000
     19         35.496873       35.946865   0.000000   0.000000
     20         38.389266       38.665673   0.000000   0.000000
     21         41.059904       41.331960   0.000000   0.000000
     22         44.286790       44.587062   0.000000   0.000000
     23         47.863813       48.774617   0.000000   0.000000
     24         48.360096       50.867005   0.000000   0.000000
     25         49.744052       51.646109   0.000000   0.000000
     26         50.832908       52.304067   0.000000   0.000000
     27         52.098688       52.524886   0.000000   0.000000
     28         57.624794       58.000591   0.000000   0.000000
 
  0.8333333E-01  0.8333333E-01  0.0000000E+00  0.5208333E-02
      1          2.964399        2.970577   1.000000   1.000000
      2          6.523509        7.464080   1.000000   1.000000
      3          8.433029        9.857057   1.000000   1.000000
      4          8.991038        9.992616   1.000000   1.000000
      5          9.154739       10.673371   1.000000   1.000000
      6          9.351961       10.905667   1.000000   1.000000
      7          9.357038       10.927382   1.000000   1.000000
      8          9.402682       10.997705   1.000000   1.000000
      9          9.699976       11.298539   1.000000   1.000000
     10          9.808534       11.303000   1.000000   1.000000
     11         11.088572       12.865663   1.000000   0.000000
     12         14.122604       14.974000   0.000000   0.000000
     13         19.081850       19.985895   0.000000   0.000000
     14         30.792274       30.995196   0.000000   0.000000
     15         31.784650       32.114517   0.000000   0.000000
     16         36.997385       37.062393   0.000000   0.000000
     17         37.752262       37.660416   0.000000   0.000000
     18         37.890599       37.791584   0.000000   0.000000
     19         38.211030       38.260161   0.000000   0.000000
     20         41.703684       41.852768   0.000000   0.000000
     21         43.070080       43.478017   0.000000   0.000000
     22         43.678876       44.115225   0.000000   0.000000
     23         45.419485       45.544799   0.000000   0.000000
     24         45.936272       46.097795   0.000000   0.000000
     25         46.312049       46.682238   0.000000   0.000000
     26         46.850995       47.405552   0.000000   0.000000
     27         47.392957       47.493866   0.000000   0.000000
     28         48.343692       51.543048   0.000000   0.000000
 
  0.1666667E+00  0.8333333E-01  0.0000000E+00  0.1041667E-01
      1          3.914163        3.939398   1.000000   1.000000
      2          6.923904        7.944547   1.000000   1.000000
      3          8.115811        9.214322   1.000000   1.000000
      4          8.187236        9.449688   1.000000   1.000000
      5          9.017026       10.485923   1.000000   1.000000
      6          9.143004       10.689170   1.000000   1.000000
      7          9.636424       11.144453   1.000000   1.000000
      8          9.645228       11.243801   1.000000   1.000000
      9          9.843676       11.434535   1.000000   1.000000
     10         10.177626       11.803347   1.000000   0.000196
     11         11.144206       12.929066   1.000000   0.000000
     12         15.851893       16.628822   0.000000   0.000000
     13         19.290714       20.103785   0.000000   0.000000
     14         27.223491       27.604414   0.000000   0.000000
     15         29.564836       29.891544   0.000000   0.000000
     16         34.536771       34.566983   0.000000   0.000000
     17         35.740976       35.892036   0.000000   0.000000
     18         36.696195       36.721792   0.000000   0.000000
     19         38.611397       38.755133   0.000000   0.000000
     20         40.470630       40.914943   0.000000   0.000000
     21         41.770626       41.815580   0.000000   0.000000
     22         44.331060       44.831042   0.000000   0.000000
     23         45.561005       45.735902   0.000000   0.000000
     24         46.046012       46.263172   0.000000   0.000000
     25         47.608489       48.359705   0.000000   0.000000
     26         48.521539       49.752208   0.000000   0.000000
     27         48.917575       49.981199   0.000000   0.000000
     28         49.670535       51.638693   0.000000   0.000000
 
  0.2500000E+00  0.8333333E-01  0.0000000E+00  0.1041667E-01
      1          5.119150        5.225033   1.000000   1.000000
      2          7.042615        8.176775   1.000000   1.000000
      3          7.525073        8.593721   1.000000   1.000000
      4          8.035372        9.210511   1.000000   1.000000
      5          8.926486       10.433845   1.000000   1.000000
      6          9.031697       10.461380   1.000000   1.000000
      7          9.413166       10.890687   1.000000   1.000000
      8         10.107538       11.731403   1.000000   0.065367
      9         10.422248       12.075038   1.000000   0.000000
     10         10.825191       12.457579   1.000000   0.000000
     11         11.191061       12.982045   1.000000   0.000000
     12         17.825467       18.522438   0.000000   0.000000
     13         19.583108       20.258487   0.000000   0.000000
     14         23.684486       24.198293   0.000000   0.000000
     15         27.921476       28.236574   0.000000   0.000000
     16         31.329301       31.508707   0.000000   0.000000
     17         33.092581       33.386710   0.000000   0.000000
     18         35.382045       35.419165   0.000000   0.000000
     19         38.124327       38.425083   0.000000   0.000000
     20         38.622711       38.994654   0.000000   0.000000
     21         42.416466       42.452203   0.000000   0.000000
     22         45.488033       45.671739   0.000000   0.000000
     23         45.762022       45.954183   0.000000   0.000000
     24         46.642134       47.122904   0.000000   0.000000
     25         47.952039       50.064616   0.000000   0.000000
     26         48.885742       51.970525   0.000000   0.000000
     27         50.596707       52.175610   0.000000   0.000000
     28         52.960449       53.007764   0.000000   0.000000
 
  0.3333333E+00  0.8333333E-01  0.0000000E+00  0.1041667E-01
      1          6.137187        6.519210   1.000000   1.000000
      2          6.841528        7.990949   1.000000   1.000000
      3          7.072677        8.175083   1.000000   1.000000
      4          8.308118        9.242329   1.000000   1.000000
      5          8.787102       10.276972   1.000000   1.000000
      6          9.192004       10.625521   1.000000   1.000000
      7          9.250317       10.695536   1.000000   1.000000
      8         10.687939       12.356765   1.000000   0.000000
      9         10.918223       12.631090   1.000000   0.000000
     10         11.220178       13.014567   1.000000   0.000000
     11         11.724230       13.256855   0.095381   0.000000
     12         18.717194       19.352295   0.000000   0.000000
     13         19.950521       20.552582   0.000000   0.000000
     14         22.057173       22.607798   0.000000   0.000000
     15         26.628341       26.912288   0.000000   0.000000
     16         28.382986       28.710370   0.000000   0.000000
     17         30.098767       30.483602   0.000000   0.000000
     18         34.395185       34.410844   0.000000   0.000000
     19         37.384017       37.685116   0.000000   0.000000
     20         37.562709       37.945761   0.000000   0.000000
     21         42.548201       42.645756   0.000000   0.000000
     22         45.798482       46.028649   0.000000   0.000000
     23         47.465162       47.633032   0.000000   0.000000
     24         47.658724       48.579644   0.000000   0.000000
     25         48.302213       51.428889   0.000000   0.000000
     26         49.592205       52.234961   0.000000   0.000000
     27         52.513709       52.962277   0.000000   0.000000
     28         56.389787       56.437222   0.000000   0.000000
 
  0.4166667E+00  0.8333333E-01  0.0000000E+00  0.1041667E-01
      1          6.539860        7.342989   1.000000   1.000000
      2          6.686515        7.746878   1.000000   1.000000
      3          6.844866        7.966038   1.000000   1.000000
      4          8.721802        9.417387   1.000000   1.000000
      5          8.732090       10.232775   1.000000   1.000000
      6          9.045223       10.432618   1.000000   1.000000
      7          9.427718       10.900466   1.000000   1.000000
      8         11.105236       12.848100   1.000000   0.000000
      9         11.188077       12.936669   1.000000   0.000000
     10         11.232981       13.028686   1.000000   0.000000
     11         13.100554       14.334514   0.000000   0.000000
     12         16.304860       17.153069   0.000000   0.000000
     13         21.971129       22.449049   0.000000   0.000000
     14         22.868304       23.276642   0.000000   0.000000
     15         25.772576       26.062806   0.000000   0.000000
     16         25.958351       26.438463   0.000000   0.000000
     17         27.818969       28.250077   0.000000   0.000000
     18         33.876211       33.875344   0.000000   0.000000
     19         36.756659       37.048022   0.000000   0.000000
     20         37.242432       37.631063   0.000000   0.000000
     21         42.482408       42.615307   0.000000   0.000000
     22         46.024353       46.334572   0.000000   0.000000
     23         47.852270       48.826116   0.000000   0.000000
     24         48.414256       50.139017   0.000000   0.000000
     25         49.758729       51.671912   0.000000   0.000000
     26         50.015440       52.263315   0.000000   0.000000
     27         53.480797       53.821370   0.000000   0.000000
     28         55.390484       55.654230   0.000000   0.000000
 
  0.1666667E+00  0.1666667E+00  0.0000000E+00  0.5208333E-02
      1          4.974683        5.046749   1.000000   1.000000
      2          7.249634        8.338965   1.000000   1.000000
      3          7.655856        8.716239   1.000000   1.000000
      4          7.776096        9.036923   1.000000   1.000000
      5          8.844981       10.343019   1.000000   1.000000
      6          9.028526       10.460716   1.000000   1.000000
      7          9.521054       11.017864   1.000000   1.000000
      8          9.837289       11.461889   1.000000   1.000000
      9         10.407708       12.048994   1.000000   0.000000
     10         10.849200       12.473203   1.000000   0.000000
     11         11.146139       12.930822   1.000000   0.000000
     12         17.550159       18.266645   0.000000   0.000000
     13         19.654236       20.355547   0.000000   0.000000
     14         25.352669       25.770674   0.000000   0.000000
     15         25.995011       26.408071   0.000000   0.000000
     16         32.756524       32.771047   0.000000   0.000000
     17         33.954197       34.209659   0.000000   0.000000
     18         35.243422       35.534797   0.000000   0.000000
     19         36.096687       36.354673   0.000000   0.000000
     20         41.034209       41.303960   0.000000   0.000000
     21         42.762982       42.719711   0.000000   0.000000
     22         43.928197       44.447453   0.000000   0.000000
     23         47.171934       47.570072   0.000000   0.000000
     24         48.442266       48.712806   0.000000   0.000000
     25         48.552394       48.967094   0.000000   0.000000
     26         48.604042       50.289503   0.000000   0.000000
     27         48.875651       51.306066   0.000000   0.000000
     28         50.254684       51.998005   0.000000   0.000000
 
  0.2500000E+00  0.1666667E+00  0.0000000E+00  0.1041667E-01
      1          6.115074        6.340944   1.000000   1.000000
      2          7.222357        8.337248   1.000000   1.000000
      3          7.233697        8.379521   1.000000   1.000000
      4          7.752323        8.865552   1.000000   1.000000
      5          8.666772       10.124981   1.000000   1.000000
      6          9.192857       10.623795   1.000000   1.000000
      7          9.300946       10.761454   1.000000   1.000000
      8         10.191642       11.844810   1.000000   0.000001
      9         10.918009       12.622981   1.000000   0.000000
     10         11.143659       12.927856   1.000000   0.000000
     11         11.755832       13.303381   0.013827   0.000000
     12         19.534546       20.177806   0.000000   0.000000
     13         19.946625       20.521795   0.000000   0.000000
     14         22.503147       23.034229   0.000000   0.000000
     15         24.450064       24.851931   0.000000   0.000000
     16         30.161573       30.369622   0.000000   0.000000
     17         32.161235       32.517052   0.000000   0.000000
     18         32.389324       32.597489   0.000000   0.000000
     19         34.802094       35.117122   0.000000   0.000000
     20         41.207834       41.501859   0.000000   0.000000
     21         44.158080       44.095566   0.000000   0.000000
     22         46.065026       46.549619   0.000000   0.000000
     23         47.696921       48.169680   0.000000   0.000000
     24         48.467495       48.713998   0.000000   0.000000
     25         48.558672       50.901909   0.000000   0.000000
     26         48.831604       52.023856   0.000000   0.000000
     27         51.570347       52.217717   0.000000   0.000000
     28         52.143991       52.370152   0.000000   0.000000
 
  0.3333333E+00  0.1666667E+00  0.0000000E+00  0.1041667E-01
      1          6.793203        7.404310   1.000000   1.000000
      2          6.970132        8.107593   1.000000   1.000000
      3          6.997076        8.124616   1.000000   1.000000
      4          8.119927        8.999801   1.000000   1.000000
      5          8.618790       10.063546   1.000000   1.000000
      6          9.061715       10.475294   1.000000   1.000000
      7          9.422426       10.889634   1.000000   1.000000
      8         10.661129       12.350106   1.000000   0.000000
      9         11.140494       12.920840   1.000000   0.000000
     10         11.172978       12.923983   1.000000   0.000000
     11         13.040233       14.349139   0.000000   0.000000
     12         18.044903       18.735998   0.000000   0.000000
     13         21.671579       22.221756   0.000000   0.000000
     14         22.388214       22.857615   0.000000   0.000000
     15         23.640386       24.013982   0.000000   0.000000
     16         27.444813       27.825001   0.000000   0.000000
     17         29.200258       29.608463   0.000000   0.000000
     18         31.650957       31.818145   0.000000   0.000000
     19         34.016499       34.333033   0.000000   0.000000
     20         40.874723       41.195724   0.000000   0.000000
     21         45.021455       44.985068   0.000000   0.000000
     22         47.640029       48.244486   0.000000   0.000000
     23         48.127525       49.807219   0.000000   0.000000
     24         48.961034       49.829282   0.000000   0.000000
     25         49.694474       51.118474   0.000000   0.000000
     26         49.948799       52.150696   0.000000   0.000000
     27         51.726951       52.381479   0.000000   0.000000
     28         55.264325       55.300187   0.000000   0.000000
 
  0.4166667E+00  0.1666667E+00  0.0000000E+00  0.5208333E-02
      1          6.878558        7.807456   1.000000   1.000000
      2          6.881143        7.976400   1.000000   1.000000
      3          6.962995        8.031294   1.000000   1.000000
      4          8.369991        9.131516   1.000000   1.000000
      5          8.639338       10.101878   1.000000   1.000000
      6          8.936946       10.310084   1.000000   1.000000
      7          9.520876       11.008150   1.000000   1.000000
      8         10.980317       12.701477   1.000000   0.000000
      9         11.138998       12.903085   1.000000   0.000000
     10         11.148011       12.922131   1.000000   0.000000
     11         14.355550       15.358753   0.000000   0.000000
     12         16.139863       17.062891   0.000000   0.000000
     13         22.837651       23.228592   0.000000   0.000000
     14         23.188370       23.635674   0.000000   0.000000
     15         23.663332       24.028543   0.000000   0.000000
     16         25.726910       26.232122   0.000000   0.000000
     17         27.707298       28.157843   0.000000   0.000000
     18         31.412832       31.570166   0.000000   0.000000
     19         33.733877       34.046554   0.000000   0.000000
     20         40.739518       41.066796   0.000000   0.000000
     21         45.213500       45.198533   0.000000   0.000000
     22         47.967562       48.933364   0.000000   0.000000
     23         48.149688       49.416306   0.000000   0.000000
     24         49.383537       51.312704   0.000000   0.000000
     25         49.731862       51.683215   0.000000   0.000000
     26         51.292929       52.190936   0.000000   0.000000
     27         53.533361       53.957736   0.000000   0.000000
     28         54.447525       54.625155   0.000000   0.000000
 
  0.2500000E+00  0.2500000E+00  0.0000000E+00  0.5208333E-02
      1          6.961764        7.460106   1.000000   1.000000