 vasp.6.3.2 27Jun22 (build Aug 12 2022 00:53:59) complex                        
  
 executed on               tv2STD date 2024.12.03  02:36:29
 running   28 mpi-ranks, with    1 threads/rank
 distrk:  each k-point on   28 cores,    1 groups
 distr:  one band on NCORE=   1 cores,   28 groups


--------------------------------------------------------------------------------------------------------


 INCAR:
   SYSTEM = Co-hcc
   NWRITE = 2    write-flag
   ISTART = 0    job   : 0-new, 1-cont, 2-samecut
   ICHARG = 2    charge: 0-wave, 1-file, 2-atom, >10-const
   INIWAV = 1    electr: 0-lowe 1-rand  2-diag
   ENCUT = 425.0     energy cutoff in eV
   PREC = Accurate      normal | accurate
   ADDGRID = .FALSE.  (use fine grid)
   NELM = 100     number of ELM steps
   EDIFF = 1E-06    energy stopping-criterion for ELM
   LREAL = .FALSE.      real-space projection (.FALSE., .TRUE., On, Auto)
   ALGO = Normal     Normal, Fast, Very_Fast
   LWAVE = .FALSE.
   LCHARG = .FALSE.
   NSW = 100       max number of geometry steps
   IBRION = 2     ionic relax: 0-MD, 1-quasi-Newton, 2-CG, 3-Damped MD
   EDIFFG = -0.02  force (eV/A) stopping-criterion for geometry steps
   ISIF = 2     (1:force\=y stress\=trace only ions\=y shape\=n volume\=n)
   ISYM = 1     (1-use symmetry, 0-no symmetry)
   ISMEAR = 0     (-1-Fermi, 1-Methfessel/Paxton)
   SIGMA = 0.05   broadening in eV
   LORBIT = 11
   ISPIN = 2
   MAGMOM = 2*3

 POTCAR:    PAW_PBE Co 02Aug2007                  
 POTCAR:    PAW_PBE Co 02Aug2007                  
   SHA256 =  0e690c60710354995174544f52f9f2c30879afabeffe3b3fbd4001cb294e56d4 Co/POTCAR             
   COPYR  = (c) Copyright 02Aug2007 Georg Kresse                                                    
   COPYR  = This file is part of the software VASP. Any use, copying, and all other rights are regul
   COPYR  = If you do not have a valid VASP license, you may not use, copy or distribute this file. 
   VRHFIN =Co: d8 s1                                                                                
   LEXCH  = PE                                                                                      
   EATOM  =   813.3670 eV,   59.7808 Ry                                                             
                                                                                                    
   TITEL  = PAW_PBE Co 02Aug2007                                                                    
   LULTRA =        F    use ultrasoft PP ?                                                          
   IUNSCR =        1    unscreen: 0-lin 1-nonlin 2-no                                               
   RPACOR =    2.000    partial core radius                                                         
   POMASS =   58.933; ZVAL   =    9.000    mass and valenz                                          
   RCORE  =    2.300    outmost cutoff radius                                                       
   RWIGS  =    2.460; RWIGS  =    1.302    wigner-seitz radius (au A)                               
   ENMAX  =  267.968; ENMIN  =  200.976 eV                                                          
   RCLOC  =    1.203    cutoff for local pot                                                        
   LCOR   =        T    correct aug charges                                                         
   LPAW   =        T    paw PP                                                                      
   EAUG   =  477.818                                                                                
   DEXC   =    0.000                                                                                
   RMAX   =    2.360    core radius for proj-oper                                                   
   RAUG   =    1.300    factor for augmentation sphere                                              
   RDEP   =    2.393    radius for radial grids                                                     
   RDEPT  =    1.864    core radius for aug-charge                                                  
                                                                                                    
   Atomic configuration                                                                             
    9 entries                                                                                       
     n  l   j            E        occ.                                                              
     1  0  0.50     -7587.6674   2.0000                                                             
     2  0  0.50      -893.6084   2.0000                                                             
     2  1  1.50      -764.5805   6.0000                                                             
     3  0  0.50       -97.5973   2.0000                                                             
     3  1  1.50       -60.9648   6.0000                                                             
     3  2  2.50        -4.2382   8.0000                                                             
     4  0  0.50        -4.3746   1.0000                                                             
     4  1  1.50        -4.0817   0.0000                                                             
     4  3  2.50        -1.3606   0.0000                                                             
   Description                                                                                      
     l       E           TYP  RCUT    TYP  RCUT                                                     
     2     -4.2382362     23  2.300                                                                 
     2     -5.5988188     23  2.300                                                                 
     0     -4.3745797     23  2.300                                                                 
     0      5.7660125     23  2.300                                                                 
     1     -2.7211652     23  2.300                                                                 
     1     16.9860234     23  2.300                                                                 
  local pseudopotential read in
  partial core-charges read in
  partial kinetic energy density read in
  atomic valenz-charges read in
  non local Contribution for L=           2  read in
    real space projection operators read in
  non local Contribution for L=           2  read in
    real space projection operators read in
  non local Contribution for L=           0  read in
    real space projection operators read in
  non local Contribution for L=           0  read in
    real space projection operators read in
  non local Contribution for L=           1  read in
    real space projection operators read in
  non local Contribution for L=           1  read in
    real space projection operators read in
    PAW grid and wavefunctions read in
 
   number of l-projection  operators is LMAX  =           6
   number of lm-projection operators is LMMAX =          18
 
  PAW_PBE Co 02Aug2007                  :
 energy of atom  1       EATOM= -813.3670
 kinetic energy error for atom=    0.0054 (will be added to EATOM!!)
 
 
 POSCAR: Co
  positions in cartesian coordinates
  No initial velocities read in
 exchange correlation table for  LEXCH =        8
   RHO(1)=    0.500       N(1)  =     2000
   RHO(2)=  100.500       N(2)  =     4000
 


--------------------------------------------------------------------------------------------------------


 ion  position               nearest neighbor table
   1  0.333  0.667  0.250-   2 2.40   2 2.40   2 2.40   2 2.40   2 2.40   2 2.40
   2  0.667  0.333  0.750-   1 2.40   1 2.40   1 2.40   1 2.40   1 2.40   1 2.40
 
  LATTYP: Found a hexagonal cell.
 ALAT       =     2.4175073416
 C/A-ratio  =     1.6130472937
  
  Lattice vectors:
  
 A1 = (   1.2087536708,  -2.0936227716,   0.0000000000)
 A2 = (   1.2087536708,   2.0936227716,   0.0000000000)
 A3 = (   0.0000000000,   0.0000000000,   3.8995536749)


Analysis of symmetry for initial positions (statically):
=====================================================================
 Subroutine PRICEL returns:
 Original cell was already a primitive cell.
 

 Routine SETGRP: Setting up the symmetry group for a 
 hexagonal supercell.


 Subroutine GETGRP returns: Found 24 space group operations
 (whereof 12 operations were pure point group operations)
 out of a pool of 24 trial point group operations.


The static configuration has the point symmetry D_3d.
 The point group associated with its full space group is D_6h.


Analysis of symmetry for dynamics (positions and initial velocities):
=====================================================================
 Subroutine PRICEL returns:
 Original cell was already a primitive cell.
 

 Routine SETGRP: Setting up the symmetry group for a 
 hexagonal supercell.


 Subroutine GETGRP returns: Found 24 space group operations
 (whereof 12 operations were pure point group operations)
 out of a pool of 24 trial point group operations.


The dynamic configuration has the point symmetry D_3d.
 The point group associated with its full space group is D_6h.


Analysis of structural, dynamic, and magnetic symmetry:
=====================================================================
 Subroutine PRICEL returns:
 Original cell was already a primitive cell.
 

 Routine SETGRP: Setting up the symmetry group for a 
 hexagonal supercell.


 Subroutine GETGRP returns: Found 24 space group operations
 (whereof 12 operations were pure point group operations)
 out of a pool of 24 trial point group operations.


The overall configuration has the point symmetry D_3d.
 The point group associated with its full space group is D_6h.


 Subroutine INISYM returns: Found 24 space group operations
 (whereof 12 operations are pure point group operations),
 and found     1 'primitive' translations


----------------------------------------------------------------------------------------

                                     Primitive cell                                     

  volume of cell :      19.7370

  direct lattice vectors                    reciprocal lattice vectors
     1.208753671 -2.093622772  0.000000000     0.413649209 -0.238820482  0.000000000
     1.208753671  2.093622772  0.000000000     0.413649209  0.238820482  0.000000000
     0.000000000  0.000000000  3.899553675     0.000000000  0.000000000  0.256439604

  length of vectors
     2.417507342  2.417507342  3.899553675     0.477640965  0.477640965  0.256439604

  position of ions in fractional coordinates (direct lattice)
     0.333333333  0.666666667  0.250000000
     0.666666667  0.333333333  0.750000000

  ion indices of the primitive-cell ions
   primitive index   ion index
                 1           1
                 2           2

----------------------------------------------------------------------------------------

 
 
 KPOINTS: Automatic mesh                          

Automatic generation of k-mesh.
 Grid dimensions read from file:
 generate k-points for:   12   12    8

 Generating k-lattice:

  Cartesian coordinates                     Fractional coordinates (reciprocal lattice)
     0.034470767 -0.019901707  0.000000000     0.083333333  0.000000000  0.000000000
     0.034470767  0.019901707  0.000000000     0.000000000  0.083333333  0.000000000
     0.000000000  0.000000000  0.032054950     0.000000000  0.000000000  0.125000000

  Length of vectors
     0.039803414  0.039803414  0.032054950

  Shift w.r.t. Gamma in fractional coordinates (k-lattice)
     0.000000000  0.000000000  0.000000000

 
 Subroutine IBZKPT returns following result:
 ===========================================
 
 Found     95 irreducible k-points:
 
 Following reciprocal coordinates:
            Coordinates               Weight
  0.000000  0.000000  0.000000      1.000000
  0.083333  0.000000  0.000000      6.000000
  0.166667  0.000000  0.000000      6.000000
  0.250000  0.000000  0.000000      6.000000
  0.333333  0.000000  0.000000      6.000000
  0.416667  0.000000  0.000000      6.000000
  0.500000  0.000000  0.000000      3.000000
  0.083333  0.083333  0.000000      6.000000
  0.166667  0.083333  0.000000     12.000000
  0.250000  0.083333  0.000000     12.000000
  0.333333  0.083333  0.000000     12.000000
  0.416667  0.083333  0.000000     12.000000
  0.166667  0.166667  0.000000      6.000000
  0.250000  0.166667  0.000000     12.000000
  0.333333  0.166667  0.000000     12.000000
  0.416667  0.166667  0.000000      6.000000
  0.250000  0.250000  0.000000      6.000000
  0.333333  0.250000  0.000000     12.000000
  0.333333  0.333333  0.000000      2.000000
  0.000000  0.000000  0.125000      2.000000
  0.083333  0.000000  0.125000     12.000000
  0.166667  0.000000  0.125000     12.000000
  0.250000  0.000000  0.125000     12.000000
  0.333333  0.000000  0.125000     12.000000
  0.416667  0.000000  0.125000     12.000000
  0.500000  0.000000  0.125000      6.000000
  0.083333  0.083333  0.125000     12.000000
  0.166667  0.083333  0.125000     24.000000
  0.250000  0.083333  0.125000     24.000000
  0.333333  0.083333  0.125000     24.000000
  0.416667  0.083333  0.125000     24.000000
  0.166667  0.166667  0.125000     12.000000
  0.250000  0.166667  0.125000     24.000000
  0.333333  0.166667  0.125000     24.000000
  0.416667  0.166667  0.125000     12.000000
  0.250000  0.250000  0.125000     12.000000
  0.333333  0.250000  0.125000     24.000000
  0.333333  0.333333  0.125000      4.000000
  0.000000  0.000000  0.250000      2.000000
  0.083333  0.000000  0.250000     12.000000
  0.166667  0.000000  0.250000     12.000000
  0.250000  0.000000  0.250000     12.000000
  0.333333  0.000000  0.250000     12.000000
  0.416667  0.000000  0.250000     12.000000
  0.500000  0.000000  0.250000      6.000000
  0.083333  0.083333  0.250000     12.000000
  0.166667  0.083333  0.250000     24.000000
  0.250000  0.083333  0.250000     24.000000
  0.333333  0.083333  0.250000     24.000000
  0.416667  0.083333  0.250000     24.000000
  0.166667  0.166667  0.250000     12.000000
  0.250000  0.166667  0.250000     24.000000
  0.333333  0.166667  0.250000     24.000000
  0.416667  0.166667  0.250000     12.000000
  0.250000  0.250000  0.250000     12.000000
  0.333333  0.250000  0.250000     24.000000
  0.333333  0.333333  0.250000      4.000000
  0.000000  0.000000  0.375000      2.000000
  0.083333  0.000000  0.375000     12.000000
  0.166667  0.000000  0.375000     12.000000
  0.250000  0.000000  0.375000     12.000000
  0.333333  0.000000  0.375000     12.000000
  0.416667  0.000000  0.375000     12.000000
  0.500000  0.000000  0.375000      6.000000
  0.083333  0.083333  0.375000     12.000000
  0.166667  0.083333  0.375000     24.000000
  0.250000  0.083333  0.375000     24.000000
  0.333333  0.083333  0.375000     24.000000
  0.416667  0.083333  0.375000     24.000000
  0.166667  0.166667  0.375000     12.000000
  0.250000  0.166667  0.375000     24.000000
  0.333333  0.166667  0.375000     24.000000
  0.416667  0.166667  0.375000     12.000000
  0.250000  0.250000  0.375000     12.000000
  0.333333  0.250000  0.375000     24.000000
  0.333333  0.333333  0.375000      4.000000
  0.000000  0.000000  0.500000      1.000000
  0.083333  0.000000  0.500000      6.000000
  0.166667  0.000000  0.500000      6.000000
  0.250000  0.000000  0.500000      6.000000
  0.333333  0.000000  0.500000      6.000000
  0.416667  0.000000  0.500000      6.000000
  0.500000  0.000000  0.500000      3.000000
  0.083333  0.083333  0.500000      6.000000
  0.166667  0.083333  0.500000     12.000000
  0.250000  0.083333  0.500000     12.000000
  0.333333  0.083333  0.500000     12.000000
  0.416667  0.083333  0.500000     12.000000
  0.166667  0.166667  0.500000      6.000000
  0.250000  0.166667  0.500000     12.000000
  0.333333  0.166667  0.500000     12.000000
  0.416667  0.166667  0.500000      6.000000
  0.250000  0.250000  0.500000      6.000000
  0.333333  0.250000  0.500000     12.000000
  0.333333  0.333333  0.500000      2.000000
 
 Following cartesian coordinates:
            Coordinates               Weight
  0.000000  0.000000  0.000000      1.000000
  0.034471 -0.019902  0.000000      6.000000
  0.068942 -0.039803  0.000000      6.000000
  0.103412 -0.059705  0.000000      6.000000
  0.137883 -0.079607  0.000000      6.000000
  0.172354 -0.099509  0.000000      6.000000
  0.206825 -0.119410  0.000000      3.000000
  0.068942  0.000000  0.000000      6.000000
  0.103412 -0.019902  0.000000     12.000000
  0.137883 -0.039803  0.000000     12.000000
  0.172354 -0.059705  0.000000     12.000000
  0.206825 -0.079607  0.000000     12.000000
  0.137883  0.000000  0.000000      6.000000
  0.172354 -0.019902  0.000000     12.000000
  0.206825 -0.039803  0.000000     12.000000
  0.241295 -0.059705  0.000000      6.000000
  0.206825  0.000000  0.000000      6.000000
  0.241295 -0.019902  0.000000     12.000000
  0.275766  0.000000  0.000000      2.000000
  0.000000  0.000000  0.032055      2.000000
  0.034471 -0.019902  0.032055     12.000000
  0.068942 -0.039803  0.032055     12.000000
  0.103412 -0.059705  0.032055     12.000000
  0.137883 -0.079607  0.032055     12.000000
  0.172354 -0.099509  0.032055     12.000000
  0.206825 -0.119410  0.032055      6.000000
  0.068942  0.000000  0.032055     12.000000
  0.103412 -0.019902  0.032055     24.000000
  0.137883 -0.039803  0.032055     24.000000
  0.172354 -0.059705  0.032055     24.000000
  0.206825 -0.079607  0.032055     24.000000
  0.137883  0.000000  0.032055     12.000000
  0.172354 -0.019902  0.032055     24.000000
  0.206825 -0.039803  0.032055     24.000000
  0.241295 -0.059705  0.032055     12.000000
  0.206825  0.000000  0.032055     12.000000
  0.241295 -0.019902  0.032055     24.000000
  0.275766  0.000000  0.032055      4.000000
  0.000000  0.000000  0.064110      2.000000
  0.034471 -0.019902  0.064110     12.000000
  0.068942 -0.039803  0.064110     12.000000
  0.103412 -0.059705  0.064110     12.000000
  0.137883 -0.079607  0.064110     12.000000
  0.172354 -0.099509  0.064110     12.000000
  0.206825 -0.119410  0.064110      6.000000
  0.068942  0.000000  0.064110     12.000000
  0.103412 -0.019902  0.064110     24.000000
  0.137883 -0.039803  0.064110     24.000000
  0.172354 -0.059705  0.064110     24.000000
  0.206825 -0.079607  0.064110     24.000000
  0.137883  0.000000  0.064110     12.000000
  0.172354 -0.019902  0.064110     24.000000
  0.206825 -0.039803  0.064110     24.000000
  0.241295 -0.059705  0.064110     12.000000
  0.206825  0.000000  0.064110     12.000000
  0.241295 -0.019902  0.064110     24.000000
  0.275766  0.000000  0.064110      4.000000
  0.000000  0.000000  0.096165      2.000000
  0.034471 -0.019902  0.096165     12.000000
  0.068942 -0.039803  0.096165     12.000000
  0.103412 -0.059705  0.096165     12.000000
  0.137883 -0.079607  0.096165     12.000000
  0.172354 -0.099509  0.096165     12.000000
  0.206825 -0.119410  0.096165      6.000000
  0.068942  0.000000  0.096165     12.000000
  0.103412 -0.019902  0.096165     24.000000
  0.137883 -0.039803  0.096165     24.000000
  0.172354 -0.059705  0.096165     24.000000
  0.206825 -0.079607  0.096165     24.000000
  0.137883  0.000000  0.096165     12.000000
  0.172354 -0.019902  0.096165     24.000000
  0.206825 -0.039803  0.096165     24.000000
  0.241295 -0.059705  0.096165     12.000000
  0.206825  0.000000  0.096165     12.000000
  0.241295 -0.019902  0.096165     24.000000
  0.275766  0.000000  0.096165      4.000000
  0.000000  0.000000  0.128220      1.000000
  0.034471 -0.019902  0.128220      6.000000
  0.068942 -0.039803  0.128220      6.000000
  0.103412 -0.059705  0.128220      6.000000
  0.137883 -0.079607  0.128220      6.000000
  0.172354 -0.099509  0.128220      6.000000
  0.206825 -0.119410  0.128220      3.000000
  0.068942  0.000000  0.128220      6.000000
  0.103412 -0.019902  0.128220     12.000000
  0.137883 -0.039803  0.128220     12.000000
  0.172354 -0.059705  0.128220     12.000000
  0.206825 -0.079607  0.128220     12.000000
  0.137883  0.000000  0.128220      6.000000
  0.172354 -0.019902  0.128220     12.000000
  0.206825 -0.039803  0.128220     12.000000
  0.241295 -0.059705  0.128220      6.000000
  0.206825  0.000000  0.128220      6.000000
  0.241295 -0.019902  0.128220     12.000000
  0.275766  0.000000  0.128220      2.000000
 


--------------------------------------------------------------------------------------------------------




 Dimension of arrays:
   k-points           NKPTS =     95   k-points in BZ     NKDIM =     95   number of bands    NBANDS=     28
   number of dos      NEDOS =    301   number of ions     NIONS =      2
   non local maximal  LDIM  =      6   non local SUM 2l+1 LMDIM =     18
   total plane-waves  NPLWV =   7168
   max r-space proj   IRMAX =      1   max aug-charges    IRDMAX=  14521
   dimension x,y,z NGX =    16 NGY =   16 NGZ =   28
   dimension x,y,z NGXF=    32 NGYF=   32 NGZF=   56
   support grid    NGXF=    32 NGYF=   32 NGZF=   56
   ions per type =               2
   NGX,Y,Z   is equivalent  to a cutoff of  11.00, 11.00, 11.94 a.u.
   NGXF,Y,Z  is equivalent  to a cutoff of  22.01, 22.01, 23.87 a.u.

 SYSTEM =  Co-hcc                                  
 POSCAR =  Co                                      

 Startparameter for this run:
   NWRITE =      2    write-flag & timer
   PREC   = accura    normal or accurate (medium, high low for compatibility)
   ISTART =      0    job   : 0-new  1-cont  2-samecut
   ICHARG =      2    charge: 1-file 2-atom 10-const
   ISPIN  =      2    spin polarized calculation?
   LNONCOLLINEAR =      F non collinear calculations
   LSORBIT =      F    spin-orbit coupling
   INIWAV =      1    electr: 0-lowe 1-rand  2-diag
   LASPH  =      F    aspherical Exc in radial PAW
 Electronic Relaxation 1
   ENCUT  =  425.0 eV  31.24 Ry    5.59 a.u.   4.06  4.06  6.55*2*pi/ulx,y,z
   ENINI  =  425.0     initial cutoff
   ENAUG  =  477.8 eV  augmentation charge cutoff
   NELM   =    100;   NELMIN=  2; NELMDL= -5     # of ELM steps 
   EDIFF  = 0.1E-05   stopping-criterion for ELM
   LREAL  =      F    real-space projection
   NLSPLINE    = F    spline interpolate recip. space projectors
   LCOMPAT=      F    compatible to vasp.4.4
   GGA_COMPAT  = T    GGA compatible to vasp.4.4-vasp.4.6
   LMAXPAW     = -100 max onsite density
   LMAXMIX     =    2 max onsite mixed and CHGCAR
   VOSKOWN=      0    Vosko Wilk Nusair interpolation
   ROPT   =    0.00000
 Ionic relaxation
   EDIFFG = -.2E-01   stopping-criterion for IOM
   NSW    =    100    number of steps for IOM
   NBLOCK =      1;   KBLOCK =    100    inner block; outer block 
   IBRION =      2    ionic relax: 0-MD 1-quasi-New 2-CG
   NFREE  =      1    steps in history (QN), initial steepest desc. (CG)
   ISIF   =      2    stress and relaxation
   IWAVPR =     11    prediction:  0-non 1-charg 2-wave 3-comb
   ISYM   =      1    0-nonsym 1-usesym 2-fastsym
   LCORR  =      T    Harris-Foulkes like correction to forces

   POTIM  = 0.5000    time-step for ionic-motion
   TEIN   =    0.0    initial temperature
   TEBEG  =    0.0;   TEEND  =   0.0 temperature during run
   SMASS  =  -3.00    Nose mass-parameter (am)
   estimated Nose-frequenzy (Omega)   =  0.10E-29 period in steps = 0.13E+47 mass=  -0.134E-27a.u.
   SCALEE = 1.0000    scale energy and forces
   NPACO  =    256;   APACO  = 10.0  distance and # of slots for P.C.
   PSTRESS=    0.0 pullay stress

  Mass of Ions in am
   POMASS =  58.93
  Ionic Valenz
   ZVAL   =   9.00
  Atomic Wigner-Seitz radii
   RWIGS  =  -1.00
  virtual crystal weights 
   VCA    =   1.00
   NELECT =      18.0000    total number of electrons
   NUPDOWN=      -1.0000    fix difference up-down

 DOS related values:
   EMIN   =  10.00;   EMAX   =-10.00  energy-range for DOS
   EFERMI =   0.00
   ISMEAR =     0;   SIGMA  =   0.05  broadening in eV -4-tet -1-fermi 0-gaus

 Electronic relaxation 2 (details)
   IALGO  =     38    algorithm
   LDIAG  =      T    sub-space diagonalisation (order eigenvalues)
   LSUBROT=      F    optimize rotation matrix (better conditioning)
   TURBO    =      0    0=normal 1=particle mesh
   IRESTART =      0    0=no restart 2=restart with 2 vectors
   NREBOOT  =      0    no. of reboots
   NMIN     =      0    reboot dimension
   EREF     =   0.00    reference energy to select bands
   IMIX   =      4    mixing-type and parameters
     AMIX     =   0.40;   BMIX     =  1.00
     AMIX_MAG =   1.60;   BMIX_MAG =  1.00
     AMIN     =   0.10
     WC   =   100.;   INIMIX=   1;  MIXPRE=   1;  MAXMIX= -45

 Intra band minimization:
   WEIMIN = 0.0010     energy-eigenvalue tresh-hold
   EBREAK =  0.89E-08  absolut break condition
   DEPER  =   0.30     relativ break condition  

   TIME   =   0.40     timestep for ELM

  volume/ion in A,a.u.               =       9.87        66.60
  Fermi-wavevector in a.u.,A,eV,Ry     =   1.587591  3.000112 34.292737  2.520445
  Thomas-Fermi vector in A             =   2.686725
 
 Write flags
   LWAVE        =      F    write WAVECAR
   LDOWNSAMPLE  =      F    k-point downsampling of WAVECAR
   LCHARG       =      F    write CHGCAR
   LVTOT        =      F    write LOCPOT, total local potential
   LVHAR        =      F    write LOCPOT, Hartree potential only
   LELF         =      F    write electronic localiz. function (ELF)
   LORBIT       =     11    0 simple, 1 ext, 2 COOP (PROOUT), +10 PAW based schemes


 Dipole corrections
   LMONO  =      F    monopole corrections only (constant potential shift)
   LDIPOL =      F    correct potential (dipole corrections)
   IDIPOL =      0    1-x, 2-y, 3-z, 4-all directions 
   EPSILON=  1.0000000 bulk dielectric constant

 Exchange correlation treatment:
   GGA     =    --    GGA type
   LEXCH   =     8    internal setting for exchange type
   LIBXC   =     F    Libxc                    
   VOSKOWN =     0    Vosko Wilk Nusair interpolation
   LHFCALC =     F    Hartree Fock is set to
   LHFONE  =     F    Hartree Fock one center treatment
   AEXX    =    0.0000 exact exchange contribution

 Linear response parameters
   LEPSILON=     F    determine dielectric tensor
   LRPA    =     F    only Hartree local field effects (RPA)
   LNABLA  =     F    use nabla operator in PAW spheres
   LVEL    =     F    velocity operator in full k-point grid
   CSHIFT  =0.1000    complex shift for real part using Kramers Kronig
   OMEGAMAX=  -1.0    maximum frequency
   DEG_THRESHOLD= 0.2000000E-02 threshold for treating states as degnerate
   RTIME   =   -0.100 relaxation time in fs
  (WPLASMAI=    0.000 imaginary part of plasma frequency in eV, 0.658/RTIME)
   DFIELD  = 0.0000000 0.0000000 0.0000000 field for delta impulse in time
 
  Optional k-point grid parameters
   LKPOINTS_OPT  =     F    use optional k-point grid
   KPOINTS_OPT_MODE=     1    mode for optional k-point grid
 
 Orbital magnetization related:
   ORBITALMAG=     F  switch on orbital magnetization
   LCHIMAG   =     F  perturbation theory with respect to B field
   DQ        =  0.001000  dq finite difference perturbation B field
   LLRAUG    =     F  two centre corrections for induced B field



--------------------------------------------------------------------------------------------------------


 conjugate gradient relaxation of ions
 charge density and potential will be updated during run
 spin polarized calculation
 Variant of blocked Davidson
 Davidson routine will perform the subspace rotation
 perform sub-space diagonalisation
    after iterative eigenvector-optimisation
 modified Broyden-mixing scheme, WC =      100.0
 initial mixing is a Kerker type mixing with AMIX =  0.4000 and BMIX =      1.0000
 Hartree-type preconditioning will be used
 using additional bands           19
 reciprocal scheme for non local part
 use partial core corrections
 calculate Harris-corrections to forces 
   (improved forces if not selfconsistent)
 use gradient corrections 
 use of overlap-Matrix (Vanderbilt PP)
 Gauss-broadening in eV      SIGMA  =   0.05


--------------------------------------------------------------------------------------------------------


  energy-cutoff  :      425.00
  volume of cell :       19.74
      direct lattice vectors                 reciprocal lattice vectors
     1.208753671 -2.093622772  0.000000000     0.413649209 -0.238820482  0.000000000
     1.208753671  2.093622772  0.000000000     0.413649209  0.238820482  0.000000000
     0.000000000  0.000000000  3.899553675     0.000000000  0.000000000  0.256439604

  length of vectors
     2.417507342  2.417507342  3.899553675     0.477640965  0.477640965  0.256439604


 
 k-points in units of 2pi/SCALE and weight: Automatic mesh                          
   0.00000000  0.00000000  0.00000000       0.001
   0.03447077 -0.01990171  0.00000000       0.005
   0.06894153 -0.03980341  0.00000000       0.005
   0.10341230 -0.05970512  0.00000000       0.005
   0.13788307 -0.07960683  0.00000000       0.005
   0.17235384 -0.09950853  0.00000000       0.005
   0.20682460 -0.11941024  0.00000000       0.003
   0.06894153  0.00000000  0.00000000       0.005
   0.10341230 -0.01990171  0.00000000       0.010
   0.13788307 -0.03980341  0.00000000       0.010
   0.17235384 -0.05970512  0.00000000       0.010
   0.20682460 -0.07960683  0.00000000       0.010
   0.13788307  0.00000000  0.00000000       0.005
   0.17235384 -0.01990171  0.00000000       0.010
   0.20682460 -0.03980341  0.00000000       0.010
   0.24129537 -0.05970512  0.00000000       0.005
   0.20682460  0.00000000  0.00000000       0.005
   0.24129537 -0.01990171  0.00000000       0.010
   0.27576614  0.00000000  0.00000000       0.002
   0.00000000  0.00000000  0.03205495       0.002
   0.03447077 -0.01990171  0.03205495       0.010
   0.06894153 -0.03980341  0.03205495       0.010
   0.10341230 -0.05970512  0.03205495       0.010
   0.13788307 -0.07960683  0.03205495       0.010
   0.17235384 -0.09950853  0.03205495       0.010
   0.20682460 -0.11941024  0.03205495       0.005
   0.06894153  0.00000000  0.03205495       0.010
   0.10341230 -0.01990171  0.03205495       0.021
   0.13788307 -0.03980341  0.03205495       0.021
   0.17235384 -0.05970512  0.03205495       0.021
   0.20682460 -0.07960683  0.03205495       0.021
   0.13788307  0.00000000  0.03205495       0.010
   0.17235384 -0.01990171  0.03205495       0.021
   0.20682460 -0.03980341  0.03205495       0.021
   0.24129537 -0.05970512  0.03205495       0.010
   0.20682460  0.00000000  0.03205495       0.010
   0.24129537 -0.01990171  0.03205495       0.021
   0.27576614  0.00000000  0.03205495       0.003
   0.00000000  0.00000000  0.06410990       0.002
   0.03447077 -0.01990171  0.06410990       0.010
   0.06894153 -0.03980341  0.06410990       0.010
   0.10341230 -0.05970512  0.06410990       0.010
   0.13788307 -0.07960683  0.06410990       0.010
   0.17235384 -0.09950853  0.06410990       0.010
   0.20682460 -0.11941024  0.06410990       0.005
   0.06894153  0.00000000  0.06410990       0.010
   0.10341230 -0.01990171  0.06410990       0.021
   0.13788307 -0.03980341  0.06410990       0.021
   0.17235384 -0.05970512  0.06410990       0.021
   0.20682460 -0.07960683  0.06410990       0.021
   0.13788307  0.00000000  0.06410990       0.010
   0.17235384 -0.01990171  0.06410990       0.021
   0.20682460 -0.03980341  0.06410990       0.021
   0.24129537 -0.05970512  0.06410990       0.010
   0.20682460  0.00000000  0.06410990       0.010
   0.24129537 -0.01990171  0.06410990       0.021
   0.27576614  0.00000000  0.06410990       0.003
   0.00000000  0.00000000  0.09616485       0.002
   0.03447077 -0.01990171  0.09616485       0.010
   0.06894153 -0.03980341  0.09616485       0.010
   0.10341230 -0.05970512  0.09616485       0.010
   0.13788307 -0.07960683  0.09616485       0.010
   0.17235384 -0.09950853  0.09616485       0.010
   0.20682460 -0.11941024  0.09616485       0.005
   0.06894153  0.00000000  0.09616485       0.010
   0.10341230 -0.01990171  0.09616485       0.021
   0.13788307 -0.03980341  0.09616485       0.021
   0.17235384 -0.05970512  0.09616485       0.021
   0.20682460 -0.07960683  0.09616485       0.021
   0.13788307  0.00000000  0.09616485       0.010
   0.17235384 -0.01990171  0.09616485       0.021
   0.20682460 -0.03980341  0.09616485       0.021
   0.24129537 -0.05970512  0.09616485       0.010
   0.20682460  0.00000000  0.09616485       0.010
   0.24129537 -0.01990171  0.09616485       0.021
   0.27576614  0.00000000  0.09616485       0.003
   0.00000000  0.00000000  0.12821980       0.001
   0.03447077 -0.01990171  0.12821980       0.005
   0.06894153 -0.03980341  0.12821980       0.005
   0.10341230 -0.05970512  0.12821980       0.005
   0.13788307 -0.07960683  0.12821980       0.005
   0.17235384 -0.09950853  0.12821980       0.005
   0.20682460 -0.11941024  0.12821980       0.003
   0.06894153  0.00000000  0.12821980       0.005
   0.10341230 -0.01990171  0.12821980       0.010
   0.13788307 -0.03980341  0.12821980       0.010
   0.17235384 -0.05970512  0.12821980       0.010
   0.20682460 -0.07960683  0.12821980       0.010
   0.13788307  0.00000000  0.12821980       0.005
   0.17235384 -0.01990171  0.12821980       0.010
   0.20682460 -0.03980341  0.12821980       0.010
   0.24129537 -0.05970512  0.12821980       0.005
   0.20682460  0.00000000  0.12821980       0.005
   0.24129537 -0.01990171  0.12821980       0.010
   0.27576614  0.00000000  0.12821980       0.002
 
 k-points in reciprocal lattice and weights: Automatic mesh                          
   0.00000000  0.00000000  0.00000000       0.001
   0.08333333  0.00000000  0.00000000       0.005
   0.16666667  0.00000000  0.00000000       0.005
   0.25000000  0.00000000  0.00000000       0.005
   0.33333333  0.00000000  0.00000000       0.005
   0.41666667  0.00000000  0.00000000       0.005
   0.50000000  0.00000000  0.00000000       0.003
   0.08333333  0.08333333  0.00000000       0.005
   0.16666667  0.08333333  0.00000000       0.010
   0.25000000  0.08333333  0.00000000       0.010
   0.33333333  0.08333333  0.00000000       0.010
   0.41666667  0.08333333  0.00000000       0.010
   0.16666667  0.16666667  0.00000000       0.005
   0.25000000  0.16666667  0.00000000       0.010
   0.33333333  0.16666667  0.00000000       0.010
   0.41666667  0.16666667  0.00000000       0.005
   0.25000000  0.25000000  0.00000000       0.005
   0.33333333  0.25000000  0.00000000       0.010
   0.33333333  0.33333333  0.00000000       0.002
   0.00000000  0.00000000  0.12500000       0.002
   0.08333333  0.00000000  0.12500000       0.010
   0.16666667  0.00000000  0.12500000       0.010
   0.25000000  0.00000000  0.12500000       0.010
   0.33333333  0.00000000  0.12500000       0.010
   0.41666667  0.00000000  0.12500000       0.010
   0.50000000  0.00000000  0.12500000       0.005
   0.08333333  0.08333333  0.12500000       0.010
   0.16666667  0.08333333  0.12500000       0.021
   0.25000000  0.08333333  0.12500000       0.021
   0.33333333  0.08333333  0.12500000       0.021
   0.41666667  0.08333333  0.12500000       0.021
   0.16666667  0.16666667  0.12500000       0.010
   0.25000000  0.16666667  0.12500000       0.021
   0.33333333  0.16666667  0.12500000       0.021
   0.41666667  0.16666667  0.12500000       0.010
   0.25000000  0.25000000  0.12500000       0.010
   0.33333333  0.25000000  0.12500000       0.021
   0.33333333  0.33333333  0.12500000       0.003
   0.00000000  0.00000000  0.25000000       0.002
   0.08333333  0.00000000  0.25000000       0.010
   0.16666667  0.00000000  0.25000000       0.010
   0.25000000  0.00000000  0.25000000       0.010
   0.33333333  0.00000000  0.25000000       0.010
   0.41666667  0.00000000  0.25000000       0.010
   0.50000000  0.00000000  0.25000000       0.005
   0.08333333  0.08333333  0.25000000       0.010
   0.16666667  0.08333333  0.25000000       0.021
   0.25000000  0.08333333  0.25000000       0.021
   0.33333333  0.08333333  0.25000000       0.021
   0.41666667  0.08333333  0.25000000       0.021
   0.16666667  0.16666667  0.25000000       0.010
   0.25000000  0.16666667  0.25000000       0.021
   0.33333333  0.16666667  0.25000000       0.021
   0.41666667  0.16666667  0.25000000       0.010
   0.25000000  0.25000000  0.25000000       0.010
   0.33333333  0.25000000  0.25000000       0.021
   0.33333333  0.33333333  0.25000000       0.003
   0.00000000  0.00000000  0.37500000       0.002
   0.08333333  0.00000000  0.37500000       0.010
   0.16666667  0.00000000  0.37500000       0.010
   0.25000000  0.00000000  0.37500000       0.010
   0.33333333  0.00000000  0.37500000       0.010
   0.41666667  0.00000000  0.37500000       0.010
   0.50000000  0.00000000  0.37500000       0.005
   0.08333333  0.08333333  0.37500000       0.010
   0.16666667  0.08333333  0.37500000       0.021
   0.25000000  0.08333333  0.37500000       0.021
   0.33333333  0.08333333  0.37500000       0.021
   0.41666667  0.08333333  0.37500000       0.021
   0.16666667  0.16666667  0.37500000       0.010
   0.25000000  0.16666667  0.37500000       0.021
   0.33333333  0.16666667  0.37500000       0.021
   0.41666667  0.16666667  0.37500000       0.010
   0.25000000  0.25000000  0.37500000       0.010
   0.33333333  0.25000000  0.37500000       0.021
   0.33333333  0.33333333  0.37500000       0.003
   0.00000000  0.00000000  0.50000000       0.001
   0.08333333  0.00000000  0.50000000       0.005
   0.16666667  0.00000000  0.50000000       0.005
   0.25000000  0.00000000  0.50000000       0.005
   0.33333333  0.00000000  0.50000000       0.005
   0.41666667  0.00000000  0.50000000       0.005
   0.50000000  0.00000000  0.50000000       0.003
   0.08333333  0.08333333  0.50000000       0.005
   0.16666667  0.08333333  0.50000000       0.010
   0.25000000  0.08333333  0.50000000       0.010
   0.33333333  0.08333333  0.50000000       0.010
   0.41666667  0.08333333  0.50000000       0.010
   0.16666667  0.16666667  0.50000000       0.005
   0.25000000  0.16666667  0.50000000       0.010
   0.33333333  0.16666667  0.50000000       0.010
   0.41666667  0.16666667  0.50000000       0.005
   0.25000000  0.25000000  0.50000000       0.005
   0.33333333  0.25000000  0.50000000       0.010
   0.33333333  0.33333333  0.50000000       0.002
 
 position of ions in fractional coordinates (direct lattice) 
   0.33333333  0.66666667  0.25000000
   0.66666667  0.33333333  0.75000000
 
 position of ions in cartesian coordinates  (Angst):
   1.20875367  0.69787426  0.97488842
   1.20875367 -0.69787426  2.92466526
 


--------------------------------------------------------------------------------------------------------


 k-point   1 :   0.0000 0.0000 0.0000  plane waves:     391
 k-point   2 :   0.0833 0.0000 0.0000  plane waves:     385
 k-point   3 :   0.1667 0.0000 0.0000  plane waves:     391
 k-point   4 :   0.2500 0.0000 0.0000  plane waves:     389
 k-point   5 :   0.3333 0.0000 0.0000  plane waves:     387
 k-point   6 :   0.4167 0.0000 0.0000  plane waves:     403
 k-point   7 :   0.5000 0.0000 0.0000  plane waves:     404
 k-point   8 :   0.0833 0.0833 0.0000  plane waves:     392
 k-point   9 :   0.1667 0.0833 0.0000  plane waves:     387
 k-point  10 :   0.2500 0.0833 0.0000  plane waves:     393
 k-point  11 :   0.3333 0.0833 0.0000  plane waves:     397
 k-point  12 :   0.4167 0.0833 0.0000  plane waves:     401
 k-point  13 :   0.1667 0.1667 0.0000  plane waves:     396
 k-point  14 :   0.2500 0.1667 0.0000  plane waves:     397
 k-point  15 :   0.3333 0.1667 0.0000  plane waves:     399
 k-point  16 :   0.4167 0.1667 0.0000  plane waves:     394
 k-point  17 :   0.2500 0.2500 0.0000  plane waves:     396
 k-point  18 :   0.3333 0.2500 0.0000  plane waves:     393
 k-point  19 :   0.3333 0.3333 0.0000  plane waves:     390
 k-point  20 :   0.0000 0.0000 0.1250  plane waves:     391
 k-point  21 :   0.0833 0.0000 0.1250  plane waves:     385
 k-point  22 :   0.1667 0.0000 0.1250  plane waves:     390
 k-point  23 :   0.2500 0.0000 0.1250  plane waves:     391
 k-point  24 :   0.3333 0.0000 0.1250  plane waves:     392
 k-point  25 :   0.4167 0.0000 0.1250  plane waves:     392
 k-point  26 :   0.5000 0.0000 0.1250  plane waves:     398
 k-point  27 :   0.0833 0.0833 0.1250  plane waves:     384
 k-point  28 :   0.1667 0.0833 0.1250  plane waves:     388
 k-point  29 :   0.2500 0.0833 0.1250  plane waves:     395
 k-point  30 :   0.3333 0.0833 0.1250  plane waves:     395
 k-point  31 :   0.4167 0.0833 0.1250  plane waves:     399
 k-point  32 :   0.1667 0.1667 0.1250  plane waves:     389
 k-point  33 :   0.2500 0.1667 0.1250  plane waves:     396
 k-point  34 :   0.3333 0.1667 0.1250  plane waves:     396
 k-point  35 :   0.4167 0.1667 0.1250  plane waves:     395
 k-point  36 :   0.2500 0.2500 0.1250  plane waves:     393
 k-point  37 :   0.3333 0.2500 0.1250  plane waves:     399
 k-point  38 :   0.3333 0.3333 0.1250  plane waves:     399
 k-point  39 :   0.0000 0.0000 0.2500  plane waves:     385
 k-point  40 :   0.0833 0.0000 0.2500  plane waves:     379
 k-point  41 :   0.1667 0.0000 0.2500  plane waves:     385
 k-point  42 :   0.2500 0.0000 0.2500  plane waves:     392
 k-point  43 :   0.3333 0.0000 0.2500  plane waves:     397
 k-point  44 :   0.4167 0.0000 0.2500  plane waves:     396
 k-point  45 :   0.5000 0.0000 0.2500  plane waves:     394
 k-point  46 :   0.0833 0.0833 0.2500  plane waves:     382
 k-point  47 :   0.1667 0.0833 0.2500  plane waves:     388
 k-point  48 :   0.2500 0.0833 0.2500  plane waves:     394
 k-point  49 :   0.3333 0.0833 0.2500  plane waves:     397
 k-point  50 :   0.4167 0.0833 0.2500  plane waves:     393
 k-point  51 :   0.1667 0.1667 0.2500  plane waves:     392
 k-point  52 :   0.2500 0.1667 0.2500  plane waves:     398
 k-point  53 :   0.3333 0.1667 0.2500  plane waves:     395
 k-point  54 :   0.4167 0.1667 0.2500  plane waves:     395
 k-point  55 :   0.2500 0.2500 0.2500  plane waves:     398
 k-point  56 :   0.3333 0.2500 0.2500  plane waves:     395
 k-point  57 :   0.3333 0.3333 0.2500  plane waves:     396
 k-point  58 :   0.0000 0.0000 0.3750  plane waves:     373
 k-point  59 :   0.0833 0.0000 0.3750  plane waves:     372
 k-point  60 :   0.1667 0.0000 0.3750  plane waves:     384
 k-point  61 :   0.2500 0.0000 0.3750  plane waves:     395
 k-point  62 :   0.3333 0.0000 0.3750  plane waves:     394
 k-point  63 :   0.4167 0.0000 0.3750  plane waves:     394
 k-point  64 :   0.5000 0.0000 0.3750  plane waves:     398
 k-point  65 :   0.0833 0.0833 0.3750  plane waves:     382
 k-point  66 :   0.1667 0.0833 0.3750  plane waves:     389
 k-point  67 :   0.2500 0.0833 0.3750  plane waves:     394
 k-point  68 :   0.3333 0.0833 0.3750  plane waves:     394
 k-point  69 :   0.4167 0.0833 0.3750  plane waves:     393
 k-point  70 :   0.1667 0.1667 0.3750  plane waves:     395
 k-point  71 :   0.2500 0.1667 0.3750  plane waves:     396
 k-point  72 :   0.3333 0.1667 0.3750  plane waves:     397
 k-point  73 :   0.4167 0.1667 0.3750  plane waves:     399
 k-point  74 :   0.2500 0.2500 0.3750  plane waves:     391
 k-point  75 :   0.3333 0.2500 0.3750  plane waves:     395
 k-point  76 :   0.3333 0.3333 0.3750  plane waves:     393
 k-point  77 :   0.0000 0.0000 0.5000  plane waves:     362
 k-point  78 :   0.0833 0.0000 0.5000  plane waves:     368
 k-point  79 :   0.1667 0.0000 0.5000  plane waves:     386
 k-point  80 :   0.2500 0.0000 0.5000  plane waves:     394
 k-point  81 :   0.3333 0.0000 0.5000  plane waves:     396
 k-point  82 :   0.4167 0.0000 0.5000  plane waves:     396
 k-point  83 :   0.5000 0.0000 0.5000  plane waves:     392
 k-point  84 :   0.0833 0.0833 0.5000  plane waves:     386
 k-point  85 :   0.1667 0.0833 0.5000  plane waves:     396
 k-point  86 :   0.2500 0.0833 0.5000  plane waves:     394
 k-point  87 :   0.3333 0.0833 0.5000  plane waves:     394
 k-point  88 :   0.4167 0.0833 0.5000  plane waves:     396
 k-point  89 :   0.1667 0.1667 0.5000  plane waves:     394
 k-point  90 :   0.2500 0.1667 0.5000  plane waves:     390
 k-point  91 :   0.3333 0.1667 0.5000  plane waves:     394
 k-point  92 :   0.4167 0.1667 0.5000  plane waves:     398
 k-point  93 :   0.2500 0.2500 0.5000  plane waves:     390
 k-point  94 :   0.3333 0.2500 0.5000  plane waves:     390
 k-point  95 :   0.3333 0.3333 0.5000  plane waves:     390

 maximum and minimum number of plane-waves per node :       404      362

 maximum number of plane-waves:       404
 maximum index in each direction: 
   IXMAX=    4   IYMAX=    4   IZMAX=    6
   IXMIN=   -4   IYMIN=   -4   IZMIN=   -7


 serial   3D FFT for wavefunctions
 parallel 3D FFT for charge:
    minimum data exchange during FFTs selected (reduces bandwidth)


 total amount of memory used by VASP MPI-rank0    38258. kBytes
=======================================================================

   base      :      30000. kBytes
   nonl-proj :       5759. kBytes
   fftplans  :        144. kBytes
   grid      :        846. kBytes
   one-center:         62. kBytes
   wavefun   :       1447. kBytes
 
     INWAV:  cpu time      0.0000: real time      0.0003
 Broyden mixing: mesh for mixing (old mesh)
   NGX =  9   NGY =  9   NGZ = 13
  (NGX  = 32   NGY  = 32   NGZ  = 56)
  gives a total of   1053 points

 initial charge density was supplied:
 charge density of overlapping atoms calculated
 number of electron      18.0000000 magnetization       6.0000000
 keeping initial charge density in first step


--------------------------------------------------------------------------------------------------------


 Maximum index for augmentation-charges          906 (set IRDMAX)


--------------------------------------------------------------------------------------------------------


 First call to EWALD:  gamma=   0.656
 Maximum number of real-space cells 3x 3x 2
 Maximum number of reciprocal cells 3x 3x 4

    FEWALD:  cpu time      0.0012: real time      0.0012


--------------------------------------- Iteration      1(   1)  ---------------------------------------


    POTLOK:  cpu time      0.0051: real time      0.0060
    SETDIJ:  cpu time      0.0048: real time      0.0049
     EDDAV:  cpu time      0.8492: real time      0.8533
       DOS:  cpu time      0.0014: real time      0.0014
    --------------------------------------------
      LOOP:  cpu time      0.8605: real time      0.8656

 eigenvalue-minimisations  : 10668
 total energy-change (2. order) :-0.8201084E+00  (-0.8553207E+03)
 number of electron      18.0000000 magnetization       6.0000000
 augmentation part       18.0000000 magnetization       6.0000000

 Free energy of the ion-electron system (eV)
  ---------------------------------------------------
  alpha Z        PSCENC =        85.84423419
  Ewald energy   TEWEN  =     -1570.48922168
  -Hartree energ DENC   =      -280.05575714
  -exchange      EXHF   =         0.00000000
  -V(xc)+E(xc)   XCENC  =        36.27188214
  PAW double counting   =      1439.98163886    -1545.88690193
  entropy T*S    EENTRO =        -0.00265454
  eigenvalues    EBANDS =       206.79344184
  atomic energy  EATOM  =      1626.72322989
  Solvation  Ediel_sol  =         0.00000000
  ---------------------------------------------------
  free energy    TOTEN  =        -0.82010837 eV

  energy without entropy =       -0.81745383  energy(sigma->0) =       -0.81878110


--------------------------------------------------------------------------------------------------------




--------------------------------------- Iteration      1(   2)  ---------------------------------------


     EDDAV:  cpu time      1.8742: real time      1.8828
       DOS:  cpu time      0.0008: real time      0.0008
    --------------------------------------------
      LOOP:  cpu time      1.8750: real time      1.8835

 eigenvalue-minimisations  : 16296
 total energy-change (2. order) :-0.1445859E+02  (-0.1430562E+02)
 number of electron      18.0000000 magnetization       6.0000000
 augmentation part       18.0000000 magnetization       6.0000000

 Free energy of the ion-electron system (eV)
  ---------------------------------------------------
  alpha Z        PSCENC =        85.84423419
  Ewald energy   TEWEN  =     -1570.48922168
  -Hartree energ DENC   =      -280.05575714
  -exchange      EXHF   =         0.00000000
  -V(xc)+E(xc)   XCENC  =        36.27188214
  PAW double counting   =      1439.98163886    -1545.88690193
  entropy T*S    EENTRO =        -0.00167604
  eigenvalues    EBANDS =       192.33386879
  atomic energy  EATOM  =      1626.72322989
  Solvation  Ediel_sol  =         0.00000000
  ---------------------------------------------------
  free energy    TOTEN  =       -15.27870293 eV

  energy without entropy =      -15.27702688  energy(sigma->0) =      -15.27786490


--------------------------------------------------------------------------------------------------------




--------------------------------------- Iteration      1(   3)  ---------------------------------------


     EDDAV:  cpu time      1.3585: real time      1.3649
       DOS:  cpu time      0.0008: real time      0.0008
    --------------------------------------------
      LOOP:  cpu time      1.3593: real time      1.3658

 eigenvalue-minimisations  : 13272
 total energy-change (2. order) :-0.3480832E-01  (-0.3479167E-01)
 number of electron      18.0000000 magnetization       6.0000000
 augmentation part       18.0000000 magnetization       6.0000000

 Free energy of the ion-electron system (eV)
  ---------------------------------------------------
  alpha Z        PSCENC =        85.84423419
  Ewald energy   TEWEN  =     -1570.48922168
  -Hartree energ DENC   =      -280.05575714
  -exchange      EXHF   =         0.00000000
  -V(xc)+E(xc)   XCENC  =        36.27188214
  PAW double counting   =      1439.98163886    -1545.88690193
  entropy T*S    EENTRO =        -0.00163272
  eigenvalues    EBANDS =       192.29901714
  atomic energy  EATOM  =      1626.72322989
  Solvation  Ediel_sol  =         0.00000000
  ---------------------------------------------------
  free energy    TOTEN  =       -15.31351125 eV

  energy without entropy =      -15.31187853  energy(sigma->0) =      -15.31269489


--------------------------------------------------------------------------------------------------------




--------------------------------------- Iteration      1(   4)  ---------------------------------------


     EDDAV:  cpu time      2.0314: real time      2.0402
       DOS:  cpu time      0.0007: real time      0.0008
    --------------------------------------------
      LOOP:  cpu time      2.0321: real time      2.0410

 eigenvalue-minimisations  : 16996
 total energy-change (2. order) :-0.3591180E-04  (-0.3591213E-04)
 number of electron      18.0000000 magnetization       6.0000000
 augmentation part       18.0000000 magnetization       6.0000000

 Free energy of the ion-electron system (eV)
  ---------------------------------------------------
  alpha Z        PSCENC =        85.84423419
  Ewald energy   TEWEN  =     -1570.48922168
  -Hartree energ DENC   =      -280.05575714
  -exchange      EXHF   =         0.00000000
  -V(xc)+E(xc)   XCENC  =        36.27188214
  PAW double counting   =      1439.98163886    -1545.88690193
  entropy T*S    EENTRO =        -0.00163275
  eigenvalues    EBANDS =       192.29898126
  atomic energy  EATOM  =      1626.72322989
  Solvation  Ediel_sol  =         0.00000000
  ---------------------------------------------------
  free energy    TOTEN  =       -15.31354716 eV

  energy without entropy =      -15.31191441  energy(sigma->0) =      -15.31273078


--------------------------------------------------------------------------------------------------------




--------------------------------------- Iteration      1(   5)  ---------------------------------------


     EDDAV:  cpu time      1.3548: real time      1.3609
       DOS:  cpu time      0.0008: real time      0.0008
    CHARGE:  cpu time      0.0231: real time      0.0232
    MIXING:  cpu time      0.0003: real time      0.0003
    --------------------------------------------
      LOOP:  cpu time      1.3789: real time      1.3851

 eigenvalue-minimisations  : 13188
 total energy-change (2. order) :-0.2066145E-08  (-0.6043337E-09)
 number of electron      18.0000004 magnetization       3.2363343
 augmentation part        9.2143930 magnetization       2.5215543

 Broyden mixing:
  rms(total) = 0.18074E+01    rms(broyden)= 0.18073E+01
  rms(prec ) = 0.27949E+01
  weight for this iteration     100.00

 Free energy of the ion-electron system (eV)
  ---------------------------------------------------
  alpha Z        PSCENC =        85.84423419
  Ewald energy   TEWEN  =     -1570.48922168
  -Hartree energ DENC   =      -280.05575714
  -exchange      EXHF   =         0.00000000
  -V(xc)+E(xc)   XCENC  =        36.27188214
  PAW double counting   =      1439.98163886    -1545.88690193
  entropy T*S    EENTRO =        -0.00163275
  eigenvalues    EBANDS =       192.29898126
  atomic energy  EATOM  =      1626.72322989
  Solvation  Ediel_sol  =         0.00000000
  ---------------------------------------------------
  free energy    TOTEN  =       -15.31354716 eV

  energy without entropy =      -15.31191441  energy(sigma->0) =      -15.31273079


--------------------------------------------------------------------------------------------------------




--------------------------------------- Iteration      1(   6)  ---------------------------------------


    POTLOK:  cpu time      0.0045: real time      0.0047
    SETDIJ:  cpu time      0.0046: real time      0.0046
     EDDAV:  cpu time      1.8641: real time      1.8723
       DOS:  cpu time      0.0008: real time      0.0008
    CHARGE:  cpu time      0.0218: real time      0.0219
    MIXING:  cpu time      0.0003: real time      0.0003
    --------------------------------------------
      LOOP:  cpu time      1.8960: real time      1.9045

 eigenvalue-minimisations  : 16128
 total energy-change (2. order) : 0.1103279E+01  (-0.2448781E+01)
 number of electron      18.0000004 magnetization       3.0107950
 augmentation part       10.5527956 magnetization       2.6870486

 Broyden mixing:
  rms(total) = 0.52675E+00    rms(broyden)= 0.52673E+00
  rms(prec ) = 0.67048E+00
  weight for this iteration     100.00

 eigenvalues of (default mixing * dielectric matrix)
  average eigenvalue GAMMA=   1.0132
  1.0132

 Free energy of the ion-electron system (eV)
  ---------------------------------------------------
  alpha Z        PSCENC =        85.84423419
  Ewald energy   TEWEN  =     -1570.48922168
  -Hartree energ DENC   =      -245.69832698
  -exchange      EXHF   =         0.00000000
  -V(xc)+E(xc)   XCENC  =        33.24289969
  PAW double counting   =      1643.41599016    -1740.30420528
  entropy T*S    EENTRO =        -0.00334966
  eigenvalues    EBANDS =       153.05848134
  atomic energy  EATOM  =      1626.72322989
  Solvation  Ediel_sol  =         0.00000000
  ---------------------------------------------------
  free energy    TOTEN  =       -14.21026834 eV

  energy without entropy =      -14.20691867  energy(sigma->0) =      -14.20859351


--------------------------------------------------------------------------------------------------------




--------------------------------------- Iteration      1(   7)  ---------------------------------------


    POTLOK:  cpu time      0.0043: real time      0.0045
    SETDIJ:  cpu time      0.0044: real time      0.0044
     EDDAV:  cpu time      1.3642: real time      1.3702
       DOS:  cpu time      0.0008: real time      0.0008
    CHARGE:  cpu time      0.0224: real time      0.0225
    MIXING:  cpu time      0.0003: real time      0.0003
    --------------------------------------------
      LOOP:  cpu time      1.3964: real time      1.4027

 eigenvalue-minimisations  : 13328
 total energy-change (2. order) : 0.2287172E+00  (-0.2326582E+00)
 number of electron      18.0000004 magnetization       2.9729901
 augmentation part       10.1416309 magnetization       2.6848493

 Broyden mixing:
  rms(total) = 0.37270E+00    rms(broyden)= 0.37270E+00
  rms(prec ) = 0.45954E+00
  weight for this iteration     100.00

 eigenvalues of (default mixing * dielectric matrix)
  average eigenvalue GAMMA=   0.7739
  1.0883  0.4595

 Free energy of the ion-electron system (eV)
  ---------------------------------------------------
  alpha Z        PSCENC =        85.84423419
  Ewald energy   TEWEN  =     -1570.48922168
  -Hartree energ DENC   =      -251.43536066
  -exchange      EXHF   =         0.00000000
  -V(xc)+E(xc)   XCENC  =        33.60647292
  PAW double counting   =      1733.27903229    -1836.66331462
  entropy T*S    EENTRO =        -0.00167403
  eigenvalues    EBANDS =       165.15505062
  atomic energy  EATOM  =      1626.72322989
  Solvation  Ediel_sol  =         0.00000000
  ---------------------------------------------------
  free energy    TOTEN  =       -13.98155109 eV

  energy without entropy =      -13.97987706  energy(sigma->0) =      -13.98071408


--------------------------------------------------------------------------------------------------------




--------------------------------------- Iteration      1(   8)  ---------------------------------------


    POTLOK:  cpu time      0.0045: real time      0.0047
    SETDIJ:  cpu time      0.0044: real time      0.0044
     EDDAV:  cpu time      1.9466: real time      1.9549
       DOS:  cpu time      0.0008: real time      0.0008
    CHARGE:  cpu time      0.0218: real time      0.0219
    MIXING:  cpu time      0.0002: real time      0.0002
    --------------------------------------------
      LOOP:  cpu time      1.9783: real time      1.9869

 eigenvalue-minimisations  : 16856
 total energy-change (2. order) : 0.3340148E-01  (-0.4599177E-02)
 number of electron      18.0000004 magnetization       2.9802480
 augmentation part       10.1962633 magnetization       2.7067966

 Broyden mixing:
  rms(total) = 0.18043E+00    rms(broyden)= 0.18043E+00
  rms(prec ) = 0.22027E+00
  weight for this iteration     100.00

 eigenvalues of (default mixing * dielectric matrix)
  average eigenvalue GAMMA=   1.0592
  1.8103  0.8029  0.5644

 Free energy of the ion-electron system (eV)
  ---------------------------------------------------
  alpha Z        PSCENC =        85.84423419
  Ewald energy   TEWEN  =     -1570.48922168
  -Hartree energ DENC   =      -248.41024278
  -exchange      EXHF   =         0.00000000
  -V(xc)+E(xc)   XCENC  =        33.45972399
  PAW double counting   =      1807.93328739    -1912.59779833
  entropy T*S    EENTRO =        -0.00189718
  eigenvalues    EBANDS =       163.59053490
  atomic energy  EATOM  =      1626.72322989
  Solvation  Ediel_sol  =         0.00000000
  ---------------------------------------------------
  free energy    TOTEN  =       -13.94814961 eV

  energy without entropy =      -13.94625243  energy(sigma->0) =      -13.94720102


--------------------------------------------------------------------------------------------------------




--------------------------------------- Iteration      1(   9)  ---------------------------------------


    POTLOK:  cpu time      0.0041: real time      0.0042
    SETDIJ:  cpu time      0.0043: real time      0.0044
     EDDAV:  cpu time      2.0254: real time      2.0342
       DOS:  cpu time      0.0008: real time      0.0008
    CHARGE:  cpu time      0.0218: real time      0.0219
    MIXING:  cpu time      0.0003: real time      0.0003
    --------------------------------------------
      LOOP:  cpu time      2.0566: real time      2.0658

 eigenvalue-minimisations  : 17388
 total energy-change (2. order) : 0.1256856E-01  (-0.1496872E-02)
 number of electron      18.0000004 magnetization       2.9931549
 augmentation part       10.2301993 magnetization       2.7274581

 Broyden mixing:
  rms(total) = 0.45361E-01    rms(broyden)= 0.45361E-01
  rms(prec ) = 0.51251E-01
  weight for this iteration     100.00

 eigenvalues of (default mixing * dielectric matrix)
  average eigenvalue GAMMA=   1.1684
  2.3288  0.9684  0.7626  0.6137

 Free energy of the ion-electron system (eV)
  ---------------------------------------------------
  alpha Z        PSCENC =        85.84423419
  Ewald energy   TEWEN  =     -1570.48922168
  -Hartree energ DENC   =      -245.96650647
  -exchange      EXHF   =         0.00000000
  -V(xc)+E(xc)   XCENC  =        33.35768672
  PAW double counting   =      1881.88616679    -1987.97318676
  entropy T*S    EENTRO =        -0.00206437
  eigenvalues    EBANDS =       162.68408066
  atomic energy  EATOM  =      1626.72322989
  Solvation  Ediel_sol  =         0.00000000
  ---------------------------------------------------
  free energy    TOTEN  =       -13.93558105 eV

  energy without entropy =      -13.93351668  energy(sigma->0) =      -13.93454886


--------------------------------------------------------------------------------------------------------




--------------------------------------- Iteration      1(  10)  ---------------------------------------


    POTLOK:  cpu time      0.0041: real time      0.0042
    SETDIJ:  cpu time      0.0041: real time      0.0041
     EDDAV:  cpu time      2.0936: real time      2.1025
       DOS:  cpu time      0.0008: real time      0.0008
    CHARGE:  cpu time      0.0223: real time      0.0224
    MIXING:  cpu time      0.0003: real time      0.0003
    --------------------------------------------
      LOOP:  cpu time      2.1253: real time      2.1344

 eigenvalue-minimisations  : 17388
 total energy-change (2. order) : 0.1081255E-02  (-0.1038960E-03)
 number of electron      18.0000004 magnetization       2.9914867
 augmentation part       10.2301236 magnetization       2.7194546

 Broyden mixing:
  rms(total) = 0.42035E-02    rms(broyden)= 0.42034E-02
  rms(prec ) = 0.63055E-02
  weight for this iteration     100.00

 eigenvalues of (default mixing * dielectric matrix)
  average eigenvalue GAMMA=   1.1612
  2.3533  1.0608  1.0608  0.6723  0.6586

 Free energy of the ion-electron system (eV)
  ---------------------------------------------------
  alpha Z        PSCENC =        85.84423419
  Ewald energy   TEWEN  =     -1570.48922168
  -Hartree energ DENC   =      -245.22431178
  -exchange      EXHF   =         0.00000000
  -V(xc)+E(xc)   XCENC  =        33.31575381
  PAW double counting   =      1915.10689149    -2021.92177249
  entropy T*S    EENTRO =        -0.00206535
  eigenvalues    EBANDS =       162.71276213
  atomic energy  EATOM  =      1626.72322989
  Solvation  Ediel_sol  =         0.00000000
  ---------------------------------------------------
  free energy    TOTEN  =       -13.93449979 eV

  energy without entropy =      -13.93243445  energy(sigma->0) =      -13.93346712


--------------------------------------------------------------------------------------------------------




--------------------------------------- Iteration      1(  11)  ---------------------------------------


    POTLOK:  cpu time      0.0043: real time      0.0044
    SETDIJ:  cpu time      0.0044: real time      0.0044
     EDDAV:  cpu time      1.5553: real time      1.5622
       DOS:  cpu time      0.0008: real time      0.0008
    CHARGE:  cpu time      0.0217: real time      0.0218
    MIXING:  cpu time      0.0003: real time      0.0003
    --------------------------------------------
      LOOP:  cpu time      1.5867: real time      1.5939

 eigenvalue-minimisations  : 14644
 total energy-change (2. order) : 0.9801697E-06  (-0.4478706E-05)
 number of electron      18.0000004 magnetization       2.9881008
 augmentation part       10.2313019 magnetization       2.7156461

 Broyden mixing:
  rms(total) = 0.26299E-02    rms(broyden)= 0.26299E-02
  rms(prec ) = 0.32655E-02
  weight for this iteration     100.00

 eigenvalues of (default mixing * dielectric matrix)
  average eigenvalue GAMMA=   1.1270
  2.3181  1.1648  1.1648  0.6250  0.7447  0.7447

 Free energy of the ion-electron system (eV)
  ---------------------------------------------------
  alpha Z        PSCENC =        85.84423419
  Ewald energy   TEWEN  =     -1570.48922168
  -Hartree energ DENC   =      -245.17539094
  -exchange      EXHF   =         0.00000000
  -V(xc)+E(xc)   XCENC  =        33.31052273
  PAW double counting   =      1918.07016339    -2024.90366938
  entropy T*S    EENTRO =        -0.00204245
  eigenvalues    EBANDS =       162.68767545
  atomic energy  EATOM  =      1626.72322989
  Solvation  Ediel_sol  =         0.00000000
  ---------------------------------------------------
  free energy    TOTEN  =       -13.93449881 eV

  energy without entropy =      -13.93245637  energy(sigma->0) =      -13.93347759


--------------------------------------------------------------------------------------------------------




--------------------------------------- Iteration      1(  12)  ---------------------------------------


    POTLOK:  cpu time      0.0041: real time      0.0042
    SETDIJ:  cpu time      0.0043: real time      0.0044
     EDDAV:  cpu time      2.1461: real time      2.1552
       DOS:  cpu time      0.0008: real time      0.0008
    CHARGE:  cpu time      0.0217: real time      0.0218
    MIXING:  cpu time      0.0003: real time      0.0003
    --------------------------------------------
      LOOP:  cpu time      2.1773: real time      2.1866

 eigenvalue-minimisations  : 17416
 total energy-change (2. order) : 0.1721977E-05  (-0.3019417E-06)
 number of electron      18.0000004 magnetization       2.9889394
 augmentation part       10.2313527 magnetization       2.7164878

 Broyden mixing:
  rms(total) = 0.14905E-02    rms(broyden)= 0.14905E-02
  rms(prec ) = 0.20514E-02
  weight for this iteration     100.00

 eigenvalues of (default mixing * dielectric matrix)
  average eigenvalue GAMMA=   1.2574
  2.3921  2.1605  1.1240  1.1240  0.6402  0.6402  0.7208

 Free energy of the ion-electron system (eV)
  ---------------------------------------------------
  alpha Z        PSCENC =        85.84423419
  Ewald energy   TEWEN  =     -1570.48922168
  -Hartree energ DENC   =      -245.16304575
  -exchange      EXHF   =         0.00000000
  -V(xc)+E(xc)   XCENC  =        33.30798889
  PAW double counting   =      1919.87326787    -2026.71558553
  entropy T*S    EENTRO =        -0.00204229
  eigenvalues    EBANDS =       162.68667734
  atomic energy  EATOM  =      1626.72322989
  Solvation  Ediel_sol  =         0.00000000
  ---------------------------------------------------
  free energy    TOTEN  =       -13.93449709 eV

  energy without entropy =      -13.93245480  energy(sigma->0) =      -13.93347594


--------------------------------------------------------------------------------------------------------




--------------------------------------- Iteration      1(  13)  ---------------------------------------


    POTLOK:  cpu time      0.0041: real time      0.0041
    SETDIJ:  cpu time      0.0041: real time      0.0041
     EDDAV:  cpu time      1.9127: real time      1.9210
       DOS:  cpu time      0.0008: real time      0.0008
    --------------------------------------------
      LOOP:  cpu time      1.9218: real time      1.9301

 eigenvalue-minimisations  : 16464
 total energy-change (2. order) : 0.7247447E-06  (-0.3313686E-06)
 number of electron      18.0000004 magnetization       2.9889394
 augmentation part       10.2313527 magnetization       2.7164878

 Free energy of the ion-electron system (eV)
  ---------------------------------------------------
  alpha Z        PSCENC =        85.84423419
  Ewald energy   TEWEN  =     -1570.48922168
  -Hartree energ DENC   =      -245.12741006
  -exchange      EXHF   =         0.00000000
  -V(xc)+E(xc)   XCENC  =        33.30742947
  PAW double counting   =      1922.14709874    -2029.01484122
  entropy T*S    EENTRO =        -0.00204058
  eigenvalues    EBANDS =       162.67702489
  atomic energy  EATOM  =      1626.72322989
  Solvation  Ediel_sol  =         0.00000000
  ---------------------------------------------------
  free energy    TOTEN  =       -13.93449637 eV

  energy without entropy =      -13.93245579  energy(sigma->0) =      -13.93347608


--------------------------------------------------------------------------------------------------------




 average (electrostatic) potential at core
  the test charge radii are     1.0452
  (the norm of the test charge is              1.0000)
       1 -76.9547       2 -76.9547
 
 
 
 E-fermi :  11.6780     XC(G=0): -13.9727     alpha+bet :-19.4907

 Fermi energy:        11.6779739862

 spin component 1

 k-point     1 :       0.0000    0.0000    0.0000
  band No.  band energies     occupation 
      1       2.1953      1.00000
      2       6.0808      1.00000
      3       8.9425      1.00000
      4       8.9601      1.00000
      5       8.9601      1.00000
      6       9.3304      1.00000
      7       9.3304      1.00000
      8       9.7228      1.00000
      9       9.7228      1.00000
     10      11.0073      1.00000
     11      11.0073      1.00000
     12      11.5828      0.99646
     13      18.9632      0.00000
     14      34.4129      0.00000
     15      37.8336      0.00000
     16      37.9587      0.00000
     17      37.9587      0.00000
     18      38.2117      0.00000
     19      39.2117      0.00000
     20      39.2117      0.00000
     21      43.5562      0.00000
     22      43.5562      0.00000
     23      45.0382      0.00000
     24      45.0693      0.00000
     25      47.3147      0.00000
     26      47.3147      0.00000
     27      47.8874      0.00000
     28      48.1886      0.00000

 k-point     2 :       0.0833    0.0000    0.0000
  band No.  band energies     occupation 
      1       2.4565      1.00000
      2       6.2405      1.00000
      3       8.6856      1.00000
      4       9.0906      1.00000
      5       9.1715      1.00000
      6       9.2762      1.00000
      7       9.4457      1.00000
      8       9.5407      1.00000
      9       9.6396      1.00000
     10      10.0744      1.00000
     11      11.0435      1.00000
     12      12.8640      0.00000
     13      18.9986      0.00000
     14      32.8652      0.00000
     15      35.3485      0.00000
     16      35.6488      0.00000
     17      38.2343      0.00000
     18      38.8919      0.00000
     19      40.2897      0.00000
     20      41.7229      0.00000
     21      42.4890      0.00000
     22      43.1207      0.00000
     23      44.6143      0.00000
     24      44.9195      0.00000
     25      47.2531      0.00000
     26      47.7108      0.00000
     27      48.0554      0.00000
     28      48.2138      0.00000

 k-point     3 :       0.1667    0.0000    0.0000
  band No.  band energies     occupation 
      1       3.2089      1.00000
      2       6.6332      1.00000
      3       8.3648      1.00000
      4       8.7104      1.00000
      5       9.0769      1.00000
      6       9.4351      1.00000
      7       9.4591      1.00000
      8       9.5223      1.00000
      9       9.6713      1.00000
     10       9.7689      1.00000
     11      11.1206      1.00000
     12      14.6085      0.00000
     13      19.1250      0.00000
     14      29.0930      0.00000
     15      33.0893      0.00000
     16      34.3246      0.00000
     17      36.2657      0.00000
     18      38.3530      0.00000
     19      39.6867      0.00000
     20      42.2248      0.00000
     21      42.3875      0.00000
     22      43.4717      0.00000
     23      43.9212      0.00000
     24      45.9173      0.00000
     25      46.0153      0.00000
     26      47.7657      0.00000
     27      48.1104      0.00000
     28      48.8233      0.00000

 k-point     4 :       0.2500    0.0000    0.0000
  band No.  band energies     occupation 
      1       4.3349      1.00000
      2       6.9388      1.00000
      3       7.8819      1.00000
      4       8.1704      1.00000
      5       8.9722      1.00000
      6       9.1902      1.00000
      7       9.4457      1.00000
      8       9.9948      1.00000
      9      10.0145      1.00000
     10      10.2344      1.00000
     11      11.1934      1.00000
     12      16.5485      0.00000
     13      19.3652      0.00000
     14      25.2873      0.00000
     15      30.8573      0.00000
     16      32.8403      0.00000
     17      33.1537      0.00000
     18      37.3676      0.00000
     19      37.8039      0.00000
     20      41.7831      0.00000
     21      42.0175      0.00000
     22      42.5684      0.00000
     23      43.9607      0.00000
     24      46.7820      0.00000
     25      48.0750      0.00000
     26      48.9912      0.00000
     27      48.9996      0.00000
     28      52.0011      0.00000

 k-point     5 :       0.3333    0.0000    0.0000
  band No.  band energies     occupation 
      1       5.5311      1.00000
      2       6.8503      1.00000
      3       7.2761      1.00000
      4       8.3005      1.00000
      5       8.9702      1.00000
      6       9.1133      1.00000
      7       9.2450      1.00000
      8      10.5674      1.00000
      9      10.7401      1.00000
     10      10.7965      1.00000
     11      11.2434      1.00000
     12      18.6409      0.00000
     13      19.3045      0.00000
     14      22.3871      0.00000
     15      29.0734      0.00000
     16      29.6933      0.00000
     17      30.9719      0.00000
     18      36.2030      0.00000
     19      36.2038      0.00000
     20      40.0985      0.00000
     21      41.3697      0.00000
     22      43.4844      0.00000
     23      45.8061      0.00000
     24      47.4700      0.00000
     25      48.3068      0.00000
     26      49.5017      0.00000
     27      52.6127      0.00000
     28      55.1104      0.00000

 k-point     6 :       0.4167    0.0000    0.0000
  band No.  band energies     occupation 
      1       6.2693      1.00000
      2       6.6453      1.00000
      3       6.9107      1.00000
      4       8.7153      1.00000
      5       8.8203      1.00000
      6       9.1037      1.00000
      7       9.3437      1.00000
      8      10.9974      1.00000
      9      11.1594      1.00000
     10      11.2700      1.00000
     11      12.0354      0.00000
     12      17.3034      0.00000
     13      20.7842      0.00000
     14      22.2687      0.00000
     15      26.9351      0.00000
     16      27.8918      0.00000
     17      28.3584      0.00000
     18      35.3835      0.00000
     19      35.6326      0.00000
     20      38.8318      0.00000
     21      41.1349      0.00000
     22      44.0712      0.00000
     23      47.7499      0.00000
     24      48.3642      0.00000
     25      48.3659      0.00000
     26      49.7720      0.00000
     27      54.8296      0.00000
     28      56.0209      0.00000

 k-point     7 :       0.5000    0.0000    0.0000
  band No.  band energies     occupation 
      1       6.4552      1.00000
      2       6.5545      1.00000
      3       6.7890      1.00000
      4       8.7675      1.00000
      5       8.9893      1.00000
      6       9.0528      1.00000
      7       9.4322      1.00000
      8      11.1532      1.00000
      9      11.2781      1.00000
     10      11.3297      1.00000
     11      13.2673      0.00000
     12      15.5056      0.00000
     13      22.1753      0.00000
     14      22.9497      0.00000
     15      25.3427      0.00000
     16      26.9438      0.00000
     17      27.4734      0.00000
     18      35.0955      0.00000
     19      35.4969      0.00000
     20      38.3893      0.00000
     21      41.0599      0.00000
     22      44.2868      0.00000
     23      47.8638      0.00000
     24      48.3601      0.00000
     25      49.7441      0.00000
     26      50.8329      0.00000
     27      52.0987      0.00000
     28      57.6248      0.00000

 k-point     8 :       0.0833    0.0833    0.0000
  band No.  band energies     occupation 
      1       2.9644      1.00000
      2       6.5235      1.00000
      3       8.4330      1.00000
      4       8.9910      1.00000
      5       9.1547      1.00000
      6       9.3520      1.00000
      7       9.3570      1.00000
      8       9.4027      1.00000
      9       9.7000      1.00000
     10       9.8085      1.00000
     11      11.0886      1.00000
     12      14.1226      0.00000
     13      19.0818      0.00000
     14      30.7923      0.00000
     15      31.7846      0.00000
     16      36.9974      0.00000
     17      37.7523      0.00000
     18      37.8906      0.00000
     19      38.2110      0.00000
     20      41.7037      0.00000
     21      43.0701      0.00000
     22      43.6789      0.00000
     23      45.4195      0.00000
     24      45.9363      0.00000
     25      46.3120      0.00000
     26      46.8510      0.00000
     27      47.3930      0.00000
     28      48.3437      0.00000

 k-point     9 :       0.1667    0.0833    0.0000
  band No.  band energies     occupation 
      1       3.9142      1.00000
      2       6.9239      1.00000
      3       8.1158      1.00000
      4       8.1872      1.00000
      5       9.0170      1.00000
      6       9.1430      1.00000
      7       9.6364      1.00000
      8       9.6452      1.00000
      9       9.8437      1.00000
     10      10.1776      1.00000
     11      11.1442      1.00000
     12      15.8519      0.00000
     13      19.2907      0.00000
     14      27.2235      0.00000
     15      29.5648      0.00000
     16      34.5368      0.00000
     17      35.7410      0.00000
     18      36.6962      0.00000
     19      38.6114      0.00000
     20      40.4706      0.00000
     21      41.7706      0.00000
     22      44.3311      0.00000
     23      45.5610      0.00000
     24      46.0460      0.00000
     25      47.6085      0.00000
     26      48.5215      0.00000
     27      48.9176      0.00000
     28      49.6705      0.00000

 k-point    10 :       0.2500    0.0833    0.0000
  band No.  band energies     occupation 
      1       5.1192      1.00000
      2       7.0426      1.00000
      3       7.5251      1.00000
      4       8.0354      1.00000
      5       8.9265      1.00000
      6       9.0317      1.00000
      7       9.4132      1.00000
      8      10.1075      1.00000
      9      10.4222      1.00000
     10      10.8252      1.00000
     11      11.1911      1.00000
     12      17.8255      0.00000
     13      19.5831      0.00000
     14      23.6845      0.00000
     15      27.9215      0.00000
     16      31.3293      0.00000
     17      33.0926      0.00000
     18      35.3820      0.00000
     19      38.1243      0.00000
     20      38.6227      0.00000
     21      42.4165      0.00000
     22      45.4880      0.00000
     23      45.7620      0.00000
     24      46.6421      0.00000
     25      47.9520      0.00000
     26      48.8857      0.00000
     27      50.5967      0.00000
     28      52.9604      0.00000

 k-point    11 :       0.3333    0.0833    0.0000
  band No.  band energies     occupation 
      1       6.1372      1.00000
      2       6.8415      1.00000
      3       7.0727      1.00000
      4       8.3081      1.00000
      5       8.7871      1.00000
      6       9.1920      1.00000
      7       9.2503      1.00000
      8      10.6879      1.00000
      9      10.9182      1.00000
     10      11.2202      1.00000
     11      11.7242      0.09538
     12      18.7172      0.00000
     13      19.9505      0.00000
     14      22.0572      0.00000
     15      26.6283      0.00000
     16      28.3830      0.00000
     17      30.0988      0.00000
[...]
     19      40.5532      0.00000
     20      40.5532      0.00000
     21      43.5917      0.00000
     22      43.5917      0.00000
     23      45.0773      0.00000
     24      45.0773      0.00000
     25      50.7050      0.00000
     26      50.7050      0.00000
     27      53.7680      0.00000
     28      53.7680      0.00000

 k-point    91 :       0.3333    0.1667    0.5000
  band No.  band energies     occupation 
      1       7.6082      1.00000
      2       7.6082      1.00000
      3       9.1663      1.00000
      4       9.1663      1.00000
      5      10.1782      1.00000
      6      10.1782      1.00000
      7      11.4751      1.00000
      8      11.4751      1.00000
      9      12.9547      0.00000
     10      12.9547      0.00000
     11      15.2022      0.00000
     12      15.2022      0.00000
     13      22.1640      0.00000
     14      22.1640      0.00000
     15      26.6812      0.00000
     16      26.6812      0.00000
     17      33.0994      0.00000
     18      33.0994      0.00000
     19      39.1064      0.00000
     20      39.1064      0.00000
     21      42.0976      0.00000
     22      42.0976      0.00000
     23      46.0854      0.00000
     24      46.0854      0.00000
     25      51.6082      0.00000
     26      51.6082      0.00000
     27      55.2004      0.00000
     28      55.2004      0.00000

 k-point    92 :       0.4167    0.1667    0.5000
  band No.  band energies     occupation 
      1       7.6599      1.00000
      2       7.6599      1.00000
      3       9.1438      1.00000
      4       9.1438      1.00000
      5      10.2418      1.00000
      6      10.2418      1.00000
      7      11.6705      0.58407
      8      11.6705      0.58407
      9      12.8809      0.00000
     10      12.8809      0.00000
     11      15.9944      0.00000
     12      15.9944      0.00000
     13      20.8471      0.00000
     14      20.8471      0.00000
     15      26.4222      0.00000
     16      26.4222      0.00000
     17      33.8359      0.00000
     18      33.8359      0.00000
     19      38.3136      0.00000
     20      38.3136      0.00000
     21      41.4937      0.00000
     22      41.4937      0.00000
     23      46.3989      0.00000
     24      46.3989      0.00000
     25      51.9369      0.00000
     26      51.9369      0.00000
     27      57.4720      0.00000
     28      57.4720      0.00000

 k-point    93 :       0.2500    0.2500    0.5000
  band No.  band energies     occupation 
      1       7.8348      1.00000
      2       7.8348      1.00000
      3       9.2636      1.00000
      4       9.2636      1.00000
      5       9.7780      1.00000
      6       9.7780      1.00000
      7      11.2793      1.00000
      8      11.2793      1.00000
      9      12.9826      0.00000
     10      12.9826      0.00000
     11      15.4442      0.00000
     12      15.4442      0.00000
     13      23.4577      0.00000
     14      23.4577      0.00000
     15      24.8132      0.00000
     16      24.8132      0.00000
     17      33.2026      0.00000
     18      33.2026      0.00000
     19      40.2865      0.00000
     20      40.2865      0.00000
     21      41.9939      0.00000
     22      41.9939      0.00000
     23      46.5787      0.00000
     24      46.5787      0.00000
     25      50.5479      0.00000
     26      50.5479      0.00000
     27      53.7822      0.00000
     28      53.7822      0.00000

 k-point    94 :       0.3333    0.2500    0.5000
  band No.  band energies     occupation 
      1       8.1281      1.00000
      2       8.1281      1.00000
      3       9.1916      1.00000
      4       9.1916      1.00000
      5       9.7097      1.00000
      6       9.7097      1.00000
      7      11.4006      1.00000
      8      11.4006      1.00000
      9      12.8690      0.00000
     10      12.8690      0.00000
     11      17.0924      0.00000
     12      17.0924      0.00000
     13      21.3007      0.00000
     14      21.3007      0.00000
     15      24.0101      0.00000
     16      24.0101      0.00000
     17      34.7257      0.00000
     18      34.7257      0.00000
     19      38.5128      0.00000
     20      38.5128      0.00000
     21      41.3485      0.00000
     22      41.3485      0.00000
     23      48.1187      0.00000
     24      48.1187      0.00000
     25      51.4750      0.00000
     26      51.4750      0.00000
     27      54.2546      0.00000
     28      54.2546      0.00000

 k-point    95 :       0.3333    0.3333    0.5000
  band No.  band energies     occupation 
      1       8.6678      1.00000
      2       8.6678      1.00000
      3       8.7516      1.00000
      4       8.7516      1.00000
      5       9.6638      1.00000
      6       9.6638      1.00000
      7      11.3630      1.00000
      8      11.3630      1.00000
      9      12.8086      0.00000
     10      12.8086      0.00000
     11      18.5641      0.00000
     12      18.5641      0.00000
     13      20.3441      0.00000
     14      20.3441      0.00000
     15      22.9542      0.00000
     16      22.9542      0.00000
     17      36.6658      0.00000
     18      36.6658      0.00000
     19      36.6767      0.00000
     20      36.6767      0.00000
     21      41.0085      0.00000
     22      41.0085      0.00000
     23      51.3718      0.00000
     24      51.3718      0.00000
     25      51.4958      0.00000
     26      51.4958      0.00000
     27      51.9241      0.00000
     28      51.9241      0.00000


--------------------------------------------------------------------------------------------------------


 soft charge-density along one line, spin component           1
         0         1         2         3         4         5         6         7         8         9
 total charge-density along one line
 
 soft charge-density along one line, spin component           2
         0         1         2         3         4         5         6         7         8         9
 total charge-density along one line
 
 pseudopotential strength for first ion, spin component:           1
  0.345   0.000  -0.000   0.000  -0.000  -0.325   0.000  -0.000
  0.000   0.339  -0.000   0.000   0.000   0.000  -0.330  -0.000
 -0.000  -0.000   0.334   0.000   0.000  -0.000  -0.000  -0.336
  0.000   0.000   0.000   0.339   0.000   0.000   0.000   0.000
 -0.000   0.000   0.000   0.000   0.345  -0.000   0.000   0.000
 -0.325   0.000  -0.000   0.000  -0.000  -0.933   0.000  -0.000
  0.000  -0.330  -0.000   0.000   0.000   0.000  -0.939  -0.000
 -0.000  -0.000  -0.336   0.000   0.000  -0.000  -0.000  -0.944
  0.000   0.000   0.000  -0.330   0.000   0.000   0.000   0.000
 -0.000   0.000   0.000   0.000  -0.325  -0.000   0.000   0.000
 -0.000   0.000   0.001  -0.000   0.000  -0.000   0.000   0.001
 -0.000   0.000   0.002  -0.000   0.000  -0.000   0.000   0.002
 -0.000   0.000  -0.000   0.000   0.001  -0.000   0.000  -0.000
  0.000   0.000   0.000  -0.000   0.000   0.000   0.000   0.000
  0.001   0.000   0.000   0.000  -0.000   0.001   0.000   0.000
 -0.000   0.000  -0.000   0.000   0.001  -0.000   0.000  -0.000
  0.000   0.000   0.000  -0.000   0.000   0.000   0.000   0.000
  0.001   0.000   0.000   0.000  -0.000   0.001   0.000   0.000
 pseudopotential strength for first ion, spin component:           2
  1.585   0.000  -0.000   0.000  -0.000   0.864   0.000  -0.000
  0.000   1.600  -0.000   0.000   0.000   0.000   0.878  -0.000
 -0.000  -0.000   1.583   0.000   0.000  -0.000  -0.000   0.861
  0.000   0.000   0.000   1.600   0.000   0.000   0.000   0.000
 -0.000   0.000   0.000   0.000   1.585  -0.000   0.000   0.000
  0.864   0.000  -0.000   0.000  -0.000   0.205   0.000  -0.000
  0.000   0.878  -0.000   0.000   0.000   0.000   0.219  -0.000
 -0.000  -0.000   0.861   0.000   0.000  -0.000  -0.000   0.202
  0.000   0.000   0.000   0.878   0.000   0.000   0.000   0.000
 -0.000   0.000   0.000   0.000   0.864  -0.000   0.000   0.000
 -0.000   0.000  -0.001  -0.000   0.000  -0.000   0.000  -0.001
 -0.000   0.000  -0.002  -0.000   0.000  -0.000   0.000  -0.002
 -0.000   0.000  -0.000   0.000   0.001  -0.000   0.000  -0.000
  0.000   0.000   0.000  -0.000   0.000   0.000   0.000   0.000
  0.001   0.000   0.000   0.000  -0.000   0.001   0.000   0.000
 -0.000   0.000  -0.000   0.000   0.000  -0.000   0.000  -0.000
  0.000   0.000   0.000  -0.000   0.000   0.000   0.000   0.000
  0.000   0.000   0.000   0.000  -0.000   0.000   0.000   0.000
 total augmentation occupancy for first ion, spin component:           1
  3.029   0.000  -0.000   0.000  -0.000  -1.843  -0.000  -0.000  -0.000   0.000   0.000   0.000  -0.000  -0.000  -0.051   0.000
  0.000   3.230   0.000   0.000   0.000   0.000  -1.954   0.000   0.000  -0.000  -0.000  -0.000   0.000   0.000  -0.000   0.000
 -0.000   0.000   2.916   0.000   0.000   0.000   0.000  -1.830  -0.000  -0.000  -0.015   0.003  -0.000  -0.000  -0.000   0.000
  0.000   0.000  -0.000   3.230  -0.000   0.000   0.000   0.000  -1.954  -0.000   0.000   0.000   0.000   0.000   0.000  -0.000
 -0.000  -0.000   0.000   0.000   3.029   0.000  -0.000  -0.000  -0.000  -1.843   0.000  -0.000  -0.051  -0.000   0.000   0.004
 -1.843  -0.000   0.000   0.000   0.000   2.215   0.000  -0.000  -0.000   0.000   0.000   0.000   0.000  -0.000   0.068   0.000
 -0.000  -1.954  -0.000   0.000  -0.000   0.000   2.245   0.000  -0.000  -0.000   0.000   0.000  -0.000   0.000  -0.000   0.000
  0.000   0.000  -1.830  -0.000  -0.000   0.000  -0.000   2.295  -0.000   0.000   0.021  -0.003   0.000  -0.000  -0.000  -0.000
  0.000   0.000  -0.000  -1.954  -0.000   0.000  -0.000   0.000   2.245  -0.000   0.000   0.000  -0.000  -0.000   0.000   0.000
  0.000  -0.000  -0.000   0.000  -1.843  -0.000   0.000   0.000   0.000   2.215  -0.000   0.000   0.068   0.000   0.000  -0.005
 -0.000   0.000  -0.015   0.000   0.000   0.000  -0.000   0.021   0.000  -0.000   2.583  -0.326   0.000  -0.000   0.000   0.000
 -0.000  -0.000   0.003  -0.000  -0.000   0.000   0.000  -0.003   0.000   0.000  -0.326   0.049  -0.000  -0.000   0.000  -0.000
  0.000   0.000  -0.000   0.000  -0.051   0.000   0.000   0.000  -0.000   0.068   0.000   0.000   0.364   0.000   0.000  -0.035
  0.000   0.000  -0.000   0.000   0.000   0.000   0.000   0.000   0.000   0.000  -0.000  -0.000  -0.000   0.373  -0.000  -0.000
 -0.051   0.000   0.000   0.000  -0.000   0.068   0.000  -0.000  -0.000   0.000  -0.000  -0.000  -0.000  -0.000   0.364   0.000
 -0.000  -0.000  -0.000  -0.000   0.004  -0.000   0.000  -0.000  -0.000  -0.005   0.000  -0.000  -0.035   0.000   0.000   0.004
 -0.000  -0.000  -0.000   0.000   0.000  -0.000   0.000   0.000   0.000   0.000   0.000   0.000  -0.000  -0.035  -0.000   0.000
  0.004  -0.000  -0.000   0.000   0.000  -0.005   0.000  -0.000   0.000  -0.000   0.000   0.000   0.000   0.000  -0.035  -0.000
 total augmentation occupancy for first ion, spin component:           2
  1.992   0.000   0.000   0.000  -0.000  -0.961   0.000   0.000  -0.000   0.000   0.000   0.000  -0.000   0.000   0.002  -0.000
 -0.000   2.116  -0.000   0.000  -0.000  -0.000  -1.044   0.000   0.000  -0.000   0.000   0.000   0.000   0.000   0.000   0.000
  0.000  -0.000   2.076  -0.000   0.000   0.000   0.000  -1.006   0.000  -0.000   0.007   0.002   0.000  -0.000   0.000  -0.000
 -0.000   0.000   0.000   2.116   0.000   0.000   0.000  -0.000  -1.044   0.000  -0.000   0.000   0.000  -0.000   0.000   0.000
  0.000   0.000   0.000  -0.000   1.992   0.000   0.000  -0.000  -0.000  -0.961  -0.000   0.000   0.002  -0.000   0.000   0.000
 -0.961  -0.000   0.000   0.000   0.000   0.268  -0.000   0.000   0.000   0.000  -0.000  -0.000  -0.000  -0.000  -0.006  -0.000
 -0.000  -1.044   0.000  -0.000   0.000   0.000   0.329  -0.000  -0.000   0.000   0.000   0.000  -0.000  -0.000  -0.000  -0.000
  0.000  -0.000  -1.006   0.000  -0.000   0.000   0.000   0.282   0.000   0.000  -0.007  -0.001   0.000  -0.000   0.000   0.000
 -0.000  -0.000   0.000  -1.044   0.000   0.000  -0.000  -0.000   0.329   0.000   0.000  -0.000   0.000  -0.000   0.000   0.000
  0.000   0.000  -0.000  -0.000  -0.961   0.000   0.000  -0.000   0.000   0.268   0.000  -0.000  -0.006  -0.000  -0.000   0.000
  0.000   0.000   0.007   0.000  -0.000   0.000   0.000  -0.007   0.000   0.000  -0.313   0.093  -0.000   0.000   0.000   0.000
 -0.000   0.000   0.002  -0.000   0.000   0.000   0.000  -0.001   0.000  -0.000   0.093  -0.018  -0.000  -0.000  -0.000   0.000
  0.000  -0.000   0.000  -0.000   0.002  -0.000  -0.000  -0.000  -0.000  -0.006   0.000  -0.000  -0.037   0.000  -0.000   0.005
  0.000   0.000  -0.000  -0.000   0.000  -0.000   0.000   0.000   0.000   0.000   0.000   0.000   0.000  -0.040   0.000  -0.000
  0.002   0.000   0.000  -0.000  -0.000  -0.006  -0.000   0.000   0.000  -0.000  -0.000   0.000   0.000   0.000  -0.037   0.000
  0.000   0.000   0.000   0.000   0.000   0.000   0.000   0.000   0.000   0.000  -0.000  -0.000   0.005   0.000   0.000  -0.001
  0.000  -0.000  -0.000   0.000  -0.000  -0.000   0.000   0.000   0.000   0.000   0.000  -0.000   0.000   0.005  -0.000  -0.000
  0.000  -0.000   0.000  -0.000   0.000   0.000   0.000  -0.000  -0.000   0.000  -0.000  -0.000   0.000  -0.000   0.005   0.000


------------------------ aborting loop because EDIFF is reached ----------------------------------------





 total charge

# of ion       s       p       d       tot
------------------------------------------
    1        0.530   0.610   7.335   8.475
    2        0.530   0.610   7.335   8.475
--------------------------------------------------
tot          1.059   1.220  14.671  16.950



 magnetization (x)

# of ion       s       p       d       tot
------------------------------------------
    1       -0.017  -0.058   1.572   1.497
    2       -0.017  -0.058   1.572   1.497
--------------------------------------------------
tot         -0.034  -0.115   3.143   2.994
 
    CHARGE:  cpu time      0.0222: real time      0.0223
    FORLOC:  cpu time      0.0001: real time      0.0001
    FORNL :  cpu time      0.0227: real time      0.0228
    STRESS:  cpu time      0.1467: real time      0.1475
    FORCOR:  cpu time      0.0038: real time      0.0038
    FORHAR:  cpu time      0.0004: real time      0.0004
    MIXING:  cpu time      0.0003: real time      0.0003
    OFIELD:  cpu time      0.0000: real time      0.0000

  FORCE on cell =-STRESS in cart. coord.  units (eV):
  Direction    XX          YY          ZZ          XY          YZ          ZX
  --------------------------------------------------------------------------------------
  Alpha Z    85.84423    85.84423    85.84423
  Ewald    -526.50289  -526.50289  -517.48454     0.00000    -0.00000     0.00000
  Hartree    80.37943    80.37943    84.37012     0.00000     0.00000    -0.00000
  E(xc)     -93.19359   -93.19358   -93.20101     0.00000    -0.00000    -0.00000
  Local      -1.76006    -1.75986   -14.50534     0.00000     0.00000     0.00000
  n-local   -13.00893    -0.30397    -6.35761     3.51049    -0.67444     2.47941
  augment   309.93989   309.93967   309.73265    -0.00000     0.00000    -0.00000
  Kinetic   157.24254   152.32275   154.45069    -3.20028    -0.46858     0.45920
  Fock        0.00000     0.00000     0.00000     0.00000     0.00000     0.00000
  -------------------------------------------------------------------------------------
  Total       2.83320     2.83320     2.84919     0.00000     0.00000    -0.00000
  in kB     229.98913   229.98913   231.28715     0.00000     0.00000    -0.00000
  external pressure =      230.42 kB  Pullay stress =        0.00 kB


 VOLUME and BASIS-vectors are now :
 -----------------------------------------------------------------------------
  energy-cutoff  :      425.00
  volume of cell :       19.74
      direct lattice vectors                 reciprocal lattice vectors
     1.208753671 -2.093622772  0.000000000     0.413649209 -0.238820482  0.000000000
     1.208753671  2.093622772  0.000000000     0.413649209  0.238820482  0.000000000
     0.000000000  0.000000000  3.899553675     0.000000000  0.000000000  0.256439604

  length of vectors
     2.417507342  2.417507342  3.899553675     0.477640965  0.477640965  0.256439604


 FORCES acting on ions
    electron-ion (+dipol)            ewald-force                    non-local-force                 convergence-correction
 -----------------------------------------------------------------------------------------------
   0.191E-10 0.165E-05 -.165E-11   -.440E-14 0.263E-11 -.233E-13   0.347E-17 -.278E-16 0.217E-17   -.286E-14 -.236E-08 -.621E-13
   0.188E-10 -.165E-05 -.539E-11   0.377E-14 -.263E-11 0.233E-13   0.173E-17 0.278E-16 -.217E-17   0.111E-13 0.236E-08 0.572E-13
 -----------------------------------------------------------------------------------------------
   0.378E-10 -.222E-12 -.703E-11   -.631E-15 -.276E-14 0.000E+00   0.520E-17 0.000E+00 0.000E+00   0.821E-14 -.244E-13 -.498E-14
 
 
 POSITION                                       TOTAL-FORCE (eV/Angst)
 -----------------------------------------------------------------------------------
      1.20875      0.69787      0.97489         0.000000      0.000000     -0.000000
      1.20875     -0.69787      2.92467         0.000000     -0.000000      0.000000
 -----------------------------------------------------------------------------------
    total drift:                                0.000000     -0.000000     -0.000000


--------------------------------------------------------------------------------------------------------



  FREE ENERGIE OF THE ION-ELECTRON SYSTEM (eV)
  ---------------------------------------------------
  free  energy   TOTEN  =       -13.93449637 eV

  energy  without entropy=      -13.93245579  energy(sigma->0) =      -13.93347608
 


--------------------------------------------------------------------------------------------------------


    POTLOK:  cpu time      0.0086: real time      0.0087


--------------------------------------------------------------------------------------------------------




--------------------------------------------------------------------------------------------------------


  
 reached required accuracy - stopping structural energy minimisation
     LOOP+:  cpu time     22.8671: real time     22.9748
    4ORBIT:  cpu time      0.0000: real time      0.0000



 total charge

# of ion       s       p       d       tot
------------------------------------------
    1        0.530   0.610   7.335   8.475
    2        0.530   0.610   7.335   8.475
--------------------------------------------------
tot          1.059   1.220  14.671  16.950



 magnetization (x)

# of ion       s       p       d       tot
------------------------------------------
    1       -0.017  -0.058   1.572   1.497
    2       -0.017  -0.058   1.572   1.497
--------------------------------------------------
tot         -0.034  -0.115   3.143   2.994
 

 total amount of memory used by VASP MPI-rank0    38258. kBytes
=======================================================================

   base      :      30000. kBytes
   nonl-proj :       5759. kBytes
   fftplans  :        144. kBytes
   grid      :        846. kBytes
   one-center:         62. kBytes
   wavefun   :       1447. kBytes
 
  
  
 General timing and accounting informations for this job:
 ========================================================
  
                  Total CPU time used (sec):       23.974
                            User time (sec):       23.414
                          System time (sec):        0.560
                         Elapsed time (sec):       25.326
  
                   Maximum memory used (kb):      245756.
                   Average memory used (kb):          N/A
  
                          Minor page faults:        41946
                          Major page faults:           86
                 Voluntary context switches:         2279
