PROCAR lm decomposed
# of k-points:   95         # of bands:   28         # of ions:    2

 k-point     1 :    0.00000000 0.00000000 0.00000000     weight = 0.00086806

band     1 # energy    2.19534345 # occ.  1.00000000
 
ion      s     py     pz     px    dxy    dyz    dz2    dxz  x2-y2    tot
    1  0.405  0.000  0.000  0.000  0.000  0.000  0.000  0.000  0.000  0.405
    2  0.405  0.000  0.000  0.000  0.000  0.000  0.000  0.000  0.000  0.405
tot    0.809  0.000  0.000  0.000  0.000  0.000  0.000  0.000  0.000  0.809
 
band     2 # energy    6.08081120 # occ.  1.00000000
 
ion      s     py     pz     px    dxy    dyz    dz2    dxz  x2-y2    tot
    1  0.089  0.000  0.000  0.000  0.000  0.000  0.377  0.000  0.000  0.465
    2  0.089  0.000  0.000  0.000  0.000  0.000  0.377  0.000  0.000  0.465
tot    0.177  0.000  0.000  0.000  0.000  0.000  0.753  0.000  0.000  0.930
 
band     3 # energy    8.94252600 # occ.  1.00000000
 
ion      s     py     pz     px    dxy    dyz    dz2    dxz  x2-y2    tot
    1  0.000  0.000  0.000  0.000  0.000  0.000  0.490  0.000  0.000  0.490
    2  0.000  0.000  0.000  0.000  0.000  0.000  0.490  0.000  0.000  0.490
tot    0.000  0.000  0.000  0.000  0.000  0.000  0.981  0.000  0.000  0.981
 
band     4 # energy    8.96008816 # occ.  1.00000000
 
ion      s     py     pz     px    dxy    dyz    dz2    dxz  x2-y2    tot
    1  0.000  0.001  0.000  0.000  0.000  0.000  0.000  0.000  0.486  0.487
    2  0.000  0.001  0.000  0.000  0.000  0.000  0.000  0.000  0.486  0.487
tot    0.000  0.001  0.000  0.000  0.000  0.000  0.000  0.000  0.972  0.973
 
band     5 # energy    8.96008817 # occ.  1.00000000
 
ion      s     py     pz     px    dxy    dyz    dz2    dxz  x2-y2    tot
    1  0.000  0.000  0.000  0.001  0.486  0.000  0.000  0.000  0.000  0.487
    2  0.000  0.000  0.000  0.001  0.486  0.000  0.000  0.000  0.000  0.487
tot    0.000  0.000  0.000  0.001  0.972  0.000  0.000  0.000  0.000  0.973
 
band     6 # energy    9.33035136 # occ.  1.00000000
 
ion      s     py     pz     px    dxy    dyz    dz2    dxz  x2-y2    tot
    1  0.000  0.001  0.000  0.000  0.000  0.000  0.000  0.000  0.490  0.491
    2  0.000  0.001  0.000  0.000  0.000  0.000  0.000  0.000  0.490  0.491
tot    0.000  0.002  0.000  0.000  0.000  0.000  0.000  0.000  0.980  0.981
 
band     7 # energy    9.33035146 # occ.  1.00000000
 
ion      s     py     pz     px    dxy    dyz    dz2    dxz  x2-y2    tot
    1  0.000  0.000  0.000  0.001  0.490  0.000  0.000  0.000  0.000  0.491
    2  0.000  0.000  0.000  0.001  0.490  0.000  0.000  0.000  0.000  0.491
tot    0.000  0.000  0.000  0.002  0.980  0.000  0.000  0.000  0.000  0.981
 
band     8 # energy    9.72278722 # occ.  1.00000000
 
ion      s     py     pz     px    dxy    dyz    dz2    dxz  x2-y2    tot
    1  0.000  0.000  0.000  0.000  0.000  0.000  0.000  0.492  0.000  0.492
    2  0.000  0.000  0.000  0.000  0.000  0.000  0.000  0.492  0.000  0.492
tot    0.000  0.000  0.000  0.000  0.000  0.000  0.000  0.984  0.000  0.984
 
band     9 # energy    9.72278740 # occ.  1.00000000
 
ion      s     py     pz     px    dxy    dyz    dz2    dxz  x2-y2    tot
    1  0.000  0.000  0.000  0.000  0.000  0.492  0.000  0.000  0.000  0.492
    2  0.000  0.000  0.000  0.000  0.000  0.492  0.000  0.000  0.000  0.492
tot    0.000  0.000  0.000  0.000  0.000  0.984  0.000  0.000  0.000  0.984
 
band    10 # energy   11.00729259 # occ.  1.00000000
 
ion      s     py     pz     px    dxy    dyz    dz2    dxz  x2-y2    tot
    1  0.000  0.000  0.000  0.000  0.000  0.000  0.000  0.493  0.000  0.493
    2  0.000  0.000  0.000  0.000  0.000  0.000  0.000  0.493  0.000  0.493
tot    0.000  0.000  0.000  0.000  0.000  0.000  0.000  0.985  0.000  0.985
 
band    11 # energy   11.00729289 # occ.  1.00000000
 
ion      s     py     pz     px    dxy    dyz    dz2    dxz  x2-y2    tot
    1  0.000  0.000  0.000  0.000  0.000  0.493  0.000  0.000  0.000  0.493
    2  0.000  0.000  0.000  0.000  0.000  0.493  0.000  0.000  0.000  0.493
tot    0.000  0.000  0.000  0.000  0.000  0.985  0.000  0.000  0.000  0.985
 
band    12 # energy   11.58277383 # occ.  0.99645585
 
ion      s     py     pz     px    dxy    dyz    dz2    dxz  x2-y2    tot
    1  0.000  0.000  0.389  0.000  0.000  0.000  0.000  0.000  0.000  0.389
    2  0.000  0.000  0.389  0.000  0.000  0.000  0.000  0.000  0.000  0.389
tot    0.000  0.000  0.778  0.000  0.000  0.000  0.000  0.000  0.000  0.778
 
band    13 # energy   18.96321228 # occ.  0.00000000
 
ion      s     py     pz     px    dxy    dyz    dz2    dxz  x2-y2    tot
    1  0.230  0.000  0.000  0.000  0.000  0.000  0.249  0.000  0.000  0.479
    2  0.230  0.000  0.000  0.000  0.000  0.000  0.249  0.000  0.000  0.479
tot    0.460  0.000  0.000  0.000  0.000  0.000  0.498  0.000  0.000  0.959
 
band    14 # energy   34.41285200 # occ.  0.00000000
 
ion      s     py     pz     px    dxy    dyz    dz2    dxz  x2-y2    tot
    1  0.007  0.000  0.000  0.000  0.000  0.000  0.033  0.000  0.000  0.040
    2  0.007  0.000  0.000  0.000  0.000  0.000  0.033  0.000  0.000  0.040
tot    0.014  0.000  0.000  0.000  0.000  0.000  0.067  0.000  0.000  0.080
 
band    15 # energy   37.83355980 # occ.  0.00000000
 
ion      s     py     pz     px    dxy    dyz    dz2    dxz  x2-y2    tot
    1  0.022  0.000  0.000  0.000  0.000  0.000  0.077  0.000  0.000  0.099
    2  0.022  0.000  0.000  0.000  0.000  0.000  0.077  0.000  0.000  0.099
tot    0.044  0.000  0.000  0.000  0.000  0.000  0.154  0.000  0.000  0.198
 
band    16 # energy   37.95874699 # occ.  0.00000000
 
ion      s     py     pz     px    dxy    dyz    dz2    dxz  x2-y2    tot
    1  0.000  0.266  0.000  0.000  0.000  0.000  0.000  0.000  0.147  0.413
    2  0.000  0.266  0.000  0.000  0.000  0.000  0.000  0.000  0.147  0.413
tot    0.000  0.533  0.000  0.000  0.000  0.000  0.000  0.000  0.294  0.827
 
band    17 # energy   37.95874879 # occ.  0.00000000
 
ion      s     py     pz     px    dxy    dyz    dz2    dxz  x2-y2    tot
    1  0.000  0.000  0.000  0.266  0.147  0.000  0.000  0.000  0.000  0.413
    2  0.000  0.000  0.000  0.266  0.147  0.000  0.000  0.000  0.000  0.413
tot    0.000  0.000  0.000  0.533  0.294  0.000  0.000  0.000  0.000  0.827
 
band    18 # energy   38.21169074 # occ.  0.00000000
 
ion      s     py     pz     px    dxy    dyz    dz2    dxz  x2-y2    tot
    1  0.000  0.000  0.023  0.000  0.000  0.000  0.000  0.000  0.000  0.023
    2  0.000  0.000  0.023  0.000  0.000  0.000  0.000  0.000  0.000  0.023
tot    0.000  0.000  0.046  0.000  0.000  0.000  0.000  0.000  0.000  0.046
 
band    19 # energy   39.21173437 # occ.  0.00000000
 
ion      s     py     pz     px    dxy    dyz    dz2    dxz  x2-y2    tot
    1  0.000  0.000  0.000  0.082  0.443  0.000  0.000  0.000  0.000  0.525
    2  0.000  0.000  0.000  0.082  0.443  0.000  0.000  0.000  0.000  0.525
tot    0.000  0.000  0.000  0.164  0.885  0.000  0.000  0.000  0.000  1.049
 
band    20 # energy   39.21173446 # occ.  0.00000000
 
ion      s     py     pz     px    dxy    dyz    dz2    dxz  x2-y2    tot
    1  0.000  0.082  0.000  0.000  0.000  0.000  0.000  0.000  0.443  0.525
    2  0.000  0.082  0.000  0.000  0.000  0.000  0.000  0.000  0.443  0.525
tot    0.000  0.164  0.000  0.000  0.000  0.000  0.000  0.000  0.885  1.049
 
band    21 # energy   43.55616611 # occ.  0.00000000
 
ion      s     py     pz     px    dxy    dyz    dz2    dxz  x2-y2    tot
    1  0.000  0.000  0.000  0.000  0.000  0.000  0.000  0.149  0.000  0.149
    2  0.000  0.000  0.000  0.000  0.000  0.000  0.000  0.149  0.000  0.149
tot    0.000  0.000  0.000  0.000  0.000  0.000  0.000  0.298  0.000  0.298
 
band    22 # energy   43.55616636 # occ.  0.00000000
 
ion      s     py     pz     px    dxy    dyz    dz2    dxz  x2-y2    tot
    1  0.000  0.000  0.000  0.000  0.000  0.149  0.000  0.000  0.000  0.149
    2  0.000  0.000  0.000  0.000  0.000  0.149  0.000  0.000  0.000  0.149
tot    0.000  0.000  0.000  0.000  0.000  0.298  0.000  0.000  0.000  0.298
 
band    23 # energy   45.03817958 # occ.  0.00000000
 
ion      s     py     pz     px    dxy    dyz    dz2    dxz  x2-y2    tot
    1  0.008  0.000  0.000  0.000  0.000  0.000  0.703  0.000  0.000  0.711
    2  0.008  0.000  0.000  0.000  0.000  0.000  0.703  0.000  0.000  0.711
tot    0.016  0.000  0.000  0.000  0.000  0.000  1.406  0.000  0.000  1.423
 
band    24 # energy   45.06933833 # occ.  0.00000000
 
ion      s     py     pz     px    dxy    dyz    dz2    dxz  x2-y2    tot
    1  0.000  0.000  0.050  0.000  0.000  0.000  0.000  0.000  0.000  0.050
    2  0.000  0.000  0.050  0.000  0.000  0.000  0.000  0.000  0.000  0.050
tot    0.000  0.000  0.100  0.000  0.000  0.000  0.000  0.000  0.000  0.100
 
band    25 # energy   47.31465153 # occ.  0.00000000
 
ion      s     py     pz     px    dxy    dyz    dz2    dxz  x2-y2    tot
    1  0.000  0.000  0.000  0.000  0.000  0.572  0.000  0.000  0.000  0.572
    2  0.000  0.000  0.000  0.000  0.000  0.572  0.000  0.000  0.000  0.572
tot    0.000  0.000  0.000  0.000  0.000  1.145  0.000  0.000  0.000  1.145
 
band    26 # energy   47.31465200 # occ.  0.00000000
 
ion      s     py     pz     px    dxy    dyz    dz2    dxz  x2-y2    tot
    1  0.000  0.000  0.000  0.000  0.000  0.000  0.000  0.572  0.000  0.572
    2  0.000  0.000  0.000  0.000  0.000  0.000  0.000  0.572  0.000  0.572
tot    0.000  0.000  0.000  0.000  0.000  0.000  0.000  1.145  0.000  1.145
 
band    27 # energy   47.88737625 # occ.  0.00000000
 
ion      s     py     pz     px    dxy    dyz    dz2    dxz  x2-y2    tot
    1  2.921  0.000  0.000  0.000  0.000  0.000  0.019  0.000  0.000  2.940
    2  2.921  0.000  0.000  0.000  0.000  0.000  0.019  0.000  0.000  2.940
tot    5.842  0.000  0.000  0.000  0.000  0.000  0.038  0.000  0.000  5.880
 
band    28 # energy   48.18862184 # occ.  0.00000000
 
ion      s     py     pz     px    dxy    dyz    dz2    dxz  x2-y2    tot
    1  3.080  0.000  0.000  0.000  0.000  0.000  0.003  0.000  0.000  3.082
    2  3.080  0.000  0.000  0.000  0.000  0.000  0.003  0.000  0.000  3.082
tot    6.160  0.000  0.000  0.000  0.000  0.000  0.005  0.000  0.000  6.165
 

 k-point     2 :    0.08333333 0.00000000 0.00000000     weight = 0.00520833

band     1 # energy    2.45652952 # occ.  1.00000000
 
ion      s     py     pz     px    dxy    dyz    dz2    dxz  x2-y2    tot
    1  0.395  0.002  0.000  0.007  0.000  0.000  0.000  0.000  0.000  0.405
    2  0.395  0.002  0.000  0.007  0.000  0.000  0.000  0.000  0.000  0.405
tot    0.790  0.005  0.000  0.015  0.000  0.000  0.000  0.000  0.000  0.810
 
band     2 # energy    6.24054685 # occ.  1.00000000
 
ion      s     py     pz     px    dxy    dyz    dz2    dxz  x2-y2    tot
    1  0.080  0.001  0.000  0.004  0.002  0.000  0.377  0.000  0.001  0.466
    2  0.080  0.001  0.000  0.004  0.002  0.000  0.377  0.000  0.001  0.466
tot    0.161  0.003  0.000  0.009  0.004  0.000  0.753  0.000  0.001  0.931
 
band     3 # energy    8.68563287 # occ.  1.00000000
 
ion      s     py     pz     px    dxy    dyz    dz2    dxz  x2-y2    tot
    1  0.000  0.000  0.000  0.001  0.237  0.000  0.167  0.000  0.079  0.485
    2  0.000  0.000  0.000  0.001  0.237  0.000  0.167  0.000  0.079  0.485
tot    0.000  0.001  0.000  0.002  0.475  0.000  0.335  0.000  0.158  0.971
 
band     4 # energy    9.09063419 # occ.  1.00000000
 
ion      s     py     pz     px    dxy    dyz    dz2    dxz  x2-y2    tot
    1  0.000  0.001  0.000  0.000  0.121  0.000  0.000  0.000  0.364  0.486
    2  0.000  0.001  0.000  0.000  0.121  0.000  0.000  0.000  0.364  0.486
tot    0.000  0.002  0.000  0.001  0.243  0.000  0.000  0.000  0.728  0.973
 
band     5 # energy    9.17151184 # occ.  1.00000000
 
ion      s     py     pz     px    dxy    dyz    dz2    dxz  x2-y2    tot
    1  0.000  0.000  0.000  0.000  0.150  0.000  0.289  0.000  0.050  0.489
    2  0.000  0.000  0.000  0.000  0.150  0.000  0.289  0.000  0.050  0.489
tot    0.000  0.000  0.000  0.001  0.300  0.000  0.577  0.000  0.100  0.979
 
band     6 # energy    9.27621657 # occ.  1.00000000
 
ion      s     py     pz     px    dxy    dyz    dz2    dxz  x2-y2    tot
    1  0.001  0.000  0.000  0.001  0.339  0.000  0.036  0.000  0.113  0.489
    2  0.001  0.000  0.000  0.001  0.339  0.000  0.036  0.000  0.113  0.489
tot    0.003  0.000  0.000  0.001  0.677  0.000  0.071  0.000  0.226  0.979
 
band     7 # energy    9.44574502 # occ.  1.00000000
 
ion      s     py     pz     px    dxy    dyz    dz2    dxz  x2-y2    tot
    1  0.000  0.001  0.000  0.000  0.122  0.000  0.000  0.000  0.367  0.491
    2  0.000  0.001  0.000  0.000  0.122  0.000  0.000  0.000  0.367  0.491
tot    0.000  0.002  0.000  0.001  0.245  0.000  0.000  0.000  0.734  0.981
 
band     8 # energy    9.54067725 # occ.  1.00000000
 
ion      s     py     pz     px    dxy    dyz    dz2    dxz  x2-y2    tot
    1  0.000  0.000  0.018  0.000  0.000  0.117  0.000  0.350  0.000  0.484
    2  0.000  0.000  0.018  0.000  0.000  0.117  0.000  0.350  0.000  0.484
tot    0.000  0.000  0.036  0.000  0.000  0.233  0.000  0.700  0.000  0.968
 
band     9 # energy    9.63962731 # occ.  1.00000000
 
ion      s     py     pz     px    dxy    dyz    dz2    dxz  x2-y2    tot
    1  0.000  0.000  0.000  0.000  0.000  0.368  0.000  0.123  0.000  0.491
    2  0.000  0.000  0.000  0.000  0.000  0.368  0.000  0.123  0.000  0.491
tot    0.000  0.000  0.000  0.000  0.000  0.737  0.000  0.246  0.000  0.983
 
band    10 # energy   10.07437247 # occ.  1.00000000
 
ion      s     py     pz     px    dxy    dyz    dz2    dxz  x2-y2    tot
    1  0.000  0.000  0.111  0.000  0.000  0.087  0.000  0.261  0.000  0.459
    2  0.000  0.000  0.111  0.000  0.000  0.087  0.000  0.261  0.000  0.459
tot    0.000  0.000  0.222  0.000  0.000  0.174  0.000  0.522  0.000  0.919
 
band    11 # energy   11.04352142 # occ.  1.00000000
 
ion      s     py     pz     px    dxy    dyz    dz2    dxz  x2-y2    tot
    1  0.000  0.000  0.000  0.000  0.000  0.370  0.000  0.123  0.000  0.493
    2  0.000  0.000  0.000  0.000  0.000  0.370  0.000  0.123  0.000  0.493
tot    0.000  0.000  0.000  0.000  0.000  0.740  0.000  0.247  0.000  0.987
 
band    12 # energy   12.86400418 # occ.  0.00000000
 
ion      s     py     pz     px    dxy    dyz    dz2    dxz  x2-y2    tot
    1  0.000  0.000  0.256  0.000  0.000  0.044  0.000  0.131  0.000  0.431
    2  0.000  0.000  0.256  0.000  0.000  0.044  0.000  0.131  0.000  0.431
tot    0.000  0.000  0.511  0.000  0.000  0.087  0.000  0.262  0.000  0.861
 
band    13 # energy   18.99858066 # occ.  0.00000000
 
ion      s     py     pz     px    dxy    dyz    dz2    dxz  x2-y2    tot
    1  0.226  0.002  0.000  0.006  0.000  0.000  0.243  0.000  0.000  0.477
    2  0.226  0.002  0.000  0.006  0.000  0.000  0.243  0.000  0.000  0.477
tot    0.452  0.004  0.000  0.012  0.000  0.000  0.486  0.000  0.000  0.954
 
band    14 # energy   32.86520303 # occ.  0.00000000
 
ion      s     py     pz     px    dxy    dyz    dz2    dxz  x2-y2    tot
    1  0.013  0.018  0.000  0.055  0.118  0.000  0.027  0.000  0.039  0.270
    2  0.013  0.018  0.000  0.055  0.118  0.000  0.027  0.000  0.039  0.270
tot    0.025  0.036  0.000  0.109  0.237  0.000  0.054  0.000  0.079  0.541
 
band    15 # energy   35.34852082 # occ.  0.00000000
 
ion      s     py     pz     px    dxy    dyz    dz2    dxz  x2-y2    tot
    1  0.023  0.024  0.000  0.073  0.076  0.000  0.044  0.000  0.025  0.266
    2  0.023  0.024  0.000  0.073  0.076  0.000  0.044  0.000  0.025  0.266
tot    0.047  0.049  0.000  0.146  0.153  0.000  0.087  0.000  0.051  0.532
 
band    16 # energy   35.64878300 # occ.  0.00000000
 
ion      s     py     pz     px    dxy    dyz    dz2    dxz  x2-y2    tot
    1  0.000  0.174  0.000  0.058  0.050  0.000  0.000  0.000  0.150  0.432
    2  0.000  0.174  0.000  0.058  0.050  0.000  0.000  0.000  0.150  0.432
tot    0.000  0.347  0.000  0.116  0.100  0.000  0.000  0.000  0.301  0.865
 
band    17 # energy   38.23426455 # occ.  0.00000000
 
ion      s     py     pz     px    dxy    dyz    dz2    dxz  x2-y2    tot
    1  0.000  0.000  0.009  0.000  0.000  0.013  0.000  0.038  0.000  0.059
    2  0.000  0.000  0.009  0.000  0.000  0.013  0.000  0.038  0.000  0.059
tot    0.000  0.000  0.018  0.000  0.000  0.025  0.000  0.076  0.000  0.119
 
band    18 # energy   38.89186564 # occ.  0.00000000
 
ion      s     py     pz     px    dxy    dyz    dz2    dxz  x2-y2    tot
    1  0.002  0.018  0.000  0.054  0.044  0.000  0.033  0.000  0.015  0.167
    2  0.002  0.018  0.000  0.054  0.044  0.000  0.033  0.000  0.015  0.167
tot    0.005  0.036  0.000  0.108  0.089  0.000  0.066  0.000  0.030  0.334
 
band    19 # energy   40.28970725 # occ.  0.00000000
 
ion      s     py     pz     px    dxy    dyz    dz2    dxz  x2-y2    tot
    1  0.000  0.000  0.028  0.000  0.000  0.031  0.000  0.092  0.000  0.151
    2  0.000  0.000  0.028  0.000  0.000  0.031  0.000  0.092  0.000  0.151
tot    0.000  0.000  0.057  0.000  0.000  0.061  0.000  0.183  0.000  0.301
 
band    20 # energy   41.72285089 # occ.  0.00000000
 
ion      s     py     pz     px    dxy    dyz    dz2    dxz  x2-y2    tot
    1  0.000  0.076  0.000  0.025  0.102  0.000  0.000  0.000  0.307  0.511
    2  0.000  0.076  0.000  0.025  0.102  0.000  0.000  0.000  0.307  0.511
tot    0.000  0.151  0.000  0.050  0.205  0.000  0.000  0.000  0.615  1.022
 
band    21 # energy   42.48900416 # occ.  0.00000000
 
ion      s     py     pz     px    dxy    dyz    dz2    dxz  x2-y2    tot
    1  0.008  0.033  0.000  0.100  0.175  0.000  0.005  0.000  0.058  0.380
    2  0.008  0.033  0.000  0.100  0.175  0.000  0.005  0.000  0.058  0.380
tot    0.016  0.067  0.000  0.201  0.351  0.000  0.009  0.000  0.117  0.761
 
band    22 # energy   43.12071543 # occ.  0.00000000
 
ion      s     py     pz     px    dxy    dyz    dz2    dxz  x2-y2    tot
    1  0.000  0.000  0.000  0.000  0.000  0.198  0.000  0.066  0.000  0.264
    2  0.000  0.000  0.000  0.000  0.000  0.198  0.000  0.066  0.000  0.264
tot    0.000  0.000  0.000  0.000  0.000  0.396  0.000  0.132  0.000  0.527
 
band    23 # energy   44.61425581 # occ.  0.00000000
 
ion      s     py     pz     px    dxy    dyz    dz2    dxz  x2-y2    tot
    1  0.003  0.008  0.000  0.023  0.042  0.000  0.578  0.000  0.014  0.668
    2  0.003  0.008  0.000  0.023  0.042  0.000  0.578  0.000  0.014  0.668
tot    0.005  0.015  0.000  0.046  0.084  0.000  1.157  0.000  0.028  1.335
 
band    24 # energy   44.91945542 # occ.  0.00000000
 
ion      s     py     pz     px    dxy    dyz    dz2    dxz  x2-y2    tot
    1  0.000  0.000  0.177  0.000  0.000  0.055  0.000  0.164  0.000  0.396
    2  0.000  0.000  0.177  0.000  0.000  0.055  0.000  0.164  0.000  0.396
tot    0.000  0.000  0.355  0.000  0.000  0.110  0.000  0.329  0.000  0.793
 
band    25 # energy   47.25314946 # occ.  0.00000000
 
ion      s     py     pz     px    dxy    dyz    dz2    dxz  x2-y2    tot
    1  1.220  0.017  0.000  0.052  0.162  0.000  0.079  0.000  0.054  1.584
    2  1.220  0.017  0.000  0.052  0.162  0.000  0.079  0.000  0.054  1.584
tot    2.440  0.035  0.000  0.104  0.324  0.000  0.158  0.000  0.108  3.168
 
band    26 # energy   47.71079066 # occ.  0.00000000
 
ion      s     py     pz     px    dxy    dyz    dz2    dxz  x2-y2    tot
    1  0.000  0.194  0.000  0.065  0.077  0.000  0.000  0.000  0.231  0.568
    2  0.000  0.194  0.000  0.065  0.077  0.000  0.000  0.000  0.231  0.568
tot    0.000  0.389  0.000  0.130  0.154  0.000  0.000  0.000  0.463  1.135
 
band    27 # energy   48.05537400 # occ.  0.00000000
 
ion      s     py     pz     px    dxy    dyz    dz2    dxz  x2-y2    tot
    1  2.916  0.003  0.000  0.008  0.005  0.000  0.006  0.000  0.002  2.940
    2  2.916  0.003  0.000  0.008  0.005  0.000  0.006  0.000  0.002  2.940
tot    5.831  0.006  0.000  0.017  0.010  0.000  0.012  0.000  0.003  5.879
 
band    28 # energy   48.21377503 # occ.  0.00000000
 
ion      s     py     pz     px    dxy    dyz    dz2    dxz  x2-y2    tot
    1  0.000  0.000  0.000  0.000  0.000  0.343  0.000  0.114  0.000  0.457
    2  0.000  0.000  0.000  0.000  0.000  0.343  0.000  0.114  0.000  0.457
tot    0.000  0.000  0.000  0.000  0.000  0.685  0.000  0.228  0.000  0.914
 

 k-point     3 :    0.16666667 0.00000000 0.00000000     weight = 0.00520833

band     1 # energy    3.20890415 # occ.  1.00000000
 
ion      s     py     pz     px    dxy    dyz    dz2    dxz  x2-y2    tot
    1  0.365  0.009  0.000  0.027  0.002  0.000  0.001  0.000  0.001  0.406
    2  0.365  0.009  0.000  0.027  0.002  0.000  0.001  0.000  0.001  0.406
tot    0.731  0.018  0.000  0.055  0.005  0.000  0.002  0.000  0.002  0.812
 
band     2 # energy    6.63322331 # occ.  1.00000000
 
ion      s     py     pz     px    dxy    dyz    dz2    dxz  x2-y2    tot
    1  0.057  0.005  0.000  0.014  0.020  0.000  0.365  0.000  0.007  0.468
    2  0.057  0.005  0.000  0.014  0.020  0.000  0.365  0.000  0.007  0.468
tot    0.115  0.009  0.000  0.028  0.040  0.000  0.730  0.000  0.013  0.935
 
band     3 # energy    8.36480690 # occ.  1.00000000
 
ion      s     py     pz     px    dxy    dyz    dz2    dxz  x2-y2    tot
    1  0.000  0.002  0.000  0.005  0.266  0.000  0.117  0.000  0.089  0.480
    2  0.000  0.002  0.000  0.005  0.266  0.000  0.117  0.000  0.089  0.480
tot    0.001  0.004  0.000  0.011  0.533  0.000  0.234  0.000  0.178  0.960
 
band     4 # energy    8.71039301 # occ.  1.00000000
 
ion      s     py     pz     px    dxy    dyz    dz2    dxz  x2-y2    tot
    1  0.000  0.000  0.076  0.000  0.000  0.096  0.000  0.288  0.000  0.460
    2  0.000  0.000  0.076  0.000  0.000  0.096  0.000  0.288  0.000  0.460
tot    0.000  0.000  0.152  0.000  0.000  0.192  0.000  0.576  0.000  0.919
 
band     5 # energy    9.07693605 # occ.  1.00000000
 
ion      s     py     pz     px    dxy    dyz    dz2    dxz  x2-y2    tot
    1  0.005  0.001  0.000  0.002  0.315  0.000  0.059  0.000  0.105  0.487
    2  0.005  0.001  0.000  0.002  0.315  0.000  0.059  0.000  0.105  0.487
tot    0.010  0.001  0.000  0.004  0.631  0.000  0.117  0.000  0.210  0.973
 
band     6 # energy    9.43506707 # occ.  1.00000000
 
ion      s     py     pz     px    dxy    dyz    dz2    dxz  x2-y2    tot
    1  0.000  0.000  0.000  0.000  0.000  0.367  0.000  0.122  0.000  0.490
    2  0.000  0.000  0.000  0.000  0.000  0.367  0.000  0.122  0.000  0.490
tot    0.000  0.000  0.000  0.000  0.000  0.735  0.000  0.245  0.000  0.979
 
band     7 # energy    9.45912675 # occ.  1.00000000
 
ion      s     py     pz     px    dxy    dyz    dz2    dxz  x2-y2    tot
    1  0.000  0.002  0.000  0.001  0.121  0.000  0.000  0.000  0.363  0.486
    2  0.000  0.002  0.000  0.001  0.121  0.000  0.000  0.000  0.363  0.486
tot    0.000  0.004  0.000  0.001  0.242  0.000  0.000  0.000  0.726  0.973
 
band     8 # energy    9.52229528 # occ.  1.00000000
 
ion      s     py     pz     px    dxy    dyz    dz2    dxz  x2-y2    tot
    1  0.002  0.000  0.000  0.001  0.115  0.000  0.332  0.000  0.038  0.489
    2  0.002  0.000  0.000  0.001  0.115  0.000  0.332  0.000  0.038  0.489
tot    0.004  0.001  0.000  0.003  0.230  0.000  0.665  0.000  0.077  0.978
 
band     9 # energy    9.67134923 # occ.  1.00000000
 
ion      s     py     pz     px    dxy    dyz    dz2    dxz  x2-y2    tot
    1  0.000  0.000  0.042  0.000  0.000  0.109  0.000  0.328  0.000  0.480
    2  0.000  0.000  0.042  0.000  0.000  0.109  0.000  0.328  0.000  0.480
tot    0.000  0.000  0.085  0.000  0.000  0.219  0.000  0.656  0.000  0.959
 
band    10 # energy    9.76894975 # occ.  1.00000000
 
ion      s     py     pz     px    dxy    dyz    dz2    dxz  x2-y2    tot
    1  0.000  0.002  0.000  0.001  0.122  0.000  0.000  0.000  0.366  0.491
    2  0.000  0.002  0.000  0.001  0.122  0.000  0.000  0.000  0.366  0.491
tot    0.000  0.004  0.000  0.001  0.244  0.000  0.000  0.000  0.732  0.981
 
band    11 # energy   11.12057591 # occ.  1.00000000
 
ion      s     py     pz     px    dxy    dyz    dz2    dxz  x2-y2    tot
    1  0.000  0.000  0.000  0.000  0.000  0.371  0.000  0.124  0.000  0.495
    2  0.000  0.000  0.000  0.000  0.000  0.371  0.000  0.124  0.000  0.495
tot    0.000  0.000  0.000  0.000  0.000  0.742  0.000  0.247  0.000  0.989
 
band    12 # energy   14.60849092 # occ.  0.00000000
 
ion      s     py     pz     px    dxy    dyz    dz2    dxz  x2-y2    tot
    1  0.000  0.000  0.255  0.000  0.000  0.046  0.000  0.137  0.000  0.437
    2  0.000  0.000  0.255  0.000  0.000  0.046  0.000  0.137  0.000  0.437
tot    0.000  0.000  0.510  0.000  0.000  0.091  0.000  0.273  0.000  0.874
 
band    13 # energy   19.12504700 # occ.  0.00000000
 
ion      s     py     pz     px    dxy    dyz    dz2    dxz  x2-y2    tot
    1  0.210  0.009  0.000  0.026  0.001  0.000  0.224  0.000  0.000  0.470
    2  0.210  0.009  0.000  0.026  0.001  0.000  0.224  0.000  0.000  0.470
tot    0.420  0.018  0.000  0.053  0.001  0.000  0.449  0.000  0.000  0.941
 
band    14 # energy   29.09300436 # occ.  0.00000000
 
ion      s     py     pz     px    dxy    dyz    dz2    dxz  x2-y2    tot
    1  0.042  0.036  0.000  0.108  0.140  0.000  0.025  0.000  0.047  0.397
    2  0.042  0.036  0.000  0.108  0.140  0.000  0.025  0.000  0.047  0.397
tot    0.084  0.072  0.000  0.217  0.279  0.000  0.050  0.000  0.093  0.795
 
band    15 # energy   33.08933870 # occ.  0.00000000
 
ion      s     py     pz     px    dxy    dyz    dz2    dxz  x2-y2    tot
    1  0.000  0.193  0.000  0.064  0.038  0.000  0.000  0.000  0.115  0.411
    2  0.000  0.193  0.000  0.064  0.038  0.000  0.000  0.000  0.115  0.411
tot    0.000  0.386  0.000  0.129  0.077  0.000  0.000  0.000  0.230  0.823
 
band    16 # energy   34.32460653 # occ.  0.00000000
 
ion      s     py     pz     px    dxy    dyz    dz2    dxz  x2-y2    tot
    1  0.023  0.006  0.000  0.019  0.157  0.000  0.052  0.000  0.052  0.310
    2  0.023  0.006  0.000  0.019  0.157  0.000  0.052  0.000  0.052  0.310
tot    0.046  0.013  0.000  0.038  0.315  0.000  0.104  0.000  0.105  0.621
 
band    17 # energy   36.26569655 # occ.  0.00000000
 
ion      s     py     pz     px    dxy    dyz    dz2    dxz  x2-y2    tot
    1  0.000  0.000  0.038  0.000  0.000  0.059  0.000  0.177  0.000  0.273
    2  0.000  0.000  0.038  0.000  0.000  0.059  0.000  0.177  0.000  0.273
tot    0.000  0.000  0.075  0.000  0.000  0.118  0.000  0.353  0.000  0.546
 
band    18 # energy   38.35301431 # occ.  0.00000000
 
ion      s     py     pz     px    dxy    dyz    dz2    dxz  x2-y2    tot
    1  0.000  0.000  0.009  0.000  0.000  0.015  0.000  0.044  0.000  0.067
    2  0.000  0.000  0.009  0.000  0.000  0.015  0.000  0.044  0.000  0.067
tot    0.000  0.000  0.017  0.000  0.000  0.029  0.000  0.088  0.000  0.134
 
band    19 # energy   39.68669400 # occ.  0.00000000
 
ion      s     py     pz     px    dxy    dyz    dz2    dxz  x2-y2    tot
    1  0.023  0.031  0.000  0.093  0.051  0.000  0.024  0.000  0.017  0.239
    2  0.023  0.031  0.000  0.093  0.051  0.000  0.024  0.000  0.017  0.239
tot    0.046  0.062  0.000  0.186  0.102  0.000  0.049  0.000  0.034  0.478
 
band    20 # energy   42.22480402 # occ.  0.00000000
 
ion      s     py     pz     px    dxy    dyz    dz2    dxz  x2-y2    tot
    1  0.068  0.045  0.000  0.135  0.001  0.000  0.171  0.000  0.000  0.420
    2  0.068  0.045  0.000  0.135  0.001  0.000  0.171  0.000  0.000  0.420
tot    0.135  0.090  0.000  0.269  0.003  0.000  0.342  0.000  0.001  0.839
 
band    21 # energy   42.38753199 # occ.  0.00000000
 
ion      s     py     pz     px    dxy    dyz    dz2    dxz  x2-y2    tot
    1  0.000  0.000  0.000  0.000  0.000  0.307  0.000  0.102  0.000  0.409
    2  0.000  0.000  0.000  0.000  0.000  0.307  0.000  0.102  0.000  0.409
tot    0.000  0.000  0.000  0.000  0.000  0.614  0.000  0.205  0.000  0.818
 
band    22 # energy   43.47172894 # occ.  0.00000000
 
ion      s     py     pz     px    dxy    dyz    dz2    dxz  x2-y2    tot
    1  0.000  0.000  0.227  0.000  0.000  0.013  0.000  0.039  0.000  0.279
    2  0.000  0.000  0.227  0.000  0.000  0.013  0.000  0.039  0.000  0.279
tot    0.000  0.000  0.455  0.000  0.000  0.026  0.000  0.077  0.000  0.558
 
band    23 # energy   43.92121529 # occ.  0.00000000
 
ion      s     py     pz     px    dxy    dyz    dz2    dxz  x2-y2    tot
    1  0.000  0.031  0.000  0.010  0.131  0.000  0.000  0.000  0.393  0.565
    2  0.000  0.031  0.000  0.010  0.131  0.000  0.000  0.000  0.393  0.565
tot    0.000  0.061  0.000  0.020  0.262  0.000  0.000  0.000  0.787  1.131
 
band    24 # energy   45.91729907 # occ.  0.00000000
 
ion      s     py     pz     px    dxy    dyz    dz2    dxz  x2-y2    tot
    1  0.267  0.007  0.000  0.022  0.065  0.000  0.354  0.000  0.022  0.738
    2  0.267  0.007  0.000  0.022  0.065  0.000  0.354  0.000  0.022  0.738
tot    0.535  0.015  0.000  0.044  0.131  0.000  0.708  0.000  0.044  1.476
 
band    25 # energy   46.01532665 # occ.  0.00000000
 
ion      s     py     pz     px    dxy    dyz    dz2    dxz  x2-y2    tot
    1  0.000  0.253  0.000  0.084  0.021  0.000  0.000  0.000  0.062  0.419
    2  0.000  0.253  0.000  0.084  0.021  0.000  0.000  0.000  0.062  0.419
tot    0.000  0.505  0.000  0.168  0.041  0.000  0.000  0.000  0.123  0.838
 
band    26 # energy   47.76574974 # occ.  0.00000000
 
ion      s     py     pz     px    dxy    dyz    dz2    dxz  x2-y2    tot
    1  1.277  0.001  0.000  0.004  0.139  0.000  0.038  0.000  0.046  1.505
    2  1.277  0.001  0.000  0.004  0.139  0.000  0.038  0.000  0.046  1.505
tot    2.553  0.002  0.000  0.007  0.277  0.000  0.077  0.000  0.092  3.009
 
band    27 # energy   48.11044017 # occ.  0.00000000
 
ion      s     py     pz     px    dxy    dyz    dz2    dxz  x2-y2    tot
    1  2.311  0.001  0.000  0.004  0.064  0.000  0.007  0.000  0.021  2.408