<?xml version="1.0" encoding="ISO-8859-1"?>
<modeling>
 <generator>
  <i name="program" type="string">vasp </i>
  <i name="version" type="string">6.3.2  </i>
  <i name="subversion" type="string">27Jun22 (build Aug 12 2022 00:53:59) complex                          parallel </i>
  <i name="platform" type="string">tv2STD </i>
  <i name="date" type="string">2024 12 03 </i>
  <i name="time" type="string">02:36:29 </i>
 </generator>
 <incar>
  <i type="string" name="SYSTEM">Co-hcc</i>
  <i type="int" name="ISTART">     0</i>
  <i type="string" name="PREC">Accurate      normal | accurate</i>
  <i type="string" name="ALGO">Normal     Normal, Fast, Very_Fast</i>
  <i type="logical" name="ADDGRID"> F  </i>
  <i type="int" name="ISPIN">     2</i>
  <i type="int" name="ICHARG">     2</i>
  <i type="int" name="INIWAV">     1</i>
  <i type="int" name="NELM">   100</i>
  <i type="int" name="IBRION">     2</i>
  <i name="EDIFF">      0.00000100</i>
  <i name="EDIFFG">     -0.02000000</i>
  <i type="int" name="NSW">   100</i>
  <i type="int" name="ISIF">     2</i>
  <i type="int" name="ISYM">     1</i>
  <i name="ENCUT">    425.00000000</i>
  <v name="MAGMOM">      3.00000000      3.00000000</v>
  <i type="logical" name="LREAL"> F  </i>
  <i type="int" name="ISMEAR">     0</i>
  <i name="SIGMA">      0.05000000</i>
  <i type="int" name="NWRITE">     2</i>
  <i type="logical" name="LWAVE"> F  </i>
  <i type="logical" name="LCHARG"> F  </i>
  <i type="int" name="LORBIT">    11</i>
 </incar>
 <primitive_cell>
  <structure name="primitive_cell" >
   <crystal>
    <varray name="basis" >
     <v>       1.20875367      -2.09362277       0.00000000 </v>
     <v>       1.20875367       2.09362277       0.00000000 </v>
     <v>       0.00000000       0.00000000       3.89955367 </v>
    </varray>
    <i name="volume">     19.73699984 </i>
    <varray name="rec_basis" >
     <v>       0.41364921      -0.23882048       0.00000000 </v>
     <v>       0.41364921       0.23882048       0.00000000 </v>
     <v>       0.00000000       0.00000000       0.25643960 </v>
    </varray>
   </crystal>
   <varray name="positions" >
    <v>       0.33333333       0.66666667       0.25000000 </v>
    <v>       0.66666667       0.33333333       0.75000000 </v>
   </varray>
  </structure>
  <varray name="primitive_index" >
   <v type="int" >        1 </v>
   <v type="int" >        2 </v>
  </varray>
 </primitive_cell>
 <kpoints>
  <generation param="Gamma">
   <v type="int" name="divisions">      12       12        8 </v>
   <v name="usershift">      0.00000000       0.00000000       0.00000000 </v>
   <v name="genvec1">      0.08333333       0.00000000       0.00000000 </v>
   <v name="genvec2">      0.00000000       0.08333333       0.00000000 </v>
   <v name="genvec3">      0.00000000       0.00000000       0.12500000 </v>
   <v name="shift">      0.00000000       0.00000000       0.00000000 </v>
  </generation>
  <varray name="kpointlist" >
   <v>       0.00000000       0.00000000       0.00000000 </v>
   <v>       0.08333333       0.00000000       0.00000000 </v>
   <v>       0.16666667       0.00000000       0.00000000 </v>
   <v>       0.25000000       0.00000000       0.00000000 </v>
   <v>       0.33333333       0.00000000       0.00000000 </v>
   <v>       0.41666667       0.00000000       0.00000000 </v>
   <v>       0.50000000       0.00000000       0.00000000 </v>
   <v>       0.08333333       0.08333333       0.00000000 </v>
   <v>       0.16666667       0.08333333       0.00000000 </v>
   <v>       0.25000000       0.08333333       0.00000000 </v>
   <v>       0.33333333       0.08333333       0.00000000 </v>
   <v>       0.41666667       0.08333333       0.00000000 </v>
   <v>       0.16666667       0.16666667       0.00000000 </v>
   <v>       0.25000000       0.16666667       0.00000000 </v>
   <v>       0.33333333       0.16666667       0.00000000 </v>
   <v>       0.41666667       0.16666667       0.00000000 </v>
   <v>       0.25000000       0.25000000       0.00000000 </v>
   <v>       0.33333333       0.25000000       0.00000000 </v>
   <v>       0.33333333       0.33333333       0.00000000 </v>
   <v>       0.00000000       0.00000000       0.12500000 </v>
   <v>       0.08333333       0.00000000       0.12500000 </v>
   <v>       0.16666667       0.00000000       0.12500000 </v>
   <v>       0.25000000       0.00000000       0.12500000 </v>
   <v>       0.33333333       0.00000000       0.12500000 </v>
   <v>       0.41666667       0.00000000       0.12500000 </v>
   <v>       0.50000000       0.00000000       0.12500000 </v>
   <v>       0.08333333       0.08333333       0.12500000 </v>
   <v>       0.16666667       0.08333333       0.12500000 </v>
   <v>       0.25000000       0.08333333       0.12500000 </v>
   <v>       0.33333333       0.08333333       0.12500000 </v>
   <v>       0.41666667       0.08333333       0.12500000 </v>
   <v>       0.16666667       0.16666667       0.12500000 </v>
   <v>       0.25000000       0.16666667       0.12500000 </v>
   <v>       0.33333333       0.16666667       0.12500000 </v>
   <v>       0.41666667       0.16666667       0.12500000 </v>
   <v>       0.25000000       0.25000000       0.12500000 </v>
   <v>       0.33333333       0.25000000       0.12500000 </v>
   <v>       0.33333333       0.33333333       0.12500000 </v>
   <v>       0.00000000       0.00000000       0.25000000 </v>
   <v>       0.08333333       0.00000000       0.25000000 </v>
   <v>       0.16666667       0.00000000       0.25000000 </v>
   <v>       0.25000000       0.00000000       0.25000000 </v>
   <v>       0.33333333       0.00000000       0.25000000 </v>
   <v>       0.41666667       0.00000000       0.25000000 </v>
   <v>       0.50000000       0.00000000       0.25000000 </v>
   <v>       0.08333333       0.08333333       0.25000000 </v>
   <v>       0.16666667       0.08333333       0.25000000 </v>
   <v>       0.25000000       0.08333333       0.25000000 </v>
   <v>       0.33333333       0.08333333       0.25000000 </v>
   <v>       0.41666667       0.08333333       0.25000000 </v>
   <v>       0.16666667       0.16666667       0.25000000 </v>
   <v>       0.25000000       0.16666667       0.25000000 </v>
   <v>       0.33333333       0.16666667       0.25000000 </v>
   <v>       0.41666667       0.16666667       0.25000000 </v>
   <v>       0.25000000       0.25000000       0.25000000 </v>
   <v>       0.33333333       0.25000000       0.25000000 </v>
   <v>       0.33333333       0.33333333       0.25000000 </v>
   <v>       0.00000000       0.00000000       0.37500000 </v>
   <v>       0.08333333       0.00000000       0.37500000 </v>
   <v>       0.16666667       0.00000000       0.37500000 </v>
   <v>       0.25000000       0.00000000       0.37500000 </v>
   <v>       0.33333333       0.00000000       0.37500000 </v>
   <v>       0.41666667       0.00000000       0.37500000 </v>
   <v>       0.50000000       0.00000000       0.37500000 </v>
   <v>       0.08333333       0.08333333       0.37500000 </v>
   <v>       0.16666667       0.08333333       0.37500000 </v>
   <v>       0.25000000       0.08333333       0.37500000 </v>
   <v>       0.33333333       0.08333333       0.37500000 </v>
   <v>       0.41666667       0.08333333       0.37500000 </v>
   <v>       0.16666667       0.16666667       0.37500000 </v>
   <v>       0.25000000       0.16666667       0.37500000 </v>
   <v>       0.33333333       0.16666667       0.37500000 </v>
   <v>       0.41666667       0.16666667       0.37500000 </v>
   <v>       0.25000000       0.25000000       0.37500000 </v>
   <v>       0.33333333       0.25000000       0.37500000 </v>
   <v>       0.33333333       0.33333333       0.37500000 </v>
   <v>       0.00000000       0.00000000       0.50000000 </v>
   <v>       0.08333333       0.00000000       0.50000000 </v>
   <v>       0.16666667       0.00000000       0.50000000 </v>
   <v>       0.25000000       0.00000000       0.50000000 </v>
   <v>       0.33333333       0.00000000       0.50000000 </v>
   <v>       0.41666667       0.00000000       0.50000000 </v>
   <v>       0.50000000       0.00000000       0.50000000 </v>
   <v>       0.08333333       0.08333333       0.50000000 </v>
   <v>       0.16666667       0.08333333       0.50000000 </v>
   <v>       0.25000000       0.08333333       0.50000000 </v>
   <v>       0.33333333       0.08333333       0.50000000 </v>
   <v>       0.41666667       0.08333333       0.50000000 </v>
   <v>       0.16666667       0.16666667       0.50000000 </v>
   <v>       0.25000000       0.16666667       0.50000000 </v>
   <v>       0.33333333       0.16666667       0.50000000 </v>
   <v>       0.41666667       0.16666667       0.50000000 </v>
   <v>       0.25000000       0.25000000       0.50000000 </v>
   <v>       0.33333333       0.25000000       0.50000000 </v>
   <v>       0.33333333       0.33333333       0.50000000 </v>
  </varray>
  <varray name="weights" >
   <v>       0.00086806 </v>
   <v>       0.00520833 </v>
   <v>       0.00520833 </v>
   <v>       0.00520833 </v>
   <v>       0.00520833 </v>
   <v>       0.00520833 </v>
   <v>       0.00260417 </v>
   <v>       0.00520833 </v>
   <v>       0.01041667 </v>
   <v>       0.01041667 </v>
   <v>       0.01041667 </v>
   <v>       0.01041667 </v>
   <v>       0.00520833 </v>
   <v>       0.01041667 </v>
   <v>       0.01041667 </v>
   <v>       0.00520833 </v>
   <v>       0.00520833 </v>
   <v>       0.01041667 </v>
   <v>       0.00173611 </v>
   <v>       0.00173611 </v>
   <v>       0.01041667 </v>
   <v>       0.01041667 </v>
   <v>       0.01041667 </v>
   <v>       0.01041667 </v>
   <v>       0.01041667 </v>
   <v>       0.00520833 </v>
   <v>       0.01041667 </v>
   <v>       0.02083333 </v>
   <v>       0.02083333 </v>
   <v>       0.02083333 </v>
   <v>       0.02083333 </v>
   <v>       0.01041667 </v>
   <v>       0.02083333 </v>
   <v>       0.02083333 </v>
   <v>       0.01041667 </v>
   <v>       0.01041667 </v>
   <v>       0.02083333 </v>
   <v>       0.00347222 </v>
   <v>       0.00173611 </v>
   <v>       0.01041667 </v>
   <v>       0.01041667 </v>
   <v>       0.01041667 </v>
   <v>       0.01041667 </v>
   <v>       0.01041667 </v>
   <v>       0.00520833 </v>
   <v>       0.01041667 </v>
   <v>       0.02083333 </v>
   <v>       0.02083333 </v>
   <v>       0.02083333 </v>
   <v>       0.02083333 </v>
   <v>       0.01041667 </v>
   <v>       0.02083333 </v>
   <v>       0.02083333 </v>
   <v>       0.01041667 </v>
   <v>       0.01041667 </v>
   <v>       0.02083333 </v>
   <v>       0.00347222 </v>
   <v>       0.00173611 </v>
   <v>       0.01041667 </v>
   <v>       0.01041667 </v>
   <v>       0.01041667 </v>
   <v>       0.01041667 </v>
   <v>       0.01041667 </v>
   <v>       0.00520833 </v>
   <v>       0.01041667 </v>
   <v>       0.02083333 </v>
   <v>       0.02083333 </v>
   <v>       0.02083333 </v>
   <v>       0.02083333 </v>
   <v>       0.01041667 </v>
   <v>       0.02083333 </v>
   <v>       0.02083333 </v>
   <v>       0.01041667 </v>
   <v>       0.01041667 </v>
   <v>       0.02083333 </v>
   <v>       0.00347222 </v>
   <v>       0.00086806 </v>
   <v>       0.00520833 </v>
   <v>       0.00520833 </v>
   <v>       0.00520833 </v>
   <v>       0.00520833 </v>
   <v>       0.00520833 </v>
   <v>       0.00260417 </v>
   <v>       0.00520833 </v>
   <v>       0.01041667 </v>
   <v>       0.01041667 </v>
   <v>       0.01041667 </v>
   <v>       0.01041667 </v>
   <v>       0.00520833 </v>
   <v>       0.01041667 </v>
   <v>       0.01041667 </v>
   <v>       0.00520833 </v>
   <v>       0.00520833 </v>
   <v>       0.01041667 </v>
   <v>       0.00173611 </v>
  </varray>
 </kpoints>
 <parameters>
  <separator name="general" >
   <i type="string" name="SYSTEM">Co-hcc</i>
   <i type="logical" name="LCOMPAT"> F  </i>
  </separator>
  <separator name="electronic" >
   <i type="string" name="PREC">accura</i>
   <i name="ENMAX">    425.00000000</i>
   <i name="ENAUG">    477.81800000</i>
   <i name="EDIFF">      0.00000100</i>
   <i type="int" name="IALGO">    38</i>
   <i type="int" name="IWAVPR">    11</i>
   <i type="int" name="NBANDS">    28</i>
   <i type="int" name="NBANDSLOW">    -1</i>
   <i type="int" name="NBANDSHIGH">    -1</i>
   <i name="NELECT">     18.00000000</i>
   <i type="int" name="TURBO">     0</i>
   <i type="int" name="IRESTART">     0</i>
   <i type="int" name="NREBOOT">     0</i>
   <i type="int" name="NMIN">     0</i>
   <i name="EREF">      0.00000000</i>
   <separator name="electronic smearing" >
    <i type="int" name="ISMEAR">     0</i>
    <i name="SIGMA">      0.05000000</i>
    <i name="KSPACING">      0.50000000</i>
    <i type="logical" name="KGAMMA"> T  </i>
    <i type="logical" name="KBLOWUP"> T  </i>
   </separator>
   <separator name="electronic projectors" >
    <i type="logical" name="LREAL"> F  </i>
    <v name="ROPT">      0.00000000</v>
    <i type="int" name="LMAXPAW">  -100</i>
    <i type="int" name="LMAXMIX">     2</i>
    <i type="logical" name="NLSPLINE"> F  </i>
   </separator>
   <separator name="electronic startup" >
    <i type="int" name="ISTART">     0</i>
    <i type="int" name="ICHARG">     2</i>
    <i type="int" name="INIWAV">     1</i>
   </separator>
   <separator name="electronic spin" >
    <i type="int" name="ISPIN">     2</i>
    <i type="logical" name="LNONCOLLINEAR"> F  </i>
    <v name="MAGMOM">      3.00000000      3.00000000</v>
    <i name="NUPDOWN">     -1.00000000</i>
    <i type="logical" name="LSORBIT"> F  </i>
    <v name="SAXIS">      0.00000000      0.00000000      1.00000000</v>
    <i type="logical" name="LSPIRAL"> F  </i>
    <v name="QSPIRAL">      0.00000000      0.00000000      0.00000000</v>
    <i type="logical" name="LZEROZ"> F  </i>
   </separator>
   <separator name="electronic exchange-correlation" >
    <i type="logical" name="LASPH"> F  </i>
    <i type="logical" name="LMETAGGA"> F  </i>
   </separator>
   <separator name="electronic convergence" >
    <i type="int" name="NELM">   100</i>
    <i type="int" name="NELMDL">    -5</i>
    <i type="int" name="NELMIN">     2</i>
    <i name="ENINI">    425.00000000</i>
    <separator name="electronic convergence detail" >
     <i type="logical" name="LDIAG"> T  </i>
     <i type="logical" name="LSUBROT"> F  </i>
     <i name="WEIMIN">      0.00100000</i>
     <i name="EBREAK">      0.00000001</i>
     <i name="DEPER">      0.30000000</i>
     <i type="int" name="NRMM">     4</i>
     <i name="TIME">      0.40000000</i>
    </separator>
   </separator>
   <separator name="electronic mixer" >
    <i name="AMIX">      0.40000000</i>
    <i name="BMIX">      1.00000000</i>
    <i name="AMIN">      0.10000000</i>
    <i name="AMIX_MAG">      1.60000000</i>
    <i name="BMIX_MAG">      1.00000000</i>
    <separator name="electronic mixer details" >
     <i type="int" name="IMIX">     4</i>
     <i type="logical" name="MIXFIRST"> F  </i>
     <i type="int" name="MAXMIX">   -45</i>
     <i name="WC">    100.00000000</i>
     <i type="int" name="INIMIX">     1</i>
     <i type="int" name="MIXPRE">     1</i>
     <i type="int" name="MREMOVE">     5</i>
    </separator>
   </separator>
   <separator name="electronic dipolcorrection" >
    <i type="logical" name="LDIPOL"> F  </i>
    <i type="logical" name="LMONO"> F  </i>
    <i type="int" name="IDIPOL">     0</i>
    <i name="EPSILON">      1.00000000</i>
    <v name="DIPOL">   -100.00000000   -100.00000000   -100.00000000</v>
    <i name="EFIELD">      0.00000000</i>
   </separator>
  </separator>
  <separator name="grids" >
   <i type="int" name="NGX">    16</i>
   <i type="int" name="NGY">    16</i>
   <i type="int" name="NGZ">    28</i>
   <i type="int" name="NGXF">    32</i>
   <i type="int" name="NGYF">    32</i>
   <i type="int" name="NGZF">    56</i>
   <i type="logical" name="ADDGRID"> F  </i>
  </separator>
  <separator name="ionic" >
   <i type="int" name="NSW">   100</i>
   <i type="int" name="IBRION">     2</i>
   <i type="int" name="MDALGO">     0</i>
   <i type="int" name="ISIF">     2</i>
   <i name="PSTRESS">      0.00000000</i>
   <i name="EDIFFG">     -0.02000000</i>
   <i type="int" name="NFREE">     1</i>
   <i name="POTIM">      0.50000000</i>
   <i name="SMASS">     -3.00000000</i>
   <i name="SCALEE">      1.00000000</i>
  </separator>
  <separator name="ionic md" >
   <i name="TEBEG">      0.00010000</i>
   <i name="TEEND">      0.00010000</i>
   <i type="int" name="NBLOCK">     1</i>
   <i type="int" name="KBLOCK">   100</i>
   <i type="int" name="NPACO">   256</i>
   <i name="APACO">     10.00000000</i>
  </separator>
  <separator name="symmetry" >
   <i type="int" name="ISYM">     1</i>
   <i name="SYMPREC">      0.00001000</i>
  </separator>
  <separator name="dos" >
   <i type="int" name="LORBIT">    11</i>
   <v name="RWIGS">     -1.00000000</v>
   <i type="int" name="NEDOS">   301</i>
   <i name="EMIN">     10.00000000</i>
   <i name="EMAX">    -10.00000000</i>
   <i name="EFERMI">      0.00000000</i>
  </separator>
  <separator name="writing" >
   <i type="int" name="NWRITE">     2</i>
   <i type="logical" name="LWAVE"> F  </i>
   <i type="logical" name="LDOWNSAMPLE"> F  </i>
   <i type="logical" name="LCHARG"> F  </i>
   <i type="logical" name="LPARD"> F  </i>
   <i type="logical" name="LVTOT"> F  </i>
   <i type="logical" name="LVHAR"> F  </i>
   <i type="logical" name="LELF"> F  </i>
   <i type="logical" name="LOPTICS"> F  </i>
   <v name="STM">      0.00000000      0.00000000      0.00000000      0.00000000      0.00000000      0.00000000      0.00000000</v>
  </separator>
  <separator name="performance" >
   <i type="int" name="NPAR">    28</i>
   <i type="int" name="NSIM">     4</i>
   <i type="int" name="NBLK">    -1</i>
   <i type="logical" name="LPLANE"> T  </i>
   <i type="logical" name="LSCALAPACK"> T  </i>
   <i type="logical" name="LSCAAWARE"> T  </i>
   <i type="logical" name="LSCALU"> F  </i>
   <i type="logical" name="LASYNC"> F  </i>
   <i type="logical" name="LORBITALREAL"> F  </i>
  </separator>
  <separator name="miscellaneous" >
   <i type="int" name="IDIOT">     3</i>
   <i type="int" name="PHON_NSTRUCT">    -1</i>
   <i type="logical" name="LMUSIC"> F  </i>
   <v name="POMASS">     58.93300000</v>
   <v name="DARWINR">      0.00000000</v>
   <v name="DARWINV">      1.00000000</v>
   <i type="logical" name="LCORR"> T  </i>
  </separator>
  <i type="logical" name="GGA_COMPAT"> T  </i>
  <i type="logical" name="LBERRY"> F  </i>
  <i type="int" name="ICORELEVEL">     0</i>
  <i type="logical" name="LDAU"> F  </i>
  <i type="int" name="I_CONSTRAINED_M">     0</i>
  <separator name="electronic exchange-correlation" >
   <i type="string" name="GGA">--</i>
   <i type="int" name="VOSKOWN">     0</i>
   <i type="logical" name="LHFCALC"> F  </i>
   <i type="string" name="PRECFOCK"></i>
   <i type="logical" name="LSYMGRAD"> F  </i>
   <i type="logical" name="LHFONE"> F  </i>
   <i type="logical" name="LRHFCALC"> F  </i>
   <i type="logical" name="LTHOMAS"> F  </i>
   <i type="logical" name="LMODELHF"> F  </i>
   <i type="logical" name="LFOCKACE"> F  </i>
   <i name="ENCUT4O">     -1.00000000</i>
   <i type="int" name="EXXOEP">     0</i>
   <i type="int" name="FOURORBIT">     0</i>
   <i name="AEXX">      0.00000000</i>
   <i name="HFALPHA">      0.00000000</i>
   <i name="MCALPHA">      0.00000000</i>
   <i name="ALDAX">      1.00000000</i>
   <i name="AGGAX">      1.00000000</i>
   <i name="ALDAC">      1.00000000</i>
   <i name="AGGAC">      1.00000000</i>
   <i type="int" name="NKREDX">     1</i>
   <i type="int" name="NKREDY">     1</i>
   <i type="int" name="NKREDZ">     1</i>
   <i type="logical" name="SHIFTRED"> F  </i>
   <i type="logical" name="ODDONLY"> F  </i>
   <i type="logical" name="EVENONLY"> F  </i>
   <i type="int" name="LMAXFOCK">     0</i>
   <i type="int" name="NMAXFOCKAE">     0</i>
   <i type="logical" name="LFOCKAEDFT"> F  </i>
   <i name="HFSCREEN">      0.00000000</i>
   <i name="HFSCREENC">      0.00000000</i>
   <i type="int" name="NBANDSGWLOW">     0</i>
  </separator>
  <separator name="vdW DFT" >
   <i type="logical" name="LUSE_VDW"> F  </i>
   <i name="Zab_VDW">     -0.84910000</i>
   <i name="PARAM1">      0.12340000</i>
   <i name="PARAM2">      1.00000000</i>
   <i name="PARAM3">      0.00000000</i>
  </separator>
  <separator name="model GW" >
   <i type="int" name="MODEL_GW">     0</i>
   <i name="MODEL_EPS0">      5.92109995</i>
   <i name="MODEL_ALPHA">      1.00000000</i>
  </separator>
  <separator name="linear response parameters" >
   <i type="logical" name="LEPSILON"> F  </i>
   <i type="logical" name="LRPA"> F  </i>
   <i type="logical" name="LNABLA"> F  </i>
   <i type="logical" name="LVEL"> F  </i>
   <i name="CSHIFT">      0.10000000</i>
   <i name="OMEGAMAX">     -1.00000000</i>
   <i name="DEG_THRESHOLD">      0.00200000</i>
   <i name="RTIME">     -0.10000000</i>
   <i name="WPLASMAI">      0.00000000</i>
   <v name="DFIELD">      0.00000000      0.00000000      0.00000000</v>
   <v name="WPLASMA">      0.00000000      0.00000000      0.00000000      0.00000000      0.00000000      0.00000000      0.00000000      0.00000000      0.00000000</v>
  </separator>
  <separator name="orbital magnetization" >
   <i type="logical" name="NUCIND"> F  </i>
   <v name="MAGPOS">      0.00000000      0.00000000      0.00000000</v>
   <i type="logical" name="LNICSALL"> T  </i>
   <i type="logical" name="ORBITALMAG"> F  </i>
   <i type="logical" name="LMAGBLOCH"> F  </i>
   <i type="logical" name="LCHIMAG"> F  </i>
   <i type="logical" name="LGAUGE"> T  </i>
   <i type="int" name="MAGATOM">     0</i>
   <v name="MAGDIPOL">      0.00000000      0.00000000      0.00000000</v>
   <v name="AVECCONST">      0.00000000      0.00000000      0.00000000</v>
  </separator>
  <separator name="response functions" >
   <i type="logical" name="LFINITE_TEMPERATURE"> F  </i>
   <i type="logical" name="LADDER"> F  </i>
   <i type="logical" name="LRPAFORCE"> F  </i>
   <i type="logical" name="LFXC"> F  </i>
   <i type="logical" name="LHARTREE"> T  </i>
   <i type="int" name="IBSE">     0</i>
   <v type="int" name="KPOINT">    -1     0     0     0</v>
   <i type="logical" name="LTCTC"> F  </i>
   <i type="logical" name="LTCTE"> F  </i>
   <i type="logical" name="LTETE"> F  </i>
   <i type="logical" name="LTRIPLET"> F  </i>
   <i type="logical" name="LFXCEPS"> F  </i>
   <i type="logical" name="LFXHEG"> F  </i>
   <i type="int" name="NATURALO">     2</i>
   <i type="logical" name="LHOLEGF"> F  </i>
   <i type="logical" name="L2ORDER"> F  </i>
   <i type="logical" name="LDMP1"> F  </i>
   <i type="logical" name="LMP2LT"> F  </i>
   <i type="logical" name="LSMP2LT"> F  </i>
   <i type="logical" name="LGWLF"> F  </i>
   <i name="ENCUTGW">     -2.00000000</i>
   <i name="ENCUTGWSOFT">     -2.00000000</i>
   <i name="ENCUTLF">     -1.00000000</i>
   <i type="logical" name="LESF_SPLINES"> F  </i>
   <i type="int" name="LMAXMP2">    -1</i>
   <i name="SCISSOR">      0.00000000</i>
   <i type="int" name="NOMEGA">     0</i>
   <i type="int" name="NOMEGAR">     0</i>
   <i type="int" name="NBANDSGW">    -1</i>
   <i type="int" name="NBANDSO">    -1</i>
   <i type="int" name="NBANDSV">    -1</i>
   <i type="int" name="NELMGW">     1</i>
   <i type="int" name="NELMHF">     1</i>
   <i type="int" name="DIM">     3</i>
   <i type="int" name="IESPILON">     4</i>
   <i type="int" name="ANTIRES">     0</i>
   <i name="OMEGAMAX">    -30.00000000</i>
   <i name="OMEGAMIN">    -30.00000000</i>
   <i name="OMEGATL">   -200.00000000</i>
   <i type="int" name="OMEGAGRID">     0</i>
   <i name="CSHIFT">     -0.10000000</i>
   <i type="logical" name="LSELFENERGY"> F  </i>
   <i type="logical" name="LSPECTRAL"> F  </i>
   <i type="logical" name="LSPECTRALGW"> F  </i>
   <i type="logical" name="LSINGLES"> F  </i>
   <i type="logical" name="LFERMIGW"> F  </i>
   <i type="logical" name="ODDONLYGW"> F  </i>
   <i type="logical" name="EVENONLYGW"> F  </i>
   <i type="int" name="NKREDLFX">     1</i>
   <i type="int" name="NKREDLFY">     1</i>
   <i type="int" name="NKREDLFZ">     1</i>
   <i type="int" name="MAXMEM">  2800</i>
   <i type="int" name="TELESCOPE">     0</i>
   <i type="int" name="NTAUPAR">    -1</i>
   <i type="int" name="NOMEGAPAR">    -1</i>
   <i name="DAMP_NEWTON">      0.80000001</i>
   <i name="LAMBDA">      1.00000000</i>
  </separator>
  <separator name="External order field" >
   <i name="OFIELD_KAPPA">      0.00000000</i>
   <v name="OFIELD_K">      0.00000000      0.00000000      0.00000000</v>
   <i name="OFIELD_Q6_NEAR">      0.00000000</i>
   <i name="OFIELD_Q6_FAR">      0.00000000</i>
   <i name="OFIELD_A">      0.00000000</i>
  </separator>
  <separator name="optional k-points parameters" >
   <i type="int" name="KPOINTS_OPT_MODE">     1</i>
   <i type="logical" name="LKPOINTS_OPT"> F  </i>
  </separator>
 </parameters>
 <atominfo>
  <atoms>       2 </atoms>
  <types>       1 </types>
  <array name="atoms" >
   <dimension dim="1">ion</dimension>
   <field type="string">element</field>
   <field type="int">atomtype</field>
   <set>
    <rc><c>Co</c><c>   1</c></rc>
    <rc><c>Co</c><c>   1</c></rc>
   </set>
  </array>
  <array name="atomtypes" >
   <dimension dim="1">type</dimension>
   <field type="int">atomspertype</field>
   <field type="string">element</field>
   <field>mass</field>
   <field>valence</field>
   <field type="string">pseudopotential</field>
   <set>
    <rc><c>   2</c><c>Co</c><c>     58.93300000</c><c>      9.00000000</c><c>  PAW_PBE Co 02Aug2007                  </c></rc>
   </set>
  </array>
 </atominfo>
 <structure name="initialpos" >
  <crystal>
   <varray name="basis" >
    <v>       1.20875367      -2.09362277       0.00000000 </v>
    <v>       1.20875367       2.09362277       0.00000000 </v>
    <v>       0.00000000       0.00000000       3.89955367 </v>
   </varray>
   <i name="volume">     19.73699984 </i>
   <varray name="rec_basis" >
    <v>       0.41364921      -0.23882048       0.00000000 </v>
    <v>       0.41364921       0.23882048       0.00000000 </v>
    <v>       0.00000000       0.00000000       0.25643960 </v>
   </varray>
  </crystal>
  <varray name="positions" >
   <v>       0.33333333       0.66666667       0.25000000 </v>
   <v>       0.66666667       0.33333333       0.75000000 </v>
  </varray>
 </structure>
 <calculation>
  <scstep>
   <time name="dav">    0.85    0.85</time>
   <time name="total">    0.86    0.87</time>
   <energy>
    <i name="alphaZ">     85.84423419 </i>
    <i name="ewald">  -1570.48922168 </i>
    <i name="hartreedc">   -280.05575714 </i>
    <i name="XCdc">     36.27188214 </i>
    <i name="pawpsdc">   1439.98163886 </i>
    <i name="pawaedc">  -1545.88690193 </i>
    <i name="eentropy">     -0.00265454 </i>
    <i name="bandstr">    206.79344184 </i>
    <i name="atom">   1626.72322989 </i>
    <i name="e_fr_energy">     -0.82010837 </i>
    <i name="e_wo_entrp">     -0.81745383 </i>
    <i name="e_0_energy">     -0.81878110 </i>
   </energy>
  </scstep>
  <scstep>
   <time name="dav">    1.87    1.88</time>
   <time name="total">    1.87    1.88</time>
   <energy>
    <i name="e_fr_energy">    -15.27870293 </i>
    <i name="e_wo_entrp">    -15.27702688 </i>
    <i name="e_0_energy">    -15.27786490 </i>
   </energy>
  </scstep>
  <scstep>
   <time name="dav">    1.36    1.36</time>
   <time name="total">    1.36    1.37</time>
   <energy>
    <i name="e_fr_energy">    -15.31351125 </i>
    <i name="e_wo_entrp">    -15.31187853 </i>
    <i name="e_0_energy">    -15.31269489 </i>
   </energy>
  </scstep>
  <scstep>
   <time name="dav">    2.03    2.04</time>
   <time name="total">    2.03    2.04</time>
   <energy>
    <i name="e_fr_energy">    -15.31354716 </i>
    <i name="e_wo_entrp">    -15.31191441 </i>
    <i name="e_0_energy">    -15.31273078 </i>
   </energy>
  </scstep>
  <scstep>
   <time name="dav">    1.35    1.36</time>
   <time name="total">    1.38    1.39</time>
   <energy>
    <i name="e_fr_energy">    -15.31354716 </i>
    <i name="e_wo_entrp">    -15.31191441 </i>
    <i name="e_0_energy">    -15.31273079 </i>
   </energy>
  </scstep>
  <scstep>
   <time name="dav">    1.86    1.87</time>
   <time name="total">    1.90    1.90</time>
   <energy>
    <i name="e_fr_energy">    -14.21026834 </i>
    <i name="e_wo_entrp">    -14.20691867 </i>
    <i name="e_0_energy">    -14.20859351 </i>
   </energy>
  </scstep>
  <scstep>
   <time name="dav">    1.36    1.37</time>
   <time name="total">    1.40    1.40</time>
   <energy>
    <i name="e_fr_energy">    -13.98155109 </i>
    <i name="e_wo_entrp">    -13.97987706 </i>
    <i name="e_0_energy">    -13.98071408 </i>
   </energy>
  </scstep>
  <scstep>
   <time name="dav">    1.95    1.95</time>
   <time name="total">    1.98    1.99</time>
   <energy>
    <i name="e_fr_energy">    -13.94814961 </i>
    <i name="e_wo_entrp">    -13.94625243 </i>
    <i name="e_0_energy">    -13.94720102 </i>
   </energy>
  </scstep>
  <scstep>
   <time name="dav">    2.03    2.03</time>
   <time name="total">    2.06    2.07</time>
   <energy>
    <i name="e_fr_energy">    -13.93558105 </i>
    <i name="e_wo_entrp">    -13.93351668 </i>
    <i name="e_0_energy">    -13.93454886 </i>
   </energy>
  </scstep>
  <scstep>
   <time name="dav">    2.09    2.10</time>
   <time name="total">    2.13    2.13</time>
   <energy>
    <i name="e_fr_energy">    -13.93449979 </i>
    <i name="e_wo_entrp">    -13.93243445 </i>
    <i name="e_0_energy">    -13.93346712 </i>
   </energy>
  </scstep>
  <scstep>
   <time name="dav">    1.56    1.56</time>
   <time name="total">    1.59    1.59</time>
   <energy>
    <i name="e_fr_energy">    -13.93449881 </i>
    <i name="e_wo_entrp">    -13.93245637 </i>
    <i name="e_0_energy">    -13.93347759 </i>
   </energy>
  </scstep>
  <scstep>
   <time name="dav">    2.15    2.16</time>
   <time name="total">    2.18    2.19</time>
   <energy>
    <i name="e_fr_energy">    -13.93449709 </i>
    <i name="e_wo_entrp">    -13.93245480 </i>
    <i name="e_0_energy">    -13.93347594 </i>
   </energy>
  </scstep>
  <scstep>
   <time name="dav">    1.91    1.92</time>
   <time name="total">    1.92    1.93</time>
   <energy>
    <i name="alphaZ">     85.84423419 </i>
    <i name="ewald">  -1570.48922168 </i>
    <i name="hartreedc">   -245.12741006 </i>
    <i name="XCdc">     33.30742947 </i>
    <i name="pawpsdc">   1922.14709874 </i>
    <i name="pawaedc">  -2029.01484122 </i>
    <i name="eentropy">     -0.00204058 </i>
    <i name="bandstr">    162.67702489 </i>
    <i name="atom">   1626.72322989 </i>
    <i name="e_fr_energy">    -13.93449637 </i>
    <i name="e_wo_entrp">    -13.93245579 </i>
    <i name="e_0_energy">    -13.93347608 </i>
   </energy>
  </scstep>
  <structure>
   <crystal>
    <varray name="basis" >
     <v>       1.20875367      -2.09362277       0.00000000 </v>
     <v>       1.20875367       2.09362277       0.00000000 </v>
     <v>       0.00000000       0.00000000       3.89955367 </v>
    </varray>
    <i name="volume">     19.73699984 </i>
    <varray name="rec_basis" >
     <v>       0.41364921      -0.23882048       0.00000000 </v>
     <v>       0.41364921       0.23882048       0.00000000 </v>
     <v>       0.00000000       0.00000000       0.25643960 </v>
    </varray>
   </crystal>
   <varray name="positions" >
    <v>       0.33333333       0.66666667       0.25000000 </v>
    <v>       0.66666667       0.33333333       0.75000000 </v>
   </varray>
  </structure>
  <varray name="forces" >
   <v>       0.00000000       0.00000000      -0.00000000 </v>
   <v>       0.00000000      -0.00000000       0.00000000 </v>
  </varray>
  <varray name="stress" >
   <v>     229.98912804       0.00000000      -0.00000000 </v>
   <v>       0.00000000     229.98912804      -0.00000000 </v>
   <v>       0.00000000       0.00000000     231.28715236 </v>
  </varray>
  <energy>
   <i name="e_fr_energy">    -13.93449637 </i>
   <i name="e_wo_entrp">    -13.93245579 </i>
   <i name="e_0_energy">    -13.93347608 </i>
  </energy>
  <time name="totalsc">   22.87   22.97</time>
  <eigenvalues>
   <array>
    <dimension dim="1">band</dimension>
    <dimension dim="2">kpoint</dimension>
    <dimension dim="3">spin</dimension>
    <field>eigene</field>
    <field>occ</field>
    <set>
     <set comment="spin 1">
      <set comment="kpoint 1">
       <r>    2.1953    1.0000 </r>
       <r>    6.0808    1.0000 </r>
       <r>    8.9425    1.0000 </r>
       <r>    8.9601    1.0000 </r>
       <r>    8.9601    1.0000 </r>
       <r>    9.3304    1.0000 </r>
       <r>    9.3304    1.0000 </r>
       <r>    9.7228    1.0000 </r>
       <r>    9.7228    1.0000 </r>
       <r>   11.0073    1.0000 </r>
       <r>   11.0073    1.0000 </r>
       <r>   11.5828    0.9965 </r>
       <r>   18.9632    0.0000 </r>
       <r>   34.4129    0.0000 </r>
       <r>   37.8336    0.0000 </r>
       <r>   37.9587    0.0000 </r>
       <r>   37.9587    0.0000 </r>
       <r>   38.2117    0.0000 </r>
       <r>   39.2117    0.0000 </r>
       <r>   39.2117    0.0000 </r>
       <r>   43.5562    0.0000 </r>
       <r>   43.5562    0.0000 </r>
       <r>   45.0382    0.0000 </r>
       <r>   45.0693    0.0000 </r>
       <r>   47.3147    0.0000 </r>
       <r>   47.3147    0.0000 </r>
       <r>   47.8874    0.0000 </r>
       <r>   48.1886    0.0000 </r>
      </set>
      <set comment="kpoint 2">
       <r>    2.4565    1.0000 </r>
       <r>    6.2405    1.0000 </r>
       <r>    8.6856    1.0000 </r>
       <r>    9.0906    1.0000 </r>
       <r>    9.1715    1.0000 </r>
       <r>    9.2762    1.0000 </r>
       <r>    9.4457    1.0000 </r>
       <r>    9.5407    1.0000 </r>
       <r>    9.6396    1.0000 </r>
       <r>   10.0744    1.0000 </r>
       <r>   11.0435    1.0000 </r>
       <r>   12.8640    0.0000 </r>
       <r>   18.9986    0.0000 </r>
       <r>   32.8652    0.0000 </r>
       <r>   35.3485    0.0000 </r>
       <r>   35.6488    0.0000 </r>
       <r>   38.2343    0.0000 </r>
       <r>   38.8919    0.0000 </r>
       <r>   40.2897    0.0000 </r>
       <r>   41.7229    0.0000 </r>
       <r>   42.4890    0.0000 </r>
       <r>   43.1207    0.0000 </r>
       <r>   44.6143    0.0000 </r>
       <r>   44.9195    0.0000 </r>
       <r>   47.2531    0.0000 </r>
       <r>   47.7108    0.0000 </r>
       <r>   48.0554    0.0000 </r>
       <r>   48.2138    0.0000 </r>
      </set>
      <set comment="kpoint 3">
       <r>    3.2089    1.0000 </r>
       <r>    6.6332    1.0000 </r>
       <r>    8.3648    1.0000 </r>
       <r>    8.7104    1.0000 </r>
       <r>    9.0769    1.0000 </r>
       <r>    9.4351    1.0000 </r>
       <r>    9.4591    1.0000 </r>
       <r>    9.5223    1.0000 </r>
       <r>    9.6713    1.0000 </r>
       <r>    9.7689    1.0000 </r>
       <r>   11.1206    1.0000 </r>
       <r>   14.6085    0.0000 </r>
       <r>   19.1250    0.0000 </r>
       <r>   29.0930    0.0000 </r>
       <r>   33.0893    0.0000 </r>
       <r>   34.3246    0.0000 </r>
       <r>   36.2657    0.0000 </r>
       <r>   38.3530    0.0000 </r>
       <r>   39.6867    0.0000 </r>
       <r>   42.2248    0.0000 </r>
       <r>   42.3875    0.0000 </r>
       <r>   43.4717    0.0000 </r>
       <r>   43.9212    0.0000 </r>
       <r>   45.9173    0.0000 </r>
       <r>   46.0153    0.0000 </r>
       <r>   47.7657    0.0000 </r>
       <r>   48.1104    0.0000 </r>
       <r>   48.8233    0.0000 </r>
      </set>
      <set comment="kpoint 4">
       <r>    4.3349    1.0000 </r>
       <r>    6.9388    1.0000 </r>
       <r>    7.8819    1.0000 </r>
       <r>    8.1704    1.0000 </r>
       <r>    8.9722    1.0000 </r>
       <r>    9.1902    1.0000 </r>
       <r>    9.4457    1.0000 </r>
       <r>    9.9948    1.0000 </r>
       <r>   10.0145    1.0000 </r>
       <r>   10.2344    1.0000 </r>
       <r>   11.1934    1.0000 </r>
       <r>   16.5485    0.0000 </r>
       <r>   19.3652    0.0000 </r>
       <r>   25.2873    0.0000 </r>
       <r>   30.8573    0.0000 </r>
       <r>   32.8403    0.0000 </r>
       <r>   33.1537    0.0000 </r>
       <r>   37.3676    0.0000 </r>
       <r>   37.8039    0.0000 </r>
       <r>   41.7831    0.0000 </r>
       <r>   42.0175    0.0000 </r>
       <r>   42.5684    0.0000 </r>
       <r>   43.9607    0.0000 </r>
       <r>   46.7820    0.0000 </r>
       <r>   48.0750    0.0000 </r>
       <r>   48.9912    0.0000 </r>
       <r>   48.9996    0.0000 </r>
       <r>   52.0011    0.0000 </r>
      </set>
      <set comment="kpoint 5">
       <r>    5.5311    1.0000 </r>
       <r>    6.8503    1.0000 </r>
       <r>    7.2761    1.0000 </r>
       <r>    8.3005    1.0000 </r>
       <r>    8.9702    1.0000 </r>
       <r>    9.1133    1.0000 </r>
       <r>    9.2450    1.0000 </r>
       <r>   10.5674    1.0000 </r>
       <r>   10.7401    1.0000 </r>
       <r>   10.7965    1.0000 </r>
       <r>   11.2434    1.0000 </r>
       <r>   18.6409    0.0000 </r>
       <r>   19.3045    0.0000 </r>
       <r>   22.3871    0.0000 </r>
       <r>   29.0734    0.0000 </r>
       <r>   29.6933    0.0000 </r>
       <r>   30.9719    0.0000 </r>
       <r>   36.2030    0.0000 </r>
       <r>   36.2038    0.0000 </r>
       <r>   40.0985    0.0000 </r>
       <r>   41.3697    0.0000 </r>
       <r>   43.4844    0.0000 </r>
       <r>   45.8061    0.0000 </r>
       <r>   47.4700    0.0000 </r>
       <r>   48.3068    0.0000 </r>
       <r>   49.5017    0.0000 </r>
       <r>   52.6127    0.0000 </r>
       <r>   55.1104    0.0000 </r>
      </set>
      <set comment="kpoint 6">
       <r>    6.2693    1.0000 </r>
       <r>    6.6453    1.0000 </r>
       <r>    6.9107    1.0000 </r>
       <r>    8.7153    1.0000 </r>
       <r>    8.8203    1.0000 </r>
       <r>    9.1037    1.0000 </r>
       <r>    9.3437    1.0000 </r>
       <r>   10.9974    1.0000 </r>
       <r>   11.1594    1.0000 </r>
       <r>   11.2700    1.0000 </r>
       <r>   12.0354    0.0000 </r>
       <r>   17.3034    0.0000 </r>
       <r>   20.7842    0.0000 </r>
       <r>   22.2687    0.0000 </r>
       <r>   26.9351    0.0000 </r>
       <r>   27.8918    0.0000 </r>
       <r>   28.3584    0.0000 </r>
       <r>   35.3835    0.0000 </r>
       <r>   35.6326    0.0000 </r>
       <r>   38.8318    0.0000 </r>
       <r>   41.1349    0.0000 </r>
       <r>   44.0712    0.0000 </r>
       <r>   47.7499    0.0000 </r>
       <r>   48.3642    0.0000 </r>
       <r>   48.3659    0.0000 </r>
       <r>   49.7720    0.0000 </r>
       <r>   54.8296    0.0000 </r>
       <r>   56.0209    0.0000 </r>
      </set>
      <set comment="kpoint 7">
       <r>    6.4552    1.0000 </r>
       <r>    6.5545    1.0000 </r>
       <r>    6.7890    1.0000 </r>
       <r>    8.7675    1.0000 </r>
       <r>    8.9893    1.0000 </r>
       <r>    9.0528    1.0000 </r>
       <r>    9.4322    1.0000 </r>
       <r>   11.1532    1.0000 </r>
       <r>   11.2781    1.0000 </r>
       <r>   11.3297    1.0000 </r>
       <r>   13.2673    0.0000 </r>
       <r>   15.5056    0.0000 </r>
       <r>   22.1753    0.0000 </r>
       <r>   22.9497    0.0000 </r>
       <r>   25.3427    0.0000 </r>
       <r>   26.9438    0.0000 </r>
       <r>   27.4734    0.0000 </r>
       <r>   35.0955    0.0000 </r>
       <r>   35.4969    0.0000 </r>
       <r>   38.3893    0.0000 </r>
       <r>   41.0599    0.0000 </r>
       <r>   44.2868    0.0000 </r>
       <r>   47.8638    0.0000 </r>
       <r>   48.3601    0.0000 </r>
       <r>   49.7441    0.0000 </r>
       <r>   50.8329    0.0000 </r>
       <r>   52.0987    0.0000 </r>
       <r>   57.6248    0.0000 </r>
      </set>
      <set comment="kpoint 8">
       <r>    2.9644    1.0000 </r>
       <r>    6.5235    1.0000 </r>
       <r>    8.4330    1.0000 </r>
       <r>    8.9910    1.0000 </r>
       <r>    9.1547    1.0000 </r>
       <r>    9.3520    1.0000 </r>
       <r>    9.3570    1.0000 </r>
       <r>    9.4027    1.0000 </r>
       <r>    9.7000    1.0000 </r>
       <r>    9.8085    1.0000 </r>
       <r>   11.0886    1.0000 </r>
       <r>   14.1226    0.0000 </r>
       <r>   19.0818    0.0000 </r>
       <r>   30.7923    0.0000 </r>
       <r>   31.7846    0.0000 </r>
       <r>   36.9974    0.0000 </r>
       <r>   37.7523    0.0000 </r>
       <r>   37.8906    0.0000 </r>
       <r>   38.2110    0.0000 </r>
       <r>   41.7037    0.0000 </r>
       <r>   43.0701    0.0000 </r>
       <r>   43.6789    0.0000 </r>
       <r>   45.4195    0.0000 </r>
       <r>   45.9363    0.0000 </r>
       <r>   46.3120    0.0000 </r>
       <r>   46.8510    0.0000 </r>
       <r>   47.3930    0.0000 </r>
       <r>   48.3437    0.0000 </r>
      </set>
      <set comment="kpoint 9">
       <r>    3.9142    1.0000 </r>
       <r>    6.9239    1.0000 </r>
       <r>    8.1158    1.0000 </r>
       <r>    8.1872    1.0000 </r>
       <r>    9.0170    1.0000 </r>
       <r>    9.1430    1.0000 </r>
       <r>    9.6364    1.0000 </r>
       <r>    9.6452    1.0000 </r>
       <r>    9.8437    1.0000 </r>
       <r>   10.1776    1.0000 </r>
       <r>   11.1442    1.0000 </r>
       <r>   15.8519    0.0000 </r>
       <r>   19.2907    0.0000 </r>
       <r>   27.2235    0.0000 </r>
       <r>   29.5648    0.0000 </r>
       <r>   34.5368    0.0000 </r>
       <r>   35.7410    0.0000 </r>
       <r>   36.6962    0.0000 </r>
       <r>   38.6114    0.0000 </r>
       <r>   40.4706    0.0000 </r>
       <r>   41.7706    0.0000 </r>
       <r>   44.3311    0.0000 </r>
       <r>   45.5610    0.0000 </r>
       <r>   46.0460    0.0000 </r>
       <r>   47.6085    0.0000 </r>
       <r>   48.5215    0.0000 </r>
       <r>   48.9176    0.0000 </r>
       <r>   49.6705    0.0000 </r>
      </set>
      <set comment="kpoint 10">
       <r>    5.1192    1.0000 </r>
       <r>    7.0426    1.0000 </r>
       <r>    7.5251    1.0000 </r>
       <r>    8.0354    1.0000 </r>
       <r>    8.9265    1.0000 </r>
       <r>    9.0317    1.0000 </r>
       <r>    9.4132    1.0000 </r>
       <r>   10.1075    1.0000 </r>
       <r>   10.4222    1.0000 </r>
       <r>   10.8252    1.0000 </r>
       <r>   11.1911    1.0000 </r>
       <r>   17.8255    0.0000 </r>
       <r>   19.5831    0.0000 </r>
       <r>   23.6845    0.0000 </r>
       <r>   27.9215    0.0000 </r>
       <r>   31.3293    0.0000 </r>
       <r>   33.0926    0.0000 </r>
       <r>   35.3820    0.0000 </r>
       <r>   38.1243    0.0000 </r>
       <r>   38.6227    0.0000 </r>
       <r>   42.4165    0.0000 </r>
       <r>   45.4880    0.0000 </r>
       <r>   45.7620    0.0000 </r>
       <r>   46.6421    0.0000 </r>
       <r>   47.9520    0.0000 </r>
       <r>   48.8857    0.0000 </r>
       <r>   50.5967    0.0000 </r>
       <r>   52.9604    0.0000 </r>
      </set>
      <set comment="kpoint 11">
       <r>    6.1372    1.0000 </r>
       <r>    6.8415    1.0000 </r>
       <r>    7.0727    1.0000 </r>
       <r>    8.3081    1.0000 </r>
       <r>    8.7871    1.0000 </r>
       <r>    9.1920    1.0000 </r>
       <r>    9.2503    1.0000 </r>
       <r>   10.6879    1.0000 </r>
       <r>   10.9182    1.0000 </r>
       <r>   11.2202    1.0000 </r>
       <r>   11.7242    0.0954 </r>
       <r>   18.7172    0.0000 </r>
       <r>   19.9505    0.0000 </r>
       <r>   22.0572    0.0000 </r>
       <r>   26.6283    0.0000 </r>
       <r>   28.3830    0.0000 </r>
       <r>   30.0988    0.0000 </r>
       <r>   34.3952    0.0000 </r>
       <r>   37.3840    0.0000 </r>
       <r>   37.5627    0.0000 </r>
       <r>   42.5482    0.0000 </r>
       <r>   45.7985    0.0000 </r>
       <r>   47.4652    0.0000 </r>
       <r>   47.6587    0.0000 </r>
       <r>   48.3022    0.0000 </r>
       <r>   49.5922    0.0000 </r>
       <r>   52.5137    0.0000 </r>
       <r>   56.3898    0.0000 </r>
      </set>
      <set comment="kpoint 12">
       <r>    6.5399    1.0000 </r>
       <r>    6.6865    1.0000 </r>
       <r>    6.8449    1.0000 </r>
       <r>    8.7218    1.0000 </r>
       <r>    8.7321    1.0000 </r>
       <r>    9.0452    1.0000 </r>
       <r>    9.4277    1.0000 </r>
       <r>   11.1052    1.0000 </r>
       <r>   11.1881    1.0000 </r>
       <r>   11.2330    1.0000 </r>
       <r>   13.1006    0.0000 </r>
       <r>   16.3049    0.0000 </r>
       <r>   21.9711    0.0000 </r>
       <r>   22.8683    0.0000 </r>
       <r>   25.7726    0.0000 </r>
       <r>   25.9584    0.0000 </r>
       <r>   27.8190    0.0000 </r>
       <r>   33.8762    0.0000 </r>
       <r>   36.7567    0.0000 </r>
       <r>   37.2424    0.0000 </r>
       <r>   42.4824    0.0000 </r>
       <r>   46.0244    0.0000 </r>
       <r>   47.8523    0.0000 </r>
       <r>   48.4143    0.0000 </r>
       <r>   49.7587    0.0000 </r>
       <r>   50.0154    0.0000 </r>
       <r>   53.4808    0.0000 </r>
       <r>   55.3905    0.0000 </r>
      </set>
      <set comment="kpoint 13">
       <r>    4.9747    1.0000 </r>
       <r>    7.2496    1.0000 </r>
       <r>    7.6559    1.0000 </r>
       <r>    7.7761    1.0000 </r>
       <r>    8.8450    1.0000 </r>
       <r>    9.0285    1.0000 </r>
       <r>    9.5211    1.0000 </r>
       <r>    9.8373    1.0000 </r>
       <r>   10.4077    1.0000 </r>
       <r>   10.8492    1.0000 </r>
       <r>   11.1461    1.0000 </r>
       <r>   17.5502    0.0000 </r>
       <r>   19.6542    0.0000 </r>
       <r>   25.3527    0.0000 </r>
       <r>   25.9950    0.0000 </r>
       <r>   32.7565    0.0000 </r>
       <r>   33.9542    0.0000 </r>
       <r>   35.2434    0.0000 </r>
       <r>   36.0967    0.0000 </r>
       <r>   41.0342    0.0000 </r>
       <r>   42.7630    0.0000 </r>
       <r>   43.9282    0.0000 </r>
       <r>   47.1719    0.0000 </r>
       <r>   48.4423    0.0000 </r>
       <r>   48.5524    0.0000 </r>
       <r>   48.6040    0.0000 </r>
       <r>   48.8757    0.0000 </r>
       <r>   50.2547    0.0000 </r>
      </set>
      <set comment="kpoint 14">
       <r>    6.1151    1.0000 </r>
       <r>    7.2224    1.0000 </r>
       <r>    7.2337    1.0000 </r>
       <r>    7.7523    1.0000 </r>
       <r>    8.6668    1.0000 </r>
       <r>    9.1929    1.0000 </r>
       <r>    9.3009    1.0000 </r>
       <r>   10.1916    1.0000 </r>
       <r>   10.9180    1.0000 </r>
       <r>   11.1437    1.0000 </r>
       <r>   11.7558    0.0138 </r>
       <r>   19.5345    0.0000 </r>
       <r>   19.9466    0.0000 </r>
       <r>   22.5031    0.0000 </r>
       <r>   24.4501    0.0000 </r>
       <r>   30.1616    0.0000 </r>
       <r>   32.1612    0.0000 </r>
       <r>   32.3893    0.0000 </r>
       <r>   34.8021    0.0000 </r>
       <r>   41.2078    0.0000 </r>
       <r>   44.1581    0.0000 </r>
       <r>   46.0650    0.0000 </r>
       <r>   47.6969    0.0000 </r>
       <r>   48.4675    0.0000 </r>
       <r>   48.5587    0.0000 </r>
       <r>   48.8316    0.0000 </r>
       <r>   51.5703    0.0000 </r>
       <r>   52.1440    0.0000 </r>
      </set>
      <set comment="kpoint 15">
       <r>    6.7932    1.0000 </r>
       <r>    6.9701    1.0000 </r>
       <r>    6.9971    1.0000 </r>
       <r>    8.1199    1.0000 </r>
       <r>    8.6188    1.0000 </r>
       <r>    9.0617    1.0000 </r>
       <r>    9.4224    1.0000 </r>
       <r>   10.6611    1.0000 </r>
       <r>   11.1405    1.0000 </r>
       <r>   11.1730    1.0000 </r>
       <r>   13.0402    0.0000 </r>
       <r>   18.0449    0.0000 </r>
       <r>   21.6716    0.0000 </r>
       <r>   22.3882    0.0000 </r>
       <r>   23.6404    0.0000 </r>
       <r>   27.4448    0.0000 </r>
       <r>   29.2003    0.0000 </r>
       <r>   31.6510    0.0000 </r>
       <r>   34.0165    0.0000 </r>
       <r>   40.8747    0.0000 </r>
       <r>   45.0215    0.0000 </r>
       <r>   47.6400    0.0000 </r>
       <r>   48.1275    0.0000 </r>
       <r>   48.9610    0.0000 </r>
       <r>   49.6945    0.0000 </r>
       <r>   49.9488    0.0000 </r>
       <r>   51.7270    0.0000 </r>
       <r>   55.2643    0.0000 </r>
      </set>
      <set comment="kpoint 16">
       <r>    6.8786    1.0000 </r>
       <r>    6.8811    1.0000 </r>
       <r>    6.9630    1.0000 </r>
       <r>    8.3700    1.0000 </r>
       <r>    8.6393    1.0000 </r>
       <r>    8.9369    1.0000 </r>
       <r>    9.5209    1.0000 </r>
       <r>   10.9803    1.0000 </r>
       <r>   11.1390    1.0000 </r>
       <r>   11.1480    1.0000 </r>
       <r>   14.3556    0.0000 </r>
       <r>   16.1399    0.0000 </r>
       <r>   22.8377    0.0000 </r>
       <r>   23.1884    0.0000 </r>
       <r>   23.6633    0.0000 </r>
       <r>   25.7269    0.0000 </r>
       <r>   27.7073    0.0000 </r>
       <r>   31.4128    0.0000 </r>
       <r>   33.7339    0.0000 </r>
       <r>   40.7395    0.0000 </r>
       <r>   45.2135    0.0000 </r>
       <r>   47.9676    0.0000 </r>
       <r>   48.1497    0.0000 </r>
       <r>   49.3835    0.0000 </r>
       <r>   49.7319    0.0000 </r>
       <r>   51.2929    0.0000 </r>
       <r>   53.5334    0.0000 </r>
       <r>   54.4475    0.0000 </r>
      </set>
      <set comment="kpoint 17">
       <r>    6.9618    1.0000 </r>
       <r>    7.0419    1.0000 </r>
       <r>    7.4556    1.0000 </r>
       <r>    7.5032    1.0000 </r>
       <r>    8.5444    1.0000 </r>
       <r>    9.0800    1.0000 </r>
       <r>    9.4301    1.0000 </r>
       <r>   10.3983    1.0000 </r>
       <r>   11.0931    1.0000 </r>
       <r>   11.1794    1.0000 </r>
       <r>   13.0570    0.0000 </r>
       <r>   19.9001    0.0000 </r>
       <r>   20.6780    0.0000 </r>
       <r>   21.5537    0.0000 </r>
       <r>   23.1461    0.0000 </r>
       <r>   29.3152    0.0000 </r>
       <r>   29.5131    0.0000 </r>
       <r>   30.8808    0.0000 </r>
       <r>   31.8474    0.0000 </r>
       <r>   44.2028    0.0000 </r>
       <r>   46.1339    0.0000 </r>
       <r>   46.2435    0.0000 </r>
       <r>   48.0430    0.0000 </r>
       <r>   48.8811    0.0000 </r>
       <r>   49.7185    0.0000 </r>
       <r>   51.0323    0.0000 </r>
       <r>   52.2322    0.0000 </r>
       <r>   52.8483    0.0000 </r>
      </set>
      <set comment="kpoint 18">
       <r>    6.9495    1.0000 </r>
       <r>    7.2262    1.0000 </r>
       <r>    7.3057    1.0000 </r>
       <r>    7.8738    1.0000 </r>
       <r>    8.5676    1.0000 </r>
       <r>    8.8510    1.0000 </r>
       <r>    9.6219    1.0000 </r>
       <r>   10.7151    1.0000 </r>
       <r>   11.0632    1.0000 </r>
       <r>   11.1156    1.0000 </r>
       <r>   14.8169    0.0000 </r>
       <r>   17.5810    0.0000 </r>
       <r>   20.0053    0.0000 </r>
       <r>   23.7038    0.0000 </r>
       <r>   24.1561    0.0000 </r>
       <r>   26.8325    0.0000 </r>
       <r>   28.6665    0.0000 </r>
       <r>   28.9965    0.0000 </r>
       <r>   31.0080    0.0000 </r>
       <r>   44.6721    0.0000 </r>
       <r>   47.8130    0.0000 </r>
       <r>   47.9142    0.0000 </r>
       <r>   48.1969    0.0000 </r>
       <r>   49.4644    0.0000 </r>
       <r>   51.2663    0.0000 </r>
       <r>   51.5325    0.0000 </r>
       <r>   51.8295    0.0000 </r>
       <r>   54.1179    0.0000 </r>
      </set>
      <set comment="kpoint 19">
       <r>    6.9537    1.0000 </r>
       <r>    7.4350    1.0000 </r>
       <r>    7.4350    1.0000 </r>
       <r>    7.7241    1.0000 </r>
       <r>    8.6560    1.0000 </r>
       <r>    8.6560    1.0000 </r>
       <r>    9.7349    1.0000 </r>
       <r>   10.8831    1.0000 </r>
       <r>   10.8831    1.0000 </r>
       <r>   11.0324    1.0000 </r>
       <r>   16.5918    0.0000 </r>
       <r>   17.6041    0.0000 </r>
       <r>   17.6041    0.0000 </r>
       <r>   25.0048    0.0000 </r>
       <r>   25.8205    0.0000 </r>
       <r>   25.8205    0.0000 </r>
       <r>   27.4804    0.0000 </r>
       <r>   29.0172    0.0000 </r>
       <r>   29.0172    0.0000 </r>
       <r>   47.0109    0.0000 </r>
       <r>   48.0300    0.0000 </r>
       <r>   48.0300    0.0000 </r>
       <r>   50.2824    0.0000 </r>
       <r>   50.2824    0.0000 </r>
       <r>   50.7723    0.0000 </r>
       <r>   50.7723    0.0000 </r>
       <r>   52.1470    0.0000 </r>
       <r>   53.1985    0.0000 </r>
      </set>
      <set comment="kpoint 20">
       <r>    2.3656    1.0000 </r>
       <r>    6.0571    1.0000 </r>
       <r>    8.8944    1.0000 </r>
       <r>    8.9107    1.0000 </r>
       <r>    8.9107    1.0000 </r>
       <r>    9.2794    1.0000 </r>
       <r>    9.2794    1.0000 </r>
       <r>    9.8379    1.0000 </r>
       <r>    9.8379    1.0000 </r>
       <r>   10.9623    1.0000 </r>
       <r>   10.9991    1.0000 </r>
       <r>   10.9991    1.0000 </r>
       <r>   19.8991    0.0000 </r>
       <r>   34.3260    0.0000 </r>
       <r>   37.1213    0.0000 </r>
       <r>   37.4731    0.0000 </r>
       <r>   38.1001    0.0000 </r>
       <r>   38.1001    0.0000 </r>
       <r>   39.2559    0.0000 </r>
       <r>   39.2559    0.0000 </r>
       <r>   43.2310    0.0000 </r>
       <r>   43.2310    0.0000 </r>
       <r>   45.2792    0.0000 </r>
       <r>   45.4837    0.0000 </r>
       <r>   46.3138    0.0000 </r>
       <r>   46.3138    0.0000 </r>
       <r>   47.9950    0.0000 </r>
       <r>   48.1602    0.0000 </r>
      </set>
      <set comment="kpoint 21">
       <r>    2.6240    1.0000 </r>
       <r>    6.2256    1.0000 </r>
       <r>    8.6828    1.0000 </r>
       <r>    9.0270    1.0000 </r>
       <r>    9.0414    1.0000 </r>
       <r>    9.1476    1.0000 </r>
       <r>    9.3888    1.0000 </r>
       <r>    9.6867    1.0000 </r>
       <r>    9.7779    1.0000 </r>
       <r>    9.9881    1.0000 </r>
       <r>   11.0302    1.0000 </r>
       <r>   12.3458    0.0000 </r>
       <r>   19.9843    0.0000 </r>
       <r>   32.9211    0.0000 </r>
       <r>   35.2957    0.0000 </r>
       <r>   35.8053    0.0000 </r>
       <r>   37.1312    0.0000 </r>
       <r>   38.1911    0.0000 </r>
       <r>   40.4238    0.0000 </r>
       <r>   41.6152    0.0000 </r>
       <r>   42.6273    0.0000 </r>
       <r>   42.9824    0.0000 </r>
       <r>   43.6622    0.0000 </r>
       <r>   45.7423    0.0000 </r>
       <r>   47.2091    0.0000 </r>
       <r>   47.7244    0.0000 </r>
       <r>   48.1649    0.0000 </r>
       <r>   48.4820    0.0000 </r>
      </set>
      <set comment="kpoint 22">
       <r>    3.3652    1.0000 </r>
       <r>    6.6447    1.0000 </r>
       <r>    8.3844    1.0000 </r>
       <r>    8.5279    1.0000 </r>
       <r>    9.0081    1.0000 </r>
       <r>    9.2736    1.0000 </r>
       <r>    9.4180    1.0000 </r>
       <r>    9.6344    1.0000 </r>
       <r>    9.7780    1.0000 </r>
       <r>    9.8642    1.0000 </r>
       <r>   11.0956    1.0000 </r>
       <r>   13.8456    0.0000 </r>
       <r>   20.2729    0.0000 </r>
       <r>   29.2236    0.0000 </r>
       <r>   33.2809    0.0000 </r>
       <r>   34.0027    0.0000 </r>
       <r>   35.9454    0.0000 </r>
       <r>   37.2810    0.0000 </r>
       <r>   40.0976    0.0000 </r>
       <r>   41.1410    0.0000 </r>
       <r>   42.0625    0.0000 </r>
       <r>   43.1985    0.0000 </r>
       <r>   44.3643    0.0000 </r>
       <r>   46.8780    0.0000 </r>
       <r>   47.0932    0.0000 </r>
       <r>   48.1254    0.0000 </r>
       <r>   48.2482    0.0000 </r>
       <r>   49.3653    0.0000 </r>
      </set>
      <set comment="kpoint 23">
       <r>    4.4617    1.0000 </r>
       <r>    6.9801    1.0000 </r>
       <r>    7.7879    1.0000 </r>
       <r>    8.2068    1.0000 </r>
       <r>    8.8582    1.0000 </r>
       <r>    9.2139    1.0000 </r>
       <r>    9.4602    1.0000 </r>
       <r>   10.0344    1.0000 </r>
       <r>   10.0922    1.0000 </r>
       <r>   10.1949    1.0000 </r>
       <r>   11.1572    1.0000 </r>
       <r>   15.3910    0.0000 </r>
       <r>   20.8208    0.0000 </r>
       <r>   25.4376    0.0000 </r>
       <r>   31.0791    0.0000 </r>
       <r>   31.5414    0.0000 </r>
       <r>   34.0598    0.0000 </r>
       <r>   36.8374    0.0000 </r>
       <r>   38.2797    0.0000 </r>
       <r>   39.7560    0.0000 </r>
       <r>   41.6216    0.0000 </r>
       <r>   43.6208    0.0000 </r>
       <r>   43.9954    0.0000 </r>
       <r>   47.9421    0.0000 </r>
       <r>   48.2879    0.0000 </r>
       <r>   49.3405    0.0000 </r>
       <r>   49.6780    0.0000 </r>
       <r>   52.1522    0.0000 </r>
      </set>
      <set comment="kpoint 24">
       <r>    5.5787    1.0000 </r>
       <r>    6.8824    1.0000 </r>
       <r>    7.3112    1.0000 </r>
       <r>    8.1877    1.0000 </r>
       <r>    9.0296    1.0000 </r>
       <r>    9.0307    1.0000 </r>
       <r>    9.5086    1.0000 </r>
       <r>   10.5871    1.0000 </r>
       <r>   10.6748    1.0000 </r>
       <r>   10.7517    1.0000 </r>
       <r>   11.2044    1.0000 </r>
       <r>   16.8131    0.0000 </r>
       <r>   21.0476    0.0000 </r>
       <r>   22.8066    0.0000 </r>
       <r>   28.5123    0.0000 </r>
       <r>   29.3205    0.0000 </r>
       <r>   32.1563    0.0000 </r>
       <r>   35.9520    0.0000 </r>
       <r>   36.4282    0.0000 </r>
       <r>   38.4159    0.0000 </r>
       <r>   42.5245    0.0000 </r>
       <r>   43.1119    0.0000 </r>
       <r>   44.8299    0.0000 </r>
       <r>   48.2702    0.0000 </r>
       <r>   48.5105    0.0000 </r>
       <r>   50.9348    0.0000 </r>
       <r>   52.7954    0.0000 </r>
       <r>   53.6513    0.0000 </r>
      </set>
      <set comment="kpoint 25">
       <r>    6.1704    1.0000 </r>
       <r>    6.6229    1.0000 </r>
       <r>    7.1761    1.0000 </r>
       <r>    8.2063    1.0000 </r>
       <r>    8.8945    1.0000 </r>
       <r>    9.3324    1.0000 </r>
       <r>    9.7435    1.0000 </r>
       <r>   10.9897    1.0000 </r>
       <r>   11.0686    1.0000 </r>
       <r>   11.2601    1.0000 </r>
       <r>   11.9300    0.0000 </r>
       <r>   16.8045    0.0000 </r>
       <r>   20.2712    0.0000 </r>
       <r>   23.0952    0.0000 </r>
       <r>   26.3025    0.0000 </r>
       <r>   28.1573    0.0000 </r>
       <r>   29.6416    0.0000 </r>
       <r>   35.2540    0.0000 </r>
       <r>   35.7164    0.0000 </r>
       <r>   37.4354    0.0000 </r>
       <r>   42.6182    0.0000 </r>
       <r>   43.7977    0.0000 </r>
       <r>   45.5654    0.0000 </r>
       <r>   48.2390    0.0000 </r>
       <r>   48.7327    0.0000 </r>
       <r>   51.1110    0.0000 </r>
       <r>   53.9091    0.0000 </r>
       <r>   55.8183    0.0000 </r>
      </set>
      <set comment="kpoint 26">
       <r>    6.2869    1.0000 </r>
       <r>    6.4939    1.0000 </r>
       <r>    7.1733    1.0000 </r>
       <r>    8.2329    1.0000 </r>
       <r>    8.8454    1.0000 </r>
       <r>    9.4286    1.0000 </r>
       <r>    9.9303    1.0000 </r>
       <r>   11.0954    1.0000 </r>
       <r>   11.2243    1.0000 </r>
       <r>   11.3245    1.0000 </r>
       <r>   13.1222    0.0000 </r>
       <r>   15.3877    0.0000 </r>
       <r>   21.6258    0.0000 </r>
       <r>   22.0459    0.0000 </r>
       <r>   26.5598    0.0000 </r>
       <r>   27.7457    0.0000 </r>
       <r>   27.8237    0.0000 </r>
       <r>   34.9966    0.0000 </r>
       <r>   35.5531    0.0000 </r>
       <r>   37.0764    0.0000 </r>
       <r>   42.4649    0.0000 </r>
       <r>   44.5244    0.0000 </r>
       <r>   45.7308    0.0000 </r>
       <r>   48.0085    0.0000 </r>
       <r>   48.7596    0.0000 </r>
       <r>   51.0490    0.0000 </r>
       <r>   54.1801    0.0000 </r>
       <r>   56.8349    0.0000 </r>
      </set>
      <set comment="kpoint 27">
       <r>    3.1250    1.0000 </r>
       <r>    6.5266    1.0000 </r>
       <r>    8.4494    1.0000 </r>
       <r>    8.7411    1.0000 </r>
       <r>    9.0881    1.0000 </r>
       <r>    9.2117    1.0000 </r>
       <r>    9.3533    1.0000 </r>
       <r>    9.5535    1.0000 </r>
       <r>    9.7806    1.0000 </r>
       <r>    9.8825    1.0000 </r>
       <r>   11.0693    1.0000 </r>
       <r>   13.4388    0.0000 </r>
       <r>   20.1735    0.0000 </r>
       <r>   30.8965    0.0000 </r>
       <r>   31.9287    0.0000 </r>
       <r>   36.3476    0.0000 </r>
       <r>   36.4664    0.0000 </r>
       <r>   37.7700    0.0000 </r>
       <r>   39.2629    0.0000 </r>
       <r>   40.2182    0.0000 </r>
       <r>   43.3527    0.0000 </r>
       <r>   44.1152    0.0000 </r>
       <r>   45.3012    0.0000 </r>
       <r>   45.5275    0.0000 </r>
       <r>   46.1182    0.0000 </r>
       <r>   47.7606    0.0000 </r>
       <r>   48.2785    0.0000 </r>
       <r>   48.9578    0.0000 </r>
      </set>
      <set comment="kpoint 28">
       <r>    4.0558    1.0000 </r>
       <r>    6.9609    1.0000 </r>
       <r>    8.0417    1.0000 </r>
       <r>    8.1541    1.0000 </r>
       <r>    8.9345    1.0000 </r>
       <r>    9.1646    1.0000 </r>
       <r>    9.4741    1.0000 </r>
       <r>    9.7407    1.0000 </r>
       <r>   10.0019    1.0000 </r>
       <r>   10.1575    1.0000 </r>
       <r>   11.1201    1.0000 </r>
       <r>   14.8598    0.0000 </r>
       <r>   20.6160    0.0000 </r>
       <r>   27.3673    0.0000 </r>
       <r>   29.7211    0.0000 </r>
       <r>   33.4666    0.0000 </r>
       <r>   35.6512    0.0000 </r>
       <r>   36.6893    0.0000 </r>
       <r>   39.3223    0.0000 </r>
       <r>   39.9227    0.0000 </r>
       <r>   41.1876    0.0000 </r>
       <r>   43.4024    0.0000 </r>
       <r>   46.0619    0.0000 </r>
       <r>   46.8418    0.0000 </r>
       <r>   48.1525    0.0000 </r>
       <r>   48.5651    0.0000 </r>
       <r>   49.1362    0.0000 </r>
       <r>   49.9127    0.0000 </r>
      </set>
      <set comment="kpoint 29">
       <r>    5.2122    1.0000 </r>
       <r>    7.0963    1.0000 </r>
       <r>    7.4663    1.0000 </r>
       <r>    8.0671    1.0000 </r>
       <r>    8.8226    1.0000 </r>
       <r>    9.1408    1.0000 </r>
       <r>    9.3999    1.0000 </r>
       <r>   10.1189    1.0000 </r>
       <r>   10.4846    1.0000 </r>
       <r>   10.7329    1.0000 </r>
       <r>   11.1954    1.0000 </r>
       <r>   16.3475    0.0000 </r>
       <r>   21.2859    0.0000 </r>
       <r>   23.8632    0.0000 </r>
       <r>   28.0882    0.0000 </r>
       <r>   30.2580    0.0000 </r>
       <r>   34.1304    0.0000 </r>
       <r>   34.6863    0.0000 </r>
       <r>   38.3941    0.0000 </r>
       <r>   39.2455    0.0000 </r>
       <r>   40.8998    0.0000 </r>
       <r>   43.9368    0.0000 </r>
       <r>   46.7473    0.0000 </r>
       <r>   47.6335    0.0000 </r>
       <r>   48.3823    0.0000 </r>
       <r>   49.2146    0.0000 </r>
       <r>   51.4581    0.0000 </r>
       <r>   52.1114    0.0000 </r>
      </set>
      <set comment="kpoint 30">
       <r>    6.1082    1.0000 </r>
       <r>    6.8595    1.0000 </r>
       <r>    7.2058    1.0000 </r>
       <r>    8.1083    1.0000 </r>
       <r>    8.8587    1.0000 </r>
       <r>    9.2367    1.0000 </r>
       <r>    9.4481    1.0000 </r>
       <r>   10.6550    1.0000 </r>
       <r>   10.9588    1.0000 </r>
       <r>   11.0879    1.0000 </r>
       <r>   11.7293    0.0733 </r>
       <r>   17.4226    0.0000 </r>
       <r>   20.4900    0.0000 </r>
       <r>   23.0265    0.0000 </r>
       <r>   26.6795    0.0000 </r>
       <r>   27.5583    0.0000 </r>
       <r>   31.3739    0.0000 </r>
       <r>   33.6767    0.0000 </r>
       <r>   37.6315    0.0000 </r>
       <r>   37.9909    0.0000 </r>
       <r>   41.6981    0.0000 </r>
       <r>   44.6281    0.0000 </r>
       <r>   47.0217    0.0000 </r>
       <r>   48.2742    0.0000 </r>
       <r>   48.6752    0.0000 </r>
       <r>   51.1430    0.0000 </r>
       <r>   51.8140    0.0000 </r>
       <r>   54.6744    0.0000 </r>
      </set>
      <set comment="kpoint 31">
       <r>    6.3693    1.0000 </r>
       <r>    6.6450    1.0000 </r>
       <r>    7.2176    1.0000 </r>
       <r>    8.1740    1.0000 </r>
       <r>    8.7740    1.0000 </r>
       <r>    9.4508    1.0000 </r>
       <r>    9.6384    1.0000 </r>
       <r>   11.0420    1.0000 </r>
       <r>   11.1632    1.0000 </r>
       <r>   11.2083    1.0000 </r>
       <r>   13.0471    0.0000 </r>
       <r>   16.1367    0.0000 </r>
       <r>   21.0552    0.0000 </r>
       <r>   22.9141    0.0000 </r>
       <r>   25.9045    0.0000 </r>
       <r>   26.6003    0.0000 </r>
       <r>   28.8547    0.0000 </r>
       <r>   33.1710    0.0000 </r>
       <r>   37.2890    0.0000 </r>
       <r>   37.3120    0.0000 </r>
       <r>   42.0613    0.0000 </r>
       <r>   45.5650    0.0000 </r>
       <r>   46.9029    0.0000 </r>
       <r>   48.1558    0.0000 </r>
       <r>   48.7427    0.0000 </r>
       <r>   51.3260    0.0000 </r>
       <r>   53.6730    0.0000 </r>
       <r>   55.6781    0.0000 </r>
      </set>
      <set comment="kpoint 32">
       <r>    5.0832    1.0000 </r>
       <r>    7.3109    1.0000 </r>
       <r>    7.5760    1.0000 </r>
       <r>    7.8110    1.0000 </r>
       <r>    8.8326    1.0000 </r>
       <r>    9.0358    1.0000 </r>
       <r>    9.4296    1.0000 </r>
       <r>    9.8861    1.0000 </r>
       <r>   10.4940    1.0000 </r>
       <r>   10.7320    1.0000 </r>
       <r>   11.1892    1.0000 </r>
       <r>   16.1829    0.0000 </r>
       <r>   21.2907    0.0000 </r>
       <r>   25.5036    0.0000 </r>
       <r>   26.1740    0.0000 </r>
       <r>   31.7895    0.0000 </r>
       <r>   32.8642    0.0000 </r>
       <r>   36.4325    0.0000 </r>
       <r>   37.1808    0.0000 </r>
       <r>   40.5483    0.0000 </r>
       <r>   41.5167    0.0000 </r>
       <r>   43.8901    0.0000 </r>
       <r>   47.2304    0.0000 </r>
       <r>   47.5672    0.0000 </r>
       <r>   48.7243    0.0000 </r>
       <r>   48.7947    0.0000 </r>
       <r>   49.9122    0.0000 </r>
       <r>   51.5191    0.0000 </r>
      </set>
      <set comment="kpoint 33">
       <r>    6.1501    1.0000 </r>
       <r>    7.1881    1.0000 </r>
       <r>    7.2995    1.0000 </r>
       <r>    7.8033    1.0000 </r>
       <r>    8.7152    1.0000 </r>
       <r>    9.2025    1.0000 </r>
       <r>    9.2401    1.0000 </r>
       <r>   10.2081    1.0000 </r>
       <r>   10.9808    1.0000 </r>
       <r>   10.9852    1.0000 </r>
       <r>   11.8239    0.0000 </r>
       <r>   17.6029    0.0000 </r>
       <r>   21.7259    0.0000 </r>
       <r>   22.9902    0.0000 </r>
       <r>   24.6411    0.0000 </r>
       <r>   29.0856    0.0000 </r>
       <r>   31.3465    0.0000 </r>
       <r>   33.4776    0.0000 </r>
       <r>   36.0122    0.0000 </r>
       <r>   41.1390    0.0000 </r>
       <r>   42.4444    0.0000 </r>
       <r>   45.6703    0.0000 </r>
       <r>   47.3046    0.0000 </r>
       <r>   48.5314    0.0000 </r>
       <r>   48.8302    0.0000 </r>
       <r>   49.6763    0.0000 </r>
       <r>   51.3851    0.0000 </r>
       <r>   52.5202    0.0000 </r>
      </set>
      <set comment="kpoint 34">
       <r>    6.6259    1.0000 </r>
       <r>    7.0325    1.0000 </r>
       <r>    7.2279    1.0000 </r>
       <r>    7.9581    1.0000 </r>
       <r>    8.6824    1.0000 </r>
       <r>    9.1498    1.0000 </r>
       <r>    9.4615    1.0000 </r>
       <r>   10.6524    1.0000 </r>
       <r>   10.9998    1.0000 </r>
       <r>   11.2178    1.0000 </r>
       <r>   13.0908    0.0000 </r>
       <r>   17.7134    0.0000 </r>
       <r>   20.6944    0.0000 </r>
       <r>   23.4612    0.0000 </r>
       <r>   23.9146    0.0000 </r>
       <r>   26.8435    0.0000 </r>
       <r>   30.4967    0.0000 </r>
       <r>   30.6481    0.0000 </r>
       <r>   35.2741    0.0000 </r>
       <r>   40.9130    0.0000 </r>
       <r>   43.5777    0.0000 </r>
       <r>   46.1812    0.0000 </r>
       <r>   48.1029    0.0000 </r>
       <r>   48.6742    0.0000 </r>
       <r>   50.2648    0.0000 </r>
       <r>   50.6935    0.0000 </r>
       <r>   51.5136    0.0000 </r>
       <r>   54.2104    0.0000 </r>
      </set>
      <set comment="kpoint 35">
       <r>    6.6359    1.0000 </r>
       <r>    6.9305    1.0000 </r>
       <r>    7.3348    1.0000 </r>
       <r>    8.0497    1.0000 </r>
       <r>    8.6124    1.0000 </r>
       <r>    9.2207    1.0000 </r>
       <r>    9.5644    1.0000 </r>
       <r>   10.9773    1.0000 </r>
       <r>   10.9812    1.0000 </r>
       <r>   11.1904    1.0000 </r>
       <r>   14.4111    0.0000 </r>
       <r>   16.1009    0.0000 </r>
       <r>   22.1729    0.0000 </r>
       <r>   22.6137    0.0000 </r>
       <r>   23.4312    0.0000 </r>
       <r>   27.0508    0.0000 </r>
       <r>   28.6633    0.0000 </r>
       <r>   30.3763    0.0000 </r>
       <r>   35.0087    0.0000 </r>
       <r>   40.7894    0.0000 </r>
       <r>   44.1393    0.0000 </r>
       <r>   46.1389    0.0000 </r>
       <r>   48.1320    0.0000 </r>
       <r>   48.7332    0.0000 </r>
       <r>   49.8556    0.0000 </r>
       <r>   52.2571    0.0000 </r>
       <r>   52.5819    0.0000 </r>
       <r>   55.3847    0.0000 </r>
      </set>
      <set comment="kpoint 36">
       <r>    6.9599    1.0000 </r>
       <r>    7.0088    1.0000 </r>
       <r>    7.4988    1.0000 </r>
       <r>    7.5783    1.0000 </r>
       <r>    8.6589    1.0000 </r>
       <r>    8.9812    1.0000 </r>
       <r>    9.4236    1.0000 </r>
       <r>   10.4193    1.0000 </r>
       <r>   10.9453    1.0000 </r>
       <r>   11.2264    1.0000 </r>
       <r>   13.1383    0.0000 </r>
       <r>   18.8363    0.0000 </r>
       <r>   20.8502    0.0000 </r>
       <r>   21.7514    0.0000 </r>
       <r>   24.2145    0.0000 </r>
       <r>   28.2833    0.0000 </r>
       <r>   28.3897    0.0000 </r>
       <r>   32.3635    0.0000 </r>
       <r>   33.1613    0.0000 </r>
       <r>   43.4466    0.0000 </r>
       <r>   45.0125    0.0000 </r>
       <r>   46.1501    0.0000 </r>
       <r>   48.0710    0.0000 </r>
       <r>   48.7421    0.0000 </r>
       <r>   49.2031    0.0000 </r>
       <r>   49.6999    0.0000 </r>
       <r>   52.5919    0.0000 </r>
       <r>   54.0587    0.0000 </r>
      </set>
      <set comment="kpoint 37">
       <r>    6.9168    1.0000 </r>
       <r>    7.3000    1.0000 </r>
       <r>    7.3962    1.0000 </r>
       <r>    7.7918    1.0000 </r>
       <r>    8.6027    1.0000 </r>
       <r>    8.8431    1.0000 </r>
       <r>    9.6235    1.0000 </r>
       <r>   10.7295    1.0000 </r>
       <r>   10.9081    1.0000 </r>
       <r>   11.1481    1.0000 </r>
       <r>   14.9367    0.0000 </r>
       <r>   17.5924    0.0000 </r>
       <r>   20.0352    0.0000 </r>
       <r>   22.5239    0.0000 </r>
       <r>   24.3972    0.0000 </r>
       <r>   26.8484    0.0000 </r>
       <r>   28.1941    0.0000 </r>
       <r>   30.0029    0.0000 </r>
       <r>   32.4047    0.0000 </r>
       <r>   44.4186    0.0000 </r>
       <r>   46.0583    0.0000 </r>
       <r>   47.3142    0.0000 </r>
       <r>   48.1226    0.0000 </r>
       <r>   48.7570    0.0000 </r>
       <r>   49.6144    0.0000 </r>
       <r>   51.2420    0.0000 </r>
       <r>   53.1302    0.0000 </r>
       <r>   54.7007    0.0000 </r>
      </set>
      <set comment="kpoint 38">
       <r>    7.0168    1.0000 </r>
       <r>    7.4479    1.0000 </r>
       <r>    7.4479    1.0000 </r>
       <r>    7.7374    1.0000 </r>
       <r>    8.6384    1.0000 </r>
       <r>    8.6384    1.0000 </r>
       <r>    9.7153    1.0000 </r>
       <r>   10.8691    1.0000 </r>
       <r>   10.9104    1.0000 </r>
       <r>   10.9104    1.0000 </r>
       <r>   16.8461    0.0000 </r>
       <r>   17.6431    0.0000 </r>
       <r>   17.6431    0.0000 </r>
       <r>   23.9679    0.0000 </r>
       <r>   24.9242    0.0000 </r>
       <r>   24.9242    0.0000 </r>
       <r>   28.7579    0.0000 </r>
       <r>   30.2326    0.0000 </r>
       <r>   30.2326    0.0000 </r>
       <r>   45.9896    0.0000 </r>
       <r>   48.0198    0.0000 </r>
       <r>   48.0198    0.0000 </r>
       <r>   48.1822    0.0000 </r>
       <r>   48.1822    0.0000 </r>
       <r>   50.0632    0.0000 </r>
       <r>   51.3227    0.0000 </r>
       <r>   51.3228    0.0000 </r>
       <r>   55.1581    0.0000 </r>
      </set>
      <set comment="kpoint 39">
       <r>    2.8633    1.0000 </r>
       <r>    5.9124    1.0000 </r>
       <r>    8.7678    1.0000 </r>
       <r>    8.8388    1.0000 </r>
       <r>    8.8388    1.0000 </r>
       <r>    9.1517    1.0000 </r>
       <r>    9.1517    1.0000 </r>
       <r>    9.7787    1.0000 </r>
       <r>   10.0963    1.0000 </r>
       <r>   10.0963    1.0000 </r>
       <r>   10.9561    1.0000 </r>
       <r>   10.9561    1.0000 </r>
       <r>   22.0920    0.0000 </r>
       <r>   33.6241    0.0000 </r>
       <r>   35.2124    0.0000 </r>
       <r>   36.6746    0.0000 </r>
       <r>   38.5053    0.0000 </r>
       <r>   38.5053    0.0000 </r>
       <r>   39.3788    0.0000 </r>
       <r>   39.3788    0.0000 </r>
       <r>   42.5717    0.0000 </r>
       <r>   42.5717    0.0000 </r>
       <r>   44.6157    0.0000 </r>
       <r>   44.6157    0.0000 </r>
       <r>   45.8853    0.0000 </r>
       <r>   46.2450    0.0000 </r>
       <r>   48.3810    0.0000 </r>
       <r>   48.4500    0.0000 </r>
      </set>
      <set comment="kpoint 40">
       <r>    3.1130    1.0000 </r>
       <r>    6.1032    1.0000 </r>
       <r>    8.6943    1.0000 </r>
       <r>    8.7976    1.0000 </r>
       <r>    8.8439    1.0000 </r>
       <r>    8.9436    1.0000 </r>
       <r>    9.2593    1.0000 </r>
       <r>    9.5120    1.0000 </r>
       <r>   10.0572    1.0000 </r>
       <r>   10.1041    1.0000 </r>
       <r>   10.9741    1.0000 </r>
       <r>   11.5749    0.9982 </r>
       <r>   22.2296    0.0000 </r>
       <r>   33.0094    0.0000 </r>
       <r>   34.3851    0.0000 </r>
       <r>   35.4658    0.0000 </r>
       <r>   36.2716    0.0000 </r>
       <r>   37.3308    0.0000 </r>
       <r>   39.7136    0.0000 </r>
       <r>   40.6661    0.0000 </r>
       <r>   42.5146    0.0000 </r>
       <r>   43.5738    0.0000 </r>
       <r>   43.6249    0.0000 </r>
       <r>   46.0091    0.0000 </r>
       <r>   46.8401    0.0000 </r>
       <r>   47.8143    0.0000 </r>
       <r>   48.2243    0.0000 </r>
       <r>   48.9997    0.0000 </r>
      </set>
      <set comment="kpoint 41">
       <r>    3.8209    1.0000 </r>
       <r>    6.5916    1.0000 </r>
       <r>    8.1610    1.0000 </r>
       <r>    8.4559    1.0000 </r>
       <r>    8.7580    1.0000 </r>
       <r>    9.1841    1.0000 </r>
       <r>    9.3129    1.0000 </r>
       <r>    9.5561    1.0000 </r>
       <r>   10.0251    1.0000 </r>
       <r>   10.1712    1.0000 </r>
       <r>   11.0111    1.0000 </r>
       <r>   12.6285    0.0000 </r>
       <r>   22.6566    0.0000 </r>
       <r>   29.6119    0.0000 </r>
       <r>   33.0216    0.0000 </r>
       <r>   33.8485    0.0000 </r>
       <r>   34.9946    0.0000 </r>
       <r>   35.7743    0.0000 </r>
       <r>   38.7346    0.0000 </r>
       <r>   39.2893    0.0000 </r>
       <r>   43.1314    0.0000 </r>
       <r>   44.8389    0.0000 </r>
       <r>   44.8679    0.0000 </r>
       <r>   47.0527    0.0000 </r>
       <r>   48.1684    0.0000 </r>
       <r>   48.3325    0.0000 </r>
       <r>   48.4641    0.0000 </r>
       <r>   49.7937    0.0000 </r>
      </set>
      <set comment="kpoint 42">
       <r>    4.8260    1.0000 </r>
       <r>    7.0046    1.0000 </r>
       <r>    7.5931    1.0000 </r>
       <r>    8.2898    1.0000 </r>
       <r>    8.6714    1.0000 </r>
       <r>    9.2897    1.0000 </r>
       <r>    9.3862    1.0000 </r>
       <r>    9.9950    1.0000 </r>
       <r>   10.2368    1.0000 </r>
       <r>   10.3410    1.0000 </r>
       <r>   11.0497    1.0000 </r>
       <r>   13.7585    0.0000 </r>
       <r>   23.3361    0.0000 </r>
       <r>   25.8921    0.0000 </r>
       <r>   30.0590    0.0000 </r>
       <r>   31.7302    0.0000 </r>
       <r>   34.5095    0.0000 </r>
       <r>   35.4740    0.0000 </r>
       <r>   37.7037    0.0000 </r>
       <r>   37.9025    0.0000 </r>
       <r>   41.1548    0.0000 </r>
       <r>   45.1650    0.0000 </r>
       <r>   45.8194    0.0000 </r>
       <r>   48.0634    0.0000 </r>
       <r>   48.4536    0.0000 </r>
       <r>   50.4733    0.0000 </r>
       <r>   50.7558    0.0000 </r>
       <r>   51.2784    0.0000 </r>
      </set>
      <set comment="kpoint 43">
       <r>    5.7231    1.0000 </r>
       <r>    6.8752    1.0000 </r>
       <r>    7.3725    1.0000 </r>
       <r>    8.0916    1.0000 </r>
       <r>    9.0147    1.0000 </r>
       <r>    9.2061    1.0000 </r>
       <r>    9.8910    1.0000 </r>
       <r>   10.4676    1.0000 </r>
       <r>   10.6567    1.0000 </r>
       <r>   10.6977    1.0000 </r>
       <r>   11.1091    1.0000 </r>
       <r>   14.8944    0.0000 </r>
       <r>   22.2110    0.0000 </r>
       <r>   24.3901    0.0000 </r>
       <r>   27.2509    0.0000 </r>
       <r>   30.0392    0.0000 </r>
       <r>   33.3576    0.0000 </r>
       <r>   35.3179    0.0000 </r>
       <r>   36.3382    0.0000 </r>
       <r>   36.8251    0.0000 </r>
       <r>   40.2746    0.0000 </r>
       <r>   45.3600    0.0000 </r>
       <r>   46.0180    0.0000 </r>
       <r>   48.0767    0.0000 </r>
       <r>   48.6181    0.0000 </r>
       <r>   50.4829    0.0000 </r>
       <r>   53.0530    0.0000 </r>
       <r>   53.4496    0.0000 </r>
      </set>
      <set comment="kpoint 44">
       <r>    6.0632    1.0000 </r>
       <r>    6.6441    1.0000 </r>
       <r>    7.4571    1.0000 </r>
       <r>    7.8404    1.0000 </r>
       <r>    9.1101    1.0000 </r>
       <r>    9.3996    1.0000 </r>
       <r>   10.6248    1.0000 </r>
       <r>   10.7389    1.0000 </r>
       <r>   11.0501    1.0000 </r>
       <r>   11.2319    1.0000 </r>
       <r>   11.6224    0.9419 </r>
       <r>   15.5563    0.0000 </r>
       <r>   20.1263    0.0000 </r>
       <r>   22.9856    0.0000 </r>
       <r>   27.2432    0.0000 </r>
       <r>   28.9235    0.0000 </r>
       <r>   31.4501    0.0000 </r>
       <r>   34.9251    0.0000 </r>
       <r>   35.4008    0.0000 </r>
       <r>   35.9515    0.0000 </r>
       <r>   41.3004    0.0000 </r>
       <r>   44.9178    0.0000 </r>
       <r>   45.5240    0.0000 </r>
       <r>   47.4002    0.0000 </r>
       <r>   48.6326    0.0000 </r>
       <r>   50.1903    0.0000 </r>
       <r>   54.4808    0.0000 </r>
       <r>   56.2358    0.0000 </r>
      </set>
      <set comment="kpoint 45">
       <r>    6.0960    1.0000 </r>
       <r>    6.5557    1.0000 </r>
       <r>    7.6100    1.0000 </r>
       <r>    7.6606    1.0000 </r>
       <r>    9.0725    1.0000 </r>
       <r>    9.5240    1.0000 </r>
       <r>   10.7997    1.0000 </r>
       <r>   10.8552    1.0000 </r>
       <r>   11.2157    1.0000 </r>
       <r>   11.3096    1.0000 </r>
       <r>   12.7454    0.0000 </r>
       <r>   15.0081    0.0000 </r>
       <r>   20.7092    0.0000 </r>
       <r>   20.8652    0.0000 </r>
       <r>   28.5298    0.0000 </r>
       <r>   28.6920    0.0000 </r>
       <r>   29.6501    0.0000 </r>
       <r>   34.7441    0.0000 </r>
       <r>   35.0648    0.0000 </r>
       <r>   35.7182    0.0000 </r>
       <r>   42.4412    0.0000 </r>
       <r>   44.2940    0.0000 </r>
       <r>   44.7614    0.0000 </r>
       <r>   47.2531    0.0000 </r>
       <r>   48.6527    0.0000 </r>
       <r>   50.3820    0.0000 </r>
       <r>   54.7837    0.0000 </r>
       <r>   57.9506    0.0000 </r>
      </set>
      <set comment="kpoint 46">
       <r>    3.5934    1.0000 </r>
       <r>    6.4508    1.0000 </r>
       <r>    8.3429    1.0000 </r>
[...]
       </set>
       <set comment="band 28">
        <r>  0.0115  0.0263  0.0179  0.0772  0.0525  0.0120  0.0004  0.0196  0.1559 </r>
        <r>  0.0107  0.0245  0.0192  0.0720  0.0489  0.0129  0.0003  0.0210  0.1452 </r>
       </set>
      </set>
      <set comment="kpoint 93">
       <set comment="band 1">
        <r>  0.1076  0.0135  0.0019  0.0620  0.0522  0.0000  0.0525  0.0390  0.0554 </r>
        <r>  0.0093  0.0012  0.0218  0.0054  0.0045  0.0003  0.0045  0.4507  0.0048 </r>
       </set>
       <set comment="band 2">
        <r>  0.0093  0.0012  0.0218  0.0054  0.0045  0.0003  0.0045  0.4507  0.0048 </r>
        <r>  0.1076  0.0135  0.0019  0.0620  0.0522  0.0000  0.0525  0.0390  0.0554 </r>
       </set>
       <set comment="band 3">
        <r>  0.0040  0.0094  0.0325  0.0018  0.0907  0.0739  0.0020  0.0017  0.0051 </r>
        <r>  0.0246  0.0579  0.0053  0.0110  0.5611  0.0120  0.0122  0.0003  0.0313 </r>
       </set>
       <set comment="band 4">
        <r>  0.0246  0.0579  0.0053  0.0110  0.5611  0.0120  0.0122  0.0003  0.0313 </r>
        <r>  0.0040  0.0094  0.0325  0.0018  0.0907  0.0739  0.0020  0.0017  0.0051 </r>
       </set>
       <set comment="band 5">
        <r>  0.0004  0.0000  0.0113  0.0202  0.0011  0.2029  0.0575  0.0182  0.0309 </r>
        <r>  0.0022  0.0000  0.0023  0.0995  0.0056  0.0412  0.2833  0.0037  0.1523 </r>
       </set>
       <set comment="band 6">
        <r>  0.0022  0.0000  0.0023  0.0995  0.0056  0.0412  0.2833  0.0037  0.1523 </r>
        <r>  0.0004  0.0000  0.0113  0.0202  0.0011  0.2029  0.0575  0.0182  0.0309 </r>
       </set>
       <set comment="band 7">
        <r>  0.0102  0.0000  0.0000  0.0016  0.1179  0.0235  0.0391  0.0042  0.1972 </r>
        <r>  0.0005  0.0000  0.0000  0.0001  0.0059  0.4726  0.0019  0.0841  0.0098 </r>
       </set>
       <set comment="band 8">
        <r>  0.0005  0.0000  0.0000  0.0001  0.0059  0.4726  0.0019  0.0841  0.0098 </r>
        <r>  0.0102  0.0000  0.0000  0.0016  0.1179  0.0235  0.0391  0.0042  0.1972 </r>
       </set>
       <set comment="band 9">
        <r>  0.0000  0.0000  0.0037  0.0001  0.0003  0.0876  0.0186  0.2024  0.0060 </r>
        <r>  0.0000  0.0001  0.0001  0.0036  0.0086  0.0033  0.4898  0.0077  0.1585 </r>
       </set>
       <set comment="band 10">
        <r>  0.0000  0.0001  0.0001  0.0036  0.0086  0.0033  0.4898  0.0077  0.1585 </r>
        <r>  0.0000  0.0000  0.0037  0.0001  0.0003  0.0876  0.0186  0.2024  0.0060 </r>
       </set>
       <set comment="band 11">
        <r>  0.0053  0.0003  0.0805  0.0136  0.0012  0.0074  0.0001  0.1347  0.0237 </r>
        <r>  0.0770  0.0038  0.0055  0.1990  0.0179  0.0005  0.0013  0.0092  0.3477 </r>
       </set>
       <set comment="band 12">
        <r>  0.0770  0.0038  0.0055  0.1990  0.0179  0.0005  0.0013  0.0092  0.3477 </r>
        <r>  0.0053  0.0003  0.0805  0.0136  0.0012  0.0074  0.0001  0.1347  0.0237 </r>
       </set>
       <set comment="band 13">
        <r>  0.0000  0.3246  0.0006  0.0088  0.3536  0.0004  0.0028  0.0006  0.0014 </r>
        <r>  0.0000  0.0028  0.0689  0.0001  0.0030  0.0497  0.0000  0.0730  0.0000 </r>
       </set>
       <set comment="band 14">
        <r>  0.0000  0.0028  0.0689  0.0001  0.0030  0.0497  0.0000  0.0730  0.0000 </r>
        <r>  0.0000  0.3246  0.0006  0.0088  0.3536  0.0004  0.0028  0.0006  0.0014 </r>
       </set>
       <set comment="band 15">
        <r>  0.3751  0.0024  0.0000  0.1693  0.0020  0.0014  0.0697  0.0011  0.0003 </r>
        <r>  0.0038  0.0000  0.0045  0.0017  0.0000  0.1379  0.0007  0.1055  0.0000 </r>
       </set>
       <set comment="band 16">
        <r>  0.0038  0.0000  0.0045  0.0017  0.0000  0.1379  0.0007  0.1055  0.0000 </r>
        <r>  0.3751  0.0024  0.0000  0.1693  0.0020  0.0014  0.0697  0.0011  0.0003 </r>
       </set>
       <set comment="band 17">
        <r>  0.0435  0.0002  0.0019  0.0740  0.0020  0.0003  0.1032  0.0008  0.0304 </r>
        <r>  0.0003  0.0000  0.2584  0.0005  0.0000  0.0362  0.0008  0.1065  0.0002 </r>
       </set>
       <set comment="band 18">
        <r>  0.0003  0.0000  0.2584  0.0005  0.0000  0.0362  0.0008  0.1065  0.0002 </r>
        <r>  0.0435  0.0002  0.0019  0.0740  0.0020  0.0003  0.1032  0.0008  0.0304 </r>
       </set>
       <set comment="band 19">
        <r>  0.0109  0.0557  0.0002  0.0180  0.1316  0.0003  0.0840  0.0002  0.0200 </r>
        <r>  0.0000  0.0001  0.0802  0.0000  0.0003  0.1310  0.0002  0.0960  0.0001 </r>
       </set>
       <set comment="band 20">
        <r>  0.0000  0.0001  0.0802  0.0000  0.0003  0.1310  0.0002  0.0960  0.0001 </r>
        <r>  0.0109  0.0557  0.0002  0.0180  0.1316  0.0003  0.0840  0.0002  0.0200 </r>
       </set>
       <set comment="band 21">
        <r>  0.0307  0.0083  0.0020  0.0454  0.0566  0.0001  0.2728  0.0057  0.0398 </r>
        <r>  0.0007  0.0002  0.0827  0.0011  0.0014  0.0022  0.0066  0.2335  0.0010 </r>
       </set>
       <set comment="band 22">
        <r>  0.0007  0.0002  0.0827  0.0011  0.0014  0.0022  0.0066  0.2335  0.0010 </r>
        <r>  0.0307  0.0083  0.0020  0.0454  0.0566  0.0001  0.2728  0.0057  0.0398 </r>
       </set>
       <set comment="band 23">
        <r>  0.0019  0.2412  0.0089  0.0012  0.1736  0.0043  0.0001  0.0017  0.0000 </r>
        <r>  0.0003  0.0356  0.0602  0.0002  0.0256  0.0291  0.0000  0.0113  0.0000 </r>
       </set>
       <set comment="band 24">
        <r>  0.0003  0.0356  0.0602  0.0002  0.0256  0.0291  0.0000  0.0113  0.0000 </r>
        <r>  0.0019  0.2412  0.0089  0.0012  0.1736  0.0043  0.0001  0.0017  0.0000 </r>
       </set>
       <set comment="band 25">
        <r>  0.0632  0.0000  0.0041  0.0000  0.0000  0.1793  0.0000  0.0341  0.0022 </r>
        <r>  3.5184  0.0001  0.0001  0.0013  0.0014  0.0032  0.0011  0.0006  0.1219 </r>
       </set>
       <set comment="band 26">
        <r>  3.5184  0.0001  0.0001  0.0013  0.0014  0.0032  0.0011  0.0006  0.1219 </r>
        <r>  0.0632  0.0000  0.0041  0.0000  0.0000  0.1793  0.0000  0.0341  0.0022 </r>
       </set>
       <set comment="band 27">
        <r>  1.2114  0.0000  0.0081  0.0010  0.0004  0.1501  0.0003  0.0243  0.0688 </r>
        <r>  1.5680  0.0000  0.0063  0.0013  0.0005  0.1160  0.0004  0.0187  0.0891 </r>
       </set>
       <set comment="band 28">
        <r>  1.5680  0.0000  0.0063  0.0013  0.0005  0.1160  0.0004  0.0187  0.0891 </r>
        <r>  1.2114  0.0000  0.0081  0.0010  0.0004  0.1501  0.0003  0.0243  0.0688 </r>
       </set>
      </set>
      <set comment="kpoint 94">
       <set comment="band 1">
        <r>  0.0673  0.0307  0.0000  0.0403  0.1191  0.0004  0.0744  0.0038  0.0604 </r>
        <r>  0.0006  0.0003  0.0037  0.0003  0.0010  0.0423  0.0006  0.4550  0.0005 </r>
       </set>
       <set comment="band 2">
        <r>  0.0006  0.0003  0.0037  0.0003  0.0010  0.0423  0.0006  0.4550  0.0005 </r>
        <r>  0.0673  0.0307  0.0000  0.0403  0.1191  0.0004  0.0744  0.0038  0.0604 </r>
       </set>
       <set comment="band 3">
        <r>  0.0073  0.0222  0.0046  0.0016  0.1280  0.1535  0.0762  0.0445  0.0083 </r>
        <r>  0.0105  0.0318  0.0032  0.0023  0.1839  0.1068  0.1095  0.0309  0.0120 </r>
       </set>
       <set comment="band 4">
        <r>  0.0105  0.0318  0.0032  0.0023  0.1839  0.1068  0.1095  0.0309  0.0120 </r>
        <r>  0.0073  0.0222  0.0046  0.0016  0.1280  0.1535  0.0762  0.0445  0.0083 </r>
       </set>
       <set comment="band 5">
        <r>  0.0001  0.0002  0.0467  0.0009  0.0014  0.1648  0.0003  0.0087  0.0019 </r>
        <r>  0.0084  0.0277  0.0003  0.1306  0.2019  0.0011  0.0502  0.0001  0.2779 </r>
       </set>
       <set comment="band 6">
        <r>  0.0084  0.0277  0.0003  0.1306  0.2019  0.0011  0.0502  0.0001  0.2779 </r>
        <r>  0.0001  0.0002  0.0467  0.0009  0.0014  0.1648  0.0003  0.0087  0.0019 </r>
       </set>
       <set comment="band 7">
        <r>  0.0036  0.0031  0.0000  0.0136  0.1648  0.0005  0.0211  0.0002  0.3084 </r>
        <r>  0.0000  0.0000  0.0017  0.0000  0.0003  0.3215  0.0000  0.1295  0.0005 </r>
       </set>
       <set comment="band 8">
        <r>  0.0000  0.0000  0.0017  0.0000  0.0003  0.3215  0.0000  0.1295  0.0005 </r>
        <r>  0.0036  0.0031  0.0000  0.0136  0.1648  0.0005  0.0211  0.0002  0.3084 </r>
       </set>
       <set comment="band 9">
        <r>  0.0003  0.0000  0.0011  0.0003  0.0017  0.0883  0.1060  0.1523  0.0082 </r>
        <r>  0.0013  0.0002  0.0002  0.0017  0.0083  0.0177  0.5286  0.0306  0.0410 </r>
       </set>
       <set comment="band 10">
        <r>  0.0013  0.0002  0.0002  0.0017  0.0083  0.0177  0.5286  0.0306  0.0410 </r>
        <r>  0.0003  0.0000  0.0011  0.0003  0.0017  0.0883  0.1060  0.1523  0.0082 </r>
       </set>
       <set comment="band 11">
        <r>  0.0009  0.0008  0.1163  0.0076  0.0011  0.0111  0.0000  0.0635  0.0083 </r>
        <r>  0.0330  0.0307  0.0031  0.2839  0.0403  0.0003  0.0016  0.0017  0.3096 </r>
       </set>
       <set comment="band 12">
        <r>  0.0330  0.0307  0.0031  0.2839  0.0403  0.0003  0.0016  0.0017  0.3096 </r>
        <r>  0.0009  0.0008  0.1163  0.0076  0.0011  0.0111  0.0000  0.0635  0.0083 </r>
       </set>
       <set comment="band 13">
        <r>  0.1216  0.2440  0.0002  0.0177  0.2709  0.0003  0.0067  0.0005  0.0183 </r>
        <r>  0.0006  0.0011  0.0453  0.0001  0.0012  0.0600  0.0000  0.1155  0.0001 </r>
       </set>
       <set comment="band 14">
        <r>  0.0006  0.0011  0.0453  0.0001  0.0012  0.0600  0.0000  0.1155  0.0001 </r>
        <r>  0.1216  0.2440  0.0002  0.0177  0.2709  0.0003  0.0067  0.0005  0.0183 </r>
       </set>
       <set comment="band 15">
        <r>  0.3692  0.0828  0.0001  0.0707  0.0403  0.0010  0.0495  0.0006  0.0055 </r>
        <r>  0.0024  0.0005  0.0117  0.0005  0.0003  0.1507  0.0003  0.0891  0.0000 </r>
       </set>
       <set comment="band 16">
        <r>  0.0024  0.0005  0.0117  0.0005  0.0003  0.1507  0.0003  0.0891  0.0000 </r>
        <r>  0.3692  0.0828  0.0001  0.0707  0.0403  0.0010  0.0495  0.0006  0.0055 </r>
       </set>
       <set comment="band 17">
        <r>  0.0106  0.0086  0.0006  0.1012  0.0038  0.0001  0.0280  0.0003  0.0426 </r>
        <r>  0.0000  0.0000  0.2470  0.0003  0.0000  0.0561  0.0001  0.1127  0.0001 </r>
       </set>
       <set comment="band 18">
        <r>  0.0000  0.0000  0.2470  0.0003  0.0000  0.0561  0.0001  0.1127  0.0001 </r>
        <r>  0.0106  0.0086  0.0006  0.1012  0.0038  0.0001  0.0280  0.0003  0.0426 </r>
       </set>
       <set comment="band 19">
        <r>  0.0208  0.0666  0.0001  0.0016  0.1211  0.0001  0.0780  0.0001  0.0128 </r>
        <r>  0.0000  0.0000  0.1511  0.0000  0.0001  0.1183  0.0000  0.1726  0.0000 </r>
       </set>
       <set comment="band 20">
        <r>  0.0000  0.0000  0.1511  0.0000  0.0001  0.1183  0.0000  0.1726  0.0000 </r>
        <r>  0.0208  0.0666  0.0001  0.0016  0.1211  0.0001  0.0780  0.0001  0.0128 </r>
       </set>
       <set comment="band 21">
        <r>  0.0509  0.0338  0.0023  0.0274  0.0035  0.0029  0.3505  0.0048  0.0073 </r>
        <r>  0.0026  0.0017  0.0466  0.0014  0.0002  0.0577  0.0176  0.0954  0.0004 </r>
       </set>
       <set comment="band 22">
        <r>  0.0026  0.0017  0.0466  0.0014  0.0002  0.0577  0.0176  0.0954  0.0004 </r>
        <r>  0.0509  0.0338  0.0023  0.0274  0.0035  0.0029  0.3505  0.0048  0.0073 </r>
       </set>
       <set comment="band 23">
        <r>  0.2775  0.1429  0.0021  0.0084  0.2355  0.0070  0.0052  0.0029  0.0377 </r>
        <r>  0.0162  0.0084  0.0362  0.0005  0.0138  0.1200  0.0003  0.0498  0.0022 </r>
       </set>
       <set comment="band 24">
        <r>  0.0162  0.0084  0.0362  0.0005  0.0138  0.1200  0.0003  0.0498  0.0022 </r>
        <r>  0.2775  0.1429  0.0021  0.0084  0.2355  0.0070  0.0052  0.0029  0.0377 </r>
       </set>
       <set comment="band 25">
        <r>  0.4190  0.0024  0.0051  0.0002  0.0024  0.0268  0.0006  0.0087  0.0019 </r>
        <r>  4.4409  0.0253  0.0005  0.0016  0.0251  0.0025  0.0063  0.0008  0.0199 </r>
       </set>
       <set comment="band 26">
        <r>  4.4409  0.0253  0.0005  0.0016  0.0251  0.0025  0.0063  0.0008  0.0199 </r>
        <r>  0.4190  0.0024  0.0051  0.0002  0.0024  0.0268  0.0006  0.0087  0.0019 </r>
       </set>
       <set comment="band 27">
        <r>  0.0146  0.0006  0.0306  0.0012  0.0006  0.1769  0.0000  0.0097  0.0046 </r>
        <r>  0.9008  0.0346  0.0005  0.0771  0.0343  0.0029  0.0003  0.0002  0.2859 </r>
       </set>
       <set comment="band 28">
        <r>  0.9008  0.0346  0.0005  0.0771  0.0343  0.0029  0.0003  0.0002  0.2859 </r>
        <r>  0.0146  0.0006  0.0306  0.0012  0.0006  0.1769  0.0000  0.0097  0.0046 </r>
       </set>
      </set>
      <set comment="kpoint 95">
       <set comment="band 1">
        <r>  0.0000  0.0710  0.0000  0.0710  0.1438  0.0083  0.0000  0.0083  0.1438 </r>
        <r>  0.0000  0.0029  0.0000  0.0029  0.0058  0.2063  0.0000  0.2063  0.0058 </r>
       </set>
       <set comment="band 2">
        <r>  0.0000  0.0029  0.0000  0.0029  0.0058  0.2063  0.0000  0.2063  0.0058 </r>
        <r>  0.0000  0.0710  0.0000  0.0710  0.1438  0.0083  0.0000  0.0083  0.1438 </r>
       </set>
       <set comment="band 3">
        <r>  0.0710  0.0000  0.0000  0.0000  0.0000  0.0156  0.2591  0.0156  0.0000 </r>
        <r>  0.0039  0.0000  0.0000  0.0000  0.0000  0.2849  0.0142  0.2849  0.0000 </r>
       </set>
       <set comment="band 4">
        <r>  0.0039  0.0000  0.0000  0.0000  0.0000  0.2849  0.0142  0.2849  0.0000 </r>
        <r>  0.0710  0.0000  0.0000  0.0000  0.0000  0.0156  0.2591  0.0156  0.0000 </r>
       </set>
       <set comment="band 5">
        <r>  0.0000  0.0000  0.0541  0.0000  0.0001  0.0000  0.0000  0.0000  0.0001 </r>
        <r>  0.0000  0.0791  0.0000  0.0791  0.3615  0.0000  0.0000  0.0000  0.3615 </r>
       </set>
       <set comment="band 6">
        <r>  0.0000  0.0791  0.0000  0.0791  0.3615  0.0000  0.0000  0.0000  0.3615 </r>
        <r>  0.0000  0.0000  0.0541  0.0000  0.0001  0.0000  0.0000  0.0000  0.0001 </r>
       </set>
       <set comment="band 7">
        <r>  0.0000  0.0006  0.0000  0.0006  0.0329  0.1919  0.0000  0.1919  0.0329 </r>
        <r>  0.0000  0.0040  0.0000  0.0040  0.2277  0.0277  0.0000  0.0277  0.2277 </r>
       </set>
       <set comment="band 8">
        <r>  0.0000  0.0040  0.0000  0.0040  0.2277  0.0277  0.0000  0.0277  0.2277 </r>
        <r>  0.0000  0.0006  0.0000  0.0006  0.0329  0.1919  0.0000  0.1919  0.0329 </r>
       </set>
       <set comment="band 9">
        <r>  0.0004  0.0000  0.0000  0.0000  0.0000  0.1276  0.0747  0.1276  0.0000 </r>
        <r>  0.0037  0.0000  0.0000  0.0000  0.0000  0.0153  0.6215  0.0153  0.0000 </r>
       </set>
       <set comment="band 10">
        <r>  0.0037  0.0000  0.0000  0.0000  0.0000  0.0153  0.6215  0.0153  0.0000 </r>
        <r>  0.0004  0.0000  0.0000  0.0000  0.0000  0.1276  0.0747  0.1276  0.0000 </r>
       </set>
       <set comment="band 11">
        <r>  0.0000  0.0019  0.1835  0.0019  0.0020  0.0000  0.0000  0.0000  0.0020 </r>
        <r>  0.0000  0.1784  0.0019  0.1784  0.1871  0.0000  0.0000  0.0000  0.1871 </r>
       </set>
       <set comment="band 12">
        <r>  0.0000  0.1784  0.0019  0.1784  0.1871  0.0000  0.0000  0.0000  0.1871 </r>
        <r>  0.0000  0.0019  0.1835  0.0019  0.0020  0.0000  0.0000  0.0000  0.0020 </r>
       </set>
       <set comment="band 13">
        <r>  0.0000  0.1775  0.0000  0.1775  0.1369  0.0072  0.0000  0.0072  0.1369 </r>
        <r>  0.0000  0.0139  0.0000  0.0139  0.0107  0.0914  0.0000  0.0914  0.0107 </r>
       </set>
       <set comment="band 14">
        <r>  0.0000  0.0139  0.0000  0.0139  0.0107  0.0914  0.0000  0.0914  0.0107 </r>
        <r>  0.0000  0.1775  0.0000  0.1775  0.1369  0.0072  0.0000  0.0072  0.1369 </r>
       </set>
       <set comment="band 15">
        <r>  0.5507  0.0000  0.0000  0.0000  0.0000  0.0006  0.0511  0.0006  0.0000 </r>
        <r>  0.0023  0.0000  0.0000  0.0000  0.0000  0.1455  0.0002  0.1455  0.0000 </r>
       </set>
       <set comment="band 16">
        <r>  0.0023  0.0000  0.0000  0.0000  0.0000  0.1455  0.0002  0.1455  0.0000 </r>
        <r>  0.5507  0.0000  0.0000  0.0000  0.0000  0.0006  0.0511  0.0006  0.0000 </r>
       </set>
       <set comment="band 17">
        <r>  0.0000  0.0599  0.0000  0.0598  0.0288  0.0001  0.0000  0.0001  0.0288 </r>
        <r>  0.0000  0.0000  0.0000  0.0000  0.0000  0.2217  0.0000  0.2217  0.0000 </r>
       </set>
       <set comment="band 18">
        <r>  0.0000  0.0000  0.0000  0.0000  0.0000  0.2217  0.0000  0.2217  0.0000 </r>
        <r>  0.0000  0.0599  0.0000  0.0598  0.0288  0.0001  0.0000  0.0001  0.0288 </r>
       </set>
       <set comment="band 19">
        <r>  0.0000  0.0040  0.4118  0.0040  0.0039  0.0000  0.0000  0.0000  0.0039 </r>
        <r>  0.0000  0.0487  0.0336  0.0487  0.0481  0.0000  0.0000  0.0000  0.0481 </r>
       </set>
       <set comment="band 20">
        <r>  0.0000  0.0487  0.0336  0.0487  0.0481  0.0000  0.0000  0.0000  0.0481 </r>
        <r>  0.0000  0.0040  0.4118  0.0040  0.0039  0.0000  0.0000  0.0000  0.0039 </r>
       </set>
       <set comment="band 21">
        <r>  0.1048  0.0000  0.0000  0.0000  0.0000  0.0010  0.4875  0.0010  0.0000 </r>
        <r>  0.0010  0.0000  0.0000  0.0000  0.0000  0.1056  0.0046  0.1056  0.0000 </r>
       </set>
       <set comment="band 22">
        <r>  0.0010  0.0000  0.0000  0.0000  0.0000  0.1056  0.0046  0.1056  0.0000 </r>
        <r>  0.1048  0.0000  0.0000  0.0000  0.0000  0.0010  0.4875  0.0010  0.0000 </r>
       </set>
       <set comment="band 23">
        <r>  0.8923  0.0000  0.0000  0.0000  0.0000  0.0197  0.0012  0.0197  0.0000 </r>
        <r>  4.6008  0.0000  0.0000  0.0000  0.0000  0.0038  0.0063  0.0038  0.0000 </r>
       </set>
       <set comment="band 24">
        <r>  4.6008  0.0000  0.0000  0.0000  0.0000  0.0038  0.0063  0.0038  0.0000 </r>
        <r>  0.8923  0.0000  0.0000  0.0000  0.0000  0.0197  0.0012  0.0197  0.0000 </r>
       </set>
       <set comment="band 25">
        <r>  0.0000  0.0061  0.0000  0.0061  0.0153  0.0757  0.0000  0.0757  0.0153 </r>
        <r>  0.0000  0.0788  0.0000  0.0788  0.1990  0.0058  0.0000  0.0058  0.1990 </r>
       </set>
       <set comment="band 26">
        <r>  0.0000  0.0788  0.0000  0.0788  0.1990  0.0058  0.0000  0.0058  0.1990 </r>
        <r>  0.0000  0.0061  0.0000  0.0061  0.0153  0.0757  0.0000  0.0757  0.0153 </r>
       </set>
       <set comment="band 27">
        <r>  0.0000  0.0013  0.0833  0.0013  0.0019  0.0000  0.0000  0.0000  0.0019 </r>
        <r>  0.0000  0.1181  0.0009  0.1181  0.1708  0.0000  0.0000  0.0000  0.1708 </r>
       </set>
       <set comment="band 28">
        <r>  0.0000  0.1181  0.0009  0.1181  0.1708  0.0000  0.0000  0.0000  0.1708 </r>
        <r>  0.0000  0.0013  0.0833  0.0013  0.0019  0.0000  0.0000  0.0000  0.0019 </r>
       </set>
      </set>
     </set>
    </set>
   </array>
  </projected>
 </calculation>
 <structure name="finalpos" >
  <crystal>
   <varray name="basis" >
    <v>       1.20875367      -2.09362277       0.00000000 </v>
    <v>       1.20875367       2.09362277       0.00000000 </v>
    <v>       0.00000000       0.00000000       3.89955367 </v>
   </varray>
   <i name="volume">     19.73699984 </i>
   <varray name="rec_basis" >
    <v>       0.41364921      -0.23882048       0.00000000 </v>
    <v>       0.41364921       0.23882048       0.00000000 </v>
    <v>       0.00000000       0.00000000       0.25643960 </v>
   </varray>
  </crystal>
  <varray name="positions" >
   <v>       0.33333333       0.66666667       0.25000000 </v>
   <v>       0.66666667       0.33333333       0.75000000 </v>
  </varray>
 </structure>
</modeling>
