Pt-hcc                                  
   1.00000000000000     
     2.808032    0.000000    0.000000
    -1.404016    2.431827    0.000000
     0.000000    0.000000    4.864849
   Pt
     2
Direct
  0.000000  0.000000  0.000000
  0.333333  0.666667  0.500000
 
   40   40   72
 0.29082628174E+03 0.29046053944E+03 0.28867978839E+03 0.28369102029E+03 0.27328695566E+03
 0.25574837735E+03 0.23063844214E+03 0.19918598551E+03 0.16410867647E+03 0.12890584050E+03
 0.96928012248E+02 0.70533255808E+02 0.50659738092E+02 0.36852805384E+02 0.27689409681E+02
 0.21455119787E+02 0.17236786135E+02 0.14527445651E+02 0.12884293846E+02 0.12016166391E+02
 0.11743331376E+02 0.12016010581E+02 0.12884617747E+02 0.14526948708E+02 0.17237412376E+02
 0.21454685594E+02 0.27687542644E+02 0.36855876470E+02 0.50658177806E+02 0.70533966434E+02
 0.96927578326E+02 0.12890639927E+03 0.16410818698E+03 0.19918662420E+03 0.23063795261E+03
 0.25574897664E+03 0.27328666499E+03 0.28369103168E+03 0.28867973374E+03 0.29046055602E+03
 0.29046055602E+03 0.29046043238E+03 0.28937945244E+03 0.28595539598E+03 0.27815467518E+03
 0.26398303345E+03 0.24236299331E+03 0.21372707080E+03 0.18012327189E+03 0.14474264067E+03
 0.11108066771E+03 0.82006746747E+02 0.59146461334E+02 0.42664275988E+02 0.31557225898E+02
 0.24117298602E+02 0.19014544708E+02 0.15646135397E+02 0.13535564818E+02 0.12320034811E+02
 0.11768518150E+02 0.11767815710E+02 0.12320779818E+02 0.13534638294E+02 0.15647360695E+02
 0.19012624857E+02 0.24120685148E+02 0.31554766765E+02 0.42664501408E+02 0.59146599162E+02
 0.82006573157E+02 0.11108067383E+03 0.14474250373E+03 0.18012332627E+03 0.21372709864E+03
 0.24236287194E+03 0.26398342089E+03 0.27815444381E+03 0.28595560567E+03 0.28937958586E+03
 0.28867973374E+03 0.28938629945E+03 0.28867964231E+03 0.28595576014E+03 0.27964092730E+03
 0.26783843376E+03 0.24915050267E+03 0.22339730476E+03 0.19193653737E+03 0.15745785734E+03
 0.12330285579E+03 0.92588611519E+02 0.67438097329E+02 0.48611920549E+02 0.35566358097E+02
 0.26863423928E+02 0.20892334485E+02 0.16849528381E+02 0.14248406140E+02 0.12668164823E+02
 0.11830764607E+02 0.11567918298E+02 0.11830548224E+02 0.12668552363E+02 0.14247696529E+02
 0.16850505821E+02 0.20891145973E+02 0.26862793530E+02 0.35568633250E+02 0.48610022750E+02
 0.67439848501E+02 0.92587238490E+02 0.12330388961E+03 0.15745715048E+03 0.19193688456E+03
 0.22339730755E+03 0.24915055491E+03 0.26783859366E+03 0.27964168575E+03 0.28595560567E+03
 0.28369103168E+03 0.28597303266E+03 0.28597299822E+03 0.28369089673E+03 0.27815427633E+03
 0.26783875559E+03 0.25135928268E+03 0.22819145291E+03 0.19912552939E+03 0.16629089267E+03
 0.13267847317E+03 0.10138834890E+03 0.74829352810E+02 0.54228840959E+02 0.39500142270E+02
 0.29555891637E+02 0.22772382269E+02 0.18090260072E+02 0.14998359875E+02 0.13051138775E+02
 0.11926515664E+02 0.11413212520E+02 0.11413210523E+02 0.11926500731E+02 0.13051032066E+02
 0.14998590956E+02 0.18089581493E+02 0.22774727508E+02 0.29553072541E+02 0.39502223551E+02
 0.54227269614E+02 0.74830143088E+02 0.10138778458E+03 0.13267864772E+03 0.16629082628E+03
 0.19912551570E+03 0.22819177827E+03 0.25135941327E+03 0.26783859366E+03 0.27815444381E+03
 0.27328666499E+03 0.27818217588E+03 0.27967927939E+03 0.27818184299E+03 0.27328641197E+03
 0.26398330888E+03 0.24915042908E+03 0.22819128718E+03 0.20153340981E+03 0.17080263119E+03
 0.13855467178E+03 0.10767673201E+03 0.80653048855E+02 0.59006790638E+02 0.43050481522E+02
 0.32042333318E+02 0.24543213353E+02 0.19301076330E+02 0.15751602856E+02 0.13452310253E+02
 0.12049774457E+02 0.11298710354E+02 0.11064458085E+02 0.11298515115E+02 0.12050124140E+02
 0.13451613604E+02 0.15752680982E+02 0.19299015948E+02 0.24545136772E+02 0.32041350894E+02
 0.43050989630E+02 0.59006859807E+02 0.80652953498E+02 0.10767691978E+03 0.13855421543E+03
 0.17080315617E+03 0.20153263675E+03 0.22819177827E+03 0.24915055491E+03 0.26398342089E+03
 0.25574897664E+03 0.26401465836E+03 0.26789110654E+03 0.26789094628E+03 0.26401564047E+03
 0.25574862244E+03 0.24236298229E+03 0.22339715758E+03 0.19912618921E+03 0.17080213456E+03
 0.14055451788E+03 0.11094835667E+03 0.84375169560E+02 0.62486216955E+02 0.45885724257E+02
 0.34146302517E+02 0.26086861882E+02 0.20403855583E+02 0.16464155142E+02 0.13850568252E+02
 0.12189145652E+02 0.11221136885E+02 0.10774959411E+02 0.10775928283E+02 0.11220107451E+02
 0.12190255265E+02 0.13849286103E+02 0.16465878725E+02 0.20402626076E+02 0.26087357189E+02
 0.34146394833E+02 0.45885316295E+02 0.62486666459E+02 0.84374434080E+02 0.11094916214E+03
 0.14055346012E+03 0.17080315617E+03 0.19912551570E+03 0.22339730755E+03 0.24236287194E+03
 0.23063795261E+03 0.24239128321E+03 0.24920441688E+03 0.25142314617E+03 0.24920395984E+03
 0.24239074008E+03 0.23063834752E+03 0.21372737716E+03 0.19193708215E+03 0.16629027210E+03
 0.13855529287E+03 0.11094814317E+03 0.85654493341E+02 0.64318417184E+02 0.47717339204E+02
 0.35679724991E+02 0.27289891759E+02 0.21317500146E+02 0.17088980070E+02 0.14217415395E+02
 0.12333921696E+02 0.11171833121E+02 0.10541079898E+02 0.10343268878E+02 0.10541178642E+02
 0.11171606994E+02 0.12334238811E+02 0.14216819370E+02 0.17089143080E+02 0.21317921975E+02
 0.27289084860E+02 0.35680625613E+02 0.47716501491E+02 0.64319294666E+02 0.85653589184E+02
 0.11094916214E+03 0.13855421543E+03 0.16629082628E+03 0.19193688456E+03 0.21372709864E+03
 0.19918662420E+03 0.21374301984E+03 0.22343530583E+03 0.22824455227E+03 0.22824511174E+03
 0.22343555172E+03 0.21374393462E+03 0.19918623740E+03 0.18012322943E+03 0.15745719269E+03
 0.13267956080E+03 0.10767577546E+03 0.84375699247E+02 0.64318258753E+02 0.48350905264E+02
 0.36489644220E+02 0.28056273366E+02 0.21971419390E+02 0.17577577315E+02 0.14525015742E+02
 0.12468832784E+02 0.11144451063E+02 0.10356743404E+02 0.99912960968E+01 0.99910026980E+01
 0.10357065464E+02 0.11144166056E+02 0.12469250146E+02 0.14525009024E+02 0.17577105516E+02
 0.21972176933E+02 0.28055568340E+02 0.36490396587E+02 0.48350164925E+02 0.64319294666E+02
 0.84374434080E+02 0.10767691978E+03 0.13267864772E+03 0.15745715048E+03 0.18012332627E+03
 0.16410818698E+03 0.18012164161E+03 0.19194646389E+03 0.19914783792E+03 0.20156100452E+03
 0.19914787683E+03 0.19194624581E+03 0.18012124948E+03 0.16410876539E+03 0.14474313453E+03
 0.12330355186E+03 0.10138706177E+03 0.80653906616E+02 0.62485451205E+02 0.47717547162E+02
 0.36489660538E+02 0.28319475754E+02 0.22312865217E+02 0.17888716045E+02 0.14747660200E+02
 0.12578315540E+02 0.11132538302E+02 0.10216947216E+02 0.97141568996E+01 0.95521399744E+01
 0.97141577013E+01 0.10216957026E+02 0.11132470793E+02 0.12578086539E+02 0.14748202088E+02
 0.17887908838E+02 0.22313477078E+02 0.28318699221E+02 0.36490396587E+02 0.47716501491E+02
 0.62486666459E+02 0.80652953498E+02 0.10138778458E+03 0.12330388961E+03 0.14474250373E+03
 0.12890639927E+03 0.14472211388E+03 0.15743085663E+03 0.16626762663E+03 0.17078408058E+03
 0.17078375052E+03 0.16626761255E+03 0.15743113542E+03 0.14472280166E+03 0.12890589073E+03
 0.11108013678E+03 0.92587779759E+02 0.74830949665E+02 0.59005507880E+02 0.45886633380E+02
 0.35679317678E+02 0.28056352800E+02 0.22312707877E+02 0.17995854345E+02 0.14864221286E+02
 0.12650331560E+02 0.11128438624E+02 0.10119839884E+02 0.95066663696E+01 0.92162477782E+01
 0.92161851922E+01 0.95067802453E+01 0.10119829665E+02 0.11128728153E+02 0.12649794239E+02
 0.14864935726E+02 0.17995237017E+02 0.22313477078E+02 0.28055568340E+02 0.35680625613E+02
 0.45885316295E+02 0.59006859807E+02 0.74830143088E+02 0.92587238490E+02 0.11108067383E+03
 0.96927578326E+02 0.11104347830E+03 0.12324403354E+03 0.13260745110E+03 0.13848029398E+03
 0.14047888035E+03 0.13848075116E+03 0.13260791416E+03 0.12324362254E+03 0.11104286350E+03
 0.96927845468E+02 0.82007380913E+02 0.67438530828E+02 0.54226837032E+02 0.43052111530E+02
 0.34144918544E+02 0.27290613327E+02 0.21971256007E+02 0.17888864114E+02 0.14864369017E+02
 0.12675069249E+02 0.11128238427E+02 0.10061847185E+02 0.93691140875E+01 0.89763875662E+01
 0.88505687440E+01 0.89763483146E+01 0.93691715726E+01 0.10061607222E+02 0.11128725482E+02
 0.12674331354E+02 0.14864935726E+02 0.17887908838E+02 0.21972176933E+02 0.27289084860E+02
 0.34146394833E+02 0.43050989630E+02 0.54227269614E+02 0.67439848501E+02 0.82006573157E+02
 0.70533966434E+02 0.81960315998E+02 0.92502722935E+02 0.10127762322E+03 0.10755148207E+03
 0.11081720916E+03 0.11081680912E+03 0.10755080152E+03 0.10127685533E+03 0.92503370405E+02
 0.81961016833E+02 0.70533665157E+02 0.59145329893E+02 0.48611632975E+02 0.39502031526E+02
 0.32040424534E+02 0.26088684423E+02 0.21316294161E+02 0.17578233428E+02 0.14747049812E+02
 0.12650590158E+02 0.11127773357E+02 0.10043258010E+02 0.92995318549E+01 0.88332419205E+01
 0.86076412905E+01 0.86080579953E+01 0.88328737624E+01 0.93000791638E+01 0.10042569832E+02
 0.11128725482E+02 0.12649794239E+02 0.14748202088E+02 0.17577105516E+02 0.21317921975E+02
 0.26087357189E+02 0.32041350894E+02 0.39502223551E+02 0.48610022750E+02 0.59146599162E+02
 0.50658177806E+02 0.59096194678E+02 0.67343089360E+02 0.74695806269E+02 0.80492119465E+02
 0.84198477953E+02 0.85472976056E+02 0.84199141640E+02 0.80492985836E+02 0.74696473608E+02
 0.67341837094E+02 0.59094966694E+02 0.50658440466E+02 0.42666455159E+02 0.35565708829E+02
 0.29554358946E+02 0.24545212520E+02 0.20401847794E+02 0.17090462470E+02 0.14524179374E+02
 0.12579069875E+02 0.11128179146E+02 0.10062307436E+02 0.92996630750E+01 0.87850451556E+01
 0.84870341524E+01 0.83888618599E+01 0.84870955595E+01 0.87848369498E+01 0.93000791638E+01
 0.10061607222E+02 0.11128728153E+02 0.12578086539E+02 0.14525009024E+02 0.17089143080E+02
 0.20402626076E+02 0.24545136772E+02 0.29553072541E+02 0.35568633250E+02 0.42664501408E+02
 0.36855876470E+02 0.42617211472E+02 0.48515295263E+02 0.54088394499E+02 0.58832906617E+02
 0.62288239656E+02 0.64108710914E+02 0.64108151752E+02 0.62287372622E+02 0.58831526902E+02
 0.54088033994E+02 0.48516810842E+02 0.42619211813E+02 0.36853579196E+02 0.31553756497E+02
 0.26866116158E+02 0.22772270721E+02 0.19300211473E+02 0.16465714078E+02 0.14216141123E+02
 0.12469616803E+02 0.11131722342E+02 0.10120176231E+02 0.93685149257E+01 0.88332664756E+01
 0.84867864547E+01 0.83165866664E+01 0.83163263781E+01 0.84870955595E+01 0.88328737624E+01
 0.93691715726E+01 0.10119829665E+02 0.11132470793E+02 0.12469250146E+02 0.14216819370E+02
 0.16465878725E+02 0.19299015948E+02 0.22774727508E+02 0.26862793530E+02 0.31554766765E+02
 0.27687542644E+02 0.31514635007E+02 0.35483849818E+02 0.39372356637E+02 0.42882222421E+02
 0.45686448817E+02 0.47499289495E+02 0.48126551229E+02 0.47499996292E+02 0.45687660239E+02
 0.42883435650E+02 0.39372207284E+02 0.35481006273E+02 0.31513621353E+02 0.27691348493E+02
 0.24119266382E+02 0.20889725186E+02 0.18091405695E+02 0.15751457247E+02 0.13849789713E+02
 0.12334627292E+02 0.11144105999E+02 0.10217463387E+02 0.95066899485E+01 0.89767743721E+01
 0.86079312023E+01 0.83889053680E+01 0.83165866664E+01 0.83888618599E+01 0.86080579953E+01
 0.89763483146E+01 0.95067802453E+01 0.10216957026E+02 0.11144166056E+02 0.12334238811E+02
 0.13849286103E+02 0.15752680982E+02 0.18089581493E+02 0.20891145973E+02 0.24120685148E+02
 0.21454685594E+02 0.24088678594E+02 0.26792595417E+02 0.29442926375E+02 0.31895002646E+02
 0.33968495157E+02 0.35479845093E+02 0.36277485495E+02 0.36277245241E+02 0.35478765192E+02
 0.33967020322E+02 0.31894071629E+02 0.29444239913E+02 0.26795918198E+02 0.24087276649E+02
 0.21452528659E+02 0.19014435517E+02 0.16850992518E+02 0.14997717802E+02 0.13452498335E+02
 0.12189877374E+02 0.11171099011E+02 0.10357131441E+02 0.97135252227E+01 0.92163532231E+01
 0.88500022049E+01 0.86079312023E+01 0.84867864547E+01 0.84870341524E+01 0.86076412905E+01
 0.88505687440E+01 0.92161851922E+01 0.97141577013E+01 0.10357065464E+02 0.11171606994E+02
 0.12190255265E+02 0.13451613604E+02 0.14998590956E+02 0.16850505821E+02 0.19012624857E+02
 0.17237412376E+02 0.18987894197E+02 0.20836621565E+02 0.22687379433E+02 0.24426447717E+02
 0.25937877282E+02 0.27114900152E+02 0.27865717842E+02 0.28124013649E+02 0.27866261235E+02
 0.27116319875E+02 0.25939307595E+02 0.24426564420E+02 0.22684966601E+02 0.20835227425E+02
 0.18989704240E+02 0.17238512234E+02 0.15646296519E+02 0.14247368889E+02 0.13051678791E+02
 0.12049300929E+02 0.11220614354E+02 0.10541556639E+02 0.99911714282E+01 0.95526250636E+01
 0.92163532231E+01 0.89767743721E+01 0.88332664756E+01 0.87850451556E+01 0.88332419205E+01
 0.89763875662E+01 0.92162477782E+01 0.95521399744E+01 0.99910026980E+01 0.10541178642E+02
 0.11220107451E+02 0.12050124140E+02 0.13051032066E+02 0.14247696529E+02 0.15647360695E+02
 0.14526948708E+02 0.15628977932E+02 0.16809630173E+02 0.18023438837E+02 0.19206723630E+02
 0.20284694268E+02 0.21178599040E+02 0.21817958844E+02 0.22151633697E+02 0.22151301378E+02
 0.21817119369E+02 0.21177068948E+02 0.20283787535E+02 0.19207980354E+02 0.18025191078E+02
 0.16810128910E+02 0.15627867133E+02 0.14526163604E+02 0.13535553143E+02 0.12668777659E+02
 0.11926244913E+02 0.11299092262E+02 0.10775502570E+02 0.10342719625E+02 0.99911714282E+01
 0.97135252227E+01 0.95066899485E+01 0.93685149257E+01 0.92996630750E+01 0.92995318549E+01
 0.93691140875E+01 0.95066663696E+01 0.97141568996E+01 0.99912960968E+01 0.10343268878E+02
 0.10775928283E+02 0.11298515115E+02 0.11926500731E+02 0.12668552363E+02 0.13534638294E+02
 0.12884617747E+02 0.13520801688E+02 0.14217327081E+02 0.14949460712E+02 0.15683896147E+02
 0.16377530070E+02 0.16984167136E+02 0.17458681968E+02 0.17760826276E+02 0.17864925925E+02
 0.17761472568E+02 0.17459672303E+02 0.16985535351E+02 0.16377398821E+02 0.15682666045E+02
 0.14948586183E+02 0.14216980224E+02 0.13521725773E+02 0.12885207289E+02 0.12320203560E+02
 0.11830164800E+02 0.11413318072E+02 0.11063832666E+02 0.10775502570E+02 0.10541556639E+02
 0.10357131441E+02 0.10217463387E+02 0.10120176231E+02 0.10062307436E+02 0.10043258010E+02
 0.10061847185E+02 0.10119839884E+02 0.10216947216E+02 0.10356743404E+02 0.10541079898E+02
 0.10774959411E+02 0.11064458085E+02 0.11413210523E+02 0.11830548224E+02 0.12320779818E+02
 0.12016010581E+02 0.12309943436E+02 0.12645459297E+02 0.13014631143E+02 0.13401256534E+02
 0.13785240975E+02 0.14140253847E+02 0.14437564970E+02 0.14652829545E+02 0.14765546860E+02
 0.14765264246E+02 0.14651997330E+02 0.14436641544E+02 0.14139610246E+02 0.13785651739E+02
 0.13402148222E+02 0.13015191785E+02 0.12645659075E+02 0.12309323219E+02 0.12015294957E+02
 0.11768233945E+02 0.11568216867E+02 0.11413318072E+02 0.11299092262E+02 0.11220614354E+02
 0.11171099011E+02 0.11144105999E+02 0.11131722342E+02 0.11128179146E+02 0.11127773357E+02
 0.11128238427E+02 0.11128438624E+02 0.11132538302E+02 0.11144451063E+02 0.11171833121E+02
 0.11221136885E+02 0.11298710354E+02 0.11413212520E+02 0.11567918298E+02 0.11767815710E+02
 0.11743331376E+02 0.11758339849E+02 0.11811624854E+02 0.11898086320E+02 0.12012477338E+02
 0.12143700648E+02 0.12279792233E+02 0.12407904081E+02 0.12512173750E+02 0.12580860462E+02
 0.12604929705E+02 0.12581305224E+02 0.12513057310E+02 0.12408274497E+02 0.12280184218E+02
 0.12143332134E+02 0.12011631977E+02 0.11897832129E+02 0.11811232996E+02 0.11758774291E+02
 0.11743922215E+02 0.11768233945E+02 0.11830164800E+02 0.11926244913E+02 0.12049300929E+02
 0.12189877374E+02 0.12334627292E+02 0.12469616803E+02 0.12579069875E+02 0.12650590158E+02
 0.12675069249E+02 0.12650331560E+02 0.12578315540E+02 0.12468832784E+02 0.12333921696E+02
 0.12189145652E+02 0.12049774457E+02 0.11926515664E+02 0.11830764607E+02 0.11768518150E+02
 0.12016166391E+02 0.11759077451E+02 0.11550333193E+02 0.11388745379E+02 0.11268159958E+02
 0.11184972897E+02 0.11132530100E+02 0.11102194106E+02 0.11088292503E+02 0.11083088329E+02
 0.11081841148E+02 0.11081692675E+02 0.11082552394E+02 0.11087768494E+02 0.11102062994E+02
 0.11132076493E+02 0.11185396342E+02 0.11268748840E+02 0.11388798400E+02 0.11550643174E+02
 0.11758774291E+02 0.12015294957E+02 0.12320203560E+02 0.12668777659E+02 0.13051678791E+02
 0.13452498335E+02 0.13849789713E+02 0.14216141123E+02 0.14524179374E+02 0.14747049812E+02
 0.14864369017E+02 0.14864221286E+02 0.14747660200E+02 0.14525015742E+02 0.14217415395E+02
 0.13850568252E+02 0.13452310253E+02 0.13051138775E+02 0.12668164823E+02 0.12320034811E+02
 0.12884293846E+02 0.12309116737E+02 0.11811808118E+02 0.11388652471E+02 0.11036492196E+02
 0.10746135691E+02 0.10511047823E+02 0.10327337143E+02 0.10188567953E+02 0.10092422863E+02
 0.10035811586E+02 0.10017158453E+02 0.10036103097E+02 0.10092711266E+02 0.10188950805E+02
 0.10327450095E+02 0.10511415842E+02 0.10745742803E+02 0.11035867199E+02 0.11388798400E+02
 0.11811232996E+02 0.12309323219E+02 0.12885207289E+02 0.13535553143E+02 0.14247368889E+02
 0.14997717802E+02 0.15751457247E+02 0.16465714078E+02 0.17090462470E+02 0.17578233428E+02
 0.17888864114E+02 0.17995854345E+02 0.17888716045E+02 0.17577577315E+02 0.17088980070E+02
 0.16464155142E+02 0.15751602856E+02 0.14998359875E+02 0.14248406140E+02 0.13535564818E+02
 0.14527445651E+02 0.13521753976E+02 0.12645000905E+02 0.11898119679E+02 0.11268304059E+02
 0.10745264313E+02 0.10315947792E+02 0.99674545487E+01 0.96944672721E+01 0.94911873143E+01
 0.93561818304E+01 0.92887803433E+01 0.92885992357E+01 0.93560994570E+01 0.94910637470E+01
 0.96940739693E+01 0.99675125572E+01 0.10315474263E+02 0.10745742803E+02 0.11268748840E+02
 0.11897832129E+02 0.12645659075E+02 0.13521725773E+02 0.14526163604E+02 0.15646296519E+02
 0.16850992518E+02 0.18091405695E+02 0.19300211473E+02 0.20401847794E+02 0.21316294161E+02
 0.21971256007E+02 0.22312707877E+02 0.22312865217E+02 0.21971419390E+02 0.21317500146E+02
 0.20403855583E+02 0.19301076330E+02 0.18090260072E+02 0.16849528381E+02 0.15646135397E+02
 0.17236786135E+02 0.15627650443E+02 0.14218004620E+02 0.13014582616E+02 0.12012103304E+02
 0.11185860095E+02 0.10510979906E+02 0.99675571808E+01 0.95358013196E+01 0.92063041326E+01
 0.89726187697E+01 0.88325461139E+01 0.87860381026E+01 0.88326400492E+01 0.89726150495E+01
 0.92065068418E+01 0.95361246200E+01 0.99675125572E+01 0.10511415842E+02 0.11185396342E+02
 0.12011631977E+02 0.13015191785E+02 0.14216980224E+02 0.15627867133E+02 0.17238512234E+02
 0.19014435517E+02 0.20889725186E+02 0.22772270721E+02 0.24545212520E+02 0.26088684423E+02
 0.27290613327E+02 0.28056352800E+02 0.28319475754E+02 0.28056273366E+02 0.27289891759E+02
 0.26086861882E+02 0.24543213353E+02 0.22772382269E+02 0.20892334485E+02 0.19014544708E+02
 0.21455119787E+02 0.18989896501E+02 0.16808628992E+02 0.14949277989E+02 0.13401869768E+02
 0.12142675038E+02 0.11132696047E+02 0.10327236593E+02 0.96944590050E+01 0.92065770595E+01
 0.88486067240E+01 0.86124457032E+01 0.84945681872E+01 0.84946534843E+01 0.86124483201E+01
 0.88485833115E+01 0.92065068418E+01 0.96940739693E+01 0.10327450095E+02 0.11132076493E+02
 0.12143332134E+02 0.13402148222E+02 0.14948586183E+02 0.16810128910E+02 0.18989704240E+02
 0.21452528659E+02 0.24119266382E+02 0.26866116158E+02 0.29554358946E+02 0.32040424534E+02
 0.34144918544E+02 0.35679317678E+02 0.36489660538E+02 0.36489644220E+02 0.35679724991E+02
 0.34146302517E+02 0.32042333318E+02 0.29555891637E+02 0.26863423928E+02 0.24117298602E+02
 0.27689409681E+02 0.24085248154E+02 0.20837826941E+02 0.18024004992E+02 0.15682848673E+02
 0.13786374952E+02 0.12279561067E+02 0.11102292147E+02 0.10188663775E+02 0.94909207500E+01
 0.89726795437E+01 0.86123251416E+01 0.83993449378E+01 0.83286024546E+01 0.83991757651E+01
 0.86124483201E+01 0.89726150495E+01 0.94910637470E+01 0.10188950805E+02 0.11102062994E+02
 0.12280184218E+02 0.13785651739E+02 0.15682666045E+02 0.18025191078E+02 0.20835227425E+02
 0.24087276649E+02 0.27691348493E+02 0.31553756497E+02 0.35565708829E+02 0.39502031526E+02
 0.43052111530E+02 0.45886633380E+02 0.47717547162E+02 0.48350905264E+02 0.47717339204E+02
 0.45885724257E+02 0.43050481522E+02 0.39500142270E+02 0.35566358097E+02 0.31557225898E+02
 0.36852805384E+02 0.31517199312E+02 0.26793244309E+02 0.22685241651E+02 0.19208762788E+02
 0.16375954651E+02 0.14140724230E+02 0.12407719380E+02 0.11088290738E+02 0.10092669943E+02
 0.93561765176E+01 0.88326344682E+01 0.84946355742E+01 0.83284185895E+01 0.83286024546E+01
 0.84946534843E+01 0.88326400492E+01 0.93560994570E+01 0.10092711266E+02 0.11087768494E+02
 0.12408274497E+02 0.14139610246E+02 0.16377398821E+02 0.19207980354E+02 0.22684966601E+02
 0.26795918198E+02 0.31513621353E+02 0.36853579196E+02 0.42666455159E+02 0.48611632975E+02
 0.54226837032E+02 0.59005507880E+02 0.62485451205E+02 0.64318258753E+02 0.64318417184E+02
 0.62486216955E+02 0.59006790638E+02 0.54228840959E+02 0.48611920549E+02 0.42664275988E+02
 0.50659738092E+02 0.42616970736E+02 0.35481661782E+02 0.29445691630E+02 0.24424606681E+02
 0.20285758115E+02 0.16984202759E+02 0.14437271064E+02 0.12512606611E+02 0.11082541658E+02
 0.10036164967E+02 0.92884818896E+01 0.87861762451E+01 0.84946355742E+01 0.83993449378E+01
 0.84945681872E+01 0.87860381026E+01 0.92885992357E+01 0.10036103097E+02 0.11082552394E+02
 0.12513057310E+02 0.14436641544E+02 0.16985535351E+02 0.20283787535E+02 0.24426564420E+02
 0.29444239913E+02 0.35481006273E+02 0.42619211813E+02 0.50658440466E+02 0.59145329893E+02
 0.67438530828E+02 0.74830949665E+02 0.80653906616E+02 0.84375699247E+02 0.85654493341E+02
 0.84375169560E+02 0.80653048855E+02 0.74829352810E+02 0.67438097329E+02 0.59146461334E+02
 0.70533255808E+02 0.59096123805E+02 0.48517100608E+02 0.39370520371E+02 0.31895935114E+02
 0.25937760036E+02 0.21177909135E+02 0.17459459514E+02 0.14652023337E+02 0.12581653910E+02
 0.11081335684E+02 0.10017560661E+02 0.92884818896E+01 0.88326344682E+01 0.86123251416E+01
 0.86124457032E+01 0.88325461139E+01 0.92887803433E+01 0.10017158453E+02 0.11081692675E+02
 0.12581305224E+02 0.14651997330E+02 0.17459672303E+02 0.21177068948E+02 0.25939307595E+02
 0.31894071629E+02 0.39372207284E+02 0.48516810842E+02 0.59094966694E+02 0.70533665157E+02
 0.82007380913E+02 0.92587779759E+02 0.10138706177E+03 0.10767577546E+03 0.11094814317E+03
 0.11094835667E+03 0.10767673201E+03 0.10138834890E+03 0.92588611519E+02 0.82006746747E+02
 0.96928012248E+02 0.81960240703E+02 0.67341550486E+02 0.54089795546E+02 0.42881923934E+02
 0.33968126306E+02 0.27115911768E+02 0.21816932457E+02 0.17761717962E+02 0.14764660058E+02
 0.12605466284E+02 0.11081335684E+02 0.10036164967E+02 0.93561765176E+01 0.89726795437E+01
 0.88486067240E+01 0.89726187697E+01 0.93561818304E+01 0.10035811586E+02 0.11081841148E+02
 0.12604929705E+02 0.14765264246E+02 0.17761472568E+02 0.21817119369E+02 0.27116319875E+02
 0.33967020322E+02 0.42883435650E+02 0.54088033994E+02 0.67341837094E+02 0.81961016833E+02
 0.96927845468E+02 0.11108013678E+03 0.12330355186E+03 0.13267956080E+03 0.13855529287E+03
 0.14055451788E+03 0.13855467178E+03 0.13267847317E+03 0.12330285579E+03 0.11108066771E+03
 0.12890584050E+03 0.11104365652E+03 0.92503921755E+02 0.74695083415E+02 0.58832569686E+02
 0.45687285210E+02 0.35478670899E+02 0.27866833131E+02 0.22150623659E+02 0.17865791366E+02
 0.14764660058E+02 0.12581653910E+02 0.11082541658E+02 0.10092669943E+02 0.94909207500E+01
 0.92065770595E+01 0.92063041326E+01 0.94911873143E+01 0.10092422863E+02 0.11083088329E+02
 0.12580860462E+02 0.14765546860E+02 0.17864925925E+02 0.22151301378E+02 0.27866261235E+02
 0.35478765192E+02 0.45687660239E+02 0.58831526902E+02 0.74696473608E+02 0.92503370405E+02
 0.11104286350E+03 0.12890589073E+03 0.14474313453E+03 0.15745719269E+03 0.16629027210E+03
 0.17080213456E+03 0.17080263119E+03 0.16629089267E+03 0.15745785734E+03 0.14474264067E+03
 0.16410867647E+03 0.14472198089E+03 0.12324301128E+03 0.10127782036E+03 0.80492516119E+02
 0.62287536260E+02 0.47500292827E+02 0.36276534661E+02 0.28124760778E+02 0.22150623659E+02
 0.17761717962E+02 0.14652023337E+02 0.12512606611E+02 0.11088290738E+02 0.10188663775E+02
 0.96944590050E+01 0.95358013196E+01 0.96944672721E+01 0.10188567953E+02 0.11088292503E+02
 0.12512173750E+02 0.14652829545E+02 0.17760826276E+02 0.22151633697E+02 0.28124013649E+02
 0.36277245241E+02 0.47499996292E+02 0.62287372622E+02 0.80492985836E+02 0.10127685533E+03
 0.12324362254E+03 0.14472280166E+03 0.16410876539E+03 0.18012322943E+03 0.19193708215E+03
 0.19912618921E+03 0.20153340981E+03 0.19912552939E+03 0.19193653737E+03 0.18012327189E+03
 0.19918598551E+03 0.18012186506E+03 0.15743135363E+03 0.13260745003E+03 0.10755103930E+03
 0.84199244684E+02 0.64107638832E+02 0.48127548912E+02 0.36276534661E+02 0.27866833131E+02
 0.21816932457E+02 0.17459459514E+02 0.14437271064E+02 0.12407719380E+02 0.11102292147E+02
 0.10327236593E+02 0.99675571808E+01 0.99674545487E+01 0.10327337143E+02 0.11102194106E+02
 0.12407904081E+02 0.14437564970E+02 0.17458681968E+02 0.21817958844E+02 0.27865717842E+02
 0.36277485495E+02 0.48126551229E+02 0.64108151752E+02 0.84199141640E+02 0.10755080152E+03
 0.13260791416E+03 0.15743113542E+03 0.18012124948E+03 0.19918623740E+03 0.21372737716E+03
 0.22339715758E+03 0.22819128718E+03 0.22819145291E+03 0.22339730476E+03 0.21372707080E+03
 0.23063844214E+03 0.21374311246E+03 0.19194588399E+03 0.16626780376E+03 0.13848041736E+03
 0.11081646885E+03 0.85473753379E+02 0.64107638832E+02 0.47500292827E+02 0.35478670899E+02
 0.27115911768E+02 0.21177909135E+02 0.16984202759E+02 0.14140724230E+02 0.12279561067E+02
 0.11132696047E+02 0.10510979906E+02 0.10315947792E+02 0.10511047823E+02 0.11132530100E+02
 0.12279792233E+02 0.14140253847E+02 0.16984167136E+02 0.21178599040E+02 0.27114900152E+02
 0.35479845093E+02 0.47499289495E+02 0.64108710914E+02 0.85472976056E+02 0.11081680912E+03
 0.13848075116E+03 0.16626761255E+03 0.19194624581E+03 0.21374393462E+03 0.23063834752E+03
 0.24236298229E+03 0.24915042908E+03 0.25135928268E+03 0.24915050267E+03 0.24236299331E+03
 0.25574837735E+03 0.24239131517E+03 0.22343566419E+03 0.19914778963E+03 0.17078379478E+03
 0.14047942824E+03 0.11081646885E+03 0.84199244684E+02 0.62287536260E+02 0.45687285210E+02
 0.33968126306E+02 0.25937760036E+02 0.20285758115E+02 0.16375954651E+02 0.13786374952E+02
 0.12142675038E+02 0.11185860095E+02 0.10745264313E+02 0.10746135691E+02 0.11184972897E+02
 0.12143700648E+02 0.13785240975E+02 0.16377530070E+02 0.20284694268E+02 0.25937877282E+02
 0.33968495157E+02 0.45686448817E+02 0.62288239656E+02 0.84198477953E+02 0.11081720916E+03
 0.14047888035E+03 0.17078375052E+03 0.19914787683E+03 0.22343555172E+03 0.24239074008E+03
 0.25574862244E+03 0.26398330888E+03 0.26783875559E+03 0.26783843376E+03 0.26398303345E+03
 0.27328695566E+03 0.26401531932E+03 0.24920394004E+03 0.22824532223E+03 0.20156070924E+03
 0.17078379478E+03 0.13848041736E+03 0.10755103930E+03 0.80492516119E+02 0.58832569686E+02
 0.42881923934E+02 0.31895935114E+02 0.24424606681E+02 0.19208762788E+02 0.15682848673E+02
 0.13401869768E+02 0.12012103304E+02 0.11268304059E+02 0.11036492196E+02 0.11268159958E+02
 0.12012477338E+02 0.13401256534E+02 0.15683896147E+02 0.19206723630E+02 0.24426447717E+02
 0.31895002646E+02 0.42882222421E+02 0.58832906617E+02 0.80492119465E+02 0.10755148207E+03
 0.13848029398E+03 0.17078408058E+03 0.20156100452E+03 0.22824511174E+03 0.24920395984E+03
 0.26401564047E+03 0.27328641197E+03 0.27815427633E+03 0.27964092730E+03 0.27815467518E+03
 0.28369102029E+03 0.27818167837E+03 0.26789167861E+03 0.25142273045E+03 0.22824532223E+03
 0.19914778963E+03 0.16626780376E+03 0.13260745003E+03 0.10127782036E+03 0.74695083415E+02
 0.54089795546E+02 0.39370520371E+02 0.29445691630E+02 0.22685241651E+02 0.18024004992E+02
 0.14949277989E+02 0.13014582616E+02 0.11898119679E+02 0.11388652471E+02 0.11388745379E+02
 0.11898086320E+02 0.13014631143E+02 0.14949460712E+02 0.18023438837E+02 0.22687379433E+02
 0.29442926375E+02 0.39372356637E+02 0.54088394499E+02 0.74695806269E+02 0.10127762322E+03
 0.13260745110E+03 0.16626762663E+03 0.19914783792E+03 0.22824455227E+03 0.25142314617E+03
 0.26789094628E+03 0.27818184299E+03 0.28369089673E+03 0.28595576014E+03 0.28595539598E+03
 0.28867978839E+03 0.28597328840E+03 0.27967947098E+03 0.26789167861E+03 0.24920394004E+03
 0.22343566419E+03 0.19194588399E+03 0.15743135363E+03 0.12324301128E+03 0.92503921755E+02
 0.67341550486E+02 0.48517100608E+02 0.35481661782E+02 0.26793244309E+02 0.20837826941E+02
 0.16808628992E+02 0.14218004620E+02 0.12645000905E+02 0.11811808118E+02 0.11550333193E+02
 0.11811624854E+02 0.12645459297E+02 0.14217327081E+02 0.16809630173E+02 0.20836621565E+02
 0.26792595417E+02 0.35483849818E+02 0.48515295263E+02 0.67343089360E+02 0.92502722935E+02
 0.12324403354E+03 0.15743085663E+03 0.19194646389E+03 0.22343530583E+03 0.24920441688E+03
 0.26789110654E+03 0.27967927939E+03 0.28597299822E+03 0.28867964231E+03 0.28937945244E+03
 0.29046053944E+03 0.28938632118E+03 0.28597328840E+03 0.27818167837E+03 0.26401531932E+03
 0.24239131517E+03 0.21374311246E+03 0.18012186506E+03 0.14472198089E+03 0.11104365652E+03
 0.81960240703E+02 0.59096123805E+02 0.42616970736E+02 0.31517199312E+02 0.24085248154E+02
 0.18989896501E+02 0.15627650443E+02 0.13521753976E+02 0.12309116737E+02 0.11759077451E+02
 0.11758339849E+02 0.12309943436E+02 0.13520801688E+02 0.15628977932E+02 0.18987894197E+02
 0.24088678594E+02 0.31514635007E+02 0.42617211472E+02 0.59096194678E+02 0.81960315998E+02
 0.11104347830E+03 0.14472211388E+03 0.18012164161E+03 0.21374301984E+03 0.24239128321E+03
 0.26401465836E+03 0.27818217588E+03 0.28597303266E+03 0.28938629945E+03 0.29046043238E+03
 0.29065733500E+03 0.29021157595E+03 0.28820597375E+03 0.28289132369E+03 0.27212650462E+03
 0.25426627857E+03 0.22893965663E+03 0.19741849873E+03 0.16242766682E+03 0.12744003204E+03
 0.95754448150E+02 0.69669356078E+02 0.50071573748E+02 0.36473463112E+02 0.27439852421E+02
 0.21279128259E+02 0.17110747514E+02 0.14432499465E+02 0.12807854185E+02 0.11948626196E+02
 0.11678887956E+02 0.11948454864E+02 0.12808214148E+02 0.14431933783E+02 0.17111506484E+02
 0.21278344679E+02 0.27438335080E+02 0.36476535583E+02 0.50069927096E+02 0.69670050037E+02