   2   2   1   0
  0.1661017E+02  0.2808032E-09  0.2808032E-09  0.4864849E-09  0.5000000E-15
  1.000000000000000E-004
  CAR 
 Pt-hcc                                  
     34.33657956    -46.03976026  301     10.20516844      1.00000000
    -46.040  0.0000E+00  0.0000E+00
    -45.772  0.0000E+00  0.0000E+00
    -45.504  0.0000E+00  0.0000E+00
    -45.236  0.0000E+00  0.0000E+00
    -44.968  0.0000E+00  0.0000E+00
    -44.700  0.0000E+00  0.0000E+00
    -44.432  0.0000E+00  0.0000E+00
    -44.164  0.0000E+00  0.0000E+00
    -43.896  0.0000E+00  0.0000E+00
    -43.628  0.0000E+00  0.0000E+00
    -43.361  0.0000E+00  0.0000E+00
    -43.093  0.0000E+00  0.0000E+00
    -42.825  0.0000E+00  0.0000E+00
    -42.557  0.1947E-08  0.5217E-09
    -42.289  0.8064E-01  0.2160E-01
    -42.021  0.2809E+00  0.9688E-01
    -41.753  0.8631E-01  0.1200E+00
    -41.485  0.0000E+00  0.1200E+00
    -41.217  0.0000E+00  0.1200E+00
    -40.949  0.0000E+00  0.1200E+00
    -40.681  0.0000E+00  0.1200E+00
    -40.413  0.0000E+00  0.1200E+00
    -40.145  0.0000E+00  0.1200E+00
    -39.878  0.0000E+00  0.1200E+00
    -39.610  0.0000E+00  0.1200E+00
    -39.342  0.0000E+00  0.1200E+00
    -39.074  0.0000E+00  0.1200E+00
    -38.806  0.0000E+00  0.1200E+00
    -38.538  0.0000E+00  0.1200E+00
    -38.270  0.0000E+00  0.1200E+00
    -38.002  0.0000E+00  0.1200E+00
    -37.734  0.0000E+00  0.1200E+00
    -37.466  0.0000E+00  0.1200E+00
    -37.198  0.0000E+00  0.1200E+00
    -36.930  0.0000E+00  0.1200E+00
    -36.663  0.0000E+00  0.1200E+00
    -36.395  0.0000E+00  0.1200E+00
    -36.127  0.0000E+00  0.1200E+00
    -35.859  0.0000E+00  0.1200E+00
    -35.591  0.0000E+00  0.1200E+00
    -35.323  0.0000E+00  0.1200E+00
    -35.055  0.0000E+00  0.1200E+00
    -34.787  0.0000E+00  0.1200E+00
    -34.519  0.0000E+00  0.1200E+00
    -34.251  0.0000E+00  0.1200E+00
    -33.983  0.0000E+00  0.1200E+00
    -33.715  0.0000E+00  0.1200E+00
    -33.447  0.0000E+00  0.1200E+00
    -33.180  0.0000E+00  0.1200E+00
    -32.912  0.0000E+00  0.1200E+00
    -32.644  0.0000E+00  0.1200E+00
    -32.376  0.0000E+00  0.1200E+00
    -32.108  0.0000E+00  0.1200E+00
    -31.840  0.0000E+00  0.1200E+00
    -31.572  0.0000E+00  0.1200E+00
    -31.304  0.0000E+00  0.1200E+00
    -31.036  0.0000E+00  0.1200E+00
    -30.768  0.0000E+00  0.1200E+00
    -30.500  0.0000E+00  0.1200E+00
    -30.232  0.0000E+00  0.1200E+00
    -29.964  0.0000E+00  0.1200E+00
    -29.697  0.0000E+00  0.1200E+00
    -29.429  0.0000E+00  0.1200E+00
    -29.161  0.0000E+00  0.1200E+00
    -28.893  0.0000E+00  0.1200E+00
    -28.625  0.0000E+00  0.1200E+00
    -28.357  0.0000E+00  0.1200E+00
    -28.089  0.0000E+00  0.1200E+00
    -27.821  0.0000E+00  0.1200E+00
    -27.553  0.0000E+00  0.1200E+00
    -27.285  0.0000E+00  0.1200E+00
    -27.017  0.0000E+00  0.1200E+00
    -26.749  0.0000E+00  0.1200E+00
    -26.482  0.0000E+00  0.1200E+00
    -26.214  0.0000E+00  0.1200E+00
    -25.946  0.0000E+00  0.1200E+00
    -25.678  0.0000E+00  0.1200E+00
    -25.410  0.0000E+00  0.1200E+00
    -25.142  0.0000E+00  0.1200E+00
    -24.874  0.0000E+00  0.1200E+00
    -24.606  0.0000E+00  0.1200E+00
    -24.338  0.0000E+00  0.1200E+00
    -24.070  0.0000E+00  0.1200E+00
    -23.802  0.0000E+00  0.1200E+00
    -23.534  0.0000E+00  0.1200E+00
    -23.266  0.0000E+00  0.1200E+00
    -22.999  0.0000E+00  0.1200E+00
    -22.731  0.0000E+00  0.1200E+00
    -22.463  0.0000E+00  0.1200E+00
    -22.195  0.0000E+00  0.1200E+00
    -21.927  0.0000E+00  0.1200E+00
    -21.659  0.0000E+00  0.1200E+00
    -21.391  0.0000E+00  0.1200E+00
    -21.123  0.0000E+00  0.1200E+00
    -20.855  0.0000E+00  0.1200E+00
    -20.587  0.0000E+00  0.1200E+00
    -20.319  0.0000E+00  0.1200E+00
    -20.051  0.0000E+00  0.1200E+00
    -19.783  0.0000E+00  0.1200E+00
    -19.516  0.0000E+00  0.1200E+00
    -19.248  0.0000E+00  0.1200E+00
    -18.980  0.0000E+00  0.1200E+00
    -18.712  0.0000E+00  0.1200E+00
    -18.444  0.0000E+00  0.1200E+00
    -18.176  0.0000E+00  0.1200E+00
    -17.908  0.0000E+00  0.1200E+00
    -17.640  0.0000E+00  0.1200E+00
    -17.372  0.0000E+00  0.1200E+00
    -17.104  0.0000E+00  0.1200E+00
    -16.836  0.0000E+00  0.1200E+00
    -16.568  0.0000E+00  0.1200E+00
    -16.301  0.0000E+00  0.1200E+00
    -16.033  0.0000E+00  0.1200E+00
    -15.765  0.0000E+00  0.1200E+00
    -15.497  0.0000E+00  0.1200E+00
    -15.229  0.0000E+00  0.1200E+00
    -14.961  0.0000E+00  0.1200E+00
    -14.693  0.0000E+00  0.1200E+00
    -14.425  0.0000E+00  0.1200E+00
    -14.157  0.0000E+00  0.1200E+00
    -13.889  0.0000E+00  0.1200E+00
    -13.621  0.0000E+00  0.1200E+00
    -13.353  0.0000E+00  0.1200E+00
    -13.085  0.0000E+00  0.1200E+00
    -12.818  0.0000E+00  0.1200E+00
    -12.550  0.0000E+00  0.1200E+00
    -12.282  0.0000E+00  0.1200E+00
    -12.014  0.0000E+00  0.1200E+00
    -11.746  0.0000E+00  0.1200E+00
    -11.478  0.0000E+00  0.1200E+00
    -11.210  0.0000E+00  0.1200E+00
    -10.942  0.0000E+00  0.1200E+00
    -10.674  0.0000E+00  0.1200E+00
    -10.406  0.0000E+00  0.1200E+00
    -10.138  0.0000E+00  0.1200E+00
     -9.870  0.0000E+00  0.1200E+00
     -9.602  0.0000E+00  0.1200E+00
     -9.335  0.0000E+00  0.1200E+00
     -9.067  0.0000E+00  0.1200E+00
     -8.799  0.0000E+00  0.1200E+00
     -8.531  0.0000E+00  0.1200E+00
     -8.263  0.0000E+00  0.1200E+00
     -7.995  0.0000E+00  0.1200E+00
     -7.727  0.0000E+00  0.1200E+00
     -7.459  0.0000E+00  0.1200E+00
     -7.191  0.0000E+00  0.1200E+00
     -6.923  0.0000E+00  0.1200E+00
     -6.655  0.0000E+00  0.1200E+00
     -6.387  0.0000E+00  0.1200E+00
     -6.120  0.0000E+00  0.1200E+00
     -5.852  0.0000E+00  0.1200E+00
     -5.584  0.0000E+00  0.1200E+00
     -5.316  0.0000E+00  0.1200E+00
     -5.048  0.0000E+00  0.1200E+00
     -4.780  0.0000E+00  0.1200E+00
     -4.512  0.0000E+00  0.1200E+00
     -4.244  0.0000E+00  0.1200E+00
     -3.976  0.0000E+00  0.1200E+00
     -3.708  0.0000E+00  0.1200E+00
     -3.440  0.0000E+00  0.1200E+00
     -3.172  0.0000E+00  0.1200E+00
     -2.904  0.0000E+00  0.1200E+00
     -2.637  0.0000E+00  0.1200E+00
     -2.369  0.0000E+00  0.1200E+00
     -2.101  0.0000E+00  0.1200E+00
     -1.833  0.0000E+00  0.1200E+00
     -1.565  0.0000E+00  0.1200E+00
     -1.297  0.0000E+00  0.1200E+00
     -1.029  0.0000E+00  0.1200E+00
     -0.761  0.0000E+00  0.1200E+00
     -0.493  0.0000E+00  0.1200E+00
     -0.225  0.0000E+00  0.1200E+00
      0.043  0.0000E+00  0.1200E+00
      0.311  0.0000E+00  0.1200E+00
      0.579  0.0000E+00  0.1200E+00
      0.846  0.1120E-10  0.1200E+00
      1.114  0.1141E-03  0.1200E+00
      1.382  0.5054E-03  0.1202E+00
      1.650  0.1527E-02  0.1206E+00
      1.918  0.1065E-02  0.1209E+00
      2.186  0.1806E-02  0.1213E+00
      2.454  0.2780E-02  0.1221E+00
      2.722  0.1619E-02  0.1225E+00
      2.990  0.1378E-02  0.1229E+00
      3.258  0.5395E-02  0.1243E+00
      3.526  0.4051E-02  0.1254E+00
      3.794  0.5034E-02  0.1268E+00
      4.061  0.9021E-02  0.1292E+00
      4.329  0.2046E-01  0.1347E+00
      4.597  0.2462E-01  0.1413E+00
      4.865  0.2303E-01  0.1474E+00
      5.133  0.2186E-01  0.1533E+00
      5.401  0.2357E-01  0.1596E+00
      5.669  0.3711E-01  0.1696E+00
      5.937  0.2994E-01  0.1776E+00
      6.205  0.3467E-01  0.1869E+00
      6.473  0.3007E-01  0.1949E+00
      6.741  0.2886E-01  0.2027E+00
      7.009  0.3839E-01  0.2129E+00
      7.277  0.3825E-01  0.2232E+00
      7.544  0.3583E-01  0.2328E+00
      7.812  0.4438E-01  0.2447E+00
      8.080  0.3362E-01  0.2537E+00
      8.348  0.3078E-01  0.2619E+00
      8.616  0.2380E-01  0.2683E+00
      8.884  0.2519E-01  0.2751E+00
      9.152  0.3241E-01  0.2837E+00
      9.420  0.2556E-01  0.2906E+00
      9.688  0.2729E-01  0.2979E+00
      9.956  0.3501E-01  0.3073E+00
     10.224  0.5047E-01  0.3208E+00
     10.492  0.2902E-01  0.3286E+00
     10.760  0.1902E-01  0.3337E+00
     11.027  0.6823E-02  0.3355E+00
     11.295  0.4584E-02  0.3367E+00
     11.563  0.1304E-02  0.3371E+00
     11.831  0.1260E-02  0.3374E+00
     12.099  0.1155E-01  0.3405E+00
     12.367  0.1145E-01  0.3436E+00
     12.635  0.5502E-02  0.3451E+00
     12.903  0.1304E-02  0.3454E+00
     13.171  0.4197E-02  0.3465E+00
     13.439  0.7630E-02  0.3486E+00
     13.707  0.2246E-02  0.3492E+00
     13.975  0.6270E-02  0.3509E+00
     14.242  0.5988E-02  0.3525E+00
     14.510  0.6601E-02  0.3542E+00
     14.778  0.7610E-02  0.3563E+00
     15.046  0.5520E-02  0.3577E+00
     15.314  0.4342E-02  0.3589E+00
     15.582  0.3226E-02  0.3598E+00
     15.850  0.1176E-02  0.3601E+00
     16.118  0.2754E-02  0.3608E+00
     16.386  0.7950E-02  0.3630E+00
     16.654  0.1366E-01  0.3666E+00
     16.922  0.7512E-02  0.3686E+00
     17.190  0.7650E-02  0.3707E+00
     17.458  0.4592E-02  0.3719E+00
     17.725  0.1132E-01  0.3749E+00
     17.993  0.5906E-02  0.3765E+00
     18.261  0.4844E-02  0.3778E+00
     18.529  0.7835E-02  0.3799E+00
     18.797  0.4367E-02  0.3811E+00
     19.065  0.1420E-01  0.3849E+00
     19.333  0.6680E-02  0.3867E+00
     19.601  0.3583E-02  0.3876E+00
     19.869  0.6731E-02  0.3895E+00
     20.137  0.8090E-02  0.3916E+00
     20.405  0.9810E-02  0.3942E+00
     20.673  0.3515E-02  0.3952E+00
     20.941  0.5124E-02  0.3966E+00
     21.208  0.8947E-02  0.3990E+00
     21.476  0.5718E-02  0.4005E+00
     21.744  0.3418E-02  0.4014E+00
     22.012  0.1058E-01  0.4042E+00
     22.280  0.1104E-01  0.4072E+00
     22.548  0.1146E-01  0.4103E+00
     22.816  0.6913E-02  0.4121E+00
     23.084  0.8614E-02  0.4144E+00
     23.352  0.3571E-02  0.4154E+00
     23.620  0.6330E-02  0.4171E+00
     23.888  0.1367E-01  0.4207E+00
     24.156  0.2143E-01  0.4265E+00
     24.423  0.1579E-01  0.4307E+00
     24.691  0.9879E-02  0.4334E+00
     24.959  0.1856E-01  0.4383E+00
     25.227  0.6647E-02  0.4401E+00
     25.495  0.1347E-01  0.4437E+00
     25.763  0.2166E-01  0.4495E+00
     26.031  0.9669E-02  0.4521E+00
     26.299  0.1793E-01  0.4569E+00
     26.567  0.1097E-01  0.4599E+00
     26.835  0.1386E-01  0.4636E+00
     27.103  0.1229E-01  0.4669E+00
     27.371  0.5279E-02  0.4683E+00
     27.639  0.1143E-01  0.4713E+00
     27.906  0.5189E-02  0.4727E+00
     28.174  0.4890E-02  0.4740E+00
     28.442  0.5938E-02  0.4756E+00
     28.710  0.4973E-02  0.4770E+00
     28.978  0.1986E-02  0.4775E+00
     29.246  0.6235E-02  0.4792E+00
     29.514  0.1516E-02  0.4796E+00
     29.782  0.1194E-03  0.4796E+00
     30.050  0.7006E-03  0.4798E+00
     30.318  0.5171E-03  0.4799E+00
     30.586  0.4333E-04  0.4800E+00
     30.854  0.1861E-03  0.4800E+00
     31.122  0.0000E+00  0.4800E+00
     31.389  0.0000E+00  0.4800E+00
     31.657  0.0000E+00  0.4800E+00
     31.925  0.0000E+00  0.4800E+00
     32.193  0.0000E+00  0.4800E+00
     32.461  0.0000E+00  0.4800E+00
     32.729  0.0000E+00  0.4800E+00
     32.997  0.0000E+00  0.4800E+00
     33.265  0.0000E+00  0.4800E+00
     33.533  0.0000E+00  0.4800E+00
     33.801  0.0000E+00  0.4800E+00
     34.069  0.0000E+00  0.4800E+00
     34.337  0.0000E+00  0.4800E+00
     34.33657956    -46.03976026  301     10.20516844      1.00000000
    -46.040  0.0000E+00  0.0000E+00  0.0000E+00  0.0000E+00  0.0000E+00  0.0000E+00  0.0000E+00  0.0000E+00  0.0000E+00
    -45.772  0.0000E+00  0.0000E+00  0.0000E+00  0.0000E+00  0.0000E+00  0.0000E+00  0.0000E+00  0.0000E+00  0.0000E+00
    -45.504  0.0000E+00  0.0000E+00  0.0000E+00  0.0000E+00  0.0000E+00  0.0000E+00  0.0000E+00  0.0000E+00  0.0000E+00
    -45.236  0.0000E+00  0.0000E+00  0.0000E+00  0.0000E+00  0.0000E+00  0.0000E+00  0.0000E+00  0.0000E+00  0.0000E+00
    -44.968  0.0000E+00  0.0000E+00  0.0000E+00  0.0000E+00  0.0000E+00  0.0000E+00  0.0000E+00  0.0000E+00  0.0000E+00
    -44.700  0.0000E+00  0.0000E+00  0.0000E+00  0.0000E+00  0.0000E+00  0.0000E+00  0.0000E+00  0.0000E+00  0.0000E+00
    -44.432  0.0000E+00  0.0000E+00  0.0000E+00  0.0000E+00  0.0000E+00  0.0000E+00  0.0000E+00  0.0000E+00  0.0000E+00
    -44.164  0.0000E+00  0.0000E+00  0.0000E+00  0.0000E+00  0.0000E+00  0.0000E+00  0.0000E+00  0.0000E+00  0.0000E+00
    -43.896  0.0000E+00  0.0000E+00  0.0000E+00  0.0000E+00  0.0000E+00  0.0000E+00  0.0000E+00  0.0000E+00  0.0000E+00
    -43.628  0.0000E+00  0.0000E+00  0.0000E+00  0.0000E+00  0.0000E+00  0.0000E+00  0.0000E+00  0.0000E+00  0.0000E+00
    -43.361  0.0000E+00  0.0000E+00  0.0000E+00  0.0000E+00  0.0000E+00  0.0000E+00  0.0000E+00  0.0000E+00  0.0000E+00
    -43.093  0.0000E+00  0.0000E+00  0.0000E+00  0.0000E+00  0.0000E+00  0.0000E+00  0.0000E+00  0.0000E+00  0.0000E+00
    -42.825  0.0000E+00  0.0000E+00  0.0000E+00  0.0000E+00  0.0000E+00  0.0000E+00  0.0000E+00  0.0000E+00  0.0000E+00
    -42.557  0.3686E-12  0.4704E-07  0.1759E-08  0.4704E-07  0.1073E-12  0.2519E-13  0.3687E-12  0.2519E-13  0.1073E-12
    -42.289  0.6024E-04  0.1948E+01  0.8004E-01  0.1948E+01  0.2550E-04  0.2078E-05  0.3341E-04  0.2078E-05  0.2550E-04
    -42.021  0.1436E-03  0.5307E+01  0.3312E+01  0.5307E+01  0.1010E-03  0.2934E-04  0.6992E-04  0.2934E-04  0.1010E-03
    -41.753  0.1069E-04  0.1402E+00  0.4003E+01  0.1402E+00  0.1732E-05  0.1285E-04  0.1387E-04  0.1285E-04  0.1732E-05
    -41.485  0.0000E+00  0.0000E+00  0.0000E+00  0.0000E+00  0.0000E+00  0.0000E+00  0.0000E+00  0.0000E+00  0.0000E+00
    -41.217  0.0000E+00  0.0000E+00  0.0000E+00  0.0000E+00  0.0000E+00  0.0000E+00  0.0000E+00  0.0000E+00  0.0000E+00
    -40.949  0.0000E+00  0.0000E+00  0.0000E+00  0.0000E+00  0.0000E+00  0.0000E+00  0.0000E+00  0.0000E+00  0.0000E+00
    -40.681  0.0000E+00  0.0000E+00  0.0000E+00  0.0000E+00  0.0000E+00  0.0000E+00  0.0000E+00  0.0000E+00  0.0000E+00
    -40.413  0.0000E+00  0.0000E+00  0.0000E+00  0.0000E+00  0.0000E+00  0.0000E+00  0.0000E+00  0.0000E+00  0.0000E+00
    -40.145  0.0000E+00  0.0000E+00  0.0000E+00  0.0000E+00  0.0000E+00  0.0000E+00  0.0000E+00  0.0000E+00  0.0000E+00
    -39.878  0.0000E+00  0.0000E+00  0.0000E+00  0.0000E+00  0.0000E+00  0.0000E+00  0.0000E+00  0.0000E+00  0.0000E+00
    -39.610  0.0000E+00  0.0000E+00  0.0000E+00  0.0000E+00  0.0000E+00  0.0000E+00  0.0000E+00  0.0000E+00  0.0000E+00
    -39.342  0.0000E+00  0.0000E+00  0.0000E+00  0.0000E+00  0.0000E+00  0.0000E+00  0.0000E+00  0.0000E+00  0.0000E+00
    -39.074  0.0000E+00  0.0000E+00  0.0000E+00  0.0000E+00  0.0000E+00  0.0000E+00  0.0000E+00  0.0000E+00  0.0000E+00
    -38.806  0.0000E+00  0.0000E+00  0.0000E+00  0.0000E+00  0.0000E+00  0.0000E+00  0.0000E+00  0.0000E+00  0.0000E+00
    -38.538  0.0000E+00  0.0000E+00  0.0000E+00  0.0000E+00  0.0000E+00  0.0000E+00  0.0000E+00  0.0000E+00  0.0000E+00
    -38.270  0.0000E+00  0.0000E+00  0.0000E+00  0.0000E+00  0.0000E+00  0.0000E+00  0.0000E+00  0.0000E+00  0.0000E+00
    -38.002  0.0000E+00  0.0000E+00  0.0000E+00  0.0000E+00  0.0000E+00  0.0000E+00  0.0000E+00  0.0000E+00  0.0000E+00
    -37.734  0.0000E+00  0.0000E+00  0.0000E+00  0.0000E+00  0.0000E+00  0.0000E+00  0.0000E+00  0.0000E+00  0.0000E+00
    -37.466  0.0000E+00  0.0000E+00  0.0000E+00  0.0000E+00  0.0000E+00  0.0000E+00  0.0000E+00  0.0000E+00  0.0000E+00
    -37.198  0.0000E+00  0.0000E+00  0.0000E+00  0.0000E+00  0.0000E+00  0.0000E+00  0.0000E+00  0.0000E+00  0.0000E+00
    -36.930  0.0000E+00  0.0000E+00  0.0000E+00  0.0000E+00  0.0000E+00  0.0000E+00  0.0000E+00  0.0000E+00  0.0000E+00
    -36.663  0.0000E+00  0.0000E+00  0.0000E+00  0.0000E+00  0.0000E+00  0.0000E+00  0.0000E+00  0.0000E+00  0.0000E+00
    -36.395  0.0000E+00  0.0000E+00  0.0000E+00  0.0000E+00  0.0000E+00  0.0000E+00  0.0000E+00  0.0000E+00  0.0000E+00
    -36.127  0.0000E+00  0.0000E+00  0.0000E+00  0.0000E+00  0.0000E+00  0.0000E+00  0.0000E+00  0.0000E+00  0.0000E+00
    -35.859  0.0000E+00  0.0000E+00  0.0000E+00  0.0000E+00  0.0000E+00  0.0000E+00  0.0000E+00  0.0000E+00  0.0000E+00
    -35.591  0.0000E+00  0.0000E+00  0.0000E+00  0.0000E+00  0.0000E+00  0.0000E+00  0.0000E+00  0.0000E+00  0.0000E+00
    -35.323  0.0000E+00  0.0000E+00  0.0000E+00  0.0000E+00  0.0000E+00  0.0000E+00  0.0000E+00  0.0000E+00  0.0000E+00
    -35.055  0.0000E+00  0.0000E+00  0.0000E+00  0.0000E+00  0.0000E+00  0.0000E+00  0.0000E+00  0.0000E+00  0.0000E+00
    -34.787  0.0000E+00  0.0000E+00  0.0000E+00  0.0000E+00  0.0000E+00  0.0000E+00  0.0000E+00  0.0000E+00  0.0000E+00
    -34.519  0.0000E+00  0.0000E+00  0.0000E+00  0.0000E+00  0.0000E+00  0.0000E+00  0.0000E+00  0.0000E+00  0.0000E+00
    -34.251  0.0000E+00  0.0000E+00  0.0000E+00  0.0000E+00  0.0000E+00  0.0000E+00  0.0000E+00  0.0000E+00  0.0000E+00
    -33.983  0.0000E+00  0.0000E+00  0.0000E+00  0.0000E+00  0.0000E+00  0.0000E+00  0.0000E+00  0.0000E+00  0.0000E+00
    -33.715  0.0000E+00  0.0000E+00  0.0000E+00  0.0000E+00  0.0000E+00  0.0000E+00  0.0000E+00  0.0000E+00  0.0000E+00
    -33.447  0.0000E+00  0.0000E+00  0.0000E+00  0.0000E+00  0.0000E+00  0.0000E+00  0.0000E+00  0.0000E+00  0.0000E+00
    -33.180  0.0000E+00  0.0000E+00  0.0000E+00  0.0000E+00  0.0000E+00  0.0000E+00  0.0000E+00  0.0000E+00  0.0000E+00
    -32.912  0.0000E+00  0.0000E+00  0.0000E+00  0.0000E+00  0.0000E+00  0.0000E+00  0.0000E+00  0.0000E+00  0.0000E+00
    -32.644  0.0000E+00  0.0000E+00  0.0000E+00  0.0000E+00  0.0000E+00  0.0000E+00  0.0000E+00  0.0000E+00  0.0000E+00
    -32.376  0.0000E+00  0.0000E+00  0.0000E+00  0.0000E+00  0.0000E+00  0.0000E+00  0.0000E+00  0.0000E+00  0.0000E+00
    -32.108  0.0000E+00  0.0000E+00  0.0000E+00  0.0000E+00  0.0000E+00  0.0000E+00  0.0000E+00  0.0000E+00  0.0000E+00
    -31.840  0.0000E+00  0.0000E+00  0.0000E+00  0.0000E+00  0.0000E+00  0.0000E+00  0.0000E+00  0.0000E+00  0.0000E+00
    -31.572  0.0000E+00  0.0000E+00  0.0000E+00  0.0000E+00  0.0000E+00  0.0000E+00  0.0000E+00  0.0000E+00  0.0000E+00
    -31.304  0.0000E+00  0.0000E+00  0.0000E+00  0.0000E+00  0.0000E+00  0.0000E+00  0.0000E+00  0.0000E+00  0.0000E+00
    -31.036  0.0000E+00  0.0000E+00  0.0000E+00  0.0000E+00  0.0000E+00  0.0000E+00  0.0000E+00  0.0000E+00  0.0000E+00
    -30.768  0.0000E+00  0.0000E+00  0.0000E+00  0.0000E+00  0.0000E+00  0.0000E+00  0.0000E+00  0.0000E+00  0.0000E+00
    -30.500  0.0000E+00  0.0000E+00  0.0000E+00  0.0000E+00  0.0000E+00  0.0000E+00  0.0000E+00  0.0000E+00  0.0000E+00
    -30.232  0.0000E+00  0.0000E+00  0.0000E+00  0.0000E+00  0.0000E+00  0.0000E+00  0.0000E+00  0.0000E+00  0.0000E+00
    -29.964  0.0000E+00  0.0000E+00  0.0000E+00  0.0000E+00  0.0000E+00  0.0000E+00  0.0000E+00  0.0000E+00  0.0000E+00
    -29.697  0.0000E+00  0.0000E+00  0.0000E+00  0.0000E+00  0.0000E+00  0.0000E+00  0.0000E+00  0.0000E+00  0.0000E+00
    -29.429  0.0000E+00  0.0000E+00  0.0000E+00  0.0000E+00  0.0000E+00  0.0000E+00  0.0000E+00  0.0000E+00  0.0000E+00
    -29.161  0.0000E+00  0.0000E+00  0.0000E+00  0.0000E+00  0.0000E+00  0.0000E+00  0.0000E+00  0.0000E+00  0.0000E+00
    -28.893  0.0000E+00  0.0000E+00  0.0000E+00  0.0000E+00  0.0000E+00  0.0000E+00  0.0000E+00  0.0000E+00  0.0000E+00
    -28.625  0.0000E+00  0.0000E+00  0.0000E+00  0.0000E+00  0.0000E+00  0.0000E+00  0.0000E+00  0.0000E+00  0.0000E+00
    -28.357  0.0000E+00  0.0000E+00  0.0000E+00  0.0000E+00  0.0000E+00  0.0000E+00  0.0000E+00  0.0000E+00  0.0000E+00
    -28.089  0.0000E+00  0.0000E+00  0.0000E+00  0.0000E+00  0.0000E+00  0.0000E+00  0.0000E+00  0.0000E+00  0.0000E+00
    -27.821  0.0000E+00  0.0000E+00  0.0000E+00  0.0000E+00  0.0000E+00  0.0000E+00  0.0000E+00  0.0000E+00  0.0000E+00
    -27.553  0.0000E+00  0.0000E+00  0.0000E+00  0.0000E+00  0.0000E+00  0.0000E+00  0.0000E+00  0.0000E+00  0.0000E+00
    -27.285  0.0000E+00  0.0000E+00  0.0000E+00  0.0000E+00  0.0000E+00  0.0000E+00  0.0000E+00  0.0000E+00  0.0000E+00
    -27.017  0.0000E+00  0.0000E+00  0.0000E+00  0.0000E+00  0.0000E+00  0.0000E+00  0.0000E+00  0.0000E+00  0.0000E+00
    -26.749  0.0000E+00  0.0000E+00  0.0000E+00  0.0000E+00  0.0000E+00  0.0000E+00  0.0000E+00  0.0000E+00  0.0000E+00
    -26.482  0.0000E+00  0.0000E+00  0.0000E+00  0.0000E+00  0.0000E+00  0.0000E+00  0.0000E+00  0.0000E+00  0.0000E+00
    -26.214  0.0000E+00  0.0000E+00  0.0000E+00  0.0000E+00  0.0000E+00  0.0000E+00  0.0000E+00  0.0000E+00  0.0000E+00
    -25.946  0.0000E+00  0.0000E+00  0.0000E+00  0.0000E+00  0.0000E+00  0.0000E+00  0.0000E+00  0.0000E+00  0.0000E+00
    -25.678  0.0000E+00  0.0000E+00  0.0000E+00  0.0000E+00  0.0000E+00  0.0000E+00  0.0000E+00  0.0000E+00  0.0000E+00
    -25.410  0.0000E+00  0.0000E+00  0.0000E+00  0.0000E+00  0.0000E+00  0.0000E+00  0.0000E+00  0.0000E+00  0.0000E+00
    -25.142  0.0000E+00  0.0000E+00  0.0000E+00  0.0000E+00  0.0000E+00  0.0000E+00  0.0000E+00  0.0000E+00  0.0000E+00
    -24.874  0.0000E+00  0.0000E+00  0.0000E+00  0.0000E+00  0.0000E+00  0.0000E+00  0.0000E+00  0.0000E+00  0.0000E+00
    -24.606  0.0000E+00  0.0000E+00  0.0000E+00  0.0000E+00  0.0000E+00  0.0000E+00  0.0000E+00  0.0000E+00  0.0000E+00
    -24.338  0.0000E+00  0.0000E+00  0.0000E+00  0.0000E+00  0.0000E+00  0.0000E+00  0.0000E+00  0.0000E+00  0.0000E+00
    -24.070  0.0000E+00  0.0000E+00  0.0000E+00  0.0000E+00  0.0000E+00  0.0000E+00  0.0000E+00  0.0000E+00  0.0000E+00
    -23.802  0.0000E+00  0.0000E+00  0.0000E+00  0.0000E+00  0.0000E+00  0.0000E+00  0.0000E+00  0.0000E+00  0.0000E+00
    -23.534  0.0000E+00  0.0000E+00  0.0000E+00  0.0000E+00  0.0000E+00  0.0000E+00  0.0000E+00  0.0000E+00  0.0000E+00
    -23.266  0.0000E+00  0.0000E+00  0.0000E+00  0.0000E+00  0.0000E+00  0.0000E+00  0.0000E+00  0.0000E+00  0.0000E+00
    -22.999  0.0000E+00  0.0000E+00  0.0000E+00  0.0000E+00  0.0000E+00  0.0000E+00  0.0000E+00  0.0000E+00  0.0000E+00
    -22.731  0.0000E+00  0.0000E+00  0.0000E+00  0.0000E+00  0.0000E+00  0.0000E+00  0.0000E+00  0.0000E+00  0.0000E+00
    -22.463  0.0000E+00  0.0000E+00  0.0000E+00  0.0000E+00  0.0000E+00  0.0000E+00  0.0000E+00  0.0000E+00  0.0000E+00
    -22.195  0.0000E+00  0.0000E+00  0.0000E+00  0.0000E+00  0.0000E+00  0.0000E+00  0.0000E+00  0.0000E+00  0.0000E+00
    -21.927  0.0000E+00  0.0000E+00  0.0000E+00  0.0000E+00  0.0000E+00  0.0000E+00  0.0000E+00  0.0000E+00  0.0000E+00
    -21.659  0.0000E+00  0.0000E+00  0.0000E+00  0.0000E+00  0.0000E+00  0.0000E+00  0.0000E+00  0.0000E+00  0.0000E+00
    -21.391  0.0000E+00  0.0000E+00  0.0000E+00  0.0000E+00  0.0000E+00  0.0000E+00  0.0000E+00  0.0000E+00  0.0000E+00
    -21.123  0.0000E+00  0.0000E+00  0.0000E+00  0.0000E+00  0.0000E+00  0.0000E+00  0.0000E+00  0.0000E+00  0.0000E+00
    -20.855  0.0000E+00  0.0000E+00  0.0000E+00  0.0000E+00  0.0000E+00  0.0000E+00  0.0000E+00  0.0000E+00  0.0000E+00
    -20.587  0.0000E+00  0.0000E+00  0.0000E+00  0.0000E+00  0.0000E+00  0.0000E+00  0.0000E+00  0.0000E+00  0.0000E+00
    -20.319  0.0000E+00  0.0000E+00  0.0000E+00  0.0000E+00  0.0000E+00  0.0000E+00  0.0000E+00  0.0000E+00  0.0000E+00
    -20.051  0.0000E+00  0.0000E+00  0.0000E+00  0.0000E+00  0.0000E+00  0.0000E+00  0.0000E+00  0.0000E+00  0.0000E+00
    -19.783  0.0000E+00  0.0000E+00  0.0000E+00  0.0000E+00  0.0000E+00  0.0000E+00  0.0000E+00  0.0000E+00  0.0000E+00
    -19.516  0.0000E+00  0.0000E+00  0.0000E+00  0.0000E+00  0.0000E+00  0.0000E+00  0.0000E+00  0.0000E+00  0.0000E+00
    -19.248  0.0000E+00  0.0000E+00  0.0000E+00  0.0000E+00  0.0000E+00  0.0000E+00  0.0000E+00  0.0000E+00  0.0000E+00
    -18.980  0.0000E+00  0.0000E+00  0.0000E+00  0.0000E+00  0.0000E+00  0.0000E+00  0.0000E+00  0.0000E+00  0.0000E+00
    -18.712  0.0000E+00  0.0000E+00  0.0000E+00  0.0000E+00  0.0000E+00  0.0000E+00  0.0000E+00  0.0000E+00  0.0000E+00
    -18.444  0.0000E+00  0.0000E+00  0.0000E+00  0.0000E+00  0.0000E+00  0.0000E+00  0.0000E+00  0.0000E+00  0.0000E+00
    -18.176  0.0000E+00  0.0000E+00  0.0000E+00  0.0000E+00  0.0000E+00  0.0000E+00  0.0000E+00  0.0000E+00  0.0000E+00
    -17.908  0.0000E+00  0.0000E+00  0.0000E+00  0.0000E+00  0.0000E+00  0.0000E+00  0.0000E+00  0.0000E+00  0.0000E+00
    -17.640  0.0000E+00  0.0000E+00  0.0000E+00  0.0000E+00  0.0000E+00  0.0000E+00  0.0000E+00  0.0000E+00  0.0000E+00
    -17.372  0.0000E+00  0.0000E+00  0.0000E+00  0.0000E+00  0.0000E+00  0.0000E+00  0.0000E+00  0.0000E+00  0.0000E+00
    -17.104  0.0000E+00  0.0000E+00  0.0000E+00  0.0000E+00  0.0000E+00  0.0000E+00  0.0000E+00  0.0000E+00  0.0000E+00
    -16.836  0.0000E+00  0.0000E+00  0.0000E+00  0.0000E+00  0.0000E+00  0.0000E+00  0.0000E+00  0.0000E+00  0.0000E+00
    -16.568  0.0000E+00  0.0000E+00  0.0000E+00  0.0000E+00  0.0000E+00  0.0000E+00  0.0000E+00  0.0000E+00  0.0000E+00
    -16.301  0.0000E+00  0.0000E+00  0.0000E+00  0.0000E+00  0.0000E+00  0.0000E+00  0.0000E+00  0.0000E+00  0.0000E+00
    -16.033  0.0000E+00  0.0000E+00  0.0000E+00  0.0000E+00  0.0000E+00  0.0000E+00  0.0000E+00  0.0000E+00  0.0000E+00
    -15.765  0.0000E+00  0.0000E+00  0.0000E+00  0.0000E+00  0.0000E+00  0.0000E+00  0.0000E+00  0.0000E+00  0.0000E+00
    -15.497  0.0000E+00  0.0000E+00  0.0000E+00  0.0000E+00  0.0000E+00  0.0000E+00  0.0000E+00  0.0000E+00  0.0000E+00
    -15.229  0.0000E+00  0.0000E+00  0.0000E+00  0.0000E+00  0.0000E+00  0.0000E+00  0.0000E+00  0.0000E+00  0.0000E+00
    -14.961  0.0000E+00  0.0000E+00  0.0000E+00  0.0000E+00  0.0000E+00  0.0000E+00  0.0000E+00  0.0000E+00  0.0000E+00
    -14.693  0.0000E+00  0.0000E+00  0.0000E+00  0.0000E+00  0.0000E+00  0.0000E+00  0.0000E+00  0.0000E+00  0.0000E+00
    -14.425  0.0000E+00  0.0000E+00  0.0000E+00  0.0000E+00  0.0000E+00  0.0000E+00  0.0000E+00  0.0000E+00  0.0000E+00
    -14.157  0.0000E+00  0.0000E+00  0.0000E+00  0.0000E+00  0.0000E+00  0.0000E+00  0.0000E+00  0.0000E+00  0.0000E+00
    -13.889  0.0000E+00  0.0000E+00  0.0000E+00  0.0000E+00  0.0000E+00  0.0000E+00  0.0000E+00  0.0000E+00  0.0000E+00
    -13.621  0.0000E+00  0.0000E+00  0.0000E+00  0.0000E+00  0.0000E+00  0.0000E+00  0.0000E+00  0.0000E+00  0.0000E+00
    -13.353  0.0000E+00  0.0000E+00  0.0000E+00  0.0000E+00  0.0000E+00  0.0000E+00  0.0000E+00  0.0000E+00  0.0000E+00
    -13.085  0.0000E+00  0.0000E+00  0.0000E+00  0.0000E+00  0.0000E+00  0.0000E+00  0.0000E+00  0.0000E+00  0.0000E+00
    -12.818  0.0000E+00  0.0000E+00  0.0000E+00  0.0000E+00  0.0000E+00  0.0000E+00  0.0000E+00  0.0000E+00  0.0000E+00
    -12.550  0.0000E+00  0.0000E+00  0.0000E+00  0.0000E+00  0.0000E+00  0.0000E+00  0.0000E+00  0.0000E+00  0.0000E+00
    -12.282  0.0000E+00  0.0000E+00  0.0000E+00  0.0000E+00  0.0000E+00  0.0000E+00  0.0000E+00  0.0000E+00  0.0000E+00
    -12.014  0.0000E+00  0.0000E+00  0.0000E+00  0.0000E+00  0.0000E+00  0.0000E+00  0.0000E+00  0.0000E+00  0.0000E+00
    -11.746  0.0000E+00  0.0000E+00  0.0000E+00  0.0000E+00  0.0000E+00  0.0000E+00  0.0000E+00  0.0000E+00  0.0000E+00
    -11.478  0.0000E+00  0.0000E+00  0.0000E+00  0.0000E+00  0.0000E+00  0.0000E+00  0.0000E+00  0.0000E+00  0.0000E+00
    -11.210  0.0000E+00  0.0000E+00  0.0000E+00  0.0000E+00  0.0000E+00  0.0000E+00  0.0000E+00  0.0000E+00  0.0000E+00
    -10.942  0.0000E+00  0.0000E+00  0.0000E+00  0.0000E+00  0.0000E+00  0.0000E+00  0.0000E+00  0.0000E+00  0.0000E+00
    -10.674  0.0000E+00  0.0000E+00  0.0000E+00  0.0000E+00  0.0000E+00  0.0000E+00  0.0000E+00  0.0000E+00  0.0000E+00
    -10.406  0.0000E+00  0.0000E+00  0.0000E+00  0.0000E+00  0.0000E+00  0.0000E+00  0.0000E+00  0.0000E+00  0.0000E+00
    -10.138  0.0000E+00  0.0000E+00  0.0000E+00  0.0000E+00  0.0000E+00  0.0000E+00  0.0000E+00  0.0000E+00  0.0000E+00
     -9.870  0.0000E+00  0.0000E+00  0.0000E+00  0.0000E+00  0.0000E+00  0.0000E+00  0.0000E+00  0.0000E+00  0.0000E+00
     -9.602  0.0000E+00  0.0000E+00  0.0000E+00  0.0000E+00  0.0000E+00  0.0000E+00  0.0000E+00  0.0000E+00  0.0000E+00
     -9.335  0.0000E+00  0.0000E+00  0.0000E+00  0.0000E+00  0.0000E+00  0.0000E+00  0.0000E+00  0.0000E+00  0.0000E+00
     -9.067  0.0000E+00  0.0000E+00  0.0000E+00  0.0000E+00  0.0000E+00  0.0000E+00  0.0000E+00  0.0000E+00  0.0000E+00
     -8.799  0.0000E+00  0.0000E+00  0.0000E+00  0.0000E+00  0.0000E+00  0.0000E+00  0.0000E+00  0.0000E+00  0.0000E+00
     -8.531  0.0000E+00  0.0000E+00  0.0000E+00  0.0000E+00  0.0000E+00  0.0000E+00  0.0000E+00  0.0000E+00  0.0000E+00
     -8.263  0.0000E+00  0.0000E+00  0.0000E+00  0.0000E+00  0.0000E+00  0.0000E+00  0.0000E+00  0.0000E+00  0.0000E+00
     -7.995  0.0000E+00  0.0000E+00  0.0000E+00  0.0000E+00  0.0000E+00  0.0000E+00  0.0000E+00  0.0000E+00  0.0000E+00
     -7.727  0.0000E+00  0.0000E+00  0.0000E+00  0.0000E+00  0.0000E+00  0.0000E+00  0.0000E+00  0.0000E+00  0.0000E+00
     -7.459  0.0000E+00  0.0000E+00  0.0000E+00  0.0000E+00  0.0000E+00  0.0000E+00  0.0000E+00  0.0000E+00  0.0000E+00
     -7.191  0.0000E+00  0.0000E+00  0.0000E+00  0.0000E+00  0.0000E+00  0.0000E+00  0.0000E+00  0.0000E+00  0.0000E+00
     -6.923  0.0000E+00  0.0000E+00  0.0000E+00  0.0000E+00  0.0000E+00  0.0000E+00  0.0000E+00  0.0000E+00  0.0000E+00
     -6.655  0.0000E+00  0.0000E+00  0.0000E+00  0.0000E+00  0.0000E+00  0.0000E+00  0.0000E+00  0.0000E+00  0.0000E+00
     -6.387  0.0000E+00  0.0000E+00  0.0000E+00  0.0000E+00  0.0000E+00  0.0000E+00  0.0000E+00  0.0000E+00  0.0000E+00
     -6.120  0.0000E+00  0.0000E+00  0.0000E+00  0.0000E+00  0.0000E+00  0.0000E+00  0.0000E+00  0.0000E+00  0.0000E+00
     -5.852  0.0000E+00  0.0000E+00  0.0000E+00  0.0000E+00  0.0000E+00  0.0000E+00  0.0000E+00  0.0000E+00  0.0000E+00
     -5.584  0.0000E+00  0.0000E+00  0.0000E+00  0.0000E+00  0.0000E+00  0.0000E+00  0.0000E+00  0.0000E+00  0.0000E+00
     -5.316  0.0000E+00  0.0000E+00  0.0000E+00  0.0000E+00  0.0000E+00  0.0000E+00  0.0000E+00  0.0000E+00  0.0000E+00
     -5.048  0.0000E+00  0.0000E+00  0.0000E+00  0.0000E+00  0.0000E+00  0.0000E+00  0.0000E+00  0.0000E+00  0.0000E+00
     -4.780  0.0000E+00  0.0000E+00  0.0000E+00  0.0000E+00  0.0000E+00  0.0000E+00  0.0000E+00  0.0000E+00  0.0000E+00
     -4.512  0.0000E+00  0.0000E+00  0.0000E+00  0.0000E+00  0.0000E+00  0.0000E+00  0.0000E+00  0.0000E+00  0.0000E+00
     -4.244  0.0000E+00  0.0000E+00  0.0000E+00  0.0000E+00  0.0000E+00  0.0000E+00  0.0000E+00  0.0000E+00  0.0000E+00