<?xml version="1.0" encoding="ISO-8859-1"?>
<modeling>
 <generator>
  <i name="program" type="string">vasp </i>
  <i name="version" type="string">6.3.2  </i>
  <i name="subversion" type="string">27Jun22 (build Aug 12 2022 00:53:59) complex                          parallel </i>
  <i name="platform" type="string">tv2STD </i>
  <i name="date" type="string">2024 12 03 </i>
  <i name="time" type="string">02:19:57 </i>
 </generator>
 <incar>
  <i type="string" name="SYSTEM">Pt-hcc</i>
  <i type="int" name="ISTART">     0</i>
  <i type="string" name="PREC">Accurate      normal | accurate</i>
  <i type="string" name="ALGO">Normal     Normal, Fast, Very_Fast</i>
  <i type="logical" name="ADDGRID"> F  </i>
  <i type="int" name="ICHARG">     2</i>
  <i type="int" name="INIWAV">     1</i>
  <i type="int" name="NELM">   100</i>
  <i type="int" name="IBRION">     2</i>
  <i name="EDIFF">      0.00000100</i>
  <i name="EDIFFG">     -0.02000000</i>
  <i type="int" name="NSW">   100</i>
  <i type="int" name="ISIF">     2</i>
  <i type="int" name="ISYM">     1</i>
  <i name="ENCUT">    450.00000000</i>
  <i type="logical" name="LREAL"> F  </i>
  <i type="int" name="ISMEAR">     0</i>
  <i name="SIGMA">      0.05000000</i>
  <i type="int" name="NWRITE">     2</i>
  <i type="logical" name="LWAVE"> T  </i>
  <i type="logical" name="LCHARG"> T  </i>
  <i type="int" name="LORBIT">    11</i>
 </incar>
 <primitive_cell>
  <structure name="primitive_cell" >
   <crystal>
    <varray name="basis" >
     <v>       2.80803156       0.00000000       0.00000000 </v>
     <v>      -1.40401578       2.43182667       0.00000000 </v>
     <v>       0.00000000       0.00000000       4.86484924 </v>
    </varray>
    <i name="volume">     33.22033356 </i>
    <varray name="rec_basis" >
     <v>       0.35612135       0.20560676       0.00000000 </v>
     <v>       0.00000000       0.41121352       0.00000000 </v>
     <v>       0.00000000       0.00000000       0.20555622 </v>
    </varray>
   </crystal>
   <varray name="positions" >
    <v>       0.00000000       0.00000000       0.00000000 </v>
    <v>       0.33333333       0.66666667       0.50000000 </v>
   </varray>
  </structure>
  <varray name="primitive_index" >
   <v type="int" >        1 </v>
   <v type="int" >        2 </v>
  </varray>
 </primitive_cell>
 <kpoints>
  <generation param="Gamma">
   <v type="int" name="divisions">      10       10        8 </v>
   <v name="usershift">      0.00000000       0.00000000       0.00000000 </v>
   <v name="genvec1">      0.10000000       0.00000000       0.00000000 </v>
   <v name="genvec2">      0.00000000       0.10000000       0.00000000 </v>
   <v name="genvec3">      0.00000000       0.00000000       0.12500000 </v>
   <v name="shift">      0.00000000       0.00000000       0.00000000 </v>
  </generation>
  <varray name="kpointlist" >
   <v>       0.00000000       0.00000000       0.00000000 </v>
   <v>       0.10000000      -0.00000000       0.00000000 </v>
   <v>       0.20000000      -0.00000000       0.00000000 </v>
   <v>       0.30000000       0.00000000       0.00000000 </v>
   <v>       0.40000000       0.00000000       0.00000000 </v>
   <v>       0.50000000       0.00000000       0.00000000 </v>
   <v>       0.10000000       0.10000000       0.00000000 </v>
   <v>       0.20000000       0.10000000       0.00000000 </v>
   <v>       0.30000000       0.10000000       0.00000000 </v>
   <v>       0.40000000       0.10000000       0.00000000 </v>
   <v>       0.20000000       0.20000000       0.00000000 </v>
   <v>       0.30000000       0.20000000       0.00000000 </v>
   <v>       0.40000000       0.20000000       0.00000000 </v>
   <v>       0.30000000       0.30000000       0.00000000 </v>
   <v>       0.00000000       0.00000000       0.12500000 </v>
   <v>       0.10000000      -0.00000000       0.12500000 </v>
   <v>       0.20000000      -0.00000000       0.12500000 </v>
   <v>       0.30000000       0.00000000       0.12500000 </v>
   <v>       0.40000000       0.00000000       0.12500000 </v>
   <v>       0.50000000       0.00000000       0.12500000 </v>
   <v>       0.10000000       0.10000000       0.12500000 </v>
   <v>       0.20000000       0.10000000       0.12500000 </v>
   <v>       0.30000000       0.10000000       0.12500000 </v>
   <v>       0.40000000       0.10000000       0.12500000 </v>
   <v>       0.20000000       0.20000000       0.12500000 </v>
   <v>       0.30000000       0.20000000       0.12500000 </v>
   <v>       0.40000000       0.20000000       0.12500000 </v>
   <v>       0.30000000       0.30000000       0.12500000 </v>
   <v>       0.00000000       0.00000000       0.25000000 </v>
   <v>       0.10000000      -0.00000000       0.25000000 </v>
   <v>       0.20000000      -0.00000000       0.25000000 </v>
   <v>       0.30000000       0.00000000       0.25000000 </v>
   <v>       0.40000000       0.00000000       0.25000000 </v>
   <v>       0.50000000       0.00000000       0.25000000 </v>
   <v>       0.10000000       0.10000000       0.25000000 </v>
   <v>       0.20000000       0.10000000       0.25000000 </v>
   <v>       0.30000000       0.10000000       0.25000000 </v>
   <v>       0.40000000       0.10000000       0.25000000 </v>
   <v>       0.20000000       0.20000000       0.25000000 </v>
   <v>       0.30000000       0.20000000       0.25000000 </v>
   <v>       0.40000000       0.20000000       0.25000000 </v>
   <v>       0.30000000       0.30000000       0.25000000 </v>
   <v>       0.00000000       0.00000000       0.37500000 </v>
   <v>       0.10000000      -0.00000000       0.37500000 </v>
   <v>       0.20000000      -0.00000000       0.37500000 </v>
   <v>       0.30000000       0.00000000       0.37500000 </v>
   <v>       0.40000000       0.00000000       0.37500000 </v>
   <v>       0.50000000       0.00000000       0.37500000 </v>
   <v>       0.10000000       0.10000000       0.37500000 </v>
   <v>       0.20000000       0.10000000       0.37500000 </v>
   <v>       0.30000000       0.10000000       0.37500000 </v>
   <v>       0.40000000       0.10000000       0.37500000 </v>
   <v>       0.20000000       0.20000000       0.37500000 </v>
   <v>       0.30000000       0.20000000       0.37500000 </v>
   <v>       0.40000000       0.20000000       0.37500000 </v>
   <v>       0.30000000       0.30000000       0.37500000 </v>
   <v>       0.00000000       0.00000000       0.50000000 </v>
   <v>       0.10000000      -0.00000000       0.50000000 </v>
   <v>       0.20000000      -0.00000000       0.50000000 </v>
   <v>       0.30000000       0.00000000       0.50000000 </v>
   <v>       0.40000000       0.00000000       0.50000000 </v>
   <v>       0.50000000       0.00000000       0.50000000 </v>
   <v>       0.10000000       0.10000000       0.50000000 </v>
   <v>       0.20000000       0.10000000       0.50000000 </v>
   <v>       0.30000000       0.10000000       0.50000000 </v>
   <v>       0.40000000       0.10000000       0.50000000 </v>
   <v>       0.20000000       0.20000000       0.50000000 </v>
   <v>       0.30000000       0.20000000       0.50000000 </v>
   <v>       0.40000000       0.20000000       0.50000000 </v>
   <v>       0.30000000       0.30000000       0.50000000 </v>
  </varray>
  <varray name="weights" >
   <v>       0.00125000 </v>
   <v>       0.00750000 </v>
   <v>       0.00750000 </v>
   <v>       0.00750000 </v>
   <v>       0.00750000 </v>
   <v>       0.00375000 </v>
   <v>       0.00750000 </v>
   <v>       0.01500000 </v>
   <v>       0.01500000 </v>
   <v>       0.01500000 </v>
   <v>       0.00750000 </v>
   <v>       0.01500000 </v>
   <v>       0.00750000 </v>
   <v>       0.00750000 </v>
   <v>       0.00250000 </v>
   <v>       0.01500000 </v>
   <v>       0.01500000 </v>
   <v>       0.01500000 </v>
   <v>       0.01500000 </v>
   <v>       0.00750000 </v>
   <v>       0.01500000 </v>
   <v>       0.03000000 </v>
   <v>       0.03000000 </v>
   <v>       0.03000000 </v>
   <v>       0.01500000 </v>
   <v>       0.03000000 </v>
   <v>       0.01500000 </v>
   <v>       0.01500000 </v>
   <v>       0.00250000 </v>
   <v>       0.01500000 </v>
   <v>       0.01500000 </v>
   <v>       0.01500000 </v>
   <v>       0.01500000 </v>
   <v>       0.00750000 </v>
   <v>       0.01500000 </v>
   <v>       0.03000000 </v>
   <v>       0.03000000 </v>
   <v>       0.03000000 </v>
   <v>       0.01500000 </v>
   <v>       0.03000000 </v>
   <v>       0.01500000 </v>
   <v>       0.01500000 </v>
   <v>       0.00250000 </v>
   <v>       0.01500000 </v>
   <v>       0.01500000 </v>
   <v>       0.01500000 </v>
   <v>       0.01500000 </v>
   <v>       0.00750000 </v>
   <v>       0.01500000 </v>
   <v>       0.03000000 </v>
   <v>       0.03000000 </v>
   <v>       0.03000000 </v>
   <v>       0.01500000 </v>
   <v>       0.03000000 </v>
   <v>       0.01500000 </v>
   <v>       0.01500000 </v>
   <v>       0.00125000 </v>
   <v>       0.00750000 </v>
   <v>       0.00750000 </v>
   <v>       0.00750000 </v>
   <v>       0.00750000 </v>
   <v>       0.00375000 </v>
   <v>       0.00750000 </v>
   <v>       0.01500000 </v>
   <v>       0.01500000 </v>
   <v>       0.01500000 </v>
   <v>       0.00750000 </v>
   <v>       0.01500000 </v>
   <v>       0.00750000 </v>
   <v>       0.00750000 </v>
  </varray>
 </kpoints>
 <parameters>
  <separator name="general" >
   <i type="string" name="SYSTEM">Pt-hcc</i>
   <i type="logical" name="LCOMPAT"> F  </i>
  </separator>
  <separator name="electronic" >
   <i type="string" name="PREC">accura</i>
   <i name="ENMAX">    450.00000000</i>
   <i name="ENAUG">    527.01400000</i>
   <i name="EDIFF">      0.00000100</i>
   <i type="int" name="IALGO">    38</i>
   <i type="int" name="IWAVPR">    11</i>
   <i type="int" name="NBANDS">    24</i>
   <i type="int" name="NBANDSLOW">    -1</i>
   <i type="int" name="NBANDSHIGH">    -1</i>
   <i name="NELECT">     32.00000000</i>
   <i type="int" name="TURBO">     0</i>
   <i type="int" name="IRESTART">     0</i>
   <i type="int" name="NREBOOT">     0</i>
   <i type="int" name="NMIN">     0</i>
   <i name="EREF">      0.00000000</i>
   <separator name="electronic smearing" >
    <i type="int" name="ISMEAR">     0</i>
    <i name="SIGMA">      0.05000000</i>
    <i name="KSPACING">      0.50000000</i>
    <i type="logical" name="KGAMMA"> T  </i>
    <i type="logical" name="KBLOWUP"> T  </i>
   </separator>
   <separator name="electronic projectors" >
    <i type="logical" name="LREAL"> F  </i>
    <v name="ROPT">      0.00000000</v>
    <i type="int" name="LMAXPAW">  -100</i>
    <i type="int" name="LMAXMIX">     2</i>
    <i type="logical" name="NLSPLINE"> F  </i>
   </separator>
   <separator name="electronic startup" >
    <i type="int" name="ISTART">     0</i>
    <i type="int" name="ICHARG">     2</i>
    <i type="int" name="INIWAV">     1</i>
   </separator>
   <separator name="electronic spin" >
    <i type="int" name="ISPIN">     1</i>
    <i type="logical" name="LNONCOLLINEAR"> F  </i>
    <v name="MAGMOM">      1.00000000      1.00000000</v>
    <i name="NUPDOWN">     -1.00000000</i>
    <i type="logical" name="LSORBIT"> F  </i>
    <v name="SAXIS">      0.00000000      0.00000000      1.00000000</v>
    <i type="logical" name="LSPIRAL"> F  </i>
    <v name="QSPIRAL">      0.00000000      0.00000000      0.00000000</v>
    <i type="logical" name="LZEROZ"> F  </i>
   </separator>
   <separator name="electronic exchange-correlation" >
    <i type="logical" name="LASPH"> F  </i>
    <i type="logical" name="LMETAGGA"> F  </i>
   </separator>
   <separator name="electronic convergence" >
    <i type="int" name="NELM">   100</i>
    <i type="int" name="NELMDL">    -5</i>
    <i type="int" name="NELMIN">     2</i>
    <i name="ENINI">    450.00000000</i>
    <separator name="electronic convergence detail" >
     <i type="logical" name="LDIAG"> T  </i>
     <i type="logical" name="LSUBROT"> F  </i>
     <i name="WEIMIN">      0.00100000</i>
     <i name="EBREAK">      0.00000001</i>
     <i name="DEPER">      0.30000000</i>
     <i type="int" name="NRMM">     4</i>
     <i name="TIME">      0.40000000</i>
    </separator>
   </separator>
   <separator name="electronic mixer" >
    <i name="AMIX">      0.40000000</i>
    <i name="BMIX">      1.00000000</i>
    <i name="AMIN">      0.10000000</i>
    <i name="AMIX_MAG">      1.60000000</i>
    <i name="BMIX_MAG">      1.00000000</i>
    <separator name="electronic mixer details" >
     <i type="int" name="IMIX">     4</i>
     <i type="logical" name="MIXFIRST"> F  </i>
     <i type="int" name="MAXMIX">   -45</i>
     <i name="WC">    100.00000000</i>
     <i type="int" name="INIMIX">     1</i>
     <i type="int" name="MIXPRE">     1</i>
     <i type="int" name="MREMOVE">     5</i>
    </separator>
   </separator>
   <separator name="electronic dipolcorrection" >
    <i type="logical" name="LDIPOL"> F  </i>
    <i type="logical" name="LMONO"> F  </i>
    <i type="int" name="IDIPOL">     0</i>
    <i name="EPSILON">      1.00000000</i>
    <v name="DIPOL">   -100.00000000   -100.00000000   -100.00000000</v>
    <i name="EFIELD">      0.00000000</i>
   </separator>
  </separator>
  <separator name="grids" >
   <i type="int" name="NGX">    20</i>
   <i type="int" name="NGY">    20</i>
   <i type="int" name="NGZ">    36</i>
   <i type="int" name="NGXF">    40</i>
   <i type="int" name="NGYF">    40</i>
   <i type="int" name="NGZF">    72</i>
   <i type="logical" name="ADDGRID"> F  </i>
  </separator>
  <separator name="ionic" >
   <i type="int" name="NSW">   100</i>
   <i type="int" name="IBRION">     2</i>
   <i type="int" name="MDALGO">     0</i>
   <i type="int" name="ISIF">     2</i>
   <i name="PSTRESS">      0.00000000</i>
   <i name="EDIFFG">     -0.02000000</i>
   <i type="int" name="NFREE">     1</i>
   <i name="POTIM">      0.50000000</i>
   <i name="SMASS">     -3.00000000</i>
   <i name="SCALEE">      1.00000000</i>
  </separator>
  <separator name="ionic md" >
   <i name="TEBEG">      0.00010000</i>
   <i name="TEEND">      0.00010000</i>
   <i type="int" name="NBLOCK">     1</i>
   <i type="int" name="KBLOCK">   100</i>
   <i type="int" name="NPACO">   256</i>
   <i name="APACO">     10.00000000</i>
  </separator>
  <separator name="symmetry" >
   <i type="int" name="ISYM">     1</i>
   <i name="SYMPREC">      0.00001000</i>
  </separator>
  <separator name="dos" >
   <i type="int" name="LORBIT">    11</i>
   <v name="RWIGS">     -1.00000000</v>
   <i type="int" name="NEDOS">   301</i>
   <i name="EMIN">     10.00000000</i>
   <i name="EMAX">    -10.00000000</i>
   <i name="EFERMI">      0.00000000</i>
  </separator>
  <separator name="writing" >
   <i type="int" name="NWRITE">     2</i>
   <i type="logical" name="LWAVE"> T  </i>
   <i type="logical" name="LDOWNSAMPLE"> F  </i>
   <i type="logical" name="LCHARG"> T  </i>
   <i type="logical" name="LPARD"> F  </i>
   <i type="logical" name="LVTOT"> F  </i>
   <i type="logical" name="LVHAR"> F  </i>
   <i type="logical" name="LELF"> F  </i>
   <i type="logical" name="LOPTICS"> F  </i>
   <v name="STM">      0.00000000      0.00000000      0.00000000      0.00000000      0.00000000      0.00000000      0.00000000</v>
  </separator>
  <separator name="performance" >
   <i type="int" name="NPAR">    24</i>
   <i type="int" name="NSIM">     4</i>
   <i type="int" name="NBLK">    -1</i>
   <i type="logical" name="LPLANE"> T  </i>
   <i type="logical" name="LSCALAPACK"> T  </i>
   <i type="logical" name="LSCAAWARE"> F  </i>
   <i type="logical" name="LSCALU"> F  </i>
   <i type="logical" name="LASYNC"> F  </i>
   <i type="logical" name="LORBITALREAL"> F  </i>
  </separator>
  <separator name="miscellaneous" >
   <i type="int" name="IDIOT">     3</i>
   <i type="int" name="PHON_NSTRUCT">    -1</i>
   <i type="logical" name="LMUSIC"> F  </i>
   <v name="POMASS">    195.08000000</v>
   <v name="DARWINR">      0.00000000</v>
   <v name="DARWINV">      1.00000000</v>
   <i type="logical" name="LCORR"> T  </i>
  </separator>
  <i type="logical" name="GGA_COMPAT"> T  </i>
  <i type="logical" name="LBERRY"> F  </i>
  <i type="int" name="ICORELEVEL">     0</i>
  <i type="logical" name="LDAU"> F  </i>
  <i type="int" name="I_CONSTRAINED_M">     0</i>
  <separator name="electronic exchange-correlation" >
   <i type="string" name="GGA">--</i>
   <i type="int" name="VOSKOWN">     0</i>
   <i type="logical" name="LHFCALC"> F  </i>
   <i type="string" name="PRECFOCK"></i>
   <i type="logical" name="LSYMGRAD"> F  </i>
   <i type="logical" name="LHFONE"> F  </i>
   <i type="logical" name="LRHFCALC"> F  </i>
   <i type="logical" name="LTHOMAS"> F  </i>
   <i type="logical" name="LMODELHF"> F  </i>
   <i type="logical" name="LFOCKACE"> F  </i>
   <i name="ENCUT4O">     -1.00000000</i>
   <i type="int" name="EXXOEP">     0</i>
   <i type="int" name="FOURORBIT">     0</i>
   <i name="AEXX">      0.00000000</i>
   <i name="HFALPHA">      0.00000000</i>
   <i name="MCALPHA">      0.00000000</i>
   <i name="ALDAX">      1.00000000</i>
   <i name="AGGAX">      1.00000000</i>
   <i name="ALDAC">      1.00000000</i>
   <i name="AGGAC">      1.00000000</i>
   <i type="int" name="NKREDX">     1</i>
   <i type="int" name="NKREDY">     1</i>
   <i type="int" name="NKREDZ">     1</i>
   <i type="logical" name="SHIFTRED"> F  </i>
   <i type="logical" name="ODDONLY"> F  </i>
   <i type="logical" name="EVENONLY"> F  </i>
   <i type="int" name="LMAXFOCK">     0</i>
   <i type="int" name="NMAXFOCKAE">     0</i>
   <i type="logical" name="LFOCKAEDFT"> F  </i>
   <i name="HFSCREEN">      0.00000000</i>
   <i name="HFSCREENC">      0.00000000</i>
   <i type="int" name="NBANDSGWLOW">     0</i>
  </separator>
  <separator name="vdW DFT" >
   <i type="logical" name="LUSE_VDW"> F  </i>
   <i name="Zab_VDW">     -0.84910000</i>
   <i name="PARAM1">      0.12340000</i>
   <i name="PARAM2">      1.00000000</i>
   <i name="PARAM3">      0.00000000</i>
  </separator>
  <separator name="model GW" >
   <i type="int" name="MODEL_GW">     0</i>
   <i name="MODEL_EPS0">      9.96610007</i>
   <i name="MODEL_ALPHA">      1.00000000</i>
  </separator>
  <separator name="linear response parameters" >
   <i type="logical" name="LEPSILON"> F  </i>
   <i type="logical" name="LRPA"> F  </i>
   <i type="logical" name="LNABLA"> F  </i>
   <i type="logical" name="LVEL"> F  </i>
   <i name="CSHIFT">      0.10000000</i>
   <i name="OMEGAMAX">     -1.00000000</i>
   <i name="DEG_THRESHOLD">      0.00200000</i>
   <i name="RTIME">     -0.10000000</i>
   <i name="WPLASMAI">      0.00000000</i>
   <v name="DFIELD">      0.00000000      0.00000000      0.00000000</v>
   <v name="WPLASMA">      0.00000000      0.00000000      0.00000000      0.00000000      0.00000000      0.00000000      0.00000000      0.00000000      0.00000000</v>
  </separator>
  <separator name="orbital magnetization" >
   <i type="logical" name="NUCIND"> F  </i>
   <v name="MAGPOS">      0.00000000      0.00000000      0.00000000</v>
   <i type="logical" name="LNICSALL"> T  </i>
   <i type="logical" name="ORBITALMAG"> F  </i>
   <i type="logical" name="LMAGBLOCH"> F  </i>
   <i type="logical" name="LCHIMAG"> F  </i>
   <i type="logical" name="LGAUGE"> T  </i>
   <i type="int" name="MAGATOM">     0</i>
   <v name="MAGDIPOL">      0.00000000      0.00000000      0.00000000</v>
   <v name="AVECCONST">      0.00000000      0.00000000      0.00000000</v>
  </separator>
  <separator name="response functions" >
   <i type="logical" name="LFINITE_TEMPERATURE"> F  </i>
   <i type="logical" name="LADDER"> F  </i>
   <i type="logical" name="LRPAFORCE"> F  </i>
   <i type="logical" name="LFXC"> F  </i>
   <i type="logical" name="LHARTREE"> T  </i>
   <i type="int" name="IBSE">     0</i>
   <v type="int" name="KPOINT">    -1     0     0     0</v>
   <i type="logical" name="LTCTC"> F  </i>
   <i type="logical" name="LTCTE"> F  </i>
   <i type="logical" name="LTETE"> F  </i>
   <i type="logical" name="LTRIPLET"> F  </i>
   <i type="logical" name="LFXCEPS"> F  </i>
   <i type="logical" name="LFXHEG"> F  </i>
   <i type="int" name="NATURALO">     2</i>
   <i type="logical" name="LHOLEGF"> F  </i>
   <i type="logical" name="L2ORDER"> F  </i>
   <i type="logical" name="LDMP1"> F  </i>
   <i type="logical" name="LMP2LT"> F  </i>
   <i type="logical" name="LSMP2LT"> F  </i>
   <i type="logical" name="LGWLF"> F  </i>
   <i name="ENCUTGW">     -2.00000000</i>
   <i name="ENCUTGWSOFT">     -2.00000000</i>
   <i name="ENCUTLF">     -1.00000000</i>
   <i type="logical" name="LESF_SPLINES"> F  </i>
   <i type="int" name="LMAXMP2">    -1</i>
   <i name="SCISSOR">      0.00000000</i>
   <i type="int" name="NOMEGA">     0</i>
   <i type="int" name="NOMEGAR">     0</i>
   <i type="int" name="NBANDSGW">    -1</i>
   <i type="int" name="NBANDSO">    -1</i>
   <i type="int" name="NBANDSV">    -1</i>
   <i type="int" name="NELMGW">     1</i>
   <i type="int" name="NELMHF">     1</i>
   <i type="int" name="DIM">     3</i>
   <i type="int" name="IESPILON">     4</i>
   <i type="int" name="ANTIRES">     0</i>
   <i name="OMEGAMAX">    -30.00000000</i>
   <i name="OMEGAMIN">    -30.00000000</i>
   <i name="OMEGATL">   -200.00000000</i>
   <i type="int" name="OMEGAGRID">     0</i>
   <i name="CSHIFT">     -0.10000000</i>
   <i type="logical" name="LSELFENERGY"> F  </i>
   <i type="logical" name="LSPECTRAL"> F  </i>
   <i type="logical" name="LSPECTRALGW"> F  </i>
   <i type="logical" name="LSINGLES"> F  </i>
   <i type="logical" name="LFERMIGW"> F  </i>
   <i type="logical" name="ODDONLYGW"> F  </i>
   <i type="logical" name="EVENONLYGW"> F  </i>
   <i type="int" name="NKREDLFX">     1</i>
   <i type="int" name="NKREDLFY">     1</i>
   <i type="int" name="NKREDLFZ">     1</i>
   <i type="int" name="MAXMEM">  2800</i>
   <i type="int" name="TELESCOPE">     0</i>
   <i type="int" name="NTAUPAR">    -1</i>
   <i type="int" name="NOMEGAPAR">    -1</i>
   <i name="DAMP_NEWTON">      0.80000001</i>
   <i name="LAMBDA">      1.00000000</i>
  </separator>
  <separator name="External order field" >
   <i name="OFIELD_KAPPA">      0.00000000</i>
   <v name="OFIELD_K">      0.00000000      0.00000000      0.00000000</v>
   <i name="OFIELD_Q6_NEAR">      0.00000000</i>
   <i name="OFIELD_Q6_FAR">      0.00000000</i>
   <i name="OFIELD_A">      0.00000000</i>
  </separator>
  <separator name="optional k-points parameters" >
   <i type="int" name="KPOINTS_OPT_MODE">     1</i>
   <i type="logical" name="LKPOINTS_OPT"> F  </i>
  </separator>
 </parameters>
 <atominfo>
  <atoms>       2 </atoms>
  <types>       1 </types>
  <array name="atoms" >
   <dimension dim="1">ion</dimension>
   <field type="string">element</field>
   <field type="int">atomtype</field>
   <set>
    <rc><c>Pt</c><c>   1</c></rc>
    <rc><c>Pt</c><c>   1</c></rc>
   </set>
  </array>
  <array name="atomtypes" >
   <dimension dim="1">type</dimension>
   <field type="int">atomspertype</field>
   <field type="string">element</field>
   <field>mass</field>
   <field>valence</field>
   <field type="string">pseudopotential</field>
   <set>
    <rc><c>   2</c><c>Pt</c><c>    195.08000000</c><c>     16.00000000</c><c>  PAW_PBE Pt_pv 12Dec2005               </c></rc>
   </set>
  </array>
 </atominfo>
 <structure name="initialpos" >
  <crystal>
   <varray name="basis" >
    <v>       2.80803156       0.00000000       0.00000000 </v>
    <v>      -1.40401578       2.43182667       0.00000000 </v>
    <v>       0.00000000       0.00000000       4.86484924 </v>
   </varray>
   <i name="volume">     33.22033356 </i>
   <varray name="rec_basis" >
    <v>       0.35612135       0.20560676       0.00000000 </v>
    <v>       0.00000000       0.41121352       0.00000000 </v>
    <v>       0.00000000       0.00000000       0.20555622 </v>
   </varray>
  </crystal>
  <varray name="positions" >
   <v>       0.00000000       0.00000000       0.00000000 </v>
   <v>       0.33333333       0.66666667       0.50000000 </v>
  </varray>
 </structure>
 <calculation>
  <scstep>
   <time name="dav">    0.32    0.32</time>
   <time name="total">    0.32    0.32</time>
   <energy>
    <i name="alphaZ">    288.89758805 </i>
    <i name="ewald">  -4170.71482407 </i>
    <i name="hartreedc">   -852.81396192 </i>
    <i name="XCdc">    126.85692875 </i>
    <i name="pawpsdc">   4131.50523274 </i>
    <i name="pawaedc">  -4061.67189606 </i>
    <i name="eentropy">     -0.00083926 </i>
    <i name="bandstr">   -173.56748304 </i>
    <i name="atom">   4856.42966544 </i>
    <i name="e_fr_energy">    144.92041064 </i>
    <i name="e_wo_entrp">    144.92124990 </i>
    <i name="e_0_energy">    144.92083027 </i>
   </energy>
  </scstep>
  <scstep>
   <time name="dav">    0.34    0.34</time>
   <time name="total">    0.34    0.34</time>
   <energy>
    <i name="e_fr_energy">    -11.27348091 </i>
    <i name="e_wo_entrp">    -11.26713298 </i>
    <i name="e_0_energy">    -11.27030695 </i>
   </energy>
  </scstep>
  <scstep>
   <time name="dav">    0.49    0.49</time>
   <time name="total">    0.49    0.49</time>
   <energy>
    <i name="e_fr_energy">    -12.69477638 </i>
    <i name="e_wo_entrp">    -12.68990817 </i>
    <i name="e_0_energy">    -12.69234227 </i>
   </energy>
  </scstep>
  <scstep>
   <time name="dav">    0.55    0.55</time>
   <time name="total">    0.55    0.55</time>
   <energy>
    <i name="e_fr_energy">    -12.69852460 </i>
    <i name="e_wo_entrp">    -12.69364913 </i>
    <i name="e_0_energy">    -12.69608686 </i>
   </energy>
  </scstep>
  <scstep>
   <time name="dav">    0.54    0.55</time>
   <time name="total">    0.57    0.57</time>
   <energy>
    <i name="e_fr_energy">    -12.69852775 </i>
    <i name="e_wo_entrp">    -12.69365223 </i>
    <i name="e_0_energy">    -12.69608999 </i>
   </energy>
  </scstep>
  <scstep>
   <time name="dav">    0.33    0.33</time>
   <time name="total">    0.36    0.36</time>
   <energy>
    <i name="e_fr_energy">    -12.00923712 </i>
    <i name="e_wo_entrp">    -12.00433260 </i>
    <i name="e_0_energy">    -12.00678486 </i>
   </energy>
  </scstep>
  <scstep>
   <time name="dav">    0.49    0.49</time>
   <time name="total">    0.51    0.52</time>
   <energy>
    <i name="e_fr_energy">    -11.98143510 </i>
    <i name="e_wo_entrp">    -11.97614898 </i>
    <i name="e_0_energy">    -11.97879204 </i>
   </energy>
  </scstep>
  <scstep>
   <time name="dav">    0.35    0.35</time>
   <time name="total">    0.38    0.38</time>
   <energy>
    <i name="e_fr_energy">    -11.97944349 </i>
    <i name="e_wo_entrp">    -11.97406724 </i>
    <i name="e_0_energy">    -11.97675537 </i>
   </energy>
  </scstep>
  <scstep>
   <time name="dav">    0.49    0.49</time>
   <time name="total">    0.52    0.52</time>
   <energy>
    <i name="e_fr_energy">    -11.97931217 </i>
    <i name="e_wo_entrp">    -11.97397207 </i>
    <i name="e_0_energy">    -11.97664212 </i>
   </energy>
  </scstep>
  <scstep>
   <time name="dav">    0.43    0.43</time>
   <time name="total">    0.45    0.46</time>
   <energy>
    <i name="e_fr_energy">    -11.97932830 </i>
    <i name="e_wo_entrp">    -11.97399344 </i>
    <i name="e_0_energy">    -11.97666087 </i>
   </energy>
  </scstep>
  <scstep>
   <time name="dav">    0.39    0.39</time>
   <time name="total">    0.39    0.39</time>
   <energy>
    <i name="alphaZ">    288.89758805 </i>
    <i name="ewald">  -4170.71482407 </i>
    <i name="hartreedc">   -813.74819470 </i>
    <i name="XCdc">    125.14756853 </i>
    <i name="pawpsdc">   4505.66716132 </i>
    <i name="pawaedc">  -4440.37362357 </i>
    <i name="eentropy">     -0.00533588 </i>
    <i name="bandstr">   -363.27933325 </i>
    <i name="atom">   4856.42966544 </i>
    <i name="e_fr_energy">    -11.97932813 </i>
    <i name="e_wo_entrp">    -11.97399224 </i>
    <i name="e_0_energy">    -11.97666018 </i>
   </energy>
  </scstep>
  <structure>
   <crystal>
    <varray name="basis" >
     <v>       2.80803156       0.00000000       0.00000000 </v>
     <v>      -1.40401578       2.43182667       0.00000000 </v>
     <v>       0.00000000       0.00000000       4.86484924 </v>
    </varray>
    <i name="volume">     33.22033356 </i>
    <varray name="rec_basis" >
     <v>       0.35612135       0.20560676       0.00000000 </v>
     <v>       0.00000000       0.41121352       0.00000000 </v>
     <v>       0.00000000       0.00000000       0.20555622 </v>
    </varray>
   </crystal>
   <varray name="positions" >
    <v>       0.00000000       0.00000000       0.00000000 </v>
    <v>       0.33333333       0.66666667       0.50000000 </v>
   </varray>
  </structure>
  <varray name="forces" >
   <v>       0.00000000       0.00000000       0.00000000 </v>
   <v>      -0.00000000       0.00000000       0.00000000 </v>
  </varray>
  <varray name="stress" >
   <v>    -134.26104927      -0.00000000       0.00000000 </v>
   <v>       0.00000000    -134.26104927       0.00000000 </v>
   <v>       0.00000000      -0.00000000    -117.60323977 </v>
  </varray>
  <energy>
   <i name="e_fr_energy">    -11.97932813 </i>
   <i name="e_wo_entrp">    -11.97399224 </i>
   <i name="e_0_energy">    -11.97666018 </i>
  </energy>
  <time name="totalsc">    5.26    5.41</time>
  <eigenvalues>
   <array>
    <dimension dim="1">band</dimension>
    <dimension dim="2">kpoint</dimension>
    <dimension dim="3">spin</dimension>
    <field>eigene</field>
    <field>occ</field>
    <set>
     <set comment="spin 1">
      <set comment="kpoint 1">
       <r>  -42.1902    1.0000 </r>
       <r>  -42.0743    1.0000 </r>
       <r>  -42.0743    1.0000 </r>
       <r>  -42.0404    1.0000 </r>
       <r>  -42.0404    1.0000 </r>
       <r>  -41.9181    1.0000 </r>
       <r>    1.0291    1.0000 </r>
       <r>    3.6329    1.0000 </r>
       <r>    6.6080    1.0000 </r>
       <r>    7.0636    1.0000 </r>
       <r>    7.0636    1.0000 </r>
       <r>    7.3996    1.0000 </r>
       <r>    7.3996    1.0000 </r>
       <r>    8.5632    1.0000 </r>
       <r>    8.5632    1.0000 </r>
       <r>    9.7374    1.0000 </r>
       <r>   10.0206    1.0000 </r>
       <r>   10.0206    1.0000 </r>
       <r>   14.5999    0.0000 </r>
       <r>   25.3627    0.0000 </r>
       <r>   25.9074    0.0000 </r>
       <r>   27.4360    0.0000 </r>
       <r>   30.6831    0.0000 </r>
       <r>   30.6831    0.0000 </r>
      </set>
      <set comment="kpoint 2">
       <r>  -42.1807    1.0000 </r>
       <r>  -42.1037    1.0000 </r>
       <r>  -42.0830    1.0000 </r>
       <r>  -42.0709    1.0000 </r>
       <r>  -42.0465    1.0000 </r>
       <r>  -41.9205    1.0000 </r>
       <r>    1.3728    1.0000 </r>
       <r>    3.9421    1.0000 </r>
       <r>    6.5444    1.0000 </r>
       <r>    7.0774    1.0000 </r>
       <r>    7.2656    1.0000 </r>
       <r>    7.3187    1.0000 </r>
       <r>    7.6420    1.0000 </r>
       <r>    8.0604    1.0000 </r>
       <r>    8.4085    1.0000 </r>
       <r>    8.5774    1.0000 </r>
       <r>   10.0761    0.9999 </r>
       <r>   11.7694    0.0000 </r>
       <r>   14.5711    0.0000 </r>
       <r>   25.6977    0.0000 </r>
       <r>   26.4073    0.0000 </r>
       <r>   27.5955    0.0000 </r>
       <r>   29.2131    0.0000 </r>
       <r>   29.2348    0.0000 </r>
      </set>
      <set comment="kpoint 3">
       <r>  -42.1813    1.0000 </r>
       <r>  -42.1540    1.0000 </r>
       <r>  -42.1497    1.0000 </r>
       <r>  -42.1051    1.0000 </r>
       <r>  -42.0634    1.0000 </r>
       <r>  -41.9281    1.0000 </r>
       <r>    2.3150    1.0000 </r>
       <r>    4.6286    1.0000 </r>
       <r>    6.3330    1.0000 </r>
       <r>    6.8001    1.0000 </r>
       <r>    6.8172    1.0000 </r>
       <r>    7.6515    1.0000 </r>
       <r>    8.0404    1.0000 </r>
       <r>    8.0629    1.0000 </r>
       <r>    8.0922    1.0000 </r>
       <r>    8.3212    1.0000 </r>
       <r>   10.1657    0.8680 </r>
       <r>   13.8428    0.0000 </r>
       <r>   14.5269    0.0000 </r>
       <r>   23.8266    0.0000 </r>
       <r>   26.8602    0.0000 </r>
       <r>   26.9999    0.0000 </r>
       <r>   27.9502    0.0000 </r>
       <r>   28.1954    0.0000 </r>
      </set>
      <set comment="kpoint 4">
       <r>  -42.2780    1.0000 </r>
       <r>  -42.2448    1.0000 </r>
       <r>  -42.1320    1.0000 </r>
       <r>  -42.1168    1.0000 </r>
       <r>  -42.0843    1.0000 </r>
       <r>  -41.9415    1.0000 </r>
       <r>    3.4872    1.0000 </r>
       <r>    4.7690    1.0000 </r>
       <r>    5.8191    1.0000 </r>
       <r>    6.5775    1.0000 </r>
       <r>    6.9031    1.0000 </r>
       <r>    7.6236    1.0000 </r>
       <r>    7.7051    1.0000 </r>
       <r>    8.7104    1.0000 </r>
       <r>    9.0710    1.0000 </r>
       <r>    9.2794    1.0000 </r>
       <r>   10.2146    0.3954 </r>
       <r>   14.6854    0.0000 </r>
       <r>   15.9703    0.0000 </r>
       <r>   20.1270    0.0000 </r>
       <r>   24.5746    0.0000 </r>
       <r>   25.4101    0.0000 </r>
       <r>   26.4386    0.0000 </r>
       <r>   27.8579    0.0000 </r>
      </set>
      <set comment="kpoint 5">
       <r>  -42.3551    1.0000 </r>
       <r>  -42.3201    1.0000 </r>
       <r>  -42.1531    1.0000 </r>
       <r>  -42.1011    1.0000 </r>
       <r>  -42.0785    1.0000 </r>
       <r>  -41.9598    1.0000 </r>
       <r>    4.1620    1.0000 </r>
       <r>    4.4791    1.0000 </r>
       <r>    5.2138    1.0000 </r>
       <r>    7.0580    1.0000 </r>
       <r>    7.2800    1.0000 </r>
       <r>    7.4497    1.0000 </r>
       <r>    7.6626    1.0000 </r>
       <r>   10.0554    1.0000 </r>
       <r>   10.2169    0.3704 </r>
       <r>   10.2258    0.2794 </r>
       <r>   10.4482    0.0000 </r>
       <r>   15.5422    0.0000 </r>
       <r>   16.5499    0.0000 </r>
       <r>   17.8902    0.0000 </r>
       <r>   22.1051    0.0000 </r>
       <r>   22.7697    0.0000 </r>
       <r>   23.9845    0.0000 </r>
       <r>   26.6056    0.0000 </r>
      </set>
      <set comment="kpoint 6">
       <r>  -42.3841    1.0000 </r>
       <r>  -42.3493    1.0000 </r>
       <r>  -42.1614    1.0000 </r>
       <r>  -42.1075    1.0000 </r>
       <r>  -42.0595    1.0000 </r>
       <r>  -41.9713    1.0000 </r>
       <r>    4.2943    1.0000 </r>
       <r>    4.3306    1.0000 </r>
       <r>    5.0092    1.0000 </r>
       <r>    7.1552    1.0000 </r>
       <r>    7.3580    1.0000 </r>
       <r>    7.5387    1.0000 </r>
       <r>    7.8672    1.0000 </r>
       <r>   10.2254    0.2833 </r>
       <r>   10.4666    0.0000 </r>
       <r>   10.6503    0.0000 </r>
       <r>   12.3911    0.0000 </r>
       <r>   13.7768    0.0000 </r>
       <r>   17.2403    0.0000 </r>
       <r>   18.8373    0.0000 </r>
       <r>   19.2671    0.0000 </r>
       <r>   22.0417    0.0000 </r>
       <r>   23.2695    0.0000 </r>
       <r>   26.0781    0.0000 </r>
      </set>
      <set comment="kpoint 7">
       <r>  -42.1626    1.0000 </r>
       <r>  -42.1524    1.0000 </r>
       <r>  -42.1308    1.0000 </r>
       <r>  -42.0938    1.0000 </r>
       <r>  -42.0621    1.0000 </r>
       <r>  -41.9254    1.0000 </r>
       <r>    2.0232    1.0000 </r>
       <r>    4.4834    1.0000 </r>
       <r>    6.2976    1.0000 </r>
       <r>    6.9955    1.0000 </r>
       <r>    7.1760    1.0000 </r>
       <r>    7.2841    1.0000 </r>
       <r>    7.8575    1.0000 </r>
       <r>    7.8824    1.0000 </r>
       <r>    8.1834    1.0000 </r>
       <r>    8.4755    1.0000 </r>
       <r>   10.0959    0.9990 </r>
       <r>   13.2926    0.0000 </r>
       <r>   14.5364    0.0000 </r>
       <r>   25.3746    0.0000 </r>
       <r>   25.7768    0.0000 </r>
       <r>   27.2682    0.0000 </r>
       <r>   28.2051    0.0000 </r>
       <r>   28.7917    0.0000 </r>
      </set>
      <set comment="kpoint 8">
       <r>  -42.2328    1.0000 </r>
       <r>  -42.2115    1.0000 </r>
       <r>  -42.1304    1.0000 </r>
       <r>  -42.1246    1.0000 </r>
       <r>  -42.0868    1.0000 </r>
       <r>  -41.9359    1.0000 </r>
       <r>    3.1476    1.0000 </r>
       <r>    5.0741    1.0000 </r>
       <r>    6.1312    1.0000 </r>
       <r>    6.1997    1.0000 </r>
       <r>    6.7460    1.0000 </r>
       <r>    7.4322    1.0000 </r>
       <r>    7.8463    1.0000 </r>
       <r>    8.1390    1.0000 </r>
       <r>    8.8302    1.0000 </r>
       <r>    9.1970    1.0000 </r>
       <r>   10.0971    0.9989 </r>
       <r>   14.6111    0.0000 </r>
       <r>   15.2882    0.0000 </r>
       <r>   22.0048    0.0000 </r>
       <r>   23.9244    0.0000 </r>
       <r>   26.3756    0.0000 </r>
       <r>   28.1510    0.0000 </r>
       <r>   28.5046    0.0000 </r>
      </set>
      <set comment="kpoint 9">
       <r>  -42.3169    1.0000 </r>
       <r>  -42.2873    1.0000 </r>
       <r>  -42.1567    1.0000 </r>
       <r>  -42.1107    1.0000 </r>
       <r>  -42.0916    1.0000 </r>
       <r>  -41.9528    1.0000 </r>
       <r>    4.1890    1.0000 </r>
       <r>    4.8663    1.0000 </r>
       <r>    5.4833    1.0000 </r>
       <r>    6.5888    1.0000 </r>
       <r>    7.1602    1.0000 </r>
       <r>    7.1604    1.0000 </r>
       <r>    7.6899    1.0000 </r>
       <r>    8.8551    1.0000 </r>
       <r>    9.8201    1.0000 </r>
       <r>   10.0857    0.9996 </r>
       <r>   10.5090    0.0000 </r>
       <r>   15.2251    0.0000 </r>
       <r>   17.3482    0.0000 </r>
       <r>   18.2615    0.0000 </r>
       <r>   21.8926    0.0000 </r>
       <r>   24.7856    0.0000 </r>
       <r>   24.8814    0.0000 </r>
       <r>   26.9806    0.0000 </r>
      </set>
      <set comment="kpoint 10">
       <r>  -42.3686    1.0000 </r>
       <r>  -42.3341    1.0000 </r>
       <r>  -42.1765    1.0000 </r>
       <r>  -42.1251    1.0000 </r>
       <r>  -42.0599    1.0000 </r>
       <r>  -41.9710    1.0000 </r>
       <r>    4.5279    1.0000 </r>
       <r>    4.6141    1.0000 </r>
       <r>    5.1116    1.0000 </r>
       <r>    7.1101    1.0000 </r>
       <r>    7.3208    1.0000 </r>
       <r>    7.3254    1.0000 </r>
       <r>    7.6278    1.0000 </r>
       <r>    9.9807    1.0000 </r>
       <r>   10.0706    0.9999 </r>
       <r>   10.3219    0.0005 </r>
       <r>   12.1230    0.0000 </r>
       <r>   14.9546    0.0000 </r>
       <r>   16.8782    0.0000 </r>
       <r>   18.9900    0.0000 </r>
       <r>   19.6896    0.0000 </r>
       <r>   22.0045    0.0000 </r>
       <r>   23.7050    0.0000 </r>
       <r>   25.9877    0.0000 </r>
      </set>
      <set comment="kpoint 11">
       <r>  -42.2801    1.0000 </r>
       <r>  -42.2797    1.0000 </r>
       <r>  -42.1612    1.0000 </r>
       <r>  -42.1281    1.0000 </r>
       <r>  -42.0962    1.0000 </r>
       <r>  -41.9505    1.0000 </r>
       <r>    4.3143    1.0000 </r>
       <r>    5.6451    1.0000 </r>
       <r>    5.6709    1.0000 </r>
       <r>    5.7161    1.0000 </r>
       <r>    6.9420    1.0000 </r>
       <r>    6.9857    1.0000 </r>
       <r>    7.8683    1.0000 </r>
       <r>    8.1791    1.0000 </r>
       <r>    9.8077    1.0000 </r>
       <r>    9.9351    1.0000 </r>
       <r>   10.5840    0.0000 </r>
       <r>   15.1832    0.0000 </r>
       <r>   17.2133    0.0000 </r>
       <r>   19.7129    0.0000 </r>
       <r>   20.6368    0.0000 </r>
       <r>   25.6196    0.0000 </r>
       <r>   26.4492    0.0000 </r>
       <r>   27.0679    0.0000 </r>
      </set>
      <set comment="kpoint 12">
       <r>  -42.3310    1.0000 </r>
       <r>  -42.3075    1.0000 </r>
       <r>  -42.2035    1.0000 </r>
       <r>  -42.1637    1.0000 </r>
       <r>  -42.0604    1.0000 </r>
       <r>  -41.9705    1.0000 </r>
       <r>    5.0917    1.0000 </r>
       <r>    5.3168    1.0000 </r>
       <r>    5.3285    1.0000 </r>
       <r>    6.3883    1.0000 </r>
       <r>    6.8523    1.0000 </r>
       <r>    7.4235    1.0000 </r>
       <r>    7.4528    1.0000 </r>
       <r>    8.9047    1.0000 </r>
       <r>    9.8109    1.0000 </r>
       <r>   10.2075    0.4737 </r>
       <r>   12.1502    0.0000 </r>
       <r>   16.1554    0.0000 </r>
       <r>   17.1295    0.0000 </r>
       <r>   18.7719    0.0000 </r>
       <r>   19.2303    0.0000 </r>
       <r>   23.4527    0.0000 </r>
       <r>   24.7100    0.0000 </r>
       <r>   25.6267    0.0000 </r>
      </set>
      <set comment="kpoint 13">
       <r>  -42.3498    1.0000 </r>
       <r>  -42.3149    1.0000 </r>
       <r>  -42.2239    1.0000 </r>
       <r>  -42.1769    1.0000 </r>
       <r>  -42.0400    1.0000 </r>
       <r>  -41.9853    1.0000 </r>
       <r>    5.1882    1.0000 </r>
       <r>    5.1926    1.0000 </r>
       <r>    5.2119    1.0000 </r>
       <r>    6.9256    1.0000 </r>
       <r>    6.9775    1.0000 </r>
       <r>    7.0790    1.0000 </r>
       <r>    7.7009    1.0000 </r>
       <r>    9.6010    1.0000 </r>
       <r>    9.7657    1.0000 </r>
       <r>   10.0307    1.0000 </r>
       <r>   13.7234    0.0000 </r>
       <r>   14.1646    0.0000 </r>
       <r>   17.4911    0.0000 </r>
       <r>   18.9659    0.0000 </r>
       <r>   20.4221    0.0000 </r>
       <r>   21.3184    0.0000 </r>
       <r>   23.7719    0.0000 </r>
       <r>   25.2407    0.0000 </r>
      </set>
      <set comment="kpoint 14">
       <r>  -42.3199    1.0000 </r>
       <r>  -42.2930    1.0000 </r>
       <r>  -42.2546    1.0000 </r>
       <r>  -42.2201    1.0000 </r>
       <r>  -42.0284    1.0000 </r>
       <r>  -41.9941    1.0000 </r>
       <r>    5.2809    1.0000 </r>
       <r>    5.6254    1.0000 </r>
       <r>    5.8699    1.0000 </r>
       <r>    6.2834    1.0000 </r>
       <r>    6.8089    1.0000 </r>
       <r>    7.0566    1.0000 </r>
       <r>    7.7836    1.0000 </r>
       <r>    9.2344    1.0000 </r>
       <r>    9.6154    1.0000 </r>
       <r>    9.8865    1.0000 </r>
       <r>   13.7011    0.0000 </r>
       <r>   14.9664    0.0000 </r>
       <r>   16.4005    0.0000 </r>
       <r>   19.7223    0.0000 </r>
       <r>   21.2915    0.0000 </r>
       <r>   22.4256    0.0000 </r>
       <r>   23.1812    0.0000 </r>
       <r>   23.6517    0.0000 </r>
      </set>
      <set comment="kpoint 15">
       <r>  -42.1800    1.0000 </r>
       <r>  -42.0731    1.0000 </r>
       <r>  -42.0731    1.0000 </r>
       <r>  -42.0419    1.0000 </r>
       <r>  -42.0419    1.0000 </r>
       <r>  -41.9289    1.0000 </r>
       <r>    1.1567    1.0000 </r>
       <r>    3.6102    1.0000 </r>
       <r>    6.5776    1.0000 </r>
       <r>    7.0454    1.0000 </r>
       <r>    7.0454    1.0000 </r>
       <r>    7.3640    1.0000 </r>
       <r>    7.3640    1.0000 </r>
       <r>    8.6530    1.0000 </r>
       <r>    8.6530    1.0000 </r>
       <r>    9.1168    1.0000 </r>
       <r>    9.9948    1.0000 </r>
       <r>    9.9948    1.0000 </r>
       <r>   15.4700    0.0000 </r>
       <r>   24.9085    0.0000 </r>
       <r>   26.3620    0.0000 </r>
       <r>   27.1637    0.0000 </r>
       <r>   30.2740    0.0000 </r>
       <r>   30.2740    0.0000 </r>
      </set>
      <set comment="kpoint 16">
       <r>  -42.1718    1.0000 </r>
       <r>  -42.1016    1.0000 </r>
       <r>  -42.0816    1.0000 </r>
       <r>  -42.0726    1.0000 </r>
       <r>  -42.0482    1.0000 </r>
       <r>  -41.9300    1.0000 </r>
       <r>    1.4981    1.0000 </r>
       <r>    3.9257    1.0000 </r>
       <r>    6.5475    1.0000 </r>
       <r>    6.9981    1.0000 </r>
       <r>    7.1730    1.0000 </r>
       <r>    7.2924    1.0000 </r>
       <r>    7.6024    1.0000 </r>
       <r>    8.0226    1.0000 </r>
       <r>    8.5148    1.0000 </r>
       <r>    8.5585    1.0000 </r>
       <r>   10.0407    1.0000 </r>
       <r>   11.2139    0.0000 </r>
       <r>   15.5682    0.0000 </r>
       <r>   25.3396    0.0000 </r>
       <r>   26.7200    0.0000 </r>
       <r>   27.4344    0.0000 </r>
       <r>   28.6870    0.0000 </r>
       <r>   29.1773    0.0000 </r>
      </set>
      <set comment="kpoint 17">
       <r>  -42.1858    1.0000 </r>
       <r>  -42.1526    1.0000 </r>
       <r>  -42.1388    1.0000 </r>
       <r>  -42.1034    1.0000 </r>
       <r>  -42.0648    1.0000 </r>
       <r>  -41.9354    1.0000 </r>
       <r>    2.4266    1.0000 </r>
       <r>    4.6346    1.0000 </r>
       <r>    6.3626    1.0000 </r>
       <r>    6.5526    1.0000 </r>
       <r>    6.8303    1.0000 </r>
       <r>    7.5525    1.0000 </r>
       <r>    7.8921    1.0000 </r>
       <r>    8.2087    1.0000 </r>
       <r>    8.2800    1.0000 </r>
       <r>    8.3689    1.0000 </r>
       <r>   10.1107    0.9962 </r>
       <r>   12.6406    0.0000 </r>
       <r>   16.0118    0.0000 </r>
       <r>   23.9287    0.0000 </r>
       <r>   26.7464    0.0000 </r>
       <r>   27.0153    0.0000 </r>
       <r>   27.4440    0.0000 </r>
       <r>   28.5498    0.0000 </r>
      </set>
      <set comment="kpoint 18">
       <r>  -42.2790    1.0000 </r>
       <r>  -42.2478    1.0000 </r>
       <r>  -42.1301    1.0000 </r>
       <r>  -42.1071    1.0000 </r>
       <r>  -42.0862    1.0000 </r>
       <r>  -41.9469    1.0000 </r>
       <r>    3.5427    1.0000 </r>
       <r>    4.7941    1.0000 </r>
       <r>    5.7966    1.0000 </r>
       <r>    6.4281    1.0000 </r>
       <r>    6.9286    1.0000 </r>
       <r>    7.7189    1.0000 </r>
       <r>    7.7619    1.0000 </r>
       <r>    8.7598    1.0000 </r>
       <r>    9.0913    1.0000 </r>
       <r>    9.2350    1.0000 </r>
       <r>   10.1507    0.9384 </r>
       <r>   13.6730    0.0000 </r>
       <r>   17.0304    0.0000 </r>
       <r>   20.3850    0.0000 </r>
       <r>   24.8009    0.0000 </r>
       <r>   24.9344    0.0000 </r>
       <r>   26.4189    0.0000 </r>
       <r>   28.2673    0.0000 </r>
      </set>
      <set comment="kpoint 19">
       <r>  -42.3561    1.0000 </r>
       <r>  -42.3232    1.0000 </r>
       <r>  -42.1511    1.0000 </r>
       <r>  -42.1032    1.0000 </r>
       <r>  -42.0718    1.0000 </r>
       <r>  -41.9629    1.0000 </r>
       <r>    4.1060    1.0000 </r>
       <r>    4.4893    1.0000 </r>
       <r>    5.3516    1.0000 </r>
       <r>    6.4761    1.0000 </r>
       <r>    7.4704    1.0000 </r>
       <r>    7.5279    1.0000 </r>
       <r>    8.1823    1.0000 </r>
       <r>    9.9878    1.0000 </r>
       <r>   10.0701    0.9999 </r>
       <r>   10.3086    0.0017 </r>
       <r>   10.3665    0.0000 </r>
       <r>   14.7240    0.0000 </r>
       <r>   16.5919    0.0000 </r>
       <r>   18.6799    0.0000 </r>
       <r>   21.8465    0.0000 </r>
       <r>   23.0286    0.0000 </r>
       <r>   24.2945    0.0000 </r>
       <r>   26.8306    0.0000 </r>
      </set>
      <set comment="kpoint 20">
       <r>  -42.3851    1.0000 </r>
       <r>  -42.3526    1.0000 </r>
       <r>  -42.1593    1.0000 </r>
       <r>  -42.1095    1.0000 </r>
       <r>  -42.0542    1.0000 </r>
       <r>  -41.9729    1.0000 </r>
       <r>    4.1935    1.0000 </r>
       <r>    4.3210    1.0000 </r>
       <r>    5.2096    1.0000 </r>
       <r>    6.5376    1.0000 </r>
       <r>    7.4414    1.0000 </r>
       <r>    7.6094    1.0000 </r>
       <r>    8.6093    1.0000 </r>
       <r>   10.0646    1.0000 </r>
       <r>   10.4854    0.0000 </r>
       <r>   10.6444    0.0000 </r>
       <r>   12.1830    0.0000 </r>
       <r>   13.6818    0.0000 </r>
       <r>   17.0823    0.0000 </r>
       <r>   17.7567    0.0000 </r>
       <r>   20.5976    0.0000 </r>
       <r>   22.3127    0.0000 </r>
       <r>   23.4093    0.0000 </r>
       <r>   26.3494    0.0000 </r>
      </set>
      <set comment="kpoint 21">
       <r>  -42.1662    1.0000 </r>
       <r>  -42.1387    1.0000 </r>
       <r>  -42.1319    1.0000 </r>
       <r>  -42.0933    1.0000 </r>
       <r>  -42.0636    1.0000 </r>
       <r>  -41.9335    1.0000 </r>
       <r>    2.1413    1.0000 </r>
       <r>    4.4818    1.0000 </r>
       <r>    6.3264    1.0000 </r>
       <r>    6.7478    1.0000 </r>
       <r>    7.0777    1.0000 </r>
       <r>    7.2961    1.0000 </r>
       <r>    7.7955    1.0000 </r>
       <r>    8.0013    1.0000 </r>
       <r>    8.2690    1.0000 </r>
       <r>    8.5374    1.0000 </r>
       <r>   10.0490    1.0000 </r>
       <r>   12.3105    0.0000 </r>
       <r>   15.8459    0.0000 </r>
       <r>   25.3643    0.0000 </r>
       <r>   25.8557    0.0000 </r>
       <r>   27.0800    0.0000 </r>
       <r>   27.7463    0.0000 </r>
       <r>   29.0567    0.0000 </r>
      </set>
      <set comment="kpoint 22">
       <r>  -42.2350    1.0000 </r>
       <r>  -42.2136    1.0000 </r>
       <r>  -42.1243    1.0000 </r>
       <r>  -42.1192    1.0000 </r>
       <r>  -42.0883    1.0000 </r>
       <r>  -41.9420    1.0000 </r>
       <r>    3.2366    1.0000 </r>
       <r>    5.1043    1.0000 </r>
       <r>    6.0281    1.0000 </r>
       <r>    6.1931    1.0000 </r>
       <r>    6.7232    1.0000 </r>
       <r>    7.3348    1.0000 </r>
       <r>    7.9879    1.0000 </r>
       <r>    8.1243    1.0000 </r>
       <r>    8.9326    1.0000 </r>
       <r>    9.1491    1.0000 </r>
       <r>   10.0504    1.0000 </r>
       <r>   13.4040    0.0000 </r>
       <r>   16.6714    0.0000 </r>
       <r>   22.1782    0.0000 </r>
       <r>   24.0499    0.0000 </r>
       <r>   26.2207    0.0000 </r>
       <r>   27.4565    0.0000 </r>
       <r>   29.1641    0.0000 </r>
      </set>
      <set comment="kpoint 23">
       <r>  -42.3177    1.0000 </r>
       <r>  -42.2901    1.0000 </r>
       <r>  -42.1555    1.0000 </r>
       <r>  -42.1127    1.0000 </r>
       <r>  -42.0835    1.0000 </r>
       <r>  -41.9563    1.0000 </r>
       <r>    4.1814    1.0000 </r>
       <r>    4.8980    1.0000 </r>
       <r>    5.5361    1.0000 </r>
       <r>    6.3379    1.0000 </r>
       <r>    7.1242    1.0000 </r>
       <r>    7.4802    1.0000 </r>
       <r>    7.7031    1.0000 </r>
       <r>    8.8704    1.0000 </r>
       <r>    9.8631    1.0000 </r>
       <r>    9.9159    1.0000 </r>
       <r>   10.5617    0.0000 </r>
       <r>   14.4686    0.0000 </r>
       <r>   17.5754    0.0000 </r>
       <r>   19.0155    0.0000 </r>
       <r>   21.9803    0.0000 </r>
       <r>   24.0916    0.0000 </r>
       <r>   25.4346    0.0000 </r>
       <r>   27.1279    0.0000 </r>
      </set>
      <set comment="kpoint 24">
       <r>  -42.3692    1.0000 </r>
       <r>  -42.3370    1.0000 </r>
       <r>  -42.1750    1.0000 </r>
       <r>  -42.1274    1.0000 </r>
       <r>  -42.0542    1.0000 </r>
       <r>  -41.9726    1.0000 </r>
       <r>    4.4075    1.0000 </r>
       <r>    4.6187    1.0000 </r>
       <r>    5.3399    1.0000 </r>
       <r>    6.4816    1.0000 </r>
       <r>    7.2046    1.0000 </r>
       <r>    7.7233    1.0000 </r>
       <r>    8.1130    1.0000 </r>
       <r>    9.8797    1.0000 </r>
       <r>    9.9858    1.0000 </r>
       <r>   10.3601    0.0000 </r>
       <r>   12.0839    0.0000 </r>
       <r>   14.8001    0.0000 </r>
       <r>   16.4895    0.0000 </r>
       <r>   18.8410    0.0000 </r>
       <r>   20.2200    0.0000 </r>
       <r>   22.2631    0.0000 </r>
       <r>   23.9348    0.0000 </r>
       <r>   26.0196    0.0000 </r>
      </set>
      <set comment="kpoint 25">
       <r>  -42.2823    1.0000 </r>
       <r>  -42.2810    1.0000 </r>
       <r>  -42.1611    1.0000 </r>
       <r>  -42.1305    1.0000 </r>
       <r>  -42.0875    1.0000 </r>
       <r>  -41.9540    1.0000 </r>
       <r>    4.3512    1.0000 </r>
       <r>    5.5132    1.0000 </r>
       <r>    5.7343    1.0000 </r>
       <r>    5.8019    1.0000 </r>
       <r>    6.9529    1.0000 </r>
       <r>    6.9665    1.0000 </r>
       <r>    7.7585    1.0000 </r>
       <r>    8.3208    1.0000 </r>
       <r>    9.7421    1.0000 </r>
       <r>    9.9082    1.0000 </r>
       <r>   10.6485    0.0000 </r>
       <r>   14.4462    0.0000 </r>
       <r>   17.8150    0.0000 </r>
       <r>   20.1315    0.0000 </r>
       <r>   20.7886    0.0000 </r>
       <r>   25.3916    0.0000 </r>
       <r>   25.6168    0.0000 </r>
       <r>   27.7051    0.0000 </r>
      </set>
      <set comment="kpoint 26">
       <r>  -42.3314    1.0000 </r>
       <r>  -42.3100    1.0000 </r>
       <r>  -42.2032    1.0000 </r>
       <r>  -42.1660    1.0000 </r>
       <r>  -42.0541    1.0000 </r>
       <r>  -41.9718    1.0000 </r>
       <r>    4.9624    1.0000 </r>
       <r>    5.3426    1.0000 </r>
       <r>    5.4996    1.0000 </r>
       <r>    6.2093    1.0000 </r>
       <r>    6.9760    1.0000 </r>
       <r>    7.3258    1.0000 </r>
       <r>    7.5842    1.0000 </r>
       <r>    8.9618    1.0000 </r>
       <r>    9.6286    1.0000 </r>
       <r>   10.2996    0.0038 </r>
       <r>   12.1914    0.0000 </r>
       <r>   16.1509    0.0000 </r>
       <r>   16.5093    0.0000 </r>
       <r>   18.8352    0.0000 </r>
       <r>   20.0356    0.0000 </r>
       <r>   22.9614    0.0000 </r>
       <r>   24.7096    0.0000 </r>
       <r>   25.5607    0.0000 </r>
      </set>
      <set comment="kpoint 27">
       <r>  -42.3499    1.0000 </r>
       <r>  -42.3176    1.0000 </r>
       <r>  -42.2234    1.0000 </r>
       <r>  -42.1795    1.0000 </r>
       <r>  -42.0349    1.0000 </r>
       <r>  -41.9850    1.0000 </r>
       <r>    4.9290    1.0000 </r>
       <r>    5.2314    1.0000 </r>
       <r>    5.5841    1.0000 </r>
       <r>    6.4154    1.0000 </r>
       <r>    6.8489    1.0000 </r>
       <r>    7.5057    1.0000 </r>
       <r>    7.8561    1.0000 </r>
       <r>    9.5764    1.0000 </r>
       <r>    9.6243    1.0000 </r>
       <r>   10.0992    0.9986 </r>
       <r>   13.8057    0.0000 </r>
       <r>   14.2008    0.0000 </r>
       <r>   17.5242    0.0000 </r>
       <r>   18.6414    0.0000 </r>
       <r>   19.6121    0.0000 </r>
       <r>   22.4485    0.0000 </r>
       <r>   24.0034    0.0000 </r>
       <r>   24.3941    0.0000 </r>
      </set>
      <set comment="kpoint 28">
       <r>  -42.3191    1.0000 </r>
       <r>  -42.2955    1.0000 </r>
       <r>  -42.2559    1.0000 </r>
       <r>  -42.2228    1.0000 </r>
       <r>  -42.0241    1.0000 </r>
       <r>  -41.9927    1.0000 </r>
       <r>    5.3102    1.0000 </r>
       <r>    5.6076    1.0000 </r>
       <r>    5.9054    1.0000 </r>
       <r>    6.1814    1.0000 </r>
       <r>    6.9218    1.0000 </r>
       <r>    6.9623    1.0000 </r>
       <r>    7.7927    1.0000 </r>
       <r>    9.3196    1.0000 </r>
       <r>    9.4242    1.0000 </r>
       <r>    9.9718    1.0000 </r>
       <r>   13.7927    0.0000 </r>
       <r>   15.1061    0.0000 </r>
       <r>   16.6331    0.0000 </r>
       <r>   18.8730    0.0000 </r>
       <r>   21.4262    0.0000 </r>
       <r>   21.5715    0.0000 </r>
       <r>   23.3430    0.0000 </r>
       <r>   24.6635    0.0000 </r>
      </set>
      <set comment="kpoint 29">
       <r>  -42.1508    1.0000 </r>
       <r>  -42.0697    1.0000 </r>
       <r>  -42.0697    1.0000 </r>
       <r>  -42.0455    1.0000 </r>
       <r>  -42.0455    1.0000 </r>
       <r>  -41.9584    1.0000 </r>
       <r>    1.5245    1.0000 </r>
       <r>    3.5057    1.0000 </r>
       <r>    6.5090    1.0000 </r>
       <r>    7.0165    1.0000 </r>
       <r>    7.0165    1.0000 </r>
       <r>    7.2729    1.0000 </r>
       <r>    7.2729    1.0000 </r>
       <r>    7.9952    1.0000 </r>
       <r>    8.8863    1.0000 </r>
       <r>    8.8863    1.0000 </r>
       <r>    9.9065    1.0000 </r>
       <r>    9.9065    1.0000 </r>
       <r>   17.3594    0.0000 </r>
       <r>   24.3447    0.0000 </r>
       <r>   26.5406    0.0000 </r>
       <r>   26.5765    0.0000 </r>
       <r>   29.8541    0.0000 </r>
       <r>   29.8541    0.0000 </r>
      </set>
      <set comment="kpoint 30">
       <r>  -42.1474    1.0000 </r>
       <r>  -42.0943    1.0000 </r>
       <r>  -42.0777    1.0000 </r>
       <r>  -42.0775    1.0000 </r>
       <r>  -42.0521    1.0000 </r>
       <r>  -41.9567    1.0000 </r>
       <r>    1.8600    1.0000 </r>
       <r>    3.8353    1.0000 </r>
       <r>    6.5355    1.0000 </r>
       <r>    6.8570    1.0000 </r>
       <r>    6.9330    1.0000 </r>
       <r>    7.2508    1.0000 </r>
       <r>    7.5059    1.0000 </r>
       <r>    7.6369    1.0000 </r>
       <r>    8.7782    1.0000 </r>
       <r>    8.7834    1.0000 </r>
       <r>    9.9269    1.0000 </r>
       <r>   10.5068    0.0000 </r>
       <r>   17.5208    0.0000 </r>
       <r>   24.7916    0.0000 </r>
       <r>   26.7979    0.0000 </r>
       <r>   26.9443    0.0000 </r>
       <r>   28.3973    0.0000 </r>
       <r>   29.2004    0.0000 </r>
      </set>
      <set comment="kpoint 31">
       <r>  -42.1884    1.0000 </r>
       <r>  -42.1589    1.0000 </r>
       <r>  -42.1085    1.0000 </r>
       <r>  -42.0991    1.0000 </r>
       <r>  -42.0693    1.0000 </r>
       <r>  -41.9571    1.0000 </r>
       <r>    2.7501    1.0000 </r>
       <r>    4.5979    1.0000 </r>
       <r>    6.2021    1.0000 </r>
       <r>    6.4617    1.0000 </r>
       <r>    6.6199    1.0000 </r>
       <r>    7.3685    1.0000 </r>
       <r>    7.8153    1.0000 </r>
       <r>    8.1410    1.0000 </r>
       <r>    8.6508    1.0000 </r>
       <r>    8.6791    1.0000 </r>
       <r>    9.9484    1.0000 </r>
       <r>   11.4632    0.0000 </r>
       <r>   18.0010    0.0000 </r>
       <r>   24.2286    0.0000 </r>
       <r>   26.0457    0.0000 </r>
       <r>   26.7397    0.0000 </r>
       <r>   27.4804    0.0000 </r>
       <r>   28.6293    0.0000 </r>
      </set>
      <set comment="kpoint 32">
       <r>  -42.2805    1.0000 </r>
       <r>  -42.2551    1.0000 </r>
       <r>  -42.1249    1.0000 </r>
       <r>  -42.0913    1.0000 </r>
       <r>  -42.0825    1.0000 </r>
       <r>  -41.9617    1.0000 </r>
       <r>    3.7083    1.0000 </r>
       <r>    4.8161    1.0000 </r>
       <r>    5.6862    1.0000 </r>
       <r>    6.1952    1.0000 </r>
       <r>    7.0439    1.0000 </r>
       <r>    7.8006    1.0000 </r>
       <r>    7.9262    1.0000 </r>
       <r>    8.9730    1.0000 </r>
       <r>    9.0247    1.0000 </r>
       <r>    9.2309    1.0000 </r>
       <r>    9.9836    1.0000 </r>
       <r>   12.3345    0.0000 </r>
       <r>   18.4899    0.0000 </r>
       <r>   21.1446    0.0000 </r>
       <r>   23.8946    0.0000 </r>
       <r>   25.4520    0.0000 </r>
       <r>   26.4949    0.0000 </r>
       <r>   27.8571    0.0000 </r>
      </set>
      <set comment="kpoint 33">
       <r>  -42.3569    1.0000 </r>
       <r>  -42.3313    1.0000 </r>
       <r>  -42.1456    1.0000 </r>
       <r>  -42.1086    1.0000 </r>
       <r>  -42.0541    1.0000 </r>
       <r>  -41.9712    1.0000 </r>
       <r>    4.0410    1.0000 </r>
       <r>    4.5162    1.0000 </r>
       <r>    5.5353    1.0000 </r>
       <r>    5.9079    1.0000 </r>
       <r>    7.7335    1.0000 </r>
       <r>    7.7578    1.0000 </r>
       <r>    8.9915    1.0000 </r>
       <r>    9.5971    1.0000 </r>
       <r>   10.1040    0.9979 </r>
       <r>   10.1262    0.9873 </r>
       <r>   10.3116    0.0013 </r>
       <r>   13.3285    0.0000 </r>
       <r>   16.9161    0.0000 </r>
       <r>   19.3681    0.0000 </r>
       <r>   21.8712    0.0000 </r>
       <r>   23.7562    0.0000 </r>
       <r>   24.8213    0.0000 </r>
       <r>   27.2615    0.0000 </r>
      </set>
      <set comment="kpoint 34">
       <r>  -42.3863    1.0000 </r>
       <r>  -42.3604    1.0000 </r>
       <r>  -42.1534    1.0000 </r>
       <r>  -42.1157    1.0000 </r>
       <r>  -42.0397    1.0000 </r>
       <r>  -41.9782    1.0000 </r>
       <r>    4.0445    1.0000 </r>
       <r>    4.3702    1.0000 </r>
       <r>    5.4652    1.0000 </r>
       <r>    5.8602    1.0000 </r>
       <r>    7.6854    1.0000 </r>
       <r>    7.9142    1.0000 </r>
       <r>    9.6585    1.0000 </r>
       <r>    9.6605    1.0000 </r>
       <r>   10.5120    0.0000 </r>
       <r>   10.6280    0.0000 </r>
       <r>   11.5909    0.0000 </r>
       <r>   13.3674    0.0000 </r>
       <r>   16.7293    0.0000 </r>
       <r>   16.8854    0.0000 </r>
       <r>   22.1562    0.0000 </r>
       <r>   23.0660    0.0000 </r>
       <r>   23.7568    0.0000 </r>
       <r>   27.0623    0.0000 </r>
      </set>
      <set comment="kpoint 35">
       <r>  -42.1653    1.0000 </r>
       <r>  -42.1357    1.0000 </r>
       <r>  -42.1109    1.0000 </r>
       <r>  -42.0912    1.0000 </r>
       <r>  -42.0675    1.0000 </r>
       <r>  -41.9562    1.0000 </r>
       <r>    2.4834    1.0000 </r>
       <r>    4.4250    1.0000 </r>
       <r>    6.3818    1.0000 </r>
       <r>    6.4156    1.0000 </r>
       <r>    6.7344    1.0000 </r>
       <r>    7.2739    1.0000 </r>
       <r>    7.6967    1.0000 </r>
       <r>    7.9621    1.0000 </r>
       <r>    8.6646    1.0000 </r>
       <r>    8.7327    1.0000 </r>
       <r>    9.9065    1.0000 </r>
       <r>   11.2365    0.0000 </r>
       <r>   17.8542    0.0000 </r>
       <r>   25.2279    0.0000 </r>
       <r>   26.1088    0.0000 </r>
       <r>   26.7359    0.0000 </r>
       <r>   27.1179    0.0000 </r>
       <r>   28.3860    0.0000 </r>
      </set>
      <set comment="kpoint 36">
       <r>  -42.2380    1.0000 </r>
       <r>  -42.2190    1.0000 </r>
       <r>  -42.1210    1.0000 </r>
       <r>  -42.0975    1.0000 </r>
       <r>  -42.0878    1.0000 </r>
       <r>  -41.9593    1.0000 </r>
       <r>    3.4952    1.0000 </r>
       <r>    5.1309    1.0000 </r>
       <r>    5.7607    1.0000 </r>
       <r>    6.2709    1.0000 </r>
       <r>    6.5805    1.0000 </r>
       <r>    7.2013    1.0000 </r>
       <r>    7.9545    1.0000 </r>
       <r>    8.4799    1.0000 </r>
       <r>    9.0536    1.0000 </r>
       <r>    9.1340    1.0000 </r>
       <r>    9.9223    1.0000 </r>
       <r>   12.1091    0.0000 </r>
       <r>   18.4754    0.0000 </r>
       <r>   22.6805    0.0000 </r>
       <r>   24.2965    0.0000 </r>
       <r>   25.7506    0.0000 </r>
       <r>   26.9358    0.0000 </r>
       <r>   27.4782    0.0000 </r>
      </set>
      <set comment="kpoint 37">
       <r>  -42.3189    1.0000 </r>
       <r>  -42.2972    1.0000 </r>
       <r>  -42.1515    1.0000 </r>
       <r>  -42.1185    1.0000 </r>
       <r>  -42.0627    1.0000 </r>
       <r>  -41.9670    1.0000 </r>
       <r>    4.2036    1.0000 </r>
       <r>    4.9418    1.0000 </r>
       <r>    5.5459    1.0000 </r>
       <r>    6.0890    1.0000 </r>
       <r>    7.1690    1.0000 </r>
       <r>    7.7427    1.0000 </r>
       <r>    7.8873    1.0000 </r>
       <r>    8.9799    1.0000 </r>
       <r>    9.4913    1.0000 </r>
       <r>   10.0621    1.0000 </r>
       <r>   10.5912    0.0000 </r>
       <r>   13.1495    0.0000 </r>
       <r>   18.0974    0.0000 </r>
       <r>   20.3900    0.0000 </r>
       <r>   21.9518    0.0000 </r>
       <r>   23.7854    0.0000 </r>
       <r>   25.7509    0.0000 </r>
       <r>   26.8190    0.0000 </r>
      </set>
      <set comment="kpoint 38">
       <r>  -42.3698    1.0000 </r>
       <r>  -42.3448    1.0000 </r>
       <r>  -42.1703    1.0000 </r>
       <r>  -42.1336    1.0000 </r>
       <r>  -42.0390    1.0000 </r>
       <r>  -41.9772    1.0000 </r>
       <r>    4.2669    1.0000 </r>
       <r>    4.6735    1.0000 </r>
       <r>    5.6261    1.0000 </r>
       <r>    5.8843    1.0000 </r>
       <r>    7.2116    1.0000 </r>
       <r>    8.1404    1.0000 </r>
       <r>    8.7521    1.0000 </r>
       <r>    9.4624    1.0000 </r>
       <r>    9.9402    1.0000 </r>
       <r>   10.4534    0.0000 </r>
       <r>   12.0011    0.0000 </r>
       <r>   14.1662    0.0000 </r>
       <r>   16.2237    0.0000 </r>
       <r>   18.2999    0.0000 </r>
       <r>   21.3182    0.0000 </r>
       <r>   23.0037    0.0000 </r>
       <r>   24.4241    0.0000 </r>
       <r>   25.7768    0.0000 </r>
      </set>
      <set comment="kpoint 39">
       <r>  -42.2867    1.0000 </r>
       <r>  -42.2833    1.0000 </r>
       <r>  -42.1597    1.0000 </r>
       <r>  -42.1360    1.0000 </r>
       <r>  -42.0648    1.0000 </r>
       <r>  -41.9654    1.0000 </r>
       <r>    4.4623    1.0000 </r>
       <r>    5.3439    1.0000 </r>
       <r>    5.8051    1.0000 </r>
       <r>    5.9453    1.0000 </r>
       <r>    6.8787    1.0000 </r>
       <r>    6.9185    1.0000 </r>
       <r>    7.6348    1.0000 </r>
       <r>    8.7289    1.0000 </r>
       <r>    9.3463    1.0000 </r>
       <r>   10.1117    0.9959 </r>
       <r>   10.7248    0.0000 </r>
       <r>   13.1805    0.0000 </r>
       <r>   18.8157    0.0000 </r>
       <r>   21.1743    0.0000 </r>
       <r>   21.1958    0.0000 </r>
       <r>   24.5028    0.0000 </r>
       <r>   24.9076    0.0000 </r>
       <r>   27.4102    0.0000 </r>
      </set>
      <set comment="kpoint 40">
       <r>  -42.3322    1.0000 </r>
       <r>  -42.3161    1.0000 </r>
       <r>  -42.2016    1.0000 </r>
       <r>  -42.1725    1.0000 </r>
       <r>  -42.0378    1.0000 </r>
       <r>  -41.9763    1.0000 </r>
       <r>    4.8457    1.0000 </r>
       <r>    5.4646    1.0000 </r>
       <r>    5.4892    1.0000 </r>
       <r>    6.2169    1.0000 </r>
       <r>    6.8425    1.0000 </r>
       <r>    7.3853    1.0000 </r>
       <r>    7.7782    1.0000 </r>
       <r>    9.0756    1.0000 </r>
       <r>    9.3077    1.0000 </r>
       <r>   10.4709    0.0000 </r>
       <r>   12.2998    0.0000 </r>
       <r>   14.9928    0.0000 </r>
       <r>   16.8207    0.0000 </r>
       <r>   19.1992    0.0000 </r>
       <r>   20.7594    0.0000 </r>
       <r>   22.6642    0.0000 </r>
       <r>   24.0618    0.0000 </r>
       <r>   26.1769    0.0000 </r>
      </set>
      <set comment="kpoint 41">
       <r>  -42.3494    1.0000 </r>
       <r>  -42.3252    1.0000 </r>
       <r>  -42.2210    1.0000 </r>
       <r>  -42.1865    1.0000 </r>
       <r>  -42.0229    1.0000 </r>
       <r>  -41.9850    1.0000 </r>
       <r>    4.7883    1.0000 </r>
       <r>    5.3379    1.0000 </r>
       <r>    5.8808    1.0000 </r>
       <r>    6.0371    1.0000 </r>
       <r>    6.6108    1.0000 </r>
       <r>    7.8005    1.0000 </r>
       <r>    8.1545    1.0000 </r>
       <r>    9.1257    1.0000 </r>
       <r>    9.7121    1.0000 </r>
       <r>   10.2351    0.1985 </r>
       <r>   14.0517    0.0000 </r>
       <r>   14.3130    0.0000 </r>
       <r>   17.1743    0.0000 </r>
       <r>   17.8784    0.0000 </r>
       <r>   19.4371    0.0000 </r>
       <r>   23.2765    0.0000 </r>
       <r>   23.9260    0.0000 </r>
       <r>   24.7787    0.0000 </r>
      </set>
      <set comment="kpoint 42">
       <r>  -42.3169    1.0000 </r>
       <r>  -42.3020    1.0000 </r>
       <r>  -42.2579    1.0000 </r>
       <r>  -42.2302    1.0000 </r>
       <r>  -42.0140    1.0000 </r>
       <r>  -41.9906    1.0000 </r>
       <r>    5.3618    1.0000 </r>
       <r>    5.5386    1.0000 </r>
       <r>    6.0228    1.0000 </r>
       <r>    6.0879    1.0000 </r>
       <r>    6.7809    1.0000 </r>
       <r>    7.0493    1.0000 </r>
       <r>    7.8134    1.0000 </r>
       <r>    8.9496    1.0000 </r>
       <r>    9.5659    1.0000 </r>
       <r>   10.1333    0.9790 </r>
       <r>   14.0693    0.0000 </r>
       <r>   15.5351    0.0000 </r>
       <r>   17.2251    0.0000 </r>
       <r>   17.5627    0.0000 </r>
       <r>   20.0806    0.0000 </r>
       <r>   21.0776    0.0000 </r>
       <r>   24.4078    0.0000 </r>
       <r>   25.9829    0.0000 </r>
      </set>
      <set comment="kpoint 43">
       <r>  -42.1069    1.0000 </r>
       <r>  -42.0638    1.0000 </r>
       <r>  -42.0638    1.0000 </r>
       <r>  -42.0507    1.0000 </r>
       <r>  -42.0507    1.0000 </r>
       <r>  -42.0031    1.0000 </r>
       <r>    2.0792    1.0000 </r>
       <r>    3.2215    1.0000 </r>
       <r>    6.4724    1.0000 </r>
       <r>    7.0181    1.0000 </r>
       <r>    7.0182    1.0000 </r>
       <r>    7.0822    1.0000 </r>
       <r>    7.1621    1.0000 </r>
       <r>    7.1621    1.0000 </r>
       <r>    9.1886    1.0000 </r>
       <r>    9.1886    1.0000 </r>
       <r>    9.7389    1.0000 </r>
       <r>    9.7389    1.0000 </r>
       <r>   19.5884    0.0000 </r>
       <r>   23.5081    0.0000 </r>
       <r>   25.9912    0.0000 </r>
       <r>   26.0166    0.0000 </r>
       <r>   29.8267    0.0000 </r>
       <r>   29.8267    0.0000 </r>
      </set>
      <set comment="kpoint 44">
       <r>  -42.1176    1.0000 </r>
       <r>  -42.0862    1.0000 </r>
       <r>  -42.0768    1.0000 </r>
       <r>  -42.0717    1.0000 </r>
       <r>  -42.0579    1.0000 </r>
       <r>  -41.9968    1.0000 </r>
       <r>    2.4092    1.0000 </r>
       <r>    3.5581    1.0000 </r>
       <r>    6.4531    1.0000 </r>
       <r>    6.6032    1.0000 </r>
       <r>    6.8462    1.0000 </r>
       <r>    7.2272    1.0000 </r>
       <r>    7.2461    1.0000 </r>
       <r>    7.3914    1.0000 </r>
       <r>    9.1102    1.0000 </r>
       <r>    9.1634    1.0000 </r>
       <r>    9.7253    1.0000 </r>
       <r>   10.0050    1.0000 </r>
       <r>   19.7545    0.0000 </r>
       <r>   23.8394    0.0000 </r>
       <r>   26.2971    0.0000 </r>
       <r>   26.3803    0.0000 </r>
       <r>   28.4499    0.0000 </r>
       <r>   29.4606    0.0000 </r>
      </set>
      <set comment="kpoint 45">
       <r>  -42.1851    1.0000 </r>
       <r>  -42.1680    1.0000 </r>
       <r>  -42.0923    1.0000 </r>
       <r>  -42.0762    1.0000 </r>
       <r>  -42.0703    1.0000 </r>
       <r>  -41.9897    1.0000 </r>
       <r>    3.2471    1.0000 </r>
       <r>    4.3496    1.0000 </r>
       <r>    6.0013    1.0000 </r>
       <r>    6.3280    1.0000 </r>
       <r>    6.6268    1.0000 </r>
       <r>    7.1194    1.0000 </r>
       <r>    7.8217    1.0000 </r>
       <r>    8.0155    1.0000 </r>
       <r>    9.0026    1.0000 </r>
       <r>    9.1974    1.0000 </r>
       <r>    9.6907    1.0000 </r>
       <r>   10.5481    0.0000 </r>
       <r>   20.1398    0.0000 </r>
       <r>   24.3053    0.0000 </r>
       <r>   24.9118    0.0000 </r>
       <r>   26.0589    0.0000 </r>
       <r>   27.9525    0.0000 </r>
       <r>   28.2483    0.0000 </r>
      </set>
      <set comment="kpoint 46">
       <r>  -42.2792    1.0000 </r>
       <r>  -42.2647    1.0000 </r>
       <r>  -42.1172    1.0000 </r>
       <r>  -42.0988    1.0000 </r>
       <r>  -42.0505    1.0000 </r>
       <r>  -41.9858    1.0000 </r>
       <r>    3.9773    1.0000 </r>
       <r>    4.6616    1.0000 </r>
       <r>    5.6414    1.0000 </r>
       <r>    5.9989    1.0000 </r>
       <r>    7.2612    1.0000 </r>
       <r>    7.7181    1.0000 </r>
       <r>    8.1770    1.0000 </r>
       <r>    8.7823    1.0000 </r>
       <r>    9.3657    1.0000 </r>
       <r>    9.4353    1.0000 </r>
       <r>    9.7680    1.0000 </r>
       <r>   11.1403    0.0000 </r>
       <r>   19.8785    0.0000 </r>
       <r>   22.0627    0.0000 </r>
       <r>   22.9744    0.0000 </r>
       <r>   25.5316    0.0000 </r>
       <r>   26.4553    0.0000 </r>
       <r>   27.9516    0.0000 </r>
      </set>
      <set comment="kpoint 47">
       <r>  -42.3556    1.0000 </r>
       <r>  -42.3415    1.0000 </r>
       <r>  -42.1371    1.0000 </r>
       <r>  -42.1172    1.0000 </r>
       <r>  -42.0304    1.0000 </r>
       <r>  -41.9862    1.0000 </r>
       <r>    4.0845    1.0000 </r>
       <r>    4.4487    1.0000 </r>
       <r>    5.5053    1.0000 </r>
       <r>    5.6669    1.0000 </r>
       <r>    8.1209    1.0000 </r>
       <r>    8.2714    1.0000 </r>
       <r>    9.1014    1.0000 </r>
       <r>    9.5005    1.0000 </r>
       <r>   10.0307    1.0000 </r>
       <r>   10.1559    0.9184 </r>
       <r>   10.2731    0.0274 </r>
       <r>   12.0003    0.0000 </r>
       <r>   17.4727    0.0000 </r>
       <r>   18.9581    0.0000 </r>
       <r>   22.8835    0.0000 </r>
       <r>   24.8312    0.0000 </r>
       <r>   24.8720    0.0000 </r>
       <r>   27.4058    0.0000 </r>
      </set>
      <set comment="kpoint 48">
       <r>  -42.3849    1.0000 </r>
       <r>  -42.3709    1.0000 </r>
       <r>  -42.1451    1.0000 </r>
       <r>  -42.1243    1.0000 </r>
       <r>  -42.0213    1.0000 </r>
       <r>  -41.9876    1.0000 </r>
       <r>    4.0376    1.0000 </r>
       <r>    4.3354    1.0000 </r>
       <r>    5.4841    1.0000 </r>
       <r>    5.5183    1.0000 </r>
       <r>    8.0732    1.0000 </r>
       <r>    8.5691    1.0000 </r>
       <r>    9.1271    1.0000 </r>
       <r>   10.3115    0.0013 </r>
       <r>   10.5413    0.0000 </r>
       <r>   10.6027    0.0000 </r>
       <r>   11.1154    0.0000 </r>
       <r>   12.7813    0.0000 </r>
       <r>   16.4143    0.0000 </r>
       <r>   16.4252    0.0000 </r>
       <r>   23.4633    0.0000 </r>
       <r>   24.1156    0.0000 </r>
       <r>   24.1591    0.0000 </r>
       <r>   26.6791    0.0000 </r>
      </set>
      <set comment="kpoint 49">
       <r>  -42.1597    1.0000 </r>
       <r>  -42.1425    1.0000 </r>
       <r>  -42.0870    1.0000 </r>
       <r>  -42.0771    1.0000 </r>
       <r>  -42.0704    1.0000 </r>
       <r>  -41.9909    1.0000 </r>
       <r>    3.0087    1.0000 </r>
       <r>    4.1592    1.0000 </r>
       <r>    6.1386    1.0000 </r>
       <r>    6.4077    1.0000 </r>
       <r>    6.5712    1.0000 </r>
       <r>    7.0512    1.0000 </r>
       <r>    7.6902    1.0000 </r>
       <r>    7.8537    1.0000 </r>
       <r>    9.0312    1.0000 </r>
       <r>    9.1796    1.0000 </r>
       <r>    9.6723    1.0000 </r>
       <r>   10.4199    0.0000 </r>
       <r>   20.0517    0.0000 </r>
       <r>   24.3016    0.0000 </r>
       <r>   26.2889    0.0000 </r>
       <r>   26.5213    0.0000 </r>
       <r>   26.6395    0.0000 </r>
       <r>   27.4953    0.0000 </r>
      </set>
      <set comment="kpoint 50">
       <r>  -42.2375    1.0000 </r>
       <r>  -42.2260    1.0000 </r>
       <r>  -42.1155    1.0000 </r>
       <r>  -42.1010    1.0000 </r>
       <r>  -42.0560    1.0000 </r>
       <r>  -41.9859    1.0000 </r>
       <r>    3.8960    1.0000 </r>
       <r>    4.8758    1.0000 </r>
       <r>    5.7325    1.0000 </r>
       <r>    6.2263    1.0000 </r>
       <r>    6.5224    1.0000 </r>
       <r>    6.9821    1.0000 </r>
       <r>    8.0877    1.0000 </r>
       <r>    8.5679    1.0000 </r>
       <r>    9.3067    1.0000 </r>
       <r>    9.3736    1.0000 </r>
       <r>    9.7413    1.0000 </r>
       <r>   11.0006    0.0000 </r>
       <r>   20.3730    0.0000 </r>
       <r>   23.4520    0.0000 </r>
       <r>   23.8394    0.0000 </r>
       <r>   25.6080    0.0000 </r>
       <r>   25.7145    0.0000 </r>
       <r>   26.6202    0.0000 </r>
      </set>
      <set comment="kpoint 51">
       <r>  -42.3181    1.0000 </r>
       <r>  -42.3060    1.0000 </r>
       <r>  -42.1447    1.0000 </r>
       <r>  -42.1268    1.0000 </r>
       <r>  -42.0355    1.0000 </r>
       <r>  -41.9845    1.0000 </r>
       <r>    4.3178    1.0000 </r>
       <r>    4.8103    1.0000 </r>
       <r>    5.5652    1.0000 </r>
       <r>    5.9520    1.0000 </r>
       <r>    7.3732    1.0000 </r>
       <r>    7.7618    1.0000 </r>
       <r>    8.1539    1.0000 </r>
       <r>    8.8701    1.0000 </r>
       <r>    9.5609    1.0000 </r>
       <r>   10.2342    0.2060 </r>
       <r>   10.5830    0.0000 </r>
       <r>   11.8719    0.0000 </r>
       <r>   18.8726    0.0000 </r>
       <r>   20.6948    0.0000 </r>
       <r>   22.5028    0.0000 </r>
       <r>   24.2870    0.0000 </r>
       <r>   25.5646    0.0000 </r>
       <r>   25.6744    0.0000 </r>
      </set>
      <set comment="kpoint 52">
       <r>  -42.3684    1.0000 </r>
       <r>  -42.3546    1.0000 </r>
       <r>  -42.1626    1.0000 </r>
       <r>  -42.1425    1.0000 </r>
       <r>  -42.0197    1.0000 </r>
       <r>  -41.9866    1.0000 </r>
       <r>    4.2711    1.0000 </r>
       <r>    4.6249    1.0000 </r>
       <r>    5.5396    1.0000 </r>
       <r>    5.7236    1.0000 </r>
       <r>    7.5332    1.0000 </r>
       <r>    8.6023    1.0000 </r>
       <r>    8.7596    1.0000 </r>
       <r>    9.2614    1.0000 </r>
       <r>    9.9637    1.0000 </r>
       <r>   10.4490    0.0000 </r>
       <r>   12.0688    0.0000 </r>
       <r>   13.2781    0.0000 </r>
       <r>   16.4423    0.0000 </r>
       <r>   17.5985    0.0000 </r>
       <r>   22.5494    0.0000 </r>
       <r>   23.9066    0.0000 </r>
       <r>   24.7703    0.0000 </r>
       <r>   24.9806    0.0000 </r>
      </set>
      <set comment="kpoint 53">
       <r>  -42.2896    1.0000 </r>
       <r>  -42.2865    1.0000 </r>
       <r>  -42.1562    1.0000 </r>
       <r>  -42.1430    1.0000 </r>
       <r>  -42.0363    1.0000 </r>
       <r>  -41.9834    1.0000 </r>
       <r>    4.6434    1.0000 </r>
       <r>    5.1258    1.0000 </r>
       <r>    5.9411    1.0000 </r>
       <r>    6.0714    1.0000 </r>
       <r>    6.7304    1.0000 </r>
       <r>    6.7321    1.0000 </r>
       <r>    7.8114    1.0000 </r>
       <r>    8.7027    1.0000 </r>
       <r>    9.5535    1.0000 </r>
       <r>   10.2766    0.0217 </r>
       <r>   10.7668    0.0000 </r>
       <r>   11.9369    0.0000 </r>
       <r>   19.9328    0.0000 </r>
       <r>   21.5055    0.0000 </r>
       <r>   22.4418    0.0000 </r>
       <r>   23.4836    0.0000 </r>
       <r>   24.4607    0.0000 </r>
       <r>   26.0585    0.0000 </r>
      </set>
      <set comment="kpoint 54">
       <r>  -42.3315    1.0000 </r>
       <r>  -42.3232    1.0000 </r>
       <r>  -42.1975    1.0000 </r>
       <r>  -42.1811    1.0000 </r>
       <r>  -42.0177    1.0000 </r>
       <r>  -41.9849    1.0000 </r>
       <r>    4.8455    1.0000 </r>
       <r>    5.2051    1.0000 </r>
       <r>    5.7098    1.0000 </r>
       <r>    6.2527    1.0000 </r>
       <r>    6.8647    1.0000 </r>
       <r>    7.3797    1.0000 </r>
       <r>    7.9430    1.0000 </r>
       <r>    8.5885    1.0000 </r>
       <r>    9.7490    1.0000 </r>
       <r>   10.5165    0.0000 </r>
       <r>   12.5080    0.0000 </r>
       <r>   13.8108    0.0000 </r>
       <r>   17.5285    0.0000 </r>
       <r>   19.1457    0.0000 </r>
       <r>   21.0168    0.0000 </r>
       <r>   22.5219    0.0000 </r>
       <r>   24.2331    0.0000 </r>
       <r>   26.1003    0.0000 </r>
      </set>
      <set comment="kpoint 55">
       <r>  -42.3474    1.0000 </r>
       <r>  -42.3348    1.0000 </r>
       <r>  -42.2152    1.0000 </r>
       <r>  -42.1960    1.0000 </r>
       <r>  -42.0080    1.0000 </r>
       <r>  -41.9878    1.0000 </r>
       <r>    4.7991    1.0000 </r>
       <r>    5.2575    1.0000 </r>
       <r>    5.7027    1.0000 </r>
       <r>    6.1869    1.0000 </r>
       <r>    6.7192    1.0000 </r>
       <r>    7.7450    1.0000 </r>
       <r>    8.4099    1.0000 </r>
       <r>    8.7175    1.0000 </r>
       <r>    9.8973    1.0000 </r>
       <r>   10.2770    0.0211 </r>
       <r>   14.4202    0.0000 </r>
       <r>   14.4954    0.0000 </r>
       <r>   16.5383    0.0000 </r>
       <r>   17.0156    0.0000 </r>
       <r>   20.1577    0.0000 </r>
       <r>   22.2394    0.0000 </r>
       <r>   25.1363    0.0000 </r>
       <r>   25.4369    0.0000 </r>
      </set>
      <set comment="kpoint 56">
       <r>  -42.3147    1.0000 </r>
       <r>  -42.3083    1.0000 </r>
       <r>  -42.2562    1.0000 </r>
       <r>  -42.2396    1.0000 </r>
       <r>  -42.0023    1.0000 </r>
       <r>  -41.9898    1.0000 </r>
       <r>    5.3850    1.0000 </r>
       <r>    5.4486    1.0000 </r>
       <r>    6.1046    1.0000 </r>
       <r>    6.1673    1.0000 </r>
       <r>    6.7062    1.0000 </r>
       <r>    7.0375    1.0000 </r>
       <r>    7.8741    1.0000 </r>
[...]
       </set>
       <set comment="band 12">
        <r>  0.0000  0.0000  0.0000  0.0000  0.0000  0.0486  0.0000  0.0427  0.0000 </r>
        <r>  0.0166  0.0112  0.0000  0.0043  0.1076  0.0000  0.4199  0.0000  0.0879 </r>
       </set>
       <set comment="band 13">
        <r>  0.0035  0.0009  0.0000  0.0004  0.0653  0.0000  0.0014  0.0000  0.0476 </r>
        <r>  0.0000  0.0000  0.0002  0.0000  0.0000  0.2096  0.0000  0.5130  0.0000 </r>
       </set>
       <set comment="band 14">
        <r>  0.0000  0.0000  0.0002  0.0000  0.0000  0.2096  0.0000  0.5130  0.0000 </r>
        <r>  0.0035  0.0009  0.0000  0.0004  0.0653  0.0000  0.0014  0.0000  0.0476 </r>
       </set>
       <set comment="band 15">
        <r>  0.0048  0.0001  0.0000  0.0000  0.1779  0.0000  0.3488  0.0000  0.0632 </r>
        <r>  0.0000  0.0000  0.0018  0.0000  0.0000  0.1890  0.0000  0.1422  0.0000 </r>
       </set>
       <set comment="band 16">
        <r>  0.0000  0.0000  0.0018  0.0000  0.0000  0.1890  0.0000  0.1422  0.0000 </r>
        <r>  0.0048  0.0001  0.0000  0.0000  0.1779  0.0000  0.3488  0.0000  0.0632 </r>
       </set>
       <set comment="band 17">
        <r>  0.0889  0.0205  0.0000  0.0070  0.3047  0.0000  0.0085  0.0000  0.1093 </r>
        <r>  0.0000  0.0000  0.0104  0.0000  0.0000  0.1338  0.0000  0.0472  0.0000 </r>
       </set>
       <set comment="band 18">
        <r>  0.0000  0.0000  0.0104  0.0000  0.0000  0.1338  0.0000  0.0472  0.0000 </r>
        <r>  0.0889  0.0205  0.0000  0.0070  0.3047  0.0000  0.0085  0.0000  0.1093 </r>
       </set>
       <set comment="band 19">
        <r>  0.2619  0.0538  0.0000  0.0190  0.0090  0.0000  0.0098  0.0000  0.0042 </r>
        <r>  0.0000  0.0000  0.0323  0.0000  0.0000  0.0193  0.0000  0.0427  0.0000 </r>
       </set>
       <set comment="band 20">
        <r>  0.0000  0.0000  0.0323  0.0000  0.0000  0.0193  0.0000  0.0427  0.0000 </r>
        <r>  0.2619  0.0538  0.0000  0.0190  0.0090  0.0000  0.0098  0.0000  0.0042 </r>
       </set>
       <set comment="band 21">
        <r>  0.0006  0.0426  0.0000  0.0654  0.0329  0.0000  0.0440  0.0000  0.0985 </r>
        <r>  0.0000  0.0000  0.0756  0.0000  0.0000  0.0084  0.0000  0.0170  0.0000 </r>
       </set>
       <set comment="band 22">
        <r>  0.0000  0.0000  0.0756  0.0000  0.0000  0.0084  0.0000  0.0170  0.0000 </r>
        <r>  0.0006  0.0426  0.0000  0.0654  0.0329  0.0000  0.0440  0.0000  0.0985 </r>
       </set>
       <set comment="band 23">
        <r>  0.0010  0.0420  0.0000  0.0349  0.0158  0.0000  0.0555  0.0000  0.0475 </r>
        <r>  0.0000  0.0000  0.0398  0.0000  0.0000  0.0677  0.0000  0.0269  0.0000 </r>
       </set>
       <set comment="band 24">
        <r>  0.0000  0.0000  0.0398  0.0000  0.0000  0.0677  0.0000  0.0269  0.0000 </r>
        <r>  0.0010  0.0420  0.0000  0.0349  0.0158  0.0000  0.0555  0.0000  0.0475 </r>
       </set>
      </set>
      <set comment="kpoint 68">
       <set comment="band 1">
        <r>  0.0000  0.4904  0.0000  0.4596  0.0000  0.0000  0.0000  0.0000  0.0000 </r>
        <r>  0.0000  0.0000  0.0361  0.0000  0.0000  0.0000  0.0000  0.0000  0.0000 </r>
       </set>
       <set comment="band 2">
        <r>  0.0000  0.0000  0.0361  0.0000  0.0000  0.0000  0.0000  0.0000  0.0000 </r>
        <r>  0.0000  0.4904  0.0000  0.4596  0.0000  0.0000  0.0000  0.0000  0.0000 </r>
       </set>
       <set comment="band 3">
        <r>  0.0000  0.4687  0.0000  0.5004  0.0000  0.0000  0.0000  0.0000  0.0000 </r>
        <r>  0.0000  0.0000  0.0218  0.0000  0.0000  0.0000  0.0000  0.0000  0.0000 </r>
       </set>
       <set comment="band 4">
        <r>  0.0000  0.0000  0.0218  0.0000  0.0000  0.0000  0.0000  0.0000  0.0000 </r>
        <r>  0.0000  0.4687  0.0000  0.5004  0.0000  0.0000  0.0000  0.0000  0.0000 </r>
       </set>
       <set comment="band 5">
        <r>  0.0000  0.0298  0.0000  0.0291  0.0000  0.0000  0.0000  0.0000  0.0000 </r>
        <r>  0.0000  0.0000  0.9333  0.0000  0.0000  0.0000  0.0000  0.0000  0.0000 </r>
       </set>
       <set comment="band 6">
        <r>  0.0000  0.0000  0.9333  0.0000  0.0000  0.0000  0.0000  0.0000  0.0000 </r>
        <r>  0.0000  0.0298  0.0000  0.0291  0.0000  0.0000  0.0000  0.0000  0.0000 </r>
       </set>
       <set comment="band 7">
        <r>  0.0635  0.0054  0.0000  0.0016  0.0970  0.0000  0.0558  0.0000  0.0371 </r>
        <r>  0.0000  0.0000  0.0023  0.0000  0.0000  0.1927  0.0000  0.1777  0.0000 </r>
       </set>
       <set comment="band 8">
        <r>  0.0000  0.0000  0.0023  0.0000  0.0000  0.1927  0.0000  0.1777  0.0000 </r>
        <r>  0.0635  0.0054  0.0000  0.0016  0.0970  0.0000  0.0558  0.0000  0.0371 </r>
       </set>
       <set comment="band 9">
        <r>  0.0074  0.0063  0.0000  0.0043  0.2670  0.0000  0.1269  0.0000  0.2136 </r>
        <r>  0.0000  0.0000  0.0025  0.0000  0.0000  0.0713  0.0000  0.0307  0.0000 </r>
       </set>
       <set comment="band 10">
        <r>  0.0000  0.0000  0.0025  0.0000  0.0000  0.0713  0.0000  0.0307  0.0000 </r>
        <r>  0.0074  0.0063  0.0000  0.0043  0.2670  0.0000  0.1269  0.0000  0.2136 </r>
       </set>
       <set comment="band 11">
        <r>  0.0154  0.0098  0.0000  0.0178  0.0585  0.0000  0.1461  0.0000  0.1759 </r>
        <r>  0.0000  0.0000  0.0037  0.0000  0.0000  0.0951  0.0000  0.1564  0.0000 </r>
       </set>
       <set comment="band 12">
        <r>  0.0000  0.0000  0.0037  0.0000  0.0000  0.0951  0.0000  0.1564  0.0000 </r>
        <r>  0.0154  0.0098  0.0000  0.0178  0.0585  0.0000  0.1461  0.0000  0.1759 </r>
       </set>
       <set comment="band 13">
        <r>  0.0129  0.0014  0.0000  0.0036  0.0739  0.0000  0.0363  0.0000  0.2117 </r>
        <r>  0.0000  0.0000  0.0003  0.0000  0.0000  0.2178  0.0000  0.2678  0.0000 </r>
       </set>
       <set comment="band 14">
        <r>  0.0000  0.0000  0.0003  0.0000  0.0000  0.2178  0.0000  0.2678  0.0000 </r>
        <r>  0.0129  0.0014  0.0000  0.0036  0.0739  0.0000  0.0363  0.0000  0.2117 </r>
       </set>
       <set comment="band 15">
        <r>  0.0034  0.0013  0.0000  0.0004  0.0936  0.0000  0.4805  0.0000  0.0386 </r>
        <r>  0.0000  0.0000  0.0017  0.0000  0.0000  0.1745  0.0000  0.1290  0.0000 </r>
       </set>
       <set comment="band 16">
        <r>  0.0000  0.0000  0.0017  0.0000  0.0000  0.1745  0.0000  0.1290  0.0000 </r>
        <r>  0.0034  0.0013  0.0000  0.0004  0.0936  0.0000  0.4805  0.0000  0.0386 </r>
       </set>
       <set comment="band 17">
        <r>  0.1059  0.0291  0.0000  0.0206  0.2647  0.0000  0.0055  0.0000  0.1188 </r>
        <r>  0.0000  0.0000  0.0169  0.0000  0.0000  0.0656  0.0000  0.0223  0.0000 </r>
       </set>
       <set comment="band 18">
        <r>  0.0000  0.0000  0.0169  0.0000  0.0000  0.0656  0.0000  0.0223  0.0000 </r>
        <r>  0.1059  0.0291  0.0000  0.0206  0.2647  0.0000  0.0055  0.0000  0.1188 </r>
       </set>
       <set comment="band 19">
        <r>  0.2908  0.0244  0.0000  0.0410  0.0151  0.0000  0.0241  0.0000  0.0322 </r>
        <r>  0.0000  0.0000  0.0139  0.0000  0.0000  0.0125  0.0000  0.0805  0.0000 </r>
       </set>
       <set comment="band 20">
        <r>  0.0000  0.0000  0.0139  0.0000  0.0000  0.0125  0.0000  0.0805  0.0000 </r>
        <r>  0.2908  0.0244  0.0000  0.0410  0.0151  0.0000  0.0241  0.0000  0.0322 </r>
       </set>
       <set comment="band 21">
        <r>  0.0241  0.0739  0.0000  0.0509  0.0508  0.0000  0.0064  0.0000  0.1033 </r>
        <r>  0.0000  0.0000  0.0405  0.0000  0.0000  0.0414  0.0000  0.0146  0.0000 </r>
       </set>
       <set comment="band 22">
        <r>  0.0000  0.0000  0.0405  0.0000  0.0000  0.0414  0.0000  0.0146  0.0000 </r>
        <r>  0.0241  0.0739  0.0000  0.0509  0.0508  0.0000  0.0064  0.0000  0.1033 </r>
       </set>
       <set comment="band 23">
        <r>  0.0066  0.0325  0.0000  0.0256  0.0108  0.0000  0.0242  0.0000  0.0158 </r>
        <r>  0.0000  0.0000  0.0896  0.0000  0.0000  0.0415  0.0000  0.0226  0.0000 </r>
       </set>
       <set comment="band 24">
        <r>  0.0000  0.0000  0.0896  0.0000  0.0000  0.0415  0.0000  0.0226  0.0000 </r>
        <r>  0.0066  0.0325  0.0000  0.0256  0.0108  0.0000  0.0242  0.0000  0.0158 </r>
       </set>
      </set>
      <set comment="kpoint 69">
       <set comment="band 1">
        <r>  0.0000  0.2390  0.0000  0.7126  0.0000  0.0000  0.0000  0.0000  0.0000 </r>
        <r>  0.0000  0.0000  0.0340  0.0000  0.0000  0.0000  0.0000  0.0000  0.0000 </r>
       </set>
       <set comment="band 2">
        <r>  0.0000  0.0000  0.0340  0.0000  0.0000  0.0000  0.0000  0.0000  0.0000 </r>
        <r>  0.0000  0.2390  0.0000  0.7126  0.0000  0.0000  0.0000  0.0000  0.0000 </r>
       </set>
       <set comment="band 3">
        <r>  0.0000  0.7237  0.0000  0.2449  0.0000  0.0000  0.0000  0.0000  0.0000 </r>
        <r>  0.0000  0.0000  0.0218  0.0000  0.0000  0.0000  0.0000  0.0000  0.0000 </r>
       </set>
       <set comment="band 4">
        <r>  0.0000  0.0000  0.0218  0.0000  0.0000  0.0000  0.0000  0.0000  0.0000 </r>
        <r>  0.0000  0.7237  0.0000  0.2449  0.0000  0.0000  0.0000  0.0000  0.0000 </r>
       </set>
       <set comment="band 5">
        <r>  0.0000  0.0270  0.0000  0.0298  0.0000  0.0000  0.0000  0.0000  0.0000 </r>
        <r>  0.0000  0.0000  0.9355  0.0000  0.0000  0.0000  0.0000  0.0000  0.0000 </r>
       </set>
       <set comment="band 6">
        <r>  0.0000  0.0000  0.9355  0.0000  0.0000  0.0000  0.0000  0.0000  0.0000 </r>
        <r>  0.0000  0.0270  0.0000  0.0298  0.0000  0.0000  0.0000  0.0000  0.0000 </r>
       </set>
       <set comment="band 7">
        <r>  0.0546  0.0045  0.0000  0.0023  0.1373  0.0000  0.0483  0.0000  0.0471 </r>
        <r>  0.0000  0.0000  0.0008  0.0000  0.0000  0.0910  0.0000  0.2635  0.0000 </r>
       </set>
       <set comment="band 8">
        <r>  0.0000  0.0000  0.0008  0.0000  0.0000  0.0910  0.0000  0.2635  0.0000 </r>
        <r>  0.0546  0.0045  0.0000  0.0023  0.1373  0.0000  0.0483  0.0000  0.0471 </r>
       </set>
       <set comment="band 9">
        <r>  0.0001  0.0068  0.0000  0.0026  0.2967  0.0000  0.1833  0.0000  0.1003 </r>
        <r>  0.0000  0.0000  0.0008  0.0000  0.0000  0.0700  0.0000  0.0821  0.0000 </r>
       </set>
       <set comment="band 10">
        <r>  0.0000  0.0000  0.0008  0.0000  0.0000  0.0700  0.0000  0.0821  0.0000 </r>
        <r>  0.0001  0.0068  0.0000  0.0026  0.2967  0.0000  0.1833  0.0000  0.1003 </r>
       </set>
       <set comment="band 11">
        <r>  0.0096  0.0051  0.0000  0.0152  0.0580  0.0000  0.0190  0.0000  0.0944 </r>
        <r>  0.0000  0.0000  0.0042  0.0000  0.0000  0.3369  0.0000  0.1557  0.0000 </r>
       </set>
       <set comment="band 12">
        <r>  0.0000  0.0000  0.0042  0.0000  0.0000  0.3369  0.0000  0.1557  0.0000 </r>
        <r>  0.0096  0.0051  0.0000  0.0152  0.0580  0.0000  0.0190  0.0000  0.0944 </r>
       </set>
       <set comment="band 13">
        <r>  0.0003  0.0052  0.0000  0.0151  0.1423  0.0000  0.0071  0.0000  0.3959 </r>
        <r>  0.0000  0.0000  0.0020  0.0000  0.0000  0.1501  0.0000  0.0749  0.0000 </r>
       </set>
       <set comment="band 14">
        <r>  0.0000  0.0000  0.0020  0.0000  0.0000  0.1501  0.0000  0.0749  0.0000 </r>
        <r>  0.0003  0.0052  0.0000  0.0151  0.1423  0.0000  0.0071  0.0000  0.3959 </r>
       </set>
       <set comment="band 15">
        <r>  0.0000  0.0005  0.0000  0.0002  0.0320  0.0000  0.5947  0.0000  0.0250 </r>
        <r>  0.0000  0.0000  0.0006  0.0000  0.0000  0.1200  0.0000  0.1553  0.0000 </r>
       </set>
       <set comment="band 16">
        <r>  0.0000  0.0000  0.0006  0.0000  0.0000  0.1200  0.0000  0.1553  0.0000 </r>
        <r>  0.0000  0.0005  0.0000  0.0002  0.0320  0.0000  0.5947  0.0000  0.0250 </r>
       </set>
       <set comment="band 17">
        <r>  0.0366  0.0236  0.0000  0.0675  0.0918  0.0000  0.0145  0.0000  0.1981 </r>
        <r>  0.0000  0.0000  0.0322  0.0000  0.0000  0.0234  0.0000  0.0107  0.0000 </r>
       </set>
       <set comment="band 18">
        <r>  0.0000  0.0000  0.0322  0.0000  0.0000  0.0234  0.0000  0.0107  0.0000 </r>
        <r>  0.0366  0.0236  0.0000  0.0675  0.0918  0.0000  0.0145  0.0000  0.1981 </r>
       </set>
       <set comment="band 19">
        <r>  0.3854  0.0056  0.0000  0.0152  0.0680  0.0000  0.0195  0.0000  0.0415 </r>
        <r>  0.0000  0.0000  0.0000  0.0000  0.0000  0.0441  0.0000  0.1016  0.0000 </r>
       </set>
       <set comment="band 20">
        <r>  0.0000  0.0000  0.0000  0.0000  0.0000  0.0441  0.0000  0.1016  0.0000 </r>
        <r>  0.3854  0.0056  0.0000  0.0152  0.0680  0.0000  0.0195  0.0000  0.0415 </r>
       </set>
       <set comment="band 21">
        <r>  0.0383  0.0959  0.0000  0.0366  0.0957  0.0000  0.0016  0.0000  0.0345 </r>
        <r>  0.0000  0.0000  0.0295  0.0000  0.0000  0.0483  0.0000  0.0196  0.0000 </r>
       </set>
       <set comment="band 22">
        <r>  0.0000  0.0000  0.0295  0.0000  0.0000  0.0483  0.0000  0.0196  0.0000 </r>
        <r>  0.0383  0.0959  0.0000  0.0366  0.0957  0.0000  0.0016  0.0000  0.0345 </r>
       </set>
       <set comment="band 23">
        <r>  0.0061  0.0178  0.0000  0.0400  0.0151  0.0000  0.0062  0.0000  0.0144 </r>
        <r>  0.0000  0.0000  0.1001  0.0000  0.0000  0.0220  0.0000  0.0244  0.0000 </r>
       </set>
       <set comment="band 24">
        <r>  0.0000  0.0000  0.1001  0.0000  0.0000  0.0220  0.0000  0.0244  0.0000 </r>
        <r>  0.0061  0.0178  0.0000  0.0400  0.0151  0.0000  0.0062  0.0000  0.0144 </r>
       </set>
      </set>
      <set comment="kpoint 70">
       <set comment="band 1">
        <r>  0.0000  0.7031  0.0000  0.2452  0.0000  0.0000  0.0000  0.0000  0.0000 </r>
        <r>  0.0000  0.0000  0.0383  0.0000  0.0000  0.0000  0.0000  0.0000  0.0000 </r>
       </set>
       <set comment="band 2">
        <r>  0.0000  0.0000  0.0383  0.0000  0.0000  0.0000  0.0000  0.0000  0.0000 </r>
        <r>  0.0000  0.7031  0.0000  0.2452  0.0000  0.0000  0.0000  0.0000  0.0000 </r>
       </set>
       <set comment="band 3">
        <r>  0.0000  0.2546  0.0000  0.7145  0.0000  0.0000  0.0000  0.0000  0.0000 </r>
        <r>  0.0000  0.0000  0.0199  0.0000  0.0000  0.0000  0.0000  0.0000  0.0000 </r>
       </set>
       <set comment="band 4">
        <r>  0.0000  0.0000  0.0199  0.0000  0.0000  0.0000  0.0000  0.0000  0.0000 </r>
        <r>  0.0000  0.2546  0.0000  0.7145  0.0000  0.0000  0.0000  0.0000  0.0000 </r>
       </set>
       <set comment="band 5">
        <r>  0.0000  0.0301  0.0000  0.0291  0.0000  0.0000  0.0000  0.0000  0.0000 </r>
        <r>  0.0000  0.0000  0.9332  0.0000  0.0000  0.0000  0.0000  0.0000  0.0000 </r>
       </set>
       <set comment="band 6">
        <r>  0.0000  0.0000  0.9332  0.0000  0.0000  0.0000  0.0000  0.0000  0.0000 </r>
        <r>  0.0000  0.0301  0.0000  0.0291  0.0000  0.0000  0.0000  0.0000  0.0000 </r>
       </set>
       <set comment="band 7">
        <r>  0.0442  0.0020  0.0000  0.0019  0.0162  0.0000  0.1466  0.0000  0.0211 </r>
        <r>  0.0000  0.0000  0.0003  0.0000  0.0000  0.3151  0.0000  0.1372  0.0000 </r>
       </set>
       <set comment="band 8">
        <r>  0.0000  0.0000  0.0003  0.0000  0.0000  0.3151  0.0000  0.1372  0.0000 </r>
        <r>  0.0442  0.0020  0.0000  0.0019  0.0162  0.0000  0.1466  0.0000  0.0211 </r>
       </set>
       <set comment="band 9">
        <r>  0.0043  0.0064  0.0000  0.0137  0.0934  0.0000  0.0464  0.0000  0.2551 </r>
        <r>  0.0000  0.0000  0.0007  0.0000  0.0000  0.0717  0.0000  0.1909  0.0000 </r>
       </set>
       <set comment="band 10">
        <r>  0.0000  0.0000  0.0007  0.0000  0.0000  0.0717  0.0000  0.1909  0.0000 </r>
        <r>  0.0043  0.0064  0.0000  0.0137  0.0934  0.0000  0.0464  0.0000  0.2551 </r>
       </set>
       <set comment="band 11">
        <r>  0.0020  0.0190  0.0000  0.0097  0.2650  0.0000  0.0309  0.0000  0.2301 </r>
        <r>  0.0000  0.0000  0.0053  0.0000  0.0000  0.0414  0.0000  0.0783  0.0000 </r>
       </set>
       <set comment="band 12">
        <r>  0.0000  0.0000  0.0053  0.0000  0.0000  0.0414  0.0000  0.0783  0.0000 </r>
        <r>  0.0020  0.0190  0.0000  0.0097  0.2650  0.0000  0.0309  0.0000  0.2301 </r>
       </set>
       <set comment="band 13">
        <r>  0.0049  0.0044  0.0000  0.0017  0.2609  0.0000  0.0130  0.0000  0.1640 </r>
        <r>  0.0000  0.0000  0.0002  0.0000  0.0000  0.1574  0.0000  0.2207  0.0000 </r>
       </set>
       <set comment="band 14">
        <r>  0.0000  0.0000  0.0002  0.0000  0.0000  0.1574  0.0000  0.2207  0.0000 </r>
        <r>  0.0049  0.0044  0.0000  0.0017  0.2609  0.0000  0.0130  0.0000  0.1640 </r>
       </set>
       <set comment="band 15">
        <r>  0.0006  0.0005  0.0000  0.0002  0.0224  0.0000  0.6276  0.0000  0.0085 </r>
        <r>  0.0000  0.0000  0.0003  0.0000  0.0000  0.1463  0.0000  0.1216  0.0000 </r>
       </set>
       <set comment="band 16">
        <r>  0.0000  0.0000  0.0003  0.0000  0.0000  0.1463  0.0000  0.1216  0.0000 </r>
        <r>  0.0006  0.0005  0.0000  0.0002  0.0224  0.0000  0.6276  0.0000  0.0085 </r>
       </set>
       <set comment="band 17">
        <r>  0.1685  0.0396  0.0000  0.0156  0.1785  0.0000  0.0085  0.0000  0.0715 </r>
        <r>  0.0000  0.0000  0.0263  0.0000  0.0000  0.0550  0.0000  0.0213  0.0000 </r>
       </set>
       <set comment="band 18">
        <r>  0.0000  0.0000  0.0263  0.0000  0.0000  0.0550  0.0000  0.0213  0.0000 </r>
        <r>  0.1685  0.0396  0.0000  0.0156  0.1785  0.0000  0.0085  0.0000  0.0715 </r>
       </set>
       <set comment="band 19">
        <r>  0.3055  0.0359  0.0000  0.0158  0.0298  0.0000  0.0142  0.0000  0.0207 </r>
        <r>  0.0000  0.0000  0.0184  0.0000  0.0000  0.0415  0.0000  0.0631  0.0000 </r>
       </set>
       <set comment="band 20">
        <r>  0.0000  0.0000  0.0184  0.0000  0.0000  0.0415  0.0000  0.0631  0.0000 </r>
        <r>  0.3055  0.0359  0.0000  0.0158  0.0298  0.0000  0.0142  0.0000  0.0207 </r>
       </set>
       <set comment="band 21">
        <r>  0.0009  0.0444  0.0000  0.0873  0.0685  0.0000  0.0014  0.0000  0.1600 </r>
        <r>  0.0000  0.0000  0.0163  0.0000  0.0000  0.0402  0.0000  0.0452  0.0000 </r>
       </set>
       <set comment="band 22">
        <r>  0.0000  0.0000  0.0163  0.0000  0.0000  0.0402  0.0000  0.0452  0.0000 </r>
        <r>  0.0009  0.0444  0.0000  0.0873  0.0685  0.0000  0.0014  0.0000  0.1600 </r>
       </set>
       <set comment="band 23">
        <r>  0.0022  0.0457  0.0000  0.0238  0.0208  0.0000  0.0041  0.0000  0.0175 </r>
        <r>  0.0000  0.0000  0.1259  0.0000  0.0000  0.0207  0.0000  0.0148  0.0000 </r>
       </set>
       <set comment="band 24">
        <r>  0.0000  0.0000  0.1259  0.0000  0.0000  0.0207  0.0000  0.0148  0.0000 </r>
        <r>  0.0022  0.0457  0.0000  0.0238  0.0208  0.0000  0.0041  0.0000  0.0175 </r>
       </set>
      </set>
     </set>
    </set>
   </array>
  </projected>
 </calculation>
 <structure name="finalpos" >
  <crystal>
   <varray name="basis" >
    <v>       2.80803156       0.00000000       0.00000000 </v>
    <v>      -1.40401578       2.43182667       0.00000000 </v>
    <v>       0.00000000       0.00000000       4.86484924 </v>
   </varray>
   <i name="volume">     33.22033356 </i>
   <varray name="rec_basis" >
    <v>       0.35612135       0.20560676       0.00000000 </v>
    <v>       0.00000000       0.41121352       0.00000000 </v>
    <v>       0.00000000       0.00000000       0.20555622 </v>
   </varray>
  </crystal>
  <varray name="positions" >
   <v>       0.00000000       0.00000000       0.00000000 </v>
   <v>       0.33333333       0.66666667       0.50000000 </v>
  </varray>
 </structure>
</modeling>
