Pt-hcc                                  
           1
     2.808032    0.000000    0.000000
    -1.404016    2.431827    0.000000
     0.000000    0.000000    4.864849
   Pt
     2
Direct configuration=     1
   0.00000000  0.00000000  0.00000000
   0.33333333  0.66666667  0.50000000
