    1    1    1    2
  0.1081089E+02  0.2481945E-09  0.2481945E-09  0.2481945E-09  0.5000000E-15
  1.000000000000000E-004
  CAR 
 Co fcc                                  
      9     28     12
 
  0.8333333E-01  0.8333333E-01  0.8333333E-01  0.9259259E-02
      1          1.644403        1.661346   1.000000   1.000000
      2          7.584099        9.183672   1.000000   1.000000
      3          7.724238        9.354166   1.000000   1.000000
      4          7.724238        9.354166   1.000000   1.000000
      5          8.702754       10.676707   1.000000  -0.032268
      6          8.702754       10.676707   1.000000  -0.032268
      7         32.710332       32.586355   0.000000   0.000000
      8         35.442298       35.481607   0.000000   0.000000
      9         37.403275       37.627253   0.000000   0.000000
     10         37.403275       37.627253   0.000000   0.000000
     11         41.752685       41.922646   0.000000   0.000000
     12         41.753175       41.986051   0.000000   0.000000
 
  0.2500000E+00  0.8333333E-01  0.8333333E-01  0.2777778E-01
      1          3.017022        3.057745   1.000000   1.000000
      2          7.265461        8.758115   1.000000   1.000000
      3          7.875418        9.542284   1.000000   1.000000
      4          7.966008        9.642481   1.000000   1.000001
      5          8.500831       10.412444   1.000000   0.445296
      6          8.978258       10.915066   1.000000  -0.000812
      7         28.017673       28.345563   0.000000   0.000000
      8         31.475351       31.637501   0.000000   0.000000
      9         36.602902       36.602203   0.000000   0.000000
     10         39.026557       39.226124   0.000000   0.000000
     11         39.530880       39.512823   0.000000   0.000000
     12         41.072242       41.367760   0.000000   0.000000
 
  0.4166667E+00  0.8333333E-01  0.8333333E-01  0.2777778E-01
      1          5.049140        5.564948   1.000000   1.000000
      2          7.584069        8.748610   1.000000   1.000000
      3          7.750459        9.277938   1.000000   1.000000
      4          7.820270        9.490223   1.000000   1.000000
      5          9.144940       11.026573   1.000000  -0.000043
      6          9.947517       11.709733   1.003163  -0.000000
      7         20.260505       20.912959   0.000000   0.000000
      8         30.584661       30.692518   0.000000   0.000000
      9         34.378460       34.427759   0.000000   0.000000
     10         36.432005       36.777483   0.000000   0.000000
     11         38.933734       39.229042   0.000000   0.000000
     12         40.435788       40.598777   0.000000   0.000000
 
 -0.4166667E+00  0.8333333E-01  0.8333333E-01  0.2777778E-01
      1          5.315588        6.255453   1.000000   1.000000
      2          7.408017        9.022458   1.000000   1.000000
      3          7.658960        9.385425   1.000000   1.000000
      4          8.674406        9.572672   1.000000   1.000000
      5          9.623049       11.566073   1.000000  -0.000000
      6         11.117224       12.233077  -0.000002  -0.000000
      7         16.796846       17.776749   0.000000   0.000000
      8         30.992756       30.911025   0.000000   0.000000
      9         33.531084       33.865295   0.000000   0.000000
     10         33.919802       34.167527   0.000000   0.000000
     11         40.017241       40.243138   0.000000   0.000000
     12         40.042796       40.284004   0.000000   0.000000
 
 -0.2500000E+00  0.8333333E-01  0.8333333E-01  0.2777778E-01
      1          4.539740        4.779414   1.000000   1.000000
      2          7.311916        8.536792   1.000000   1.000000
      3          7.679951        9.391038   1.000000   1.000000
      4          7.882140        9.602347   1.000000   1.000000
      5          9.191416       10.965442   1.000000  -0.000234
      6          9.280444       11.220842   1.000000  -0.000000
      7         22.666634       23.195403   0.000000   0.000000
      8         32.289763       32.168856   0.000000   0.000000
      9         33.055644       33.415459   0.000000   0.000000
     10         36.314300       36.652686   0.000000   0.000000
     11         40.016784       40.172383   0.000000   0.000000
     12         42.545910       42.720606   0.000000   0.000000
 
 -0.8333333E-01  0.8333333E-01  0.8333333E-01  0.2777778E-01
      1          2.354212        2.378295   1.000000   1.000000
      2          7.344656        8.893309   1.000000   1.000000
      3          7.898900        9.547383   1.000000   1.000000
      4          7.908547        9.557273   1.000000   1.000000
      5          8.498023       10.416195   1.000000   0.429567
      6          8.832682       10.814745   1.000000  -0.006200
      7         30.732519       30.918408   0.000000   0.000000
      8         33.756719       33.699985   0.000000   0.000000
      9         34.499471       34.831339   0.000000   0.000000
     10         37.185802       37.243850   0.000000   0.000000
     11         41.339150       41.599662   0.000000   0.000000
     12         43.652719       44.218298   0.000000   0.000000
 
  0.2500000E+00  0.2500000E+00  0.8333333E-01  0.2777778E-01
      1          3.627307        3.700082   1.000000   1.000000
      2          6.913671        8.384060   1.000000   1.000000
      3          7.957487        9.686899   1.000000   1.000003
      4          8.260259        9.951916   1.000000   1.003444
      5          8.575747       10.306785   1.000000   0.849398
      6          9.059950       11.053267   1.000000  -0.000019
      7         28.498712       28.820109   0.000000   0.000000
      8         31.490276       31.837064   0.000000   0.000000
      9         31.993477       32.022032   0.000000   0.000000
     10         34.118717       34.279188   0.000000   0.000000
     11         39.075711       39.726171   0.000000   0.000000
     12         45.166552       45.181266   0.000000   0.000000
 
  0.4166667E+00  0.2500000E+00  0.8333333E-01  0.5555556E-01
      1          5.349252        5.763203   1.000000   1.000000
      2          6.618111        7.970908   1.000000   1.000000
      3          7.533717        9.093396   1.000000   1.000000
      4          8.543527       10.321066   1.000000   0.805232
      5          9.165731       10.980993   1.000000  -0.000155
      6         10.285636       11.939425   0.905736  -0.000000
      7         23.613415       24.072207   0.000000   0.000000
      8         27.100403       27.422448   0.000000   0.000000
      9         29.572976       29.889329   0.000000   0.000000
     10         34.893764       35.085856   0.000000   0.000000
     11         39.878846       40.240888   0.000000   0.000000
     12         44.098497       44.356191   0.000000   0.000000
 
 -0.4166667E+00  0.2500000E+00  0.8333333E-01  0.5555556E-01
      1          6.030931        7.112401   1.000000   1.000000
      2          6.729474        8.023842   1.000000   1.000000
      3          7.612343        8.912144   1.000000   1.000000
      4          8.250053       10.049697   1.000000   1.016468
      5          9.576198       11.481904   1.000000  -0.000000
      6         13.679592       14.562439  -0.000000  -0.000000
      7         17.236219       18.048933   0.000000   0.000000
      8         26.144045       26.501256   0.000000   0.000000
      9         28.094663       28.457698   0.000000   0.000000
     10         35.017155       35.151911   0.000000   0.000000
     11         41.446960       41.625771   0.000000   0.000000
     12         46.506113       47.168083   0.000000   0.000000
 
 -0.2500000E+00  0.2500000E+00  0.8333333E-01  0.5555556E-01
      1          5.934935        6.533070   1.000000   1.000000
      2          6.955773        8.230380   1.000000   1.000000
      3          7.157294        8.711691   1.000000   1.000000
      4          8.321595       10.132523   1.000000   1.033858
      5          9.054446       10.861409   1.000000  -0.002598
      6         11.482125       12.925281  -0.000000  -0.000000
      7         21.187440       21.756251   0.000000   0.000000
      8         25.005894       25.403781   0.000000   0.000000
      9         30.613387       30.898070   0.000000   0.000000
     10         36.863435       36.992066   0.000000   0.000000
     11         39.892304       40.009517   0.000000   0.000000
     12         45.176242       45.589919   0.000000   0.000000
 
 -0.8333333E-01  0.2500000E+00  0.8333333E-01  0.5555556E-01
      1          4.186914        4.301064   1.000000   1.000000
      2          6.992347        8.411326   1.000000   1.000000
      3          7.717977        9.412018   1.000000   1.000000
      4          8.173262        9.904040   1.000000   1.001281
      5          8.648924       10.454750   1.000000   0.275763
      6          9.436244       11.323570   1.000000  -0.000000
      7         25.621253       26.037153   0.000000   0.000000
      8         29.141997       29.411902   0.000000   0.000000
      9         34.180903       34.295995   0.000000   0.000000
     10         36.566419       36.723737   0.000000   0.000000
     11         40.935422       41.171277   0.000000   0.000000
     12         41.793010       42.096429   0.000000   0.000000
 
  0.4166667E+00  0.4166667E+00  0.8333333E-01  0.2777778E-01
      1          5.290397        6.221961   1.000000   1.000000
      2          6.035460        7.366233   1.000000   1.000000
      3          8.874014       10.145197   1.000000   1.035143
      4          9.158499       11.049297   1.000000  -0.000022
      5          9.602524       11.564691   1.000000  -0.000000
      6         10.833771       11.983525  -0.004421  -0.000000
      7         24.064364       24.551953   0.000000   0.000000
      8         24.979462       25.342846   0.000000   0.000000
      9         26.854568       27.101417   0.000000   0.000000
     10         31.474149       31.806374   0.000000   0.000000
     11         35.796993       36.240112   0.000000   0.000000
     12         47.162959       50.820786   0.000000   0.000000
 
 -0.4166667E+00  0.4166667E+00  0.8333333E-01  0.5555556E-01
      1          5.563604        6.785342   1.000000   1.000000
      2          6.081987        7.366436   1.000000   1.000000
      3          8.419937        9.757568   1.000000   1.000028
      4          9.122779       11.092058   1.000000  -0.000006
      5          9.779897       11.654512   1.000053  -0.000000
      6         14.504871       15.146824  -0.000000  -0.000000
      7         20.677179       21.299082   0.000000   0.000000
      8         21.548905       22.075843   0.000000   0.000000
      9         24.919894       25.231005   0.000000   0.000000
     10         33.609234       33.865273   0.000000   0.000000
     11         38.785208       39.173152   0.000000   0.000000
     12         47.053888       48.292724   0.000000   0.000000
 
 -0.2500000E+00  0.4166667E+00  0.8333333E-01  0.5555556E-01
      1          6.298702        7.602896   1.000000   1.000000
      2          6.511084        7.669205   1.000000   1.000000
      3          7.410055        8.706109   1.000000   1.000000
      4          8.559996       10.441312   1.000000   0.327237
      5          9.493930       11.341048   1.000000  -0.000000
      6         15.418006       16.193791  -0.000000   0.000000
      7         17.703457       18.377720   0.000000   0.000000
      8         22.311686       22.860376   0.000000   0.000000
      9         27.321225       27.678617   0.000000   0.000000
     10         34.926615       35.097874   0.000000   0.000000
     11         43.334388       43.425668   0.000000   0.000000
     12         46.331180       47.368385   0.000000   0.000000
 
 -0.8333333E-01  0.4166667E+00  0.8333333E-01  0.5555556E-01
      1          5.556555        6.395443   1.000000   1.000000
      2          7.216861        8.572473   1.000000   1.000000
      3          7.792165        9.076973   1.000000   1.000000
      4          7.952448        9.667549   1.000000   1.000001
      5          9.460387       11.357748   1.000000  -0.000000
      6         11.359733       12.663910  -0.000000  -0.000000
      7         18.421827       19.180661   0.000000   0.000000
      8         28.823230       29.031436   0.000000   0.000000
      9         31.178361       31.468360   0.000000   0.000000
     10         35.271156       35.414820   0.000000   0.000000
     11         39.968392       40.207760   0.000000   0.000000
     12         43.437221       43.570218   0.000000   0.000000
 
 -0.4166667E+00 -0.4166667E+00  0.8333333E-01  0.2777778E-01
      1          5.210084        6.384162   1.000000   1.000000
      2          5.812202        7.110770   1.000000   1.000000
      3          9.404191       10.930369   1.000000  -0.000565
      4          9.415320       11.430861   1.000000  -0.000000
      5          9.804778       11.696982   1.000108  -0.000000
      6         13.012229       13.476390  -0.000000  -0.000000
      7         20.681205       21.484864   0.000000   0.000000
      8         23.895740       24.170778   0.000000   0.000000
      9         25.759231       25.953520   0.000000   0.000000
     10         31.206244       31.581859   0.000000   0.000000
     11         35.428869       35.866005   0.000000   0.000000
     12         47.175901       50.914561   0.000000   0.000000
 
 -0.2500000E+00 -0.4166667E+00  0.8333333E-01  0.5555556E-01
      1          5.679221        6.666876   1.000000   1.000000
      2          6.271902        7.582028   1.000000   1.000000
      3          7.930650        9.243572   1.000000   1.000000
      4          8.951131       10.815152   1.000000  -0.006156
      5          9.556999       11.443622   1.000000  -0.000000
      6         12.094941       13.225026  -0.000000  -0.000000
      7         22.057390       22.510522   0.000000   0.000000
      8         24.621463       25.081741   0.000000   0.000000
      9         25.923014       26.281288   0.000000   0.000000
     10         34.001869       34.230550   0.000000   0.000000
     11         39.103931       39.475607   0.000000   0.000000
     12         46.046168       46.474165   0.000000   0.000000
 
 -0.2500000E+00 -0.2500000E+00  0.8333333E-01  0.2777778E-01
      1          4.907882        5.263694   1.000000   1.000000
      2          6.434472        7.825673   1.000000   1.000000
      3          8.066056        9.547530   1.000000   1.000000
      4          8.720688       10.489005   1.000000   0.160026
      5          9.311052       10.931487   1.000000  -0.000550
      6          9.332806       11.327959   1.000000  -0.000000
      7         26.404670       26.756647   0.000000   0.000000
      8         28.647840       28.931320   0.000000   0.000000
      9         28.851459       29.161413   0.000000   0.000000
     10         32.148841       32.410433   0.000000   0.000000
     11         36.828655       37.332516   0.000000   0.000000
     12         47.039641       48.774053   0.000000   0.000000
 
  0.2500000E+00  0.2500000E+00  0.2500000E+00  0.9259259E-02
      1          3.587915        3.675221   1.000000   1.000000
      2          7.342741        8.712322   1.000000   1.000000
      3          7.841625        9.542221   1.000000   1.000000
      4          7.841625        9.542221   1.000000   1.000000
      5          8.876087       10.789498   1.000000  -0.009363
      6          8.876087       10.789498   1.000000  -0.009363
      7         25.113705       25.548269   0.000000   0.000000
      8         33.707184       33.462816   0.000000   0.000000
      9         36.067803       36.425036   0.000000   0.000000
     10         36.067803       36.425036   0.000000   0.000000
     11         41.323289       41.507834   0.000000   0.000000
     12         41.323289       41.507834   0.000000   0.000000
 
  0.4166667E+00  0.2500000E+00  0.2500000E+00  0.2777778E-01
      1          5.099881        5.358699   1.000000   1.000000
      2          7.061032        8.388575   1.000000   1.000000
      3          7.515033        9.148831   1.000000   1.000000
      4          8.094583        9.899180   1.000000   1.001150
      5          8.678886       10.476393   1.000000   0.199718
      6         10.214718       11.971425   1.015311  -0.000000
      7         23.178705       23.685230   0.000000   0.000000
      8         26.839068       27.180919   0.000000   0.000000
      9         35.128295       35.121563   0.000000   0.000000
     10         36.074657       36.419064   0.000000   0.000000
     11         40.329747       40.298844   0.000000   0.000000
     12         41.837477       42.118198   0.000000   0.000000
 
 -0.4166667E+00  0.2500000E+00  0.2500000E+00  0.2777778E-01
      1          6.267032        7.184186   1.000000   1.000000
      2          6.805041        8.182594   1.000000   1.000000
      3          7.312967        8.609979   1.000000   1.000000
      4          8.299240       10.149586   1.000000   1.035367
      5          9.185045       11.008619   1.000000  -0.000072
      6         13.121406       14.227865  -0.000000  -0.000000
      7         19.187831       19.839187   0.000000   0.000000
      8         23.367061       23.842107   0.000000   0.000000
      9         31.483179       31.840081   0.000000   0.000000
     10         33.087339       33.192743   0.000000   0.000000
     11         44.230370       44.216356   0.000000   0.000000
     12         44.626501       44.799965   0.000000   0.000000
 
 -0.2500000E+00  0.2500000E+00  0.2500000E+00  0.2777778E-01
      1          5.853128        6.915168   1.000000   1.000000
      2          6.491885        7.736052   1.000000   1.000000
      3          7.762272        9.079751   1.000000   1.000000
      4          8.488651       10.316940   1.000000   0.818478
      5          9.680859       11.620642   1.000002  -0.000000
      6         12.783031       13.814211  -0.000000  -0.000000
      7         19.190105       19.789529   0.000000   0.000000
      8         25.217807       25.650499   0.000000   0.000000
      9         28.787072       29.091305   0.000000   0.000000
     10         32.377878       32.616825   0.000000   0.000000
     11         42.827324       43.164441   0.000000   0.000000
     12         46.402418       46.563617   0.000000   0.000000
 
  0.4166667E+00  0.4166667E+00  0.2500000E+00  0.2777778E-01
      1          5.440622        6.041200   1.000000   1.000000
      2          6.954490        8.181359   1.000000   1.000000
      3          7.558087        9.089264   1.000000   1.000000
      4          8.117152        9.877225   1.000000   1.000694
      5          9.576742       11.533857   1.000000  -0.000000
      6         10.501449       11.945185   0.124559  -0.000000
      7         20.686024       21.275885   0.000000   0.000000
      8         29.480196       29.650301   0.000000   0.000000
      9         30.566421       30.899891   0.000000   0.000000
     10         33.240026       33.506821   0.000000   0.000000
     11         43.316793       43.426225   0.000000   0.000000
     12         44.036063       44.379414   0.000000   0.000000
 
 -0.4166667E+00  0.4166667E+00  0.2500000E+00  0.5555556E-01
      1          6.231626        7.299857   1.000000   1.000000
      2          6.634625        7.933261   1.000000   1.000000
      3          7.179408        8.506558   1.000000   1.000000
      4          8.633637       10.494415   1.000000   0.144143
      5          9.481383       11.324347   1.000000  -0.000000
      6         13.647322       14.642505  -0.000000  -0.000000
      7         19.678891       20.260515   0.000000   0.000000
      8         23.676388       24.114909   0.000000   0.000000
      9         25.935075       26.354641   0.000000   0.000000
     10         37.714654       37.835975   0.000000   0.000000
     11         40.155293       40.288931   0.000000   0.000000
     12         44.707097       45.366848   0.000000   0.000000
 
 -0.2500000E+00  0.4166667E+00  0.2500000E+00  0.5555556E-01
      1          6.026457        7.309910   1.000000   1.000000
      2          6.597234        7.862630   1.000000   1.000000
      3          7.404989        8.692060   1.000000   1.000000
      4          8.729532       10.631517   1.000000  -0.034757
      5          9.771013       11.638002   1.000041  -0.000000
      6         16.449498       17.101897   0.000000   0.000000
      7         18.756881       19.321651   0.000000   0.000000
      8         21.664601       22.267096   0.000000   0.000000
      9         23.326874       23.769077   0.000000   0.000000
     10         37.649390       37.800520   0.000000   0.000000
     11         42.097489       42.247896   0.000000   0.000000
     12         43.882059       44.225947   0.000000   0.000000
 
 -0.4166667E+00 -0.4166667E+00  0.2500000E+00  0.2777778E-01
      1          5.850838        7.138530   1.000000   1.000000
      2          6.277472        7.489823   1.000000   1.000000
      3          8.027494        9.322556   1.000000   1.000000
      4          8.842190       10.766705   1.000000  -0.013083
      5          9.608562       11.481909   1.000000  -0.000000
      6         15.560470       16.245982  -0.000000   0.000000
      7         18.197425       18.776315   0.000000   0.000000
      8         21.509075       22.156325   0.000000   0.000000
      9         27.856783       28.143003   0.000000   0.000000
     10         32.148443       32.416010   0.000000   0.000000
     11         42.501449       42.885187   0.000000   0.000000
     12         47.044824       48.387516   0.000000   0.000000
 
  0.4166667E+00  0.4166667E+00  0.4166667E+00  0.9259259E-02
      1          5.088900        5.870037   1.000000   1.000000
      2          7.587940        9.304702   1.000000   1.000000
      3          7.587940        9.304702   1.000000   1.000000
      4          9.148693        9.461664   1.000000   1.000000
      5          9.501223       11.433380   1.000000  -0.000000
      6          9.501223       11.433380   1.000000  -0.000000
      7         18.069628       18.904904   0.000000   0.000000
      8         32.270089       31.974277   0.000000   0.000000
      9         35.437317       35.776065   0.000000   0.000000
     10         35.437317       35.776065   0.000000   0.000000
     11         38.418778       38.699520   0.000000   0.000000
     12         38.418778       38.699520   0.000000   0.000000
 
 -0.4166667E+00  0.4166667E+00  0.4166667E+00  0.2777778E-01
      1          5.742192        6.740914   1.000000   1.000000
      2          7.074119        8.481420   1.000000   1.000000
      3          7.938924        9.131201   1.000000   1.000000
      4          7.950689        9.708808   1.000000   1.000006
      5          9.480116       11.386034   1.000000  -0.000000
      6         12.671622       13.649409  -0.000000  -0.000000
      7         16.999555       17.903346   0.000000   0.000000
      8         27.302099       27.600367   0.000000   0.000000
      9         32.169258       32.514530   0.000000   0.000000
     10         33.101855       33.181016   0.000000   0.000000
     11         42.258814       42.498331   0.000000   0.000000
     12         42.566807       42.674324   0.000000   0.000000
