       N       E                     dE             d eps       ncg     rms          rms(c)
DAV:   1     0.237548957714E+02    0.23755E+02   -0.35320E+03  1400   0.812E+02
DAV:   2    -0.695353321794E+01   -0.30708E+02   -0.28199E+02  1452   0.140E+02
DAV:   3    -0.779851509983E+01   -0.84498E+00   -0.84376E+00  1568   0.266E+01
DAV:   4    -0.780675503274E+01   -0.82399E-02   -0.82387E-02  1588   0.232E+00
DAV:   5    -0.780697838896E+01   -0.22336E-03   -0.22335E-03  1740   0.347E-01    0.114E+01
DAV:   6    -0.719241826170E+01    0.61456E+00   -0.11489E+01  1736   0.446E+01    0.425E+00
DAV:   7    -0.703229357684E+01    0.16012E+00   -0.13150E+00  1676   0.138E+01    0.242E+00
DAV:   8    -0.702218683901E+01    0.10107E-01   -0.15151E-02  1796   0.983E-01    0.126E+00
DAV:   9    -0.701592209650E+01    0.62647E-02   -0.71958E-03  1964   0.680E-01    0.311E-01
DAV:  10    -0.701558128886E+01    0.34081E-03   -0.24552E-04  2028   0.114E-01    0.687E-02
DAV:  11    -0.701558606596E+01   -0.47771E-05   -0.15849E-04  1928   0.135E-01    0.434E-02
DAV:  12    -0.701558578534E+01    0.28062E-06   -0.27714E-06  1404   0.220E-02
   1 F= -.70155858E+01 E0= -.70141187E+01  d E =-.440117E-02  mag=     1.6647
