<?xml version="1.0" encoding="ISO-8859-1"?>
<modeling>
 <generator>
  <i name="program" type="string">vasp </i>
  <i name="version" type="string">6.3.2  </i>
  <i name="subversion" type="string">27Jun22 (build Aug 12 2022 00:53:59) complex                          parallel </i>
  <i name="platform" type="string">tv2STD </i>
  <i name="date" type="string">2024 11 30 </i>
  <i name="time" type="string">15:06:44 </i>
 </generator>
 <incar>
  <i type="string" name="SYSTEM">Co fcc</i>
  <i type="int" name="ISTART">     0</i>
  <i type="string" name="PREC">Accurate      normal | accurate</i>
  <i type="string" name="ALGO">Normal     Normal, Fast, Very_Fast</i>
  <i type="logical" name="ADDGRID"> F  </i>
  <i type="int" name="ISPIN">     2</i>
  <i type="int" name="ICHARG">     2</i>
  <i type="int" name="INIWAV">     1</i>
  <i type="int" name="NELM">   100</i>
  <i type="int" name="IBRION">    -1</i>
  <i name="EDIFF">      0.00000100</i>
  <i name="EDIFFG">     -0.02000000</i>
  <i type="int" name="NSW">     0</i>
  <i type="int" name="ISIF">     2</i>
  <i type="int" name="ISYM">     1</i>
  <i name="ENCUT">    425.00000000</i>
  <v name="MAGMOM">      3.00000000</v>
  <i type="logical" name="LREAL"> F  </i>
  <i type="int" name="ISMEAR">     1</i>
  <i name="SIGMA">      0.20000000</i>
  <i type="int" name="NWRITE">     2</i>
  <i type="logical" name="LWAVE"> F  </i>
  <i type="logical" name="LCHARG"> F  </i>
 </incar>
 <primitive_cell>
  <structure name="primitive_cell" >
   <crystal>
    <varray name="basis" >
     <v>       0.00000000       1.75500000       1.75500000 </v>
     <v>       1.75500000       0.00000000       1.75500000 </v>
     <v>       1.75500000       1.75500000       0.00000000 </v>
    </varray>
    <i name="volume">     10.81088775 </i>
    <varray name="rec_basis" >
     <v>      -0.28490028       0.28490028       0.28490028 </v>
     <v>       0.28490028      -0.28490028       0.28490028 </v>
     <v>       0.28490028       0.28490028      -0.28490028 </v>
    </varray>
   </crystal>
   <varray name="positions" >
    <v>       0.00000000       0.00000000       0.00000000 </v>
   </varray>
  </structure>
  <varray name="primitive_index" >
   <v type="int" >        1 </v>
  </varray>
 </primitive_cell>
 <kpoints>
  <generation param="Monkhorst-Pack">
   <v type="int" name="divisions">       6        6        6 </v>
   <v name="usershift">      0.00000000       0.00000000       0.00000000 </v>
   <v name="genvec1">      0.16666667       0.00000000       0.00000000 </v>
   <v name="genvec2">      0.00000000       0.16666667       0.00000000 </v>
   <v name="genvec3">      0.00000000       0.00000000       0.16666667 </v>
   <v name="shift">      0.50000000       0.50000000       0.50000000 </v>
  </generation>
  <varray name="kpointlist" >
   <v>       0.08333333       0.08333333       0.08333333 </v>
   <v>       0.25000000       0.08333333       0.08333333 </v>
   <v>       0.41666667       0.08333333       0.08333333 </v>
   <v>      -0.41666667       0.08333333       0.08333333 </v>
   <v>      -0.25000000       0.08333333       0.08333333 </v>
   <v>      -0.08333333       0.08333333       0.08333333 </v>
   <v>       0.25000000       0.25000000       0.08333333 </v>
   <v>       0.41666667       0.25000000       0.08333333 </v>
   <v>      -0.41666667       0.25000000       0.08333333 </v>
   <v>      -0.25000000       0.25000000       0.08333333 </v>
   <v>      -0.08333333       0.25000000       0.08333333 </v>
   <v>       0.41666667       0.41666667       0.08333333 </v>
   <v>      -0.41666667       0.41666667       0.08333333 </v>
   <v>      -0.25000000       0.41666667       0.08333333 </v>
   <v>      -0.08333333       0.41666667       0.08333333 </v>
   <v>      -0.41666667      -0.41666667       0.08333333 </v>
   <v>      -0.25000000      -0.41666667       0.08333333 </v>
   <v>      -0.25000000      -0.25000000       0.08333333 </v>
   <v>       0.25000000       0.25000000       0.25000000 </v>
   <v>       0.41666667       0.25000000       0.25000000 </v>
   <v>      -0.41666667       0.25000000       0.25000000 </v>
   <v>      -0.25000000       0.25000000       0.25000000 </v>
   <v>       0.41666667       0.41666667       0.25000000 </v>
   <v>      -0.41666667       0.41666667       0.25000000 </v>
   <v>      -0.25000000       0.41666667       0.25000000 </v>
   <v>      -0.41666667      -0.41666667       0.25000000 </v>
   <v>       0.41666667       0.41666667       0.41666667 </v>
   <v>      -0.41666667       0.41666667       0.41666667 </v>
  </varray>
  <varray name="weights" >
   <v>       0.00925926 </v>
   <v>       0.02777778 </v>
   <v>       0.02777778 </v>
   <v>       0.02777778 </v>
   <v>       0.02777778 </v>
   <v>       0.02777778 </v>
   <v>       0.02777778 </v>
   <v>       0.05555556 </v>
   <v>       0.05555556 </v>
   <v>       0.05555556 </v>
   <v>       0.05555556 </v>
   <v>       0.02777778 </v>
   <v>       0.05555556 </v>
   <v>       0.05555556 </v>
   <v>       0.05555556 </v>
   <v>       0.02777778 </v>
   <v>       0.05555556 </v>
   <v>       0.02777778 </v>
   <v>       0.00925926 </v>
   <v>       0.02777778 </v>
   <v>       0.02777778 </v>
   <v>       0.02777778 </v>
   <v>       0.02777778 </v>
   <v>       0.05555556 </v>
   <v>       0.05555556 </v>
   <v>       0.02777778 </v>
   <v>       0.00925926 </v>
   <v>       0.02777778 </v>
  </varray>
 </kpoints>
 <parameters>
  <separator name="general" >
   <i type="string" name="SYSTEM">Co fcc</i>
   <i type="logical" name="LCOMPAT"> F  </i>
  </separator>
  <separator name="electronic" >
   <i type="string" name="PREC">accura</i>
   <i name="ENMAX">    425.00000000</i>
   <i name="ENAUG">    477.81800000</i>
   <i name="EDIFF">      0.00000100</i>
   <i type="int" name="IALGO">    38</i>
   <i type="int" name="IWAVPR">    10</i>
   <i type="int" name="NBANDS">    12</i>
   <i type="int" name="NBANDSLOW">    -1</i>
   <i type="int" name="NBANDSHIGH">    -1</i>
   <i name="NELECT">      9.00000000</i>
   <i type="int" name="TURBO">     0</i>
   <i type="int" name="IRESTART">     0</i>
   <i type="int" name="NREBOOT">     0</i>
   <i type="int" name="NMIN">     0</i>
   <i name="EREF">      0.00000000</i>
   <separator name="electronic smearing" >
    <i type="int" name="ISMEAR">     1</i>
    <i name="SIGMA">      0.20000000</i>
    <i name="KSPACING">      0.50000000</i>
    <i type="logical" name="KGAMMA"> T  </i>
    <i type="logical" name="KBLOWUP"> T  </i>
   </separator>
   <separator name="electronic projectors" >
    <i type="logical" name="LREAL"> F  </i>
    <v name="ROPT">      0.00000000</v>
    <i type="int" name="LMAXPAW">  -100</i>
    <i type="int" name="LMAXMIX">     2</i>
    <i type="logical" name="NLSPLINE"> F  </i>
   </separator>
   <separator name="electronic startup" >
    <i type="int" name="ISTART">     0</i>
    <i type="int" name="ICHARG">     2</i>
    <i type="int" name="INIWAV">     1</i>
   </separator>
   <separator name="electronic spin" >
    <i type="int" name="ISPIN">     2</i>
    <i type="logical" name="LNONCOLLINEAR"> F  </i>
    <v name="MAGMOM">      3.00000000</v>
    <i name="NUPDOWN">     -1.00000000</i>
    <i type="logical" name="LSORBIT"> F  </i>
    <v name="SAXIS">      0.00000000      0.00000000      1.00000000</v>
    <i type="logical" name="LSPIRAL"> F  </i>
    <v name="QSPIRAL">      0.00000000      0.00000000      0.00000000</v>
    <i type="logical" name="LZEROZ"> F  </i>
   </separator>
   <separator name="electronic exchange-correlation" >
    <i type="logical" name="LASPH"> F  </i>
    <i type="logical" name="LMETAGGA"> F  </i>
   </separator>
   <separator name="electronic convergence" >
    <i type="int" name="NELM">   100</i>
    <i type="int" name="NELMDL">    -5</i>
    <i type="int" name="NELMIN">     2</i>
    <i name="ENINI">    425.00000000</i>
    <separator name="electronic convergence detail" >
     <i type="logical" name="LDIAG"> T  </i>
     <i type="logical" name="LSUBROT"> F  </i>
     <i name="WEIMIN">      0.00000000</i>
     <i name="EBREAK">      0.00000002</i>
     <i name="DEPER">      0.30000000</i>
     <i type="int" name="NRMM">     4</i>
     <i name="TIME">      0.40000000</i>
    </separator>
   </separator>
   <separator name="electronic mixer" >
    <i name="AMIX">      0.40000000</i>
    <i name="BMIX">      1.00000000</i>
    <i name="AMIN">      0.10000000</i>
    <i name="AMIX_MAG">      1.60000000</i>
    <i name="BMIX_MAG">      1.00000000</i>
    <separator name="electronic mixer details" >
     <i type="int" name="IMIX">     4</i>
     <i type="logical" name="MIXFIRST"> F  </i>
     <i type="int" name="MAXMIX">   -45</i>
     <i name="WC">    100.00000000</i>
     <i type="int" name="INIMIX">     1</i>
     <i type="int" name="MIXPRE">     1</i>
     <i type="int" name="MREMOVE">     5</i>
    </separator>
   </separator>
   <separator name="electronic dipolcorrection" >
    <i type="logical" name="LDIPOL"> F  </i>
    <i type="logical" name="LMONO"> F  </i>
    <i type="int" name="IDIPOL">     0</i>
    <i name="EPSILON">      1.00000000</i>
    <v name="DIPOL">   -100.00000000   -100.00000000   -100.00000000</v>
    <i name="EFIELD">      0.00000000</i>
   </separator>
  </separator>
  <separator name="grids" >
   <i type="int" name="NGX">    18</i>
   <i type="int" name="NGY">    18</i>
   <i type="int" name="NGZ">    18</i>
   <i type="int" name="NGXF">    36</i>
   <i type="int" name="NGYF">    36</i>
   <i type="int" name="NGZF">    36</i>
   <i type="logical" name="ADDGRID"> F  </i>
  </separator>
  <separator name="ionic" >
   <i type="int" name="NSW">     0</i>
   <i type="int" name="IBRION">    -1</i>
   <i type="int" name="MDALGO">     0</i>
   <i type="int" name="ISIF">     2</i>
   <i name="PSTRESS">      0.00000000</i>
   <i name="EDIFFG">     -0.02000000</i>
   <i type="int" name="NFREE">     0</i>
   <i name="POTIM">      0.50000000</i>
   <i name="SMASS">     -3.00000000</i>
   <i name="SCALEE">      1.00000000</i>
  </separator>
  <separator name="ionic md" >
   <i name="TEBEG">      0.00010000</i>
   <i name="TEEND">      0.00010000</i>
   <i type="int" name="NBLOCK">     1</i>
   <i type="int" name="KBLOCK">     1</i>
   <i type="int" name="NPACO">   256</i>
   <i name="APACO">     10.00000000</i>
  </separator>
  <separator name="symmetry" >
   <i type="int" name="ISYM">     1</i>
   <i name="SYMPREC">      0.00001000</i>
  </separator>
  <separator name="dos" >
   <i type="int" name="LORBIT">     0</i>
   <v name="RWIGS">     -1.00000000</v>
   <i type="int" name="NEDOS">   301</i>
   <i name="EMIN">     10.00000000</i>
   <i name="EMAX">    -10.00000000</i>
   <i name="EFERMI">      0.00000000</i>
  </separator>
  <separator name="writing" >
   <i type="int" name="NWRITE">     2</i>
   <i type="logical" name="LWAVE"> F  </i>
   <i type="logical" name="LDOWNSAMPLE"> F  </i>
   <i type="logical" name="LCHARG"> F  </i>
   <i type="logical" name="LPARD"> F  </i>
   <i type="logical" name="LVTOT"> F  </i>
   <i type="logical" name="LVHAR"> F  </i>
   <i type="logical" name="LELF"> F  </i>
   <i type="logical" name="LOPTICS"> F  </i>
   <v name="STM">      0.00000000      0.00000000      0.00000000      0.00000000      0.00000000      0.00000000      0.00000000</v>
  </separator>
  <separator name="performance" >
   <i type="int" name="NPAR">     4</i>
   <i type="int" name="NSIM">     4</i>
   <i type="int" name="NBLK">    -1</i>
   <i type="logical" name="LPLANE"> T  </i>
   <i type="logical" name="LSCALAPACK"> T  </i>
   <i type="logical" name="LSCAAWARE"> T  </i>
   <i type="logical" name="LSCALU"> F  </i>
   <i type="logical" name="LASYNC"> F  </i>
   <i type="logical" name="LORBITALREAL"> F  </i>
  </separator>
  <separator name="miscellaneous" >
   <i type="int" name="IDIOT">     3</i>
   <i type="int" name="PHON_NSTRUCT">    -1</i>
   <i type="logical" name="LMUSIC"> F  </i>
   <v name="POMASS">     58.93300000</v>
   <v name="DARWINR">      0.00000000</v>
   <v name="DARWINV">      1.00000000</v>
   <i type="logical" name="LCORR"> T  </i>
  </separator>
  <i type="logical" name="GGA_COMPAT"> T  </i>
  <i type="logical" name="LBERRY"> F  </i>
  <i type="int" name="ICORELEVEL">     0</i>
  <i type="logical" name="LDAU"> F  </i>
  <i type="int" name="I_CONSTRAINED_M">     0</i>
  <separator name="electronic exchange-correlation" >
   <i type="string" name="GGA">--</i>
   <i type="int" name="VOSKOWN">     0</i>
   <i type="logical" name="LHFCALC"> F  </i>
   <i type="string" name="PRECFOCK"></i>
   <i type="logical" name="LSYMGRAD"> F  </i>
   <i type="logical" name="LHFONE"> F  </i>
   <i type="logical" name="LRHFCALC"> F  </i>
   <i type="logical" name="LTHOMAS"> F  </i>
   <i type="logical" name="LMODELHF"> F  </i>
   <i type="logical" name="LFOCKACE"> F  </i>
   <i name="ENCUT4O">     -1.00000000</i>
   <i type="int" name="EXXOEP">     0</i>
   <i type="int" name="FOURORBIT">     0</i>
   <i name="AEXX">      0.00000000</i>
   <i name="HFALPHA">      0.00000000</i>
   <i name="MCALPHA">      0.00000000</i>
   <i name="ALDAX">      1.00000000</i>
   <i name="AGGAX">      1.00000000</i>
   <i name="ALDAC">      1.00000000</i>
   <i name="AGGAC">      1.00000000</i>
   <i type="int" name="NKREDX">     1</i>
   <i type="int" name="NKREDY">     1</i>
   <i type="int" name="NKREDZ">     1</i>
   <i type="logical" name="SHIFTRED"> F  </i>
   <i type="logical" name="ODDONLY"> F  </i>
   <i type="logical" name="EVENONLY"> F  </i>
   <i type="int" name="LMAXFOCK">     0</i>
   <i type="int" name="NMAXFOCKAE">     0</i>
   <i type="logical" name="LFOCKAEDFT"> F  </i>
   <i name="HFSCREEN">      0.00000000</i>
   <i name="HFSCREENC">      0.00000000</i>
   <i type="int" name="NBANDSGWLOW">     0</i>
  </separator>
  <separator name="vdW DFT" >
   <i type="logical" name="LUSE_VDW"> F  </i>
   <i name="Zab_VDW">     -0.84910000</i>
   <i name="PARAM1">      0.12340000</i>
   <i name="PARAM2">      1.00000000</i>
   <i name="PARAM3">      0.00000000</i>
  </separator>
  <separator name="model GW" >
   <i type="int" name="MODEL_GW">     0</i>
   <i name="MODEL_EPS0">      6.48653265</i>
   <i name="MODEL_ALPHA">      1.00000000</i>
  </separator>
  <separator name="linear response parameters" >
   <i type="logical" name="LEPSILON"> F  </i>
   <i type="logical" name="LRPA"> F  </i>
   <i type="logical" name="LNABLA"> F  </i>
   <i type="logical" name="LVEL"> F  </i>
   <i name="CSHIFT">      0.10000000</i>
   <i name="OMEGAMAX">     -1.00000000</i>
   <i name="DEG_THRESHOLD">      0.00200000</i>
   <i name="RTIME">     -0.10000000</i>
   <i name="WPLASMAI">      0.00000000</i>
   <v name="DFIELD">      0.00000000      0.00000000      0.00000000</v>
   <v name="WPLASMA">      0.00000000      0.00000000      0.00000000      0.00000000      0.00000000      0.00000000      0.00000000      0.00000000      0.00000000</v>
  </separator>
  <separator name="orbital magnetization" >
   <i type="logical" name="NUCIND"> F  </i>
   <v name="MAGPOS">      0.00000000      0.00000000      0.00000000</v>
   <i type="logical" name="LNICSALL"> T  </i>
   <i type="logical" name="ORBITALMAG"> F  </i>
   <i type="logical" name="LMAGBLOCH"> F  </i>
   <i type="logical" name="LCHIMAG"> F  </i>
   <i type="logical" name="LGAUGE"> T  </i>
   <i type="int" name="MAGATOM">     0</i>
   <v name="MAGDIPOL">      0.00000000      0.00000000      0.00000000</v>
   <v name="AVECCONST">      0.00000000      0.00000000      0.00000000</v>
  </separator>
  <separator name="response functions" >
   <i type="logical" name="LFINITE_TEMPERATURE"> F  </i>
   <i type="logical" name="LADDER"> F  </i>
   <i type="logical" name="LRPAFORCE"> F  </i>
   <i type="logical" name="LFXC"> F  </i>
   <i type="logical" name="LHARTREE"> T  </i>
   <i type="int" name="IBSE">     0</i>
   <v type="int" name="KPOINT">    -1     0     0     0</v>
   <i type="logical" name="LTCTC"> F  </i>
   <i type="logical" name="LTCTE"> F  </i>
   <i type="logical" name="LTETE"> F  </i>
   <i type="logical" name="LTRIPLET"> F  </i>
   <i type="logical" name="LFXCEPS"> F  </i>
   <i type="logical" name="LFXHEG"> F  </i>
   <i type="int" name="NATURALO">     2</i>
   <i type="logical" name="LHOLEGF"> F  </i>
   <i type="logical" name="L2ORDER"> F  </i>
   <i type="logical" name="LDMP1"> F  </i>
   <i type="logical" name="LMP2LT"> F  </i>
   <i type="logical" name="LSMP2LT"> F  </i>
   <i type="logical" name="LGWLF"> F  </i>
   <i name="ENCUTGW">     -2.00000000</i>
   <i name="ENCUTGWSOFT">     -2.00000000</i>
   <i name="ENCUTLF">     -1.00000000</i>
   <i type="logical" name="LESF_SPLINES"> F  </i>
   <i type="int" name="LMAXMP2">    -1</i>
   <i name="SCISSOR">      0.00000000</i>
   <i type="int" name="NOMEGA">     0</i>
   <i type="int" name="NOMEGAR">     0</i>
   <i type="int" name="NBANDSGW">    -1</i>
   <i type="int" name="NBANDSO">    -1</i>
   <i type="int" name="NBANDSV">    -1</i>
   <i type="int" name="NELMGW">     1</i>
   <i type="int" name="NELMHF">     1</i>
   <i type="int" name="DIM">     3</i>
   <i type="int" name="IESPILON">     4</i>
   <i type="int" name="ANTIRES">     0</i>
   <i name="OMEGAMAX">    -30.00000000</i>
   <i name="OMEGAMIN">    -30.00000000</i>
   <i name="OMEGATL">   -200.00000000</i>
   <i type="int" name="OMEGAGRID">     0</i>
   <i name="CSHIFT">     -0.10000000</i>
   <i type="logical" name="LSELFENERGY"> F  </i>
   <i type="logical" name="LSPECTRAL"> F  </i>
   <i type="logical" name="LSPECTRALGW"> F  </i>
   <i type="logical" name="LSINGLES"> F  </i>
   <i type="logical" name="LFERMIGW"> F  </i>
   <i type="logical" name="ODDONLYGW"> F  </i>
   <i type="logical" name="EVENONLYGW"> F  </i>
   <i type="int" name="NKREDLFX">     1</i>
   <i type="int" name="NKREDLFY">     1</i>
   <i type="int" name="NKREDLFZ">     1</i>
   <i type="int" name="MAXMEM">  2800</i>
   <i type="int" name="TELESCOPE">     0</i>
   <i type="int" name="NTAUPAR">    -1</i>
   <i type="int" name="NOMEGAPAR">    -1</i>
   <i name="DAMP_NEWTON">      0.80000001</i>
   <i name="LAMBDA">      1.00000000</i>
  </separator>
  <separator name="External order field" >
   <i name="OFIELD_KAPPA">      0.00000000</i>
   <v name="OFIELD_K">      0.00000000      0.00000000      0.00000000</v>
   <i name="OFIELD_Q6_NEAR">      0.00000000</i>
   <i name="OFIELD_Q6_FAR">      0.00000000</i>
   <i name="OFIELD_A">      0.00000000</i>
  </separator>
  <separator name="optional k-points parameters" >
   <i type="int" name="KPOINTS_OPT_MODE">     1</i>
   <i type="logical" name="LKPOINTS_OPT"> F  </i>
  </separator>
 </parameters>
 <atominfo>
  <atoms>       1 </atoms>
  <types>       1 </types>
  <array name="atoms" >
   <dimension dim="1">ion</dimension>
   <field type="string">element</field>
   <field type="int">atomtype</field>
   <set>
    <rc><c>Co</c><c>   1</c></rc>
   </set>
  </array>
  <array name="atomtypes" >
   <dimension dim="1">type</dimension>
   <field type="int">atomspertype</field>
   <field type="string">element</field>
   <field>mass</field>
   <field>valence</field>
   <field type="string">pseudopotential</field>
   <set>
    <rc><c>   1</c><c>Co</c><c>     58.93300000</c><c>      9.00000000</c><c>  PAW_PBE Co 02Aug2007                  </c></rc>
   </set>
  </array>
 </atominfo>
 <structure name="initialpos" >
  <crystal>
   <varray name="basis" >
    <v>       0.00000000       1.75500000       1.75500000 </v>
    <v>       1.75500000       0.00000000       1.75500000 </v>
    <v>       1.75500000       1.75500000       0.00000000 </v>
   </varray>
   <i name="volume">     10.81088775 </i>
   <varray name="rec_basis" >
    <v>      -0.28490028       0.28490028       0.28490028 </v>
    <v>       0.28490028      -0.28490028       0.28490028 </v>
    <v>       0.28490028       0.28490028      -0.28490028 </v>
   </varray>
  </crystal>
  <varray name="positions" >
   <v>       0.00000000       0.00000000       0.00000000 </v>
  </varray>
 </structure>
 <calculation>
  <scstep>
   <time name="dav">    0.14    0.14</time>
   <time name="total">    0.15    0.15</time>
   <energy>
    <i name="alphaZ">     39.18058524 </i>
    <i name="ewald">   -761.78120824 </i>
    <i name="hartreedc">   -149.59159932 </i>
    <i name="XCdc">     17.82600536 </i>
    <i name="pawpsdc">    719.99081943 </i>
    <i name="pawaedc">   -772.94345096 </i>
    <i name="eentropy">     -0.00021812 </i>
    <i name="bandstr">    117.71234743 </i>
    <i name="atom">    813.36161494 </i>
    <i name="e_fr_energy">     23.75489577 </i>
    <i name="e_wo_entrp">     23.75511389 </i>
    <i name="e_0_energy">     23.75496848 </i>
   </energy>
  </scstep>
  <scstep>
   <time name="dav">    0.13    0.13</time>
   <time name="total">    0.13    0.13</time>
   <energy>
    <i name="e_fr_energy">     -6.95353322 </i>
    <i name="e_wo_entrp">     -6.95545483 </i>
    <i name="e_0_energy">     -6.95417376 </i>
   </energy>
  </scstep>
  <scstep>
   <time name="dav">    0.13    0.14</time>
   <time name="total">    0.14    0.14</time>
   <energy>
    <i name="e_fr_energy">     -7.79851510 </i>
    <i name="e_wo_entrp">     -7.79988328 </i>
    <i name="e_0_energy">     -7.79897116 </i>
   </energy>
  </scstep>
  <scstep>
   <time name="dav">    0.14    0.14</time>
   <time name="total">    0.14    0.14</time>
   <energy>
    <i name="e_fr_energy">     -7.80675503 </i>
    <i name="e_wo_entrp">     -7.80811833 </i>
    <i name="e_0_energy">     -7.80720946 </i>
   </energy>
  </scstep>
  <scstep>
   <time name="dav">    0.14    0.15</time>
   <time name="total">    0.16    0.16</time>
   <energy>
    <i name="e_fr_energy">     -7.80697839 </i>
    <i name="e_wo_entrp">     -7.80834208 </i>
    <i name="e_0_energy">     -7.80743295 </i>
   </energy>
  </scstep>
  <scstep>
   <time name="dav">    0.14    0.15</time>
   <time name="total">    0.16    0.17</time>
   <energy>
    <i name="e_fr_energy">     -7.19241826 </i>
    <i name="e_wo_entrp">     -7.18679447 </i>
    <i name="e_0_energy">     -7.19054367 </i>
   </energy>
  </scstep>
  <scstep>
   <time name="dav">    0.14    0.14</time>
   <time name="total">    0.16    0.16</time>
   <energy>
    <i name="e_fr_energy">     -7.03229358 </i>
    <i name="e_wo_entrp">     -7.02664134 </i>
    <i name="e_0_energy">     -7.03040950 </i>
   </energy>
  </scstep>
  <scstep>
   <time name="dav">    0.15    0.15</time>
   <time name="total">    0.17    0.17</time>
   <energy>
    <i name="e_fr_energy">     -7.02218684 </i>
    <i name="e_wo_entrp">     -7.01761571 </i>
    <i name="e_0_energy">     -7.02066313 </i>
   </energy>
  </scstep>
  <scstep>
   <time name="dav">    0.16    0.16</time>
   <time name="total">    0.18    0.18</time>
   <energy>
    <i name="e_fr_energy">     -7.01592210 </i>
    <i name="e_wo_entrp">     -7.01191758 </i>
    <i name="e_0_energy">     -7.01458726 </i>
   </energy>
  </scstep>
  <scstep>
   <time name="dav">    0.18    0.18</time>
   <time name="total">    0.20    0.20</time>
   <energy>
    <i name="e_fr_energy">     -7.01558129 </i>
    <i name="e_wo_entrp">     -7.01137167 </i>
    <i name="e_0_energy">     -7.01417808 </i>
   </energy>
  </scstep>
  <scstep>
   <time name="dav">    0.16    0.16</time>
   <time name="total">    0.18    0.18</time>
   <energy>
    <i name="e_fr_energy">     -7.01558607 </i>
    <i name="e_wo_entrp">     -7.01117449 </i>
    <i name="e_0_energy">     -7.01411554 </i>
   </energy>
  </scstep>
  <scstep>
   <time name="dav">    0.13    0.13</time>
   <time name="total">    0.13    0.14</time>
   <energy>
    <i name="alphaZ">     39.18058524 </i>
    <i name="ewald">   -761.78120824 </i>
    <i name="hartreedc">   -131.87542952 </i>
    <i name="XCdc">     16.45487372 </i>
    <i name="pawpsdc">    906.17143630 </i>
    <i name="pawaedc">   -959.25191904 </i>
    <i name="eentropy">     -0.00440117 </i>
    <i name="bandstr">     70.72886198 </i>
    <i name="atom">    813.36161494 </i>
    <i name="e_fr_energy">     -7.01558579 </i>
    <i name="e_wo_entrp">     -7.01118462 </i>
    <i name="e_0_energy">     -7.01411873 </i>
   </energy>
  </scstep>
  <structure>
   <crystal>
    <varray name="basis" >
     <v>       0.00000000       1.75500000       1.75500000 </v>
     <v>       1.75500000       0.00000000       1.75500000 </v>
     <v>       1.75500000       1.75500000       0.00000000 </v>
    </varray>
    <i name="volume">     10.81088775 </i>
    <varray name="rec_basis" >
     <v>      -0.28490028       0.28490028       0.28490028 </v>
     <v>       0.28490028      -0.28490028       0.28490028 </v>
     <v>       0.28490028       0.28490028      -0.28490028 </v>
    </varray>
   </crystal>
   <varray name="positions" >
    <v>       0.00000000       0.00000000       0.00000000 </v>
   </varray>
  </structure>
  <varray name="forces" >
   <v>       0.00000000       0.00000000       0.00000000 </v>
  </varray>
  <varray name="stress" >
   <v>      11.14074174      -0.00000000      -0.00000000 </v>
   <v>       0.00000000      11.14074174       0.00000000 </v>
   <v>      -0.00000000       0.00000000      11.14074174 </v>
  </varray>
  <energy>
   <i name="e_fr_energy">     -7.01558579 </i>
   <i name="e_wo_entrp">     -7.01118462 </i>
   <i name="e_0_energy">     -7.01411873 </i>
  </energy>
  <time name="totalsc">    1.95    1.96</time>
  <eigenvalues>
   <array>
    <dimension dim="1">band</dimension>
    <dimension dim="2">kpoint</dimension>
    <dimension dim="3">spin</dimension>
    <field>eigene</field>
    <field>occ</field>
    <set>
     <set comment="spin 1">
      <set comment="kpoint 1">
       <r>    1.6444    1.0000 </r>
       <r>    7.5841    1.0000 </r>
       <r>    7.7242    1.0000 </r>
       <r>    7.7242    1.0000 </r>
       <r>    8.7028    1.0000 </r>
       <r>    8.7028    1.0000 </r>
       <r>   32.7103    0.0000 </r>
       <r>   35.4423    0.0000 </r>
       <r>   37.4033    0.0000 </r>
       <r>   37.4033    0.0000 </r>
       <r>   41.7527    0.0000 </r>
       <r>   41.7532    0.0000 </r>
      </set>
      <set comment="kpoint 2">
       <r>    3.0170    1.0000 </r>
       <r>    7.2655    1.0000 </r>
       <r>    7.8754    1.0000 </r>
       <r>    7.9660    1.0000 </r>
       <r>    8.5008    1.0000 </r>
       <r>    8.9783    1.0000 </r>
       <r>   28.0177    0.0000 </r>
       <r>   31.4754    0.0000 </r>
       <r>   36.6029    0.0000 </r>
       <r>   39.0266    0.0000 </r>
       <r>   39.5309    0.0000 </r>
       <r>   41.0722    0.0000 </r>
      </set>
      <set comment="kpoint 3">
       <r>    5.0491    1.0000 </r>
       <r>    7.5841    1.0000 </r>
       <r>    7.7505    1.0000 </r>
       <r>    7.8203    1.0000 </r>
       <r>    9.1449    1.0000 </r>
       <r>    9.9475    1.0032 </r>
       <r>   20.2605    0.0000 </r>
       <r>   30.5847    0.0000 </r>
       <r>   34.3785    0.0000 </r>
       <r>   36.4320    0.0000 </r>
       <r>   38.9337    0.0000 </r>
       <r>   40.4358    0.0000 </r>
      </set>
      <set comment="kpoint 4">
       <r>    5.3156    1.0000 </r>
       <r>    7.4080    1.0000 </r>
       <r>    7.6590    1.0000 </r>
       <r>    8.6744    1.0000 </r>
       <r>    9.6230    1.0000 </r>
       <r>   11.1172   -0.0000 </r>
       <r>   16.7968    0.0000 </r>
       <r>   30.9928    0.0000 </r>
       <r>   33.5311    0.0000 </r>
       <r>   33.9198    0.0000 </r>
       <r>   40.0172    0.0000 </r>
       <r>   40.0428    0.0000 </r>
      </set>
      <set comment="kpoint 5">
       <r>    4.5397    1.0000 </r>
       <r>    7.3119    1.0000 </r>
       <r>    7.6800    1.0000 </r>
       <r>    7.8821    1.0000 </r>
       <r>    9.1914    1.0000 </r>
       <r>    9.2804    1.0000 </r>
       <r>   22.6666    0.0000 </r>
       <r>   32.2898    0.0000 </r>
       <r>   33.0556    0.0000 </r>
       <r>   36.3143    0.0000 </r>
       <r>   40.0168    0.0000 </r>
       <r>   42.5459    0.0000 </r>
      </set>
      <set comment="kpoint 6">
       <r>    2.3542    1.0000 </r>
       <r>    7.3447    1.0000 </r>
       <r>    7.8989    1.0000 </r>
       <r>    7.9085    1.0000 </r>
       <r>    8.4980    1.0000 </r>
       <r>    8.8327    1.0000 </r>
       <r>   30.7325    0.0000 </r>
       <r>   33.7567    0.0000 </r>
       <r>   34.4995    0.0000 </r>
       <r>   37.1858    0.0000 </r>
       <r>   41.3392    0.0000 </r>
       <r>   43.6527    0.0000 </r>
      </set>
      <set comment="kpoint 7">
       <r>    3.6273    1.0000 </r>
       <r>    6.9137    1.0000 </r>
       <r>    7.9575    1.0000 </r>
       <r>    8.2603    1.0000 </r>
       <r>    8.5757    1.0000 </r>
       <r>    9.0599    1.0000 </r>
       <r>   28.4987    0.0000 </r>
       <r>   31.4903    0.0000 </r>
       <r>   31.9935    0.0000 </r>
       <r>   34.1187    0.0000 </r>
       <r>   39.0757    0.0000 </r>
       <r>   45.1666    0.0000 </r>
      </set>
      <set comment="kpoint 8">
       <r>    5.3493    1.0000 </r>
       <r>    6.6181    1.0000 </r>
       <r>    7.5337    1.0000 </r>
       <r>    8.5435    1.0000 </r>
       <r>    9.1657    1.0000 </r>
       <r>   10.2856    0.9057 </r>
       <r>   23.6134    0.0000 </r>
       <r>   27.1004    0.0000 </r>
       <r>   29.5730    0.0000 </r>
       <r>   34.8938    0.0000 </r>
       <r>   39.8788    0.0000 </r>
       <r>   44.0985    0.0000 </r>
      </set>
      <set comment="kpoint 9">
       <r>    6.0309    1.0000 </r>
       <r>    6.7295    1.0000 </r>
       <r>    7.6123    1.0000 </r>
       <r>    8.2501    1.0000 </r>
       <r>    9.5762    1.0000 </r>
       <r>   13.6796   -0.0000 </r>
       <r>   17.2362    0.0000 </r>
       <r>   26.1440    0.0000 </r>
       <r>   28.0947    0.0000 </r>
       <r>   35.0172    0.0000 </r>
       <r>   41.4470    0.0000 </r>
       <r>   46.5061    0.0000 </r>
      </set>
      <set comment="kpoint 10">
       <r>    5.9349    1.0000 </r>
       <r>    6.9558    1.0000 </r>
       <r>    7.1573    1.0000 </r>
       <r>    8.3216    1.0000 </r>
       <r>    9.0544    1.0000 </r>
       <r>   11.4821   -0.0000 </r>
       <r>   21.1874    0.0000 </r>
       <r>   25.0059    0.0000 </r>
       <r>   30.6134    0.0000 </r>
       <r>   36.8634    0.0000 </r>
       <r>   39.8923    0.0000 </r>
       <r>   45.1762    0.0000 </r>
      </set>
      <set comment="kpoint 11">
       <r>    4.1869    1.0000 </r>
       <r>    6.9923    1.0000 </r>
       <r>    7.7180    1.0000 </r>
       <r>    8.1733    1.0000 </r>
       <r>    8.6489    1.0000 </r>
       <r>    9.4362    1.0000 </r>
       <r>   25.6213    0.0000 </r>
       <r>   29.1420    0.0000 </r>
       <r>   34.1809    0.0000 </r>
       <r>   36.5664    0.0000 </r>
       <r>   40.9354    0.0000 </r>
       <r>   41.7930    0.0000 </r>
      </set>
      <set comment="kpoint 12">
       <r>    5.2904    1.0000 </r>
       <r>    6.0355    1.0000 </r>
       <r>    8.8740    1.0000 </r>
       <r>    9.1585    1.0000 </r>
       <r>    9.6025    1.0000 </r>
       <r>   10.8338   -0.0044 </r>
       <r>   24.0644    0.0000 </r>
       <r>   24.9795    0.0000 </r>
       <r>   26.8546    0.0000 </r>
       <r>   31.4741    0.0000 </r>
       <r>   35.7970    0.0000 </r>
       <r>   47.1630    0.0000 </r>
      </set>
      <set comment="kpoint 13">
       <r>    5.5636    1.0000 </r>
       <r>    6.0820    1.0000 </r>
       <r>    8.4199    1.0000 </r>
       <r>    9.1228    1.0000 </r>
       <r>    9.7799    1.0001 </r>
       <r>   14.5049   -0.0000 </r>
       <r>   20.6772    0.0000 </r>
       <r>   21.5489    0.0000 </r>
       <r>   24.9199    0.0000 </r>
       <r>   33.6092    0.0000 </r>
       <r>   38.7852    0.0000 </r>
       <r>   47.0539    0.0000 </r>
      </set>
      <set comment="kpoint 14">
       <r>    6.2987    1.0000 </r>
       <r>    6.5111    1.0000 </r>
       <r>    7.4101    1.0000 </r>
       <r>    8.5600    1.0000 </r>
       <r>    9.4939    1.0000 </r>
       <r>   15.4180   -0.0000 </r>
       <r>   17.7035    0.0000 </r>
       <r>   22.3117    0.0000 </r>
       <r>   27.3212    0.0000 </r>
       <r>   34.9266    0.0000 </r>
       <r>   43.3344    0.0000 </r>
       <r>   46.3312    0.0000 </r>
      </set>
      <set comment="kpoint 15">
       <r>    5.5566    1.0000 </r>
       <r>    7.2169    1.0000 </r>
       <r>    7.7922    1.0000 </r>
       <r>    7.9524    1.0000 </r>
       <r>    9.4604    1.0000 </r>
       <r>   11.3597   -0.0000 </r>
       <r>   18.4218    0.0000 </r>
       <r>   28.8232    0.0000 </r>
       <r>   31.1784    0.0000 </r>
       <r>   35.2712    0.0000 </r>
       <r>   39.9684    0.0000 </r>
       <r>   43.4372    0.0000 </r>
      </set>
      <set comment="kpoint 16">
       <r>    5.2101    1.0000 </r>
       <r>    5.8122    1.0000 </r>
       <r>    9.4042    1.0000 </r>
       <r>    9.4153    1.0000 </r>
       <r>    9.8048    1.0001 </r>
       <r>   13.0122   -0.0000 </r>
       <r>   20.6812    0.0000 </r>
       <r>   23.8957    0.0000 </r>
       <r>   25.7592    0.0000 </r>
       <r>   31.2062    0.0000 </r>
       <r>   35.4289    0.0000 </r>
       <r>   47.1759    0.0000 </r>
      </set>
      <set comment="kpoint 17">
       <r>    5.6792    1.0000 </r>
       <r>    6.2719    1.0000 </r>
       <r>    7.9307    1.0000 </r>
       <r>    8.9511    1.0000 </r>
       <r>    9.5570    1.0000 </r>
       <r>   12.0949   -0.0000 </r>
       <r>   22.0574    0.0000 </r>
       <r>   24.6215    0.0000 </r>
       <r>   25.9230    0.0000 </r>
       <r>   34.0019    0.0000 </r>
       <r>   39.1039    0.0000 </r>
       <r>   46.0462    0.0000 </r>
      </set>
      <set comment="kpoint 18">
       <r>    4.9079    1.0000 </r>
       <r>    6.4345    1.0000 </r>
       <r>    8.0661    1.0000 </r>
       <r>    8.7207    1.0000 </r>
       <r>    9.3111    1.0000 </r>
       <r>    9.3328    1.0000 </r>
       <r>   26.4047    0.0000 </r>
       <r>   28.6478    0.0000 </r>
       <r>   28.8515    0.0000 </r>
       <r>   32.1488    0.0000 </r>
       <r>   36.8287    0.0000 </r>
       <r>   47.0396    0.0000 </r>
      </set>
      <set comment="kpoint 19">
       <r>    3.5879    1.0000 </r>
       <r>    7.3427    1.0000 </r>
       <r>    7.8416    1.0000 </r>
       <r>    7.8416    1.0000 </r>
       <r>    8.8761    1.0000 </r>
       <r>    8.8761    1.0000 </r>
       <r>   25.1137    0.0000 </r>
       <r>   33.7072    0.0000 </r>
       <r>   36.0678    0.0000 </r>
       <r>   36.0678    0.0000 </r>
       <r>   41.3233    0.0000 </r>
       <r>   41.3233    0.0000 </r>
      </set>
      <set comment="kpoint 20">
       <r>    5.0999    1.0000 </r>
       <r>    7.0610    1.0000 </r>
       <r>    7.5150    1.0000 </r>
       <r>    8.0946    1.0000 </r>
       <r>    8.6789    1.0000 </r>
       <r>   10.2147    1.0153 </r>
       <r>   23.1787    0.0000 </r>
       <r>   26.8391    0.0000 </r>
       <r>   35.1283    0.0000 </r>
       <r>   36.0747    0.0000 </r>
       <r>   40.3297    0.0000 </r>
       <r>   41.8375    0.0000 </r>
      </set>
      <set comment="kpoint 21">
       <r>    6.2670    1.0000 </r>
       <r>    6.8050    1.0000 </r>
       <r>    7.3130    1.0000 </r>
       <r>    8.2992    1.0000 </r>
       <r>    9.1850    1.0000 </r>
       <r>   13.1214   -0.0000 </r>
       <r>   19.1878    0.0000 </r>
       <r>   23.3671    0.0000 </r>
       <r>   31.4832    0.0000 </r>
       <r>   33.0873    0.0000 </r>
       <r>   44.2304    0.0000 </r>
       <r>   44.6265    0.0000 </r>
      </set>
      <set comment="kpoint 22">
       <r>    5.8531    1.0000 </r>
       <r>    6.4919    1.0000 </r>
       <r>    7.7623    1.0000 </r>
       <r>    8.4887    1.0000 </r>
       <r>    9.6809    1.0000 </r>
       <r>   12.7830   -0.0000 </r>
       <r>   19.1901    0.0000 </r>
       <r>   25.2178    0.0000 </r>
       <r>   28.7871    0.0000 </r>
       <r>   32.3779    0.0000 </r>
       <r>   42.8273    0.0000 </r>
       <r>   46.4024    0.0000 </r>
      </set>
      <set comment="kpoint 23">
       <r>    5.4406    1.0000 </r>
       <r>    6.9545    1.0000 </r>
       <r>    7.5581    1.0000 </r>
       <r>    8.1172    1.0000 </r>
       <r>    9.5767    1.0000 </r>
       <r>   10.5014    0.1246 </r>
       <r>   20.6860    0.0000 </r>
       <r>   29.4802    0.0000 </r>
       <r>   30.5664    0.0000 </r>
       <r>   33.2400    0.0000 </r>
       <r>   43.3168    0.0000 </r>
       <r>   44.0361    0.0000 </r>
      </set>
      <set comment="kpoint 24">
       <r>    6.2316    1.0000 </r>
       <r>    6.6346    1.0000 </r>
       <r>    7.1794    1.0000 </r>
       <r>    8.6336    1.0000 </r>
       <r>    9.4814    1.0000 </r>
       <r>   13.6473   -0.0000 </r>
       <r>   19.6789    0.0000 </r>
       <r>   23.6764    0.0000 </r>
       <r>   25.9351    0.0000 </r>
       <r>   37.7147    0.0000 </r>
       <r>   40.1553    0.0000 </r>
       <r>   44.7071    0.0000 </r>
      </set>
      <set comment="kpoint 25">
       <r>    6.0265    1.0000 </r>
       <r>    6.5972    1.0000 </r>
       <r>    7.4050    1.0000 </r>
       <r>    8.7295    1.0000 </r>
       <r>    9.7710    1.0000 </r>
       <r>   16.4495    0.0000 </r>
       <r>   18.7569    0.0000 </r>
       <r>   21.6646    0.0000 </r>
       <r>   23.3269    0.0000 </r>
       <r>   37.6494    0.0000 </r>
       <r>   42.0975    0.0000 </r>
       <r>   43.8821    0.0000 </r>
      </set>
      <set comment="kpoint 26">
       <r>    5.8508    1.0000 </r>
       <r>    6.2775    1.0000 </r>
       <r>    8.0275    1.0000 </r>
       <r>    8.8422    1.0000 </r>
       <r>    9.6086    1.0000 </r>
       <r>   15.5605   -0.0000 </r>
       <r>   18.1974    0.0000 </r>
       <r>   21.5091    0.0000 </r>
       <r>   27.8568    0.0000 </r>
       <r>   32.1484    0.0000 </r>
       <r>   42.5014    0.0000 </r>
       <r>   47.0448    0.0000 </r>
      </set>
      <set comment="kpoint 27">
       <r>    5.0889    1.0000 </r>
       <r>    7.5879    1.0000 </r>
       <r>    7.5879    1.0000 </r>
       <r>    9.1487    1.0000 </r>
       <r>    9.5012    1.0000 </r>
       <r>    9.5012    1.0000 </r>
       <r>   18.0696    0.0000 </r>
       <r>   32.2701    0.0000 </r>
       <r>   35.4373    0.0000 </r>
       <r>   35.4373    0.0000 </r>
       <r>   38.4188    0.0000 </r>
       <r>   38.4188    0.0000 </r>
      </set>
      <set comment="kpoint 28">
       <r>    5.7422    1.0000 </r>
       <r>    7.0741    1.0000 </r>
       <r>    7.9389    1.0000 </r>
       <r>    7.9507    1.0000 </r>
       <r>    9.4801    1.0000 </r>
       <r>   12.6716   -0.0000 </r>
       <r>   16.9996    0.0000 </r>
       <r>   27.3021    0.0000 </r>
       <r>   32.1693    0.0000 </r>
       <r>   33.1019    0.0000 </r>
       <r>   42.2588    0.0000 </r>
       <r>   42.5668    0.0000 </r>
      </set>
     </set>
     <set comment="spin 2">
      <set comment="kpoint 1">
       <r>    1.6613    1.0000 </r>
       <r>    9.1837    1.0000 </r>
       <r>    9.3542    1.0000 </r>
       <r>    9.3542    1.0000 </r>
       <r>   10.6767   -0.0323 </r>
       <r>   10.6767   -0.0323 </r>
       <r>   32.5864    0.0000 </r>
       <r>   35.4816    0.0000 </r>
       <r>   37.6273    0.0000 </r>
       <r>   37.6273    0.0000 </r>
       <r>   41.9226    0.0000 </r>
       <r>   41.9861    0.0000 </r>
      </set>
      <set comment="kpoint 2">
       <r>    3.0577    1.0000 </r>
       <r>    8.7581    1.0000 </r>
       <r>    9.5423    1.0000 </r>
       <r>    9.6425    1.0000 </r>
       <r>   10.4124    0.4453 </r>
       <r>   10.9151   -0.0008 </r>
       <r>   28.3456    0.0000 </r>
       <r>   31.6375    0.0000 </r>
       <r>   36.6022    0.0000 </r>
       <r>   39.2261    0.0000 </r>
       <r>   39.5128    0.0000 </r>
       <r>   41.3678    0.0000 </r>
      </set>
      <set comment="kpoint 3">
       <r>    5.5649    1.0000 </r>
       <r>    8.7486    1.0000 </r>
       <r>    9.2779    1.0000 </r>
       <r>    9.4902    1.0000 </r>
       <r>   11.0266   -0.0000 </r>
       <r>   11.7097   -0.0000 </r>
       <r>   20.9130    0.0000 </r>
       <r>   30.6925    0.0000 </r>
       <r>   34.4278    0.0000 </r>
       <r>   36.7775    0.0000 </r>
       <r>   39.2290    0.0000 </r>
       <r>   40.5988    0.0000 </r>
      </set>
      <set comment="kpoint 4">
       <r>    6.2555    1.0000 </r>
       <r>    9.0225    1.0000 </r>
       <r>    9.3854    1.0000 </r>
       <r>    9.5727    1.0000 </r>
       <r>   11.5661   -0.0000 </r>
       <r>   12.2331   -0.0000 </r>
       <r>   17.7767    0.0000 </r>
       <r>   30.9110    0.0000 </r>
       <r>   33.8653    0.0000 </r>
       <r>   34.1675    0.0000 </r>
       <r>   40.2431    0.0000 </r>
       <r>   40.2840    0.0000 </r>
      </set>
      <set comment="kpoint 5">
       <r>    4.7794    1.0000 </r>
       <r>    8.5368    1.0000 </r>
       <r>    9.3910    1.0000 </r>
       <r>    9.6023    1.0000 </r>
       <r>   10.9654   -0.0002 </r>
       <r>   11.2208   -0.0000 </r>
       <r>   23.1954    0.0000 </r>
       <r>   32.1689    0.0000 </r>
       <r>   33.4155    0.0000 </r>
       <r>   36.6527    0.0000 </r>
       <r>   40.1724    0.0000 </r>
       <r>   42.7206    0.0000 </r>
      </set>
      <set comment="kpoint 6">
       <r>    2.3783    1.0000 </r>
       <r>    8.8933    1.0000 </r>
       <r>    9.5474    1.0000 </r>
       <r>    9.5573    1.0000 </r>
       <r>   10.4162    0.4296 </r>
       <r>   10.8147   -0.0062 </r>
       <r>   30.9184    0.0000 </r>
       <r>   33.7000    0.0000 </r>
       <r>   34.8313    0.0000 </r>
       <r>   37.2438    0.0000 </r>
       <r>   41.5997    0.0000 </r>
       <r>   44.2183    0.0000 </r>
      </set>
      <set comment="kpoint 7">
       <r>    3.7001    1.0000 </r>
       <r>    8.3841    1.0000 </r>
       <r>    9.6869    1.0000 </r>
       <r>    9.9519    1.0034 </r>
       <r>   10.3068    0.8494 </r>
       <r>   11.0533   -0.0000 </r>
       <r>   28.8201    0.0000 </r>
       <r>   31.8371    0.0000 </r>
       <r>   32.0220    0.0000 </r>
       <r>   34.2792    0.0000 </r>
       <r>   39.7262    0.0000 </r>
       <r>   45.1813    0.0000 </r>
      </set>
      <set comment="kpoint 8">
       <r>    5.7632    1.0000 </r>
       <r>    7.9709    1.0000 </r>
       <r>    9.0934    1.0000 </r>
       <r>   10.3211    0.8052 </r>
       <r>   10.9810   -0.0002 </r>
       <r>   11.9394   -0.0000 </r>
       <r>   24.0722    0.0000 </r>
       <r>   27.4224    0.0000 </r>
       <r>   29.8893    0.0000 </r>
       <r>   35.0859    0.0000 </r>
       <r>   40.2409    0.0000 </r>
       <r>   44.3562    0.0000 </r>
      </set>
      <set comment="kpoint 9">
       <r>    7.1124    1.0000 </r>
       <r>    8.0238    1.0000 </r>
       <r>    8.9121    1.0000 </r>
       <r>   10.0497    1.0165 </r>
       <r>   11.4819   -0.0000 </r>
       <r>   14.5624   -0.0000 </r>
       <r>   18.0489    0.0000 </r>
       <r>   26.5013    0.0000 </r>
       <r>   28.4577    0.0000 </r>
       <r>   35.1519    0.0000 </r>
       <r>   41.6258    0.0000 </r>
       <r>   47.1681    0.0000 </r>
      </set>
      <set comment="kpoint 10">
       <r>    6.5331    1.0000 </r>
       <r>    8.2304    1.0000 </r>
       <r>    8.7117    1.0000 </r>
       <r>   10.1325    1.0339 </r>
       <r>   10.8614   -0.0026 </r>
       <r>   12.9253   -0.0000 </r>
       <r>   21.7563    0.0000 </r>
       <r>   25.4038    0.0000 </r>
       <r>   30.8981    0.0000 </r>
       <r>   36.9921    0.0000 </r>
       <r>   40.0095    0.0000 </r>
       <r>   45.5899    0.0000 </r>
      </set>
      <set comment="kpoint 11">
       <r>    4.3011    1.0000 </r>
       <r>    8.4113    1.0000 </r>
       <r>    9.4120    1.0000 </r>
       <r>    9.9040    1.0013 </r>
       <r>   10.4547    0.2758 </r>
       <r>   11.3236   -0.0000 </r>
       <r>   26.0372    0.0000 </r>
       <r>   29.4119    0.0000 </r>
       <r>   34.2960    0.0000 </r>
       <r>   36.7237    0.0000 </r>
       <r>   41.1713    0.0000 </r>
       <r>   42.0964    0.0000 </r>
      </set>
      <set comment="kpoint 12">
       <r>    6.2220    1.0000 </r>
       <r>    7.3662    1.0000 </r>
       <r>   10.1452    1.0351 </r>
       <r>   11.0493   -0.0000 </r>
       <r>   11.5647   -0.0000 </r>
       <r>   11.9835   -0.0000 </r>
       <r>   24.5520    0.0000 </r>
       <r>   25.3428    0.0000 </r>
       <r>   27.1014    0.0000 </r>
       <r>   31.8064    0.0000 </r>
       <r>   36.2401    0.0000 </r>
       <r>   50.8208    0.0000 </r>
      </set>
      <set comment="kpoint 13">
       <r>    6.7853    1.0000 </r>
       <r>    7.3664    1.0000 </r>
       <r>    9.7576    1.0000 </r>
       <r>   11.0921   -0.0000 </r>
       <r>   11.6545   -0.0000 </r>
       <r>   15.1468   -0.0000 </r>
       <r>   21.2991    0.0000 </r>
       <r>   22.0758    0.0000 </r>
       <r>   25.2310    0.0000 </r>
       <r>   33.8653    0.0000 </r>
       <r>   39.1732    0.0000 </r>
       <r>   48.2927    0.0000 </r>
      </set>
      <set comment="kpoint 14">
       <r>    7.6029    1.0000 </r>
       <r>    7.6692    1.0000 </r>
       <r>    8.7061    1.0000 </r>
       <r>   10.4413    0.3272 </r>
       <r>   11.3410   -0.0000 </r>
       <r>   16.1938    0.0000 </r>
       <r>   18.3777    0.0000 </r>
       <r>   22.8604    0.0000 </r>
       <r>   27.6786    0.0000 </r>
       <r>   35.0979    0.0000 </r>
       <r>   43.4257    0.0000 </r>
       <r>   47.3684    0.0000 </r>
      </set>
      <set comment="kpoint 15">
       <r>    6.3954    1.0000 </r>
       <r>    8.5725    1.0000 </r>
       <r>    9.0770    1.0000 </r>
       <r>    9.6675    1.0000 </r>
       <r>   11.3577   -0.0000 </r>
       <r>   12.6639   -0.0000 </r>
       <r>   19.1807    0.0000 </r>
       <r>   29.0314    0.0000 </r>
       <r>   31.4684    0.0000 </r>
       <r>   35.4148    0.0000 </r>
       <r>   40.2078    0.0000 </r>
       <r>   43.5702    0.0000 </r>
      </set>
      <set comment="kpoint 16">
       <r>    6.3842    1.0000 </r>
       <r>    7.1108    1.0000 </r>
       <r>   10.9304   -0.0006 </r>
       <r>   11.4309   -0.0000 </r>
       <r>   11.6970   -0.0000 </r>
       <r>   13.4764   -0.0000 </r>
       <r>   21.4849    0.0000 </r>
       <r>   24.1708    0.0000 </r>
       <r>   25.9535    0.0000 </r>
       <r>   31.5819    0.0000 </r>
       <r>   35.8660    0.0000 </r>
       <r>   50.9146    0.0000 </r>
      </set>
      <set comment="kpoint 17">
       <r>    6.6669    1.0000 </r>
       <r>    7.5820    1.0000 </r>
       <r>    9.2436    1.0000 </r>
       <r>   10.8152   -0.0062 </r>
       <r>   11.4436   -0.0000 </r>
       <r>   13.2250   -0.0000 </r>
       <r>   22.5105    0.0000 </r>
       <r>   25.0817    0.0000 </r>
       <r>   26.2813    0.0000 </r>
       <r>   34.2306    0.0000 </r>
       <r>   39.4756    0.0000 </r>
       <r>   46.4742    0.0000 </r>
      </set>
      <set comment="kpoint 18">
       <r>    5.2637    1.0000 </r>
       <r>    7.8257    1.0000 </r>
       <r>    9.5475    1.0000 </r>
       <r>   10.4890    0.1600 </r>
       <r>   10.9315   -0.0006 </r>
       <r>   11.3280   -0.0000 </r>
       <r>   26.7566    0.0000 </r>
       <r>   28.9313    0.0000 </r>
       <r>   29.1614    0.0000 </r>
       <r>   32.4104    0.0000 </r>
       <r>   37.3325    0.0000 </r>
       <r>   48.7741    0.0000 </r>
      </set>
      <set comment="kpoint 19">
       <r>    3.6752    1.0000 </r>
       <r>    8.7123    1.0000 </r>
       <r>    9.5422    1.0000 </r>
       <r>    9.5422    1.0000 </r>
       <r>   10.7895   -0.0094 </r>
       <r>   10.7895   -0.0094 </r>
       <r>   25.5483    0.0000 </r>
       <r>   33.4628    0.0000 </r>
       <r>   36.4250    0.0000 </r>
       <r>   36.4250    0.0000 </r>
       <r>   41.5078    0.0000 </r>
       <r>   41.5078    0.0000 </r>
      </set>
      <set comment="kpoint 20">
       <r>    5.3587    1.0000 </r>
       <r>    8.3886    1.0000 </r>
       <r>    9.1488    1.0000 </r>
       <r>    9.8992    1.0012 </r>
       <r>   10.4764    0.1997 </r>
       <r>   11.9714   -0.0000 </r>
       <r>   23.6852    0.0000 </r>
       <r>   27.1809    0.0000 </r>
       <r>   35.1216    0.0000 </r>
       <r>   36.4191    0.0000 </r>
       <r>   40.2988    0.0000 </r>
       <r>   42.1182    0.0000 </r>
      </set>
      <set comment="kpoint 21">
       <r>    7.1842    1.0000 </r>
       <r>    8.1826    1.0000 </r>
       <r>    8.6100    1.0000 </r>
       <r>   10.1496    1.0354 </r>
       <r>   11.0086   -0.0001 </r>
       <r>   14.2279   -0.0000 </r>
       <r>   19.8392    0.0000 </r>
       <r>   23.8421    0.0000 </r>
       <r>   31.8401    0.0000 </r>
       <r>   33.1927    0.0000 </r>
       <r>   44.2164    0.0000 </r>
       <r>   44.8000    0.0000 </r>
      </set>
      <set comment="kpoint 22">
       <r>    6.9152    1.0000 </r>
       <r>    7.7361    1.0000 </r>
       <r>    9.0798    1.0000 </r>
       <r>   10.3169    0.8185 </r>
       <r>   11.6206   -0.0000 </r>
       <r>   13.8142   -0.0000 </r>
       <r>   19.7895    0.0000 </r>
       <r>   25.6505    0.0000 </r>
       <r>   29.0913    0.0000 </r>
       <r>   32.6168    0.0000 </r>
       <r>   43.1644    0.0000 </r>
       <r>   46.5636    0.0000 </r>
      </set>
      <set comment="kpoint 23">
       <r>    6.0412    1.0000 </r>
       <r>    8.1814    1.0000 </r>
       <r>    9.0893    1.0000 </r>
       <r>    9.8772    1.0007 </r>
       <r>   11.5339   -0.0000 </r>
       <r>   11.9452   -0.0000 </r>
       <r>   21.2759    0.0000 </r>
       <r>   29.6503    0.0000 </r>
       <r>   30.8999    0.0000 </r>
       <r>   33.5068    0.0000 </r>
       <r>   43.4262    0.0000 </r>
       <r>   44.3794    0.0000 </r>
      </set>
      <set comment="kpoint 24">
       <r>    7.2999    1.0000 </r>
       <r>    7.9333    1.0000 </r>
       <r>    8.5066    1.0000 </r>
       <r>   10.4944    0.1441 </r>
       <r>   11.3243   -0.0000 </r>
       <r>   14.6425   -0.0000 </r>
       <r>   20.2605    0.0000 </r>
       <r>   24.1149    0.0000 </r>
       <r>   26.3546    0.0000 </r>
       <r>   37.8360    0.0000 </r>
       <r>   40.2889    0.0000 </r>
       <r>   45.3668    0.0000 </r>
      </set>
      <set comment="kpoint 25">
       <r>    7.3099    1.0000 </r>
       <r>    7.8626    1.0000 </r>
       <r>    8.6921    1.0000 </r>
       <r>   10.6315   -0.0348 </r>
       <r>   11.6380   -0.0000 </r>
       <r>   17.1019    0.0000 </r>
       <r>   19.3217    0.0000 </r>
       <r>   22.2671    0.0000 </r>
       <r>   23.7691    0.0000 </r>
       <r>   37.8005    0.0000 </r>
       <r>   42.2479    0.0000 </r>
       <r>   44.2259    0.0000 </r>
      </set>
      <set comment="kpoint 26">
       <r>    7.1385    1.0000 </r>
       <r>    7.4898    1.0000 </r>
       <r>    9.3226    1.0000 </r>
       <r>   10.7667   -0.0131 </r>
       <r>   11.4819   -0.0000 </r>
       <r>   16.2460    0.0000 </r>
       <r>   18.7763    0.0000 </r>
       <r>   22.1563    0.0000 </r>
       <r>   28.1430    0.0000 </r>
       <r>   32.4160    0.0000 </r>
       <r>   42.8852    0.0000 </r>
       <r>   48.3875    0.0000 </r>
      </set>
      <set comment="kpoint 27">
       <r>    5.8700    1.0000 </r>
       <r>    9.3047    1.0000 </r>
       <r>    9.3047    1.0000 </r>
       <r>    9.4617    1.0000 </r>
       <r>   11.4334   -0.0000 </r>
       <r>   11.4334   -0.0000 </r>
       <r>   18.9049    0.0000 </r>
       <r>   31.9743    0.0000 </r>
       <r>   35.7761    0.0000 </r>
       <r>   35.7761    0.0000 </r>
       <r>   38.6995    0.0000 </r>
       <r>   38.6995    0.0000 </r>
      </set>
      <set comment="kpoint 28">
       <r>    6.7409    1.0000 </r>
       <r>    8.4814    1.0000 </r>
       <r>    9.1312    1.0000 </r>
       <r>    9.7088    1.0000 </r>
       <r>   11.3860   -0.0000 </r>
       <r>   13.6494   -0.0000 </r>
       <r>   17.9033    0.0000 </r>
       <r>   27.6004    0.0000 </r>
       <r>   32.5145    0.0000 </r>
       <r>   33.1810    0.0000 </r>
       <r>   42.4983    0.0000 </r>
       <r>   42.6743    0.0000 </r>
      </set>
     </set>
    </set>
   </array>
  </eigenvalues>
  <separator name="orbital magnetization" >
   <v name="MAGDIPOLOUT">      0.00000000      0.00000000      0.00000000</v>
  </separator>
  <dos>
   <i name="efermi">     10.39948573 </i>
   <total>
    <array>
     <dimension dim="1">gridpoints</dimension>
     <dimension dim="2">spin</dimension>
     <field>energy</field>
     <field>total</field>
     <field>integrated</field>
     <set>
      <set comment="spin 1">
       <r>    -0.8191     0.0000     0.0000 </r>
       <r>    -0.6384     0.0000     0.0000 </r>
       <r>    -0.4578     0.0000     0.0000 </r>
       <r>    -0.2771     0.0000     0.0000 </r>
       <r>    -0.0965    -0.0000    -0.0000 </r>
       <r>     0.0842    -0.0000    -0.0000 </r>
       <r>     0.2648    -0.0000    -0.0000 </r>
       <r>     0.4455    -0.0000    -0.0000 </r>
       <r>     0.6262    -0.0000    -0.0000 </r>
       <r>     0.8068    -0.0000    -0.0000 </r>
       <r>     0.9875    -0.0000    -0.0000 </r>
       <r>     1.1681    -0.0001    -0.0000 </r>
       <r>     1.3488    -0.0014    -0.0003 </r>
       <r>     1.5294     0.0062     0.0008 </r>
       <r>     1.7101     0.0344     0.0071 </r>
       <r>     1.8908     0.0136     0.0095 </r>
       <r>     2.0714    -0.0060     0.0084 </r>
       <r>     2.2521     0.0236     0.0127 </r>
       <r>     2.4327     0.1048     0.0316 </r>
       <r>     2.6134     0.0341     0.0378 </r>
       <r>     2.7940    -0.0087     0.0362 </r>
       <r>     2.9747     0.0545     0.0461 </r>
       <r>     3.1554     0.0966     0.0635 </r>
       <r>     3.3360     0.0044     0.0643 </r>
       <r>     3.5167     0.0299     0.0697 </r>
       <r>     3.6973     0.1378     0.0946 </r>
       <r>     3.8780     0.0392     0.1017 </r>
       <r>     4.0586     0.0206     0.1054 </r>
       <r>     4.2393     0.1955     0.1407 </r>
       <r>     4.4200     0.1152     0.1615 </r>
       <r>     4.6006     0.0888     0.1776 </r>
       <r>     4.7813     0.0465     0.1860 </r>
       <r>     4.9619     0.1284     0.2092 </r>
       <r>     5.1426     0.3203     0.2670 </r>
       <r>     5.3232     0.4970     0.3568 </r>
       <r>     5.5039     0.6046     0.4660 </r>
       <r>     5.6846     0.6522     0.5839 </r>
       <r>     5.8652     0.6491     0.7011 </r>
       <r>     6.0459     0.9180     0.8670 </r>
       <r>     6.2265     0.9819     1.0444 </r>
       <r>     6.4072     0.8747     1.2024 </r>
       <r>     6.5878     0.8595     1.3577 </r>
       <r>     6.7685     0.8614     1.5133 </r>
       <r>     6.9492     0.6607     1.6326 </r>
       <r>     7.1298     0.9542     1.8050 </r>
       <r>     7.3105     1.1183     2.0070 </r>
       <r>     7.4911     1.1965     2.2232 </r>
       <r>     7.6718     1.2969     2.4575 </r>
       <r>     7.8524     1.5700     2.7411 </r>
       <r>     8.0331     1.6778     3.0442 </r>
       <r>     8.2138     1.0307     3.2304 </r>
       <r>     8.3944     0.8910     3.3914 </r>
       <r>     8.5751     1.2609     3.6192 </r>
       <r>     8.7557     1.4621     3.8833 </r>
       <r>     8.9364     0.9269     4.0508 </r>
       <r>     9.1170     1.0879     4.2473 </r>
       <r>     9.2977     1.1586     4.4566 </r>
       <r>     9.4784     1.4663     4.7215 </r>
       <r>     9.6590     1.7433     5.0365 </r>
       <r>     9.8397     0.8987     5.1988 </r>
       <r>    10.0203     0.2721     5.2480 </r>
       <r>    10.2010     0.1388     5.2731 </r>
       <r>    10.3816     0.3027     5.3277 </r>
       <r>    10.5623     0.1529     5.3554 </r>
       <r>    10.7430     0.0604     5.3663 </r>
       <r>    10.9236     0.0969     5.3838 </r>
       <r>    11.1043     0.0877     5.3996 </r>
       <r>    11.2849     0.1511     5.4269 </r>
       <r>    11.4656     0.3506     5.4902 </r>
       <r>    11.6462     0.2147     5.5290 </r>
       <r>    11.8269    -0.0112     5.5270 </r>
       <r>    12.0076     0.0557     5.5371 </r>
       <r>    12.1882     0.2100     5.5750 </r>
       <r>    12.3689     0.0510     5.5842 </r>
       <r>    12.5495     0.0018     5.5845 </r>
       <r>    12.7302     0.1441     5.6106 </r>
       <r>    12.9108     0.1672     5.6408 </r>
       <r>    13.0915     0.1761     5.6726 </r>
       <r>    13.2722     0.1172     5.6938 </r>
       <r>    13.4528    -0.0098     5.6920 </r>
       <r>    13.6335     0.2449     5.7363 </r>
       <r>    13.8141     0.3677     5.8027 </r>
       <r>    13.9948     0.0283     5.8078 </r>
       <r>    14.1754    -0.0182     5.8045 </r>
       <r>    14.3561     0.0138     5.8070 </r>
       <r>    14.5368     0.1868     5.8407 </r>
       <r>    14.7174     0.1222     5.8628 </r>
       <r>    14.8981    -0.0069     5.8616 </r>
       <r>    15.0787    -0.0085     5.8600 </r>
       <r>    15.2594     0.0054     5.8610 </r>
       <r>    15.4400     0.1950     5.8962 </r>
       <r>    15.6207     0.2354     5.9388 </r>
       <r>    15.8014     0.0401     5.9460 </r>
       <r>    15.9820    -0.0084     5.9445 </r>
       <r>    16.1627    -0.0096     5.9428 </r>
       <r>    16.3433     0.0438     5.9507 </r>
       <r>    16.5240     0.2039     5.9875 </r>
       <r>    16.7046     0.0988     6.0053 </r>
       <r>    16.8853     0.1098     6.0252 </r>
       <r>    17.0660     0.1365     6.0498 </r>
       <r>    17.2466     0.2040     6.0867 </r>
       <r>    17.4273     0.1321     6.1106 </r>
       <r>    17.6079     0.0505     6.1197 </r>
       <r>    17.7886     0.2042     6.1566 </r>
       <r>    17.9692     0.0668     6.1686 </r>
       <r>    18.1499     0.0685     6.1810 </r>
       <r>    18.3306     0.1654     6.2109 </r>
       <r>    18.5112     0.2115     6.2491 </r>
       <r>    18.6919     0.1403     6.2744 </r>
       <r>    18.8725     0.1895     6.3087 </r>
       <r>    19.0532     0.0574     6.3190 </r>
       <r>    19.2338     0.1866     6.3528 </r>
       <r>    19.4145     0.0974     6.3703 </r>
       <r>    19.5952     0.0570     6.3806 </r>
       <r>    19.7758     0.2078     6.4182 </r>
       <r>    19.9565     0.0486     6.4270 </r>
       <r>    20.1371     0.0060     6.4281 </r>
       <r>    20.3178     0.0922     6.4447 </r>
       <r>    20.4984     0.0473     6.4532 </r>
       <r>    20.6791     0.3073     6.5088 </r>
       <r>    20.8598     0.3103     6.5648 </r>
       <r>    21.0404     0.0169     6.5679 </r>
       <r>    21.2211     0.1678     6.5982 </r>
       <r>    21.4017     0.1474     6.6248 </r>
       <r>    21.5824     0.3515     6.6883 </r>
       <r>    21.7631     0.3574     6.7529 </r>
       <r>    21.9437     0.0736     6.7662 </r>
       <r>    22.1244     0.1930     6.8010 </r>
       <r>    22.3050     0.2301     6.8426 </r>
       <r>    22.4857     0.1551     6.8706 </r>
       <r>    22.6663     0.0799     6.8851 </r>
       <r>    22.8470     0.0706     6.8978 </r>
       <r>    23.0277    -0.0040     6.8971 </r>
       <r>    23.2083     0.1262     6.9199 </r>
       <r>    23.3890     0.3396     6.9812 </r>
       <r>    23.5696     0.3006     7.0355 </r>
       <r>    23.7503     0.3952     7.1070 </r>
       <r>    23.9309     0.1998     7.1431 </r>
       <r>    24.1116     0.1412     7.1686 </r>
       <r>    24.2923     0.0409     7.1759 </r>
       <r>    24.4729     0.0076     7.1773 </r>
       <r>    24.6536     0.1684     7.2077 </r>
       <r>    24.8342     0.1941     7.2428 </r>
       <r>    25.0149     0.4709     7.3279 </r>
       <r>    25.1955     0.3586     7.3927 </r>
       <r>    25.3762     0.0748     7.4062 </r>
       <r>    25.5569     0.0729     7.4194 </r>
       <r>    25.7375     0.2626     7.4668 </r>
       <r>    25.9182     0.4081     7.5405 </r>
       <r>    26.0988     0.4361     7.6193 </r>
       <r>    26.2795     0.2167     7.6585 </r>
       <r>    26.4601     0.1103     7.6784 </r>
       <r>    26.6408     0.0341     7.6845 </r>
       <r>    26.8215     0.1151     7.7053 </r>
       <r>    27.0021     0.2207     7.7452 </r>
       <r>    27.1828     0.2584     7.7919 </r>
       <r>    27.3634     0.3570     7.8564 </r>
       <r>    27.5441     0.1412     7.8819 </r>
       <r>    27.7247    -0.0094     7.8802 </r>
       <r>    27.9054     0.1137     7.9007 </r>
       <r>    28.0861     0.3023     7.9554 </r>
       <r>    28.2667     0.1963     7.9908 </r>
       <r>    28.4474     0.0384     7.9978 </r>
       <r>    28.6280     0.1593     8.0265 </r>
       <r>    28.8087     0.3812     8.0954 </r>
       <r>    28.9893     0.3486     8.1584 </r>
       <r>    29.1700     0.1887     8.1925 </r>
       <r>    29.3507     0.1217     8.2145 </r>
       <r>    29.5313     0.2044     8.2514 </r>
       <r>    29.7120     0.2411     8.2949 </r>
       <r>    29.8926     0.0156     8.2978 </r>
       <r>    30.0733    -0.0082     8.2963 </r>
       <r>    30.2539    -0.0116     8.2942 </r>
       <r>    30.4346     0.0163     8.2971 </r>
       <r>    30.6153     0.3672     8.3635 </r>
       <r>    30.7959     0.3654     8.4295 </r>
       <r>    30.9766     0.0962     8.4469 </r>
       <r>    31.1572     0.2483     8.4917 </r>
       <r>    31.3379     0.3151     8.5486 </r>
       <r>    31.5185     0.4002     8.6209 </r>
       <r>    31.6992     0.2162     8.6600 </r>
       <r>    31.8799    -0.0113     8.6579 </r>
       <r>    32.0605     0.1715     8.6889 </r>
       <r>    32.2412     0.4389     8.7682 </r>
       <r>    32.4218     0.3166     8.8254 </r>
       <r>    32.6025     0.0601     8.8363 </r>
       <r>    32.7831     0.0122     8.8385 </r>
       <r>    32.9638     0.0609     8.8495 </r>
       <r>    33.1445     0.3268     8.9085 </r>
       <r>    33.3251     0.2240     8.9490 </r>
       <r>    33.5058     0.1234     8.9713 </r>
       <r>    33.6864     0.3424     9.0331 </r>
       <r>    33.8671     0.2701     9.0819 </r>
       <r>    34.0477     0.3656     9.1480 </r>
       <r>    34.2284     0.4170     9.2233 </r>
       <r>    34.4091     0.2341     9.2656 </r>
       <r>    34.5897     0.1371     9.2904 </r>
       <r>    34.7704     0.0528     9.2999 </r>
       <r>    34.9510     0.4546     9.3820 </r>
       <r>    35.1317     0.5222     9.4764 </r>
       <r>    35.3123     0.3250     9.5351 </r>
       <r>    35.4930     0.2978     9.5889 </r>
       <r>    35.6737     0.0941     9.6059 </r>
       <r>    35.8543     0.0834     9.6209 </r>
       <r>    36.0350     0.1360     9.6455 </r>
       <r>    36.2156     0.1697     9.6762 </r>
       <r>    36.3963     0.1776     9.7083 </r>
       <r>    36.5769     0.3420     9.7700 </r>
       <r>    36.7576     0.3234     9.8285 </r>
       <r>    36.9383     0.3073     9.8840 </r>
       <r>    37.1189     0.1265     9.9068 </r>
       <r>    37.2996     0.0981     9.9246 </r>
       <r>    37.4802     0.0830     9.9396 </r>
       <r>    37.6609     0.2861     9.9913 </r>
       <r>    37.8415     0.3426    10.0532 </r>
       <r>    38.0222     0.0241    10.0575 </r>
       <r>    38.2029    -0.0136    10.0551 </r>
       <r>    38.3835     0.0365    10.0617 </r>
       <r>    38.5642     0.0528    10.0712 </r>
       <r>    38.7448     0.1052    10.0902 </r>
       <r>    38.9255     0.2977    10.1440 </r>
       <r>    39.1061     0.4586    10.2268 </r>
       <r>    39.2868     0.2421    10.2706 </r>
       <r>    39.4675     0.0286    10.2757 </r>
       <r>    39.6481     0.0665    10.2878 </r>
       <r>    39.8288     0.2134    10.3263 </r>
       <r>    40.0094     0.8152    10.4736 </r>
       <r>    40.1901     0.6253    10.5866 </r>
       <r>    40.3707     0.2456    10.6309 </r>
       <r>    40.5514     0.1375    10.6558 </r>
       <r>    40.7321     0.0036    10.6564 </r>
       <r>    40.9127     0.1302    10.6799 </r>
       <r>    41.0934     0.2556    10.7261 </r>
       <r>    41.2740     0.1563    10.7544 </r>
       <r>    41.4547     0.3166    10.8116 </r>
       <r>    41.6353     0.1922    10.8463 </r>
       <r>    41.8160     0.2973    10.9000 </r>
       <r>    41.9967     0.2901    10.9524 </r>
       <r>    42.1773     0.2331    10.9945 </r>
       <r>    42.3580     0.1723    11.0257 </r>
       <r>    42.5386     0.2447    11.0699 </r>
       <r>    42.7193     0.2480    11.1147 </r>
       <r>    42.8999     0.1054    11.1337 </r>
       <r>    43.0806     0.0133    11.1361 </r>
       <r>    43.2613     0.1197    11.1578 </r>
       <r>    43.4419     0.4665    11.2420 </r>
       <r>    43.6226     0.2613    11.2892 </r>
       <r>    43.8032     0.1363    11.3139 </r>
       <r>    43.9839     0.2935    11.3669 </r>
       <r>    44.1645     0.3927    11.4378 </r>
       <r>    44.3452     0.1826    11.4708 </r>
       <r>    44.5259     0.0297    11.4762 </r>
       <r>    44.7065     0.2548    11.5222 </r>
       <r>    44.8872     0.1792    11.5546 </r>
       <r>    45.0678     0.0639    11.5661 </r>
       <r>    45.2485     0.3084    11.6219 </r>
       <r>    45.4291     0.1104    11.6418 </r>
       <r>    45.6098    -0.0155    11.6390 </r>
       <r>    45.7905    -0.0115    11.6369 </r>
       <r>    45.9711     0.0689    11.6494 </r>
       <r>    46.1518     0.2006    11.6856 </r>
       <r>    46.3324     0.2463    11.7301 </r>
       <r>    46.5131     0.4154    11.8052 </r>
       <r>    46.6938     0.1600    11.8341 </r>
       <r>    46.8744    -0.0116    11.8320 </r>
       <r>    47.0551     0.3622    11.8974 </r>
       <r>    47.2357     0.5059    11.9888 </r>
       <r>    47.4164     0.0809    12.0034 </r>
       <r>    47.5970    -0.0170    12.0003 </r>
       <r>    47.7777    -0.0017    12.0000 </r>
       <r>    47.9584    -0.0000    12.0000 </r>
       <r>    48.1390    -0.0000    12.0000 </r>
       <r>    48.3197    -0.0000    12.0000 </r>
       <r>    48.5003    -0.0000    12.0000 </r>
       <r>    48.6810     0.0000    12.0000 </r>
       <r>    48.8616     0.0000    12.0000 </r>
       <r>    49.0423     0.0000    12.0000 </r>
       <r>    49.2230     0.0000    12.0000 </r>
       <r>    49.4036     0.0000    12.0000 </r>
       <r>    49.5843     0.0000    12.0000 </r>
       <r>    49.7649     0.0000    12.0000 </r>
       <r>    49.9456     0.0000    12.0000 </r>
       <r>    50.1262     0.0000    12.0000 </r>
       <r>    50.3069     0.0000    12.0000 </r>
       <r>    50.4876     0.0000    12.0000 </r>
       <r>    50.6682     0.0000    12.0000 </r>
       <r>    50.8489     0.0000    12.0000 </r>
       <r>    51.0295     0.0000    12.0000 </r>
       <r>    51.2102     0.0000    12.0000 </r>
       <r>    51.3908     0.0000    12.0000 </r>
       <r>    51.5715     0.0000    12.0000 </r>
       <r>    51.7522     0.0000    12.0000 </r>
       <r>    51.9328     0.0000    12.0000 </r>
       <r>    52.1135     0.0000    12.0000 </r>
       <r>    52.2941     0.0000    12.0000 </r>
       <r>    52.4748     0.0000    12.0000 </r>
       <r>    52.6554     0.0000    12.0000 </r>
       <r>    52.8361     0.0000    12.0000 </r>
       <r>    53.0168     0.0000    12.0000 </r>
       <r>    53.1974     0.0000    12.0000 </r>
       <r>    53.3781     0.0000    12.0000 </r>
      </set>
      <set comment="spin 2">
       <r>    -0.8191     0.0000     0.0000 </r>
       <r>    -0.6384     0.0000     0.0000 </r>
       <r>    -0.4578     0.0000     0.0000 </r>
       <r>    -0.2771     0.0000     0.0000 </r>
       <r>    -0.0965    -0.0000    -0.0000 </r>
       <r>     0.0842    -0.0000    -0.0000 </r>
       <r>     0.2648    -0.0000    -0.0000 </r>
       <r>     0.4455    -0.0000    -0.0000 </r>
       <r>     0.6262    -0.0000    -0.0000 </r>
       <r>     0.8068    -0.0000    -0.0000 </r>
       <r>     0.9875    -0.0000    -0.0000 </r>
       <r>     1.1681    -0.0001    -0.0000 </r>
       <r>     1.3488    -0.0012    -0.0002 </r>
       <r>     1.5294     0.0041     0.0005 </r>
       <r>     1.7101     0.0330     0.0065 </r>
       <r>     1.8908     0.0169     0.0095 </r>
       <r>     2.0714    -0.0052     0.0086 </r>
       <r>     2.2521     0.0139     0.0111 </r>
       <r>     2.4327     0.1006     0.0293 </r>
       <r>     2.6134     0.0477     0.0379 </r>
       <r>     2.7940    -0.0092     0.0363 </r>
       <r>     2.9747     0.0320     0.0420 </r>
       <r>     3.1554     0.1050     0.0610 </r>
       <r>     3.3360     0.0230     0.0652 </r>
       <r>     3.5167    -0.0030     0.0646 </r>
       <r>     3.6973     0.1066     0.0839 </r>
       <r>     3.8780     0.1007     0.1021 </r>
       <r>     4.0586    -0.0093     0.1004 </r>
       <r>     4.2393     0.0856     0.1159 </r>
       <r>     4.4200     0.2024     0.1524 </r>
       <r>     4.6006     0.0345     0.1587 </r>
       <r>     4.7813     0.0714     0.1716 </r>
       <r>     4.9619     0.0720     0.1846 </r>
       <r>     5.1426     0.0117     0.1867 </r>
       <r>     5.3232     0.1530     0.2143 </r>
       <r>     5.5039     0.1745     0.2459 </r>
       <r>     5.6846     0.1736     0.2772 </r>
       <r>     5.8652     0.2448     0.3215 </r>
       <r>     6.0459     0.1418     0.3471 </r>
       <r>     6.2265     0.2122     0.3854 </r>
       <r>     6.4072     0.4384     0.4646 </r>
       <r>     6.5878     0.4851     0.5522 </r>
       <r>     6.7685     0.5231     0.6467 </r>
       <r>     6.9492     0.3597     0.7117 </r>
       <r>     7.1298     0.4260     0.7887 </r>
       <r>     7.3105     0.8259     0.9379 </r>
       <r>     7.4911     0.7799     1.0788 </r>
       <r>     7.6718     0.7111     1.2072 </r>
       <r>     7.8524     0.7122     1.3359 </r>
       <r>     8.0331     0.8103     1.4823 </r>
       <r>     8.2138     0.5783     1.5868 </r>
       <r>     8.3944     0.6230     1.6993 </r>
       <r>     8.5751     1.0209     1.8837 </r>
       <r>     8.7557     1.1983     2.1002 </r>
       <r>     8.9364     0.7820     2.2415 </r>
       <r>     9.1170     0.9606     2.4151 </r>
       <r>     9.2977     1.0786     2.6099 </r>
       <r>     9.4784     1.0947     2.8077 </r>
       <r>     9.6590     1.3045     3.0434 </r>
       <r>     9.8397     0.9662     3.2179 </r>
       <r>    10.0203     0.7280     3.3494 </r>
       <r>    10.2010     0.6977     3.4755 </r>
       <r>    10.3816     0.9398     3.6453 </r>
       <r>    10.5623     1.2139     3.8645 </r>
       <r>    10.7430     0.7117     3.9931 </r>
       <r>    10.9236     1.1511     4.2011 </r>
       <r>    11.1043     1.2251     4.4224 </r>
       <r>    11.2849     0.8903     4.5832 </r>
       <r>    11.4656     1.6311     4.8779 </r>
       <r>    11.6462     1.4301     5.1363 </r>
       <r>    11.8269     0.6987     5.2625 </r>
       <r>    12.0076     0.4908     5.3511 </r>
       <r>    12.1882     0.2831     5.4023 </r>
       <r>    12.3689     0.0685     5.4147 </r>
       <r>    12.5495     0.0399     5.4219 </r>
       <r>    12.7302     0.1991     5.4578 </r>
       <r>    12.9108     0.2180     5.4972 </r>
       <r>    13.0915     0.1843     5.5305 </r>
       <r>    13.2722     0.1974     5.5662 </r>
       <r>    13.4528     0.1616     5.5954 </r>
       <r>    13.6335     0.1519     5.6228 </r>
       <r>    13.8141     0.1672     5.6530 </r>
       <r>    13.9948     0.0748     5.6665 </r>
       <r>    14.1754     0.0434     5.6744 </r>
       <r>    14.3561     0.0836     5.6895 </r>
       <r>    14.5368     0.1874     5.7233 </r>
       <r>    14.7174     0.3854     5.7929 </r>
       <r>    14.8981     0.0757     5.8066 </r>
       <r>    15.0787     0.0663     5.8186 </r>
       <r>    15.2594     0.2054     5.8557 </r>
       <r>    15.4400     0.0389     5.8627 </r>
       <r>    15.6207    -0.0084     5.8612 </r>
       <r>    15.8014    -0.0039     5.8605 </r>
       <r>    15.9820    -0.0112     5.8585 </r>
       <r>    16.1627     0.1559     5.8866 </r>
       <r>    16.3433     0.2913     5.9393 </r>
       <r>    16.5240     0.0399     5.9465 </r>
       <r>    16.7046    -0.0131     5.9441 </r>
       <r>    16.8853    -0.0079     5.9427 </r>
       <r>    17.0660     0.1176     5.9639 </r>
       <r>    17.2466     0.1897     5.9982 </r>
       <r>    17.4273     0.0138     6.0007 </r>
       <r>    17.6079    -0.0092     5.9990 </r>
       <r>    17.7886     0.0934     6.0159 </r>
       <r>    17.9692     0.2427     6.0597 </r>
       <r>    18.1499     0.2420     6.1035 </r>
       <r>    18.3306     0.1465     6.1299 </r>
       <r>    18.5112     0.1824     6.1629 </r>
       <r>    18.6919     0.0534     6.1725 </r>
       <r>    18.8725     0.1098     6.1924 </r>
       <r>    19.0532     0.0756     6.2060 </r>
       <r>    19.2338     0.2597     6.2529 </r>
       <r>    19.4145     0.3045     6.3080 </r>
       <r>    19.5952     0.0412     6.3154 </r>
       <r>    19.7758     0.1031     6.3340 </r>
       <r>    19.9565     0.1795     6.3664 </r>
       <r>    20.1371     0.0509     6.3757 </r>
       <r>    20.3178     0.1961     6.4111 </r>
       <r>    20.4984     0.0920     6.4277 </r>
       <r>    20.6791    -0.0135     6.4253 </r>
       <r>    20.8598     0.0450     6.4334 </r>
       <r>    21.0404     0.0858     6.4489 </r>
       <r>    21.2211     0.1280     6.4720 </r>
       <r>    21.4017     0.3348     6.5325 </r>
       <r>    21.5824     0.1691     6.5631 </r>
       <r>    21.7631     0.1689     6.5936 </r>
       <r>    21.9437     0.1592     6.6223 </r>
       <r>    22.1244     0.2721     6.6715 </r>
       <r>    22.3050     0.3784     6.7399 </r>
       <r>    22.4857     0.2406     6.7833 </r>
       <r>    22.6663     0.1653     6.8132 </r>
       <r>    22.8470     0.1487     6.8401 </r>
       <r>    23.0277     0.1677     6.8704 </r>
       <r>    23.2083     0.0901     6.8866 </r>
       <r>    23.3890     0.0590     6.8973 </r>
       <r>    23.5696     0.0072     6.8986 </r>
       <r>    23.7503     0.2554     6.9447 </r>
       <r>    23.9309     0.3371     7.0056 </r>
       <r>    24.1116     0.4245     7.0823 </r>
       <r>    24.2923     0.3608     7.1475 </r>
       <r>    24.4729     0.0444     7.1555 </r>
       <r>    24.6536     0.0926     7.1722 </r>
       <r>    24.8342     0.0115     7.1743 </r>
       <r>    25.0149     0.0652     7.1861 </r>
       <r>    25.1955     0.3247     7.2448 </r>
       <r>    25.3762     0.4444     7.3251 </r>
       <r>    25.5569     0.3053     7.3802 </r>
       <r>    25.7375     0.1200     7.4019 </r>
       <r>    25.9182     0.1107     7.4219 </r>
       <r>    26.0988     0.2821     7.4728 </r>
       <r>    26.2795     0.3175     7.5302 </r>
       <r>    26.4601     0.4634     7.6139 </r>
       <r>    26.6408     0.2554     7.6600 </r>
       <r>    26.8215     0.1029     7.6786 </r>
       <r>    27.0021     0.0590     7.6893 </r>
       <r>    27.1828     0.1692     7.7199 </r>
       <r>    27.3634     0.1906     7.7543 </r>
       <r>    27.5441     0.2689     7.8029 </r>
       <r>    27.7247     0.3261     7.8618 </r>
       <r>    27.9054     0.1077     7.8812 </r>
       <r>    28.0861     0.0258     7.8859 </r>
       <r>    28.2667     0.1316     7.9097 </r>
       <r>    28.4474     0.2642     7.9574 </r>
       <r>    28.6280     0.1801     7.9899 </r>
       <r>    28.8087     0.0731     8.0032 </r>
       <r>    28.9893     0.3154     8.0601 </r>
       <r>    29.1700     0.4209     8.1362 </r>
       <r>    29.3507     0.2074     8.1737 </r>
       <r>    29.5313     0.2036     8.2104 </r>
       <r>    29.7120     0.1347     8.2348 </r>
       <r>    29.8926     0.1971     8.2704 </r>
       <r>    30.0733     0.1488     8.2973 </r>
       <r>    30.2539    -0.0018     8.2969 </r>
       <r>    30.4346    -0.0105     8.2950 </r>
       <r>    30.6153     0.0146     8.2977 </r>
       <r>    30.7959     0.2095     8.3355 </r>
       <r>    30.9766     0.5417     8.4334 </r>
       <r>    31.1572     0.1822     8.4663 </r>
       <r>    31.3379    -0.0076     8.4649 </r>
       <r>    31.5185     0.2445     8.5091 </r>
       <r>    31.6992     0.3426     8.5710 </r>
       <r>    31.8799     0.3647     8.6369 </r>
       <r>    32.0605     0.2855     8.6885 </r>
       <r>    32.2412     0.1547     8.7164 </r>
       <r>    32.4218     0.2240     8.7569 </r>
       <r>    32.6025     0.3472     8.8196 </r>
       <r>    32.7831     0.1349     8.8440 </r>
       <r>    32.9638    -0.0146     8.8413 </r>
       <r>    33.1445     0.0986     8.8591 </r>
       <r>    33.3251     0.2250     8.8998 </r>
       <r>    33.5058     0.2285     8.9411 </r>
       <r>    33.6864     0.1930     8.9759 </r>
       <r>    33.8671     0.3080     9.0316 </r>
       <r>    34.0477     0.2344     9.0739 </r>
       <r>    34.2284     0.3851     9.1435 </r>
       <r>    34.4091     0.5723     9.2469 </r>
       <r>    34.5897     0.1305     9.2705 </r>
       <r>    34.7704     0.0125     9.2727 </r>
       <r>    34.9510     0.1333     9.2968 </r>
       <r>    35.1317     0.6109     9.4072 </r>
       <r>    35.3123     0.5206     9.5012 </r>
       <r>    35.4930     0.2249     9.5418 </r>
       <r>    35.6737     0.0975     9.5594 </r>
       <r>    35.8543     0.1305     9.5830 </r>
       <r>    36.0350     0.1011     9.6013 </r>
       <r>    36.2156     0.0575     9.6117 </r>
       <r>    36.3963     0.1803     9.6443 </r>
       <r>    36.5769     0.2691     9.6929 </r>
       <r>    36.7576     0.4485     9.7739 </r>
       <r>    36.9383     0.3237     9.8324 </r>
       <r>    37.1189     0.2020     9.8689 </r>
       <r>    37.2996     0.1812     9.9016 </r>
       <r>    37.4802     0.1275     9.9246 </r>
       <r>    37.6609     0.0874     9.9404 </r>
       <r>    37.8415     0.3926    10.0113 </r>
       <r>    38.0222     0.2609    10.0585 </r>
       <r>    38.2029    -0.0098    10.0567 </r>
       <r>    38.3835    -0.0086    10.0551 </r>
       <r>    38.5642     0.0072    10.0564 </r>
       <r>    38.7448     0.0634    10.0679 </r>
       <r>    38.9255     0.0183    10.0712 </r>
       <r>    39.1061     0.1070    10.0905 </r>
       <r>    39.2868     0.4030    10.1633 </r>
       <r>    39.4675     0.3265    10.2223 </r>
       <r>    39.6481     0.2774    10.2724 </r>
       <r>    39.8288     0.1073    10.2918 </r>
       <r>    40.0094     0.1416    10.3174 </r>
       <r>    40.1901     0.6265    10.4306 </r>
       <r>    40.3707     0.9590    10.6038 </r>
       <r>    40.5514     0.2300    10.6454 </r>
       <r>    40.7321     0.0605    10.6563 </r>
       <r>    40.9127    -0.0013    10.6561 </r>
       <r>    41.0934     0.0620    10.6673 </r>
       <r>    41.2740     0.2261    10.7081 </r>
       <r>    41.4547     0.1973    10.7438 </r>
       <r>    41.6353     0.3477    10.8066 </r>
       <r>    41.8160     0.2037    10.8434 </r>
       <r>    41.9967     0.1103    10.8633 </r>
       <r>    42.1773     0.4187    10.9389 </r>
       <r>    42.3580     0.3233    10.9973 </r>
       <r>    42.5386     0.1312    11.0210 </r>
       <r>    42.7193     0.2243    11.0616 </r>
       <r>    42.8999     0.2095    11.0994 </r>
       <r>    43.0806     0.0904    11.1157 </r>
       <r>    43.2613     0.1028    11.1343 </r>
       <r>    43.4419     0.3114    11.1906 </r>
       <r>    43.6226     0.4058    11.2639 </r>
       <r>    43.8032     0.0892    11.2800 </r>
       <r>    43.9839    -0.0368    11.2733 </r>
       <r>    44.1645     0.1792    11.3057 </r>
       <r>    44.3452     0.6100    11.4159 </r>
       <r>    44.5259     0.3191    11.4735 </r>
       <r>    44.7065     0.0245    11.4780 </r>
       <r>    44.8872     0.0916    11.4945 </r>
       <r>    45.0678     0.0414    11.5020 </r>
       <r>    45.2485     0.1276    11.5250 </r>
       <r>    45.4291     0.2540    11.5709 </r>
       <r>    45.6098     0.2598    11.6179 </r>
       <r>    45.7905     0.1258    11.6406 </r>
       <r>    45.9711    -0.0065    11.6394 </r>
       <r>    46.1518    -0.0108    11.6375 </r>
       <r>    46.3324     0.0139    11.6400 </r>
       <r>    46.5131     0.2424    11.6838 </r>
       <r>    46.6938     0.2132    11.7223 </r>
       <r>    46.8744    -0.0034    11.7217 </r>
       <r>    47.0551     0.0253    11.7263 </r>
       <r>    47.2357     0.2306    11.7679 </r>
       <r>    47.4164     0.2797    11.8185 </r>
       <r>    47.5970     0.0944    11.8355 </r>
       <r>    47.7777    -0.0102    11.8337 </r>
       <r>    47.9584    -0.0087    11.8321 </r>
       <r>    48.1390     0.0070    11.8334 </r>
       <r>    48.3197     0.2232    11.8737 </r>
       <r>    48.5003     0.2267    11.9147 </r>
       <r>    48.6810     0.0415    11.9222 </r>
       <r>    48.8616     0.0982    11.9399 </r>
       <r>    49.0423     0.0303    11.9454 </r>
       <r>    49.2230    -0.0047    11.9445 </r>
       <r>    49.4036    -0.0005    11.9444 </r>
       <r>    49.5843    -0.0000    11.9444 </r>
       <r>    49.7649    -0.0000    11.9444 </r>
       <r>    49.9456    -0.0000    11.9444 </r>
       <r>    50.1262    -0.0000    11.9444 </r>
       <r>    50.3069    -0.0001    11.9444 </r>
       <r>    50.4876    -0.0037    11.9437 </r>
       <r>    50.6682     0.0015    11.9440 </r>
       <r>    50.8489     0.1339    11.9682 </r>
       <r>    51.0295     0.1664    11.9983 </r>
       <r>    51.2102     0.0155    12.0011 </r>
       <r>    51.3908    -0.0055    12.0001 </r>
       <r>    51.5715    -0.0003    12.0000 </r>
       <r>    51.7522    -0.0000    12.0000 </r>
       <r>    51.9328    -0.0000    12.0000 </r>
       <r>    52.1135    -0.0000    12.0000 </r>
       <r>    52.2941    -0.0000    12.0000 </r>
       <r>    52.4748     0.0000    12.0000 </r>
       <r>    52.6554     0.0000    12.0000 </r>
       <r>    52.8361     0.0000    12.0000 </r>
       <r>    53.0168     0.0000    12.0000 </r>
       <r>    53.1974     0.0000    12.0000 </r>
       <r>    53.3781     0.0000    12.0000 </r>
      </set>
     </set>
    </array>
   </total>
  </dos>
 </calculation>
 <structure name="finalpos" >
  <crystal>
   <varray name="basis" >
    <v>       0.00000000       1.75500000       1.75500000 </v>
    <v>       1.75500000       0.00000000       1.75500000 </v>
    <v>       1.75500000       1.75500000       0.00000000 </v>
   </varray>
   <i name="volume">     10.81088775 </i>
   <varray name="rec_basis" >
    <v>      -0.28490028       0.28490028       0.28490028 </v>
    <v>       0.28490028      -0.28490028       0.28490028 </v>
    <v>       0.28490028       0.28490028      -0.28490028 </v>
   </varray>
  </crystal>
  <varray name="positions" >
   <v>       0.00000000       0.00000000       0.00000000 </v>
  </varray>
 </structure>
</modeling>
