   2   2   0   0
  0.1064014E+02  0.2472000E-09  0.2472000E-09  0.4021144E-09  0.5000000E-15
  1.000000000000000E-004
  CAR 
 Co fcc                                  
     37.83512250     -0.49875605  301     10.49041953      1.00000000
     -0.499  0.0000E+00  0.0000E+00  0.0000E+00  0.0000E+00
     -0.371  0.0000E+00  0.0000E+00  0.0000E+00  0.0000E+00
     -0.243  0.0000E+00  0.0000E+00  0.0000E+00  0.0000E+00
     -0.115 -0.9369E-30 -0.2075E-30 -0.1197E-30 -0.2651E-31
      0.012 -0.1755E-25 -0.4385E-26 -0.2243E-26 -0.5603E-27
      0.140 -0.1443E-21 -0.4066E-22 -0.1844E-22 -0.5197E-23
      0.268 -0.5198E-18 -0.1653E-18 -0.6644E-19 -0.2112E-19
      0.396 -0.7920E-15 -0.2845E-15 -0.1013E-15 -0.3638E-16
      0.523 -0.5390E-12 -0.2188E-12 -0.6897E-13 -0.2799E-13
      0.651 -0.1586E-09 -0.7279E-10 -0.2033E-10 -0.9329E-11
      0.779 -0.1998E-07 -0.1039E-07 -0.2573E-08 -0.1337E-08
      0.907 -0.1060E-05 -0.6265E-06 -0.1380E-06 -0.8139E-07
      1.035 -0.2290E-04 -0.1548E-04 -0.3065E-05 -0.2060E-05
      1.162 -0.1841E-03 -0.1453E-03 -0.2659E-04 -0.2062E-04
      1.290 -0.3458E-03 -0.3698E-03 -0.7078E-04 -0.6787E-04
      1.418  0.1361E-02  0.9046E-03  0.1032E-03  0.4772E-04
      1.546  0.5943E-02  0.5210E-02  0.8626E-03  0.7134E-03
      1.673  0.1086E-01  0.1001E-01  0.2251E-02  0.1992E-02
      1.801  0.2348E-01  0.2012E-01  0.5250E-02  0.4563E-02
      1.929  0.5577E-01  0.4948E-01  0.1238E-01  0.1089E-01
      2.057  0.7688E-01  0.7659E-01  0.2220E-01  0.2067E-01
      2.185  0.4328E-01  0.5171E-01  0.2773E-01  0.2728E-01
      2.312  0.1054E-01  0.1117E-01  0.2908E-01  0.2871E-01
      2.440  0.4759E-01  0.3520E-01  0.3516E-01  0.3321E-01
      2.568  0.9583E-01  0.8913E-01  0.4740E-01  0.4459E-01
      2.696  0.9277E-01  0.9521E-01  0.5926E-01  0.5676E-01
      2.824  0.7329E-01  0.7461E-01  0.6862E-01  0.6629E-01
      2.951  0.8276E-01  0.7173E-01  0.7920E-01  0.7546E-01
      3.079  0.1300E+00  0.1123E+00  0.9581E-01  0.8981E-01
      3.207  0.1391E+00  0.1437E+00  0.1136E+00  0.1082E+00
      3.335  0.8834E-01  0.1024E+00  0.1249E+00  0.1213E+00
      3.462  0.5452E-01  0.6211E-01  0.1318E+00  0.1292E+00
      3.590  0.2626E-01  0.3771E-01  0.1352E+00  0.1340E+00
      3.718  0.7386E-01  0.2786E-01  0.1446E+00  0.1376E+00
      3.846  0.1977E+00  0.1241E+00  0.1699E+00  0.1534E+00
      3.974  0.2281E+00  0.2152E+00  0.1990E+00  0.1809E+00
      4.101  0.1927E+00  0.1963E+00  0.2237E+00  0.2060E+00
      4.229  0.1956E+00  0.1612E+00  0.2487E+00  0.2266E+00
      4.357  0.1723E+00  0.1709E+00  0.2707E+00  0.2485E+00
      4.485  0.1024E+00  0.1606E+00  0.2838E+00  0.2690E+00
      4.612  0.1451E+00  0.8944E-01  0.3023E+00  0.2804E+00
      4.740  0.2340E+00  0.8562E-01  0.3322E+00  0.2914E+00
      4.868  0.2232E+00  0.1823E+00  0.3607E+00  0.3146E+00
      4.996  0.1878E+00  0.2284E+00  0.3847E+00  0.3438E+00
      5.124  0.3252E+00  0.1538E+00  0.4263E+00  0.3635E+00
      5.251  0.6629E+00  0.1387E+00  0.5110E+00  0.3812E+00
      5.379  0.1004E+01  0.2162E+00  0.6392E+00  0.4088E+00
      5.507  0.1050E+01  0.2729E+00  0.7734E+00  0.4437E+00
      5.635  0.8377E+00  0.3425E+00  0.8804E+00  0.4875E+00
      5.762  0.9846E+00  0.3613E+00  0.1006E+01  0.5337E+00
      5.890  0.1697E+01  0.3581E+00  0.1223E+01  0.5794E+00
      6.018  0.1813E+01  0.4565E+00  0.1455E+01  0.6377E+00
      6.146  0.1508E+01  0.3065E+00  0.1647E+01  0.6769E+00
      6.274  0.1714E+01  0.1555E+00  0.1866E+01  0.6968E+00
      6.401  0.1793E+01  0.5643E+00  0.2095E+01  0.7689E+00
      6.529  0.1487E+01  0.1078E+01  0.2285E+01  0.9066E+00
      6.657  0.1530E+01  0.1020E+01  0.2481E+01  0.1037E+01
      6.785  0.1848E+01  0.7756E+00  0.2717E+01  0.1136E+01
      6.912  0.2051E+01  0.8095E+00  0.2979E+01  0.1239E+01
      7.040  0.2113E+01  0.1081E+01  0.3249E+01  0.1378E+01
      7.168  0.1983E+01  0.1135E+01  0.3502E+01  0.1523E+01
      7.296  0.1593E+01  0.9889E+00  0.3706E+01  0.1649E+01
      7.424  0.1271E+01  0.1358E+01  0.3868E+01  0.1822E+01
      7.551  0.1673E+01  0.1639E+01  0.4082E+01  0.2032E+01
      7.679  0.2523E+01  0.1258E+01  0.4405E+01  0.2193E+01
      7.807  0.2802E+01  0.1045E+01  0.4763E+01  0.2326E+01
      7.935  0.2778E+01  0.1292E+01  0.5118E+01  0.2491E+01
      8.062  0.2859E+01  0.1613E+01  0.5483E+01  0.2697E+01
      8.190  0.2921E+01  0.1717E+01  0.5856E+01  0.2916E+01
      8.318  0.3056E+01  0.1885E+01  0.6247E+01  0.3157E+01
      8.446  0.2886E+01  0.2009E+01  0.6615E+01  0.3414E+01
      8.574  0.2405E+01  0.1638E+01  0.6923E+01  0.3623E+01
      8.701  0.1970E+01  0.1051E+01  0.7174E+01  0.3758E+01
      8.829  0.1784E+01  0.7816E+00  0.7402E+01  0.3858E+01
      8.957  0.1590E+01  0.9844E+00  0.7606E+01  0.3983E+01
      9.085  0.1545E+01  0.1472E+01  0.7803E+01  0.4171E+01
      9.212  0.2064E+01  0.2086E+01  0.8067E+01  0.4438E+01
      9.340  0.2172E+01  0.2551E+01  0.8344E+01  0.4764E+01
      9.468  0.1907E+01  0.2530E+01  0.8588E+01  0.5087E+01
      9.596  0.2517E+01  0.2302E+01  0.8910E+01  0.5381E+01
      9.724  0.3837E+01  0.2460E+01  0.9400E+01  0.5696E+01
      9.851  0.4285E+01  0.2727E+01  0.9947E+01  0.6044E+01
      9.979  0.2811E+01  0.2718E+01  0.1031E+02  0.6392E+01
     10.107  0.9852E+00  0.2334E+01  0.1043E+02  0.6690E+01
     10.235  0.5388E+00  0.1859E+01  0.1050E+02  0.6927E+01
     10.363  0.7078E+00  0.1637E+01  0.1059E+02  0.7136E+01
     10.490  0.5400E+00  0.1584E+01  0.1066E+02  0.7339E+01
     10.618  0.2311E+00  0.1351E+01  0.1069E+02  0.7512E+01
     10.746  0.4602E-01  0.1262E+01  0.1070E+02  0.7673E+01
     10.874 -0.2426E-01  0.1289E+01  0.1069E+02  0.7838E+01
     11.001  0.2704E-01  0.1667E+01  0.1070E+02  0.8051E+01
     11.129  0.2575E+00  0.1848E+01  0.1073E+02  0.8287E+01
     11.257  0.4097E+00  0.1493E+01  0.1078E+02  0.8477E+01
     11.385  0.2659E+00  0.1640E+01  0.1082E+02  0.8687E+01
     11.513  0.2098E+00  0.2398E+01  0.1084E+02  0.8993E+01
     11.640  0.4549E+00  0.3470E+01  0.1090E+02  0.9437E+01
     11.768  0.5818E+00  0.4011E+01  0.1098E+02  0.9949E+01
     11.896  0.4160E+00  0.3215E+01  0.1103E+02  0.1036E+02
     12.024  0.2058E+00  0.1791E+01  0.1105E+02  0.1059E+02
     12.151  0.9091E-01  0.7069E+00  0.1107E+02  0.1068E+02
     12.279  0.2273E+00  0.2074E+00  0.1110E+02  0.1071E+02
     12.407  0.3829E+00  0.2053E+00  0.1114E+02  0.1073E+02
     12.535  0.4023E+00  0.3118E+00  0.1120E+02  0.1077E+02
     12.663  0.2424E+00  0.2759E+00  0.1123E+02  0.1081E+02
     12.790  0.7262E-01  0.3134E+00  0.1124E+02  0.1085E+02
     12.918  0.1770E+00  0.4839E+00  0.1126E+02  0.1091E+02
     13.046  0.2393E+00  0.5258E+00  0.1129E+02  0.1098E+02
     13.174  0.8977E-01  0.3802E+00  0.1130E+02  0.1102E+02
     13.301  0.6706E-01  0.3142E+00  0.1131E+02  0.1107E+02
     13.429  0.1919E+00  0.4515E+00  0.1133E+02  0.1112E+02
     13.557  0.1968E+00  0.4625E+00  0.1136E+02  0.1118E+02
     13.685  0.1280E+00  0.2768E+00  0.1138E+02  0.1122E+02
     13.813  0.2438E+00  0.1458E+00  0.1141E+02  0.1124E+02
     13.940  0.4157E+00  0.1583E+00  0.1146E+02  0.1126E+02
     14.068  0.4583E+00  0.2583E+00  0.1152E+02  0.1129E+02
     14.196  0.3543E+00  0.2366E+00  0.1156E+02  0.1132E+02
     14.324  0.2286E+00  0.1644E+00  0.1159E+02  0.1134E+02
     14.451  0.1423E+00  0.1252E+00  0.1161E+02  0.1136E+02
     14.579  0.1138E+00  0.1050E+00  0.1163E+02  0.1137E+02
     14.707  0.2628E+00  0.2197E+00  0.1166E+02  0.1140E+02
     14.835  0.3504E+00  0.4669E+00  0.1170E+02  0.1146E+02
     14.963  0.2231E+00  0.5049E+00  0.1173E+02  0.1152E+02
     15.090  0.7708E-01  0.3973E+00  0.1174E+02  0.1157E+02
     15.218  0.5134E-01  0.2662E+00  0.1175E+02  0.1161E+02
     15.346  0.1755E+00  0.9997E-01  0.1177E+02  0.1162E+02
     15.474  0.2581E+00  0.9036E-01  0.1180E+02  0.1163E+02
     15.601  0.2146E+00  0.2381E+00  0.1183E+02  0.1166E+02
     15.729  0.1813E+00  0.3301E+00  0.1185E+02  0.1170E+02
     15.857  0.8411E-01  0.2157E+00  0.1187E+02  0.1173E+02
     15.985  0.3279E-01  0.1343E+00  0.1187E+02  0.1175E+02
     16.113  0.9117E-01  0.2481E+00  0.1188E+02  0.1178E+02
     16.240  0.8792E-01  0.2514E+00  0.1189E+02  0.1181E+02
     16.368  0.1864E-01  0.1495E+00  0.1189E+02  0.1183E+02
     16.496  0.5903E-02  0.1637E+00  0.1190E+02  0.1185E+02
     16.624  0.9591E-01  0.1148E+00  0.1191E+02  0.1187E+02
     16.751  0.2278E+00  0.7101E-01  0.1194E+02  0.1188E+02
     16.879  0.2439E+00  0.8060E-01  0.1197E+02  0.1189E+02
     17.007  0.1480E+00  0.5118E-01  0.1199E+02  0.1189E+02
     17.135  0.9964E-01  0.2585E-01  0.1200E+02  0.1190E+02
     17.263  0.1368E+00  0.8881E-01  0.1202E+02  0.1191E+02
     17.390  0.1521E+00  0.1943E+00  0.1204E+02  0.1193E+02
     17.518  0.1597E+00  0.2103E+00  0.1206E+02  0.1196E+02
     17.646  0.1954E+00  0.1310E+00  0.1208E+02  0.1198E+02
     17.774  0.1196E+00  0.6644E-01  0.1210E+02  0.1198E+02
     17.902  0.5005E-01  0.6770E-01  0.1210E+02  0.1199E+02
     18.029  0.1344E+00  0.1350E+00  0.1212E+02  0.1201E+02
     18.157  0.2978E+00  0.2076E+00  0.1216E+02  0.1204E+02
     18.285  0.4326E+00  0.2378E+00  0.1221E+02  0.1207E+02
     18.413  0.4077E+00  0.1921E+00  0.1227E+02  0.1209E+02
     18.540  0.3685E+00  0.5819E-01  0.1231E+02  0.1210E+02
     18.668  0.2951E+00  0.1089E-01  0.1235E+02  0.1210E+02
     18.796  0.2051E+00  0.8883E-01  0.1238E+02  0.1211E+02
     18.924  0.3587E+00  0.1703E+00  0.1242E+02  0.1213E+02
     19.052  0.4906E+00  0.3363E+00  0.1249E+02  0.1218E+02
     19.179  0.4387E+00  0.5302E+00  0.1254E+02  0.1224E+02
     19.307  0.4122E+00  0.4308E+00  0.1259E+02  0.1230E+02
     19.435  0.3352E+00  0.3253E+00  0.1264E+02  0.1234E+02
     19.563  0.2070E+00  0.3767E+00  0.1266E+02  0.1239E+02
     19.690  0.1849E+00  0.4857E+00  0.1269E+02  0.1245E+02
     19.818  0.2546E+00  0.5425E+00  0.1272E+02  0.1252E+02
     19.946  0.3449E+00  0.4355E+00  0.1276E+02  0.1258E+02
     20.074  0.3934E+00  0.2988E+00  0.1281E+02  0.1261E+02
     20.202  0.3670E+00  0.2683E+00  0.1286E+02  0.1265E+02
     20.329  0.3515E+00  0.2977E+00  0.1291E+02  0.1269E+02
     20.457  0.2205E+00  0.3529E+00  0.1293E+02  0.1273E+02
     20.585  0.1366E+00  0.3779E+00  0.1295E+02  0.1278E+02
     20.713  0.3430E+00  0.3445E+00  0.1300E+02  0.1282E+02
     20.840  0.5407E+00  0.3036E+00  0.1306E+02  0.1286E+02
     20.968  0.4865E+00  0.3253E+00  0.1313E+02  0.1290E+02
     21.096  0.3139E+00  0.2239E+00  0.1317E+02  0.1293E+02
     21.224  0.4290E+00  0.1941E+00  0.1322E+02  0.1296E+02
     21.352  0.5840E+00  0.5090E+00  0.1330E+02  0.1302E+02
     21.479  0.5146E+00  0.6694E+00  0.1336E+02  0.1311E+02
     21.607  0.4348E+00  0.4784E+00  0.1342E+02  0.1317E+02
     21.735  0.2586E+00  0.3945E+00  0.1345E+02  0.1322E+02
     21.863  0.1266E+00  0.4696E+00  0.1347E+02  0.1328E+02
     21.990  0.1629E+00  0.4414E+00  0.1349E+02  0.1334E+02
     22.118  0.2488E+00  0.4426E+00  0.1352E+02  0.1339E+02
     22.246  0.3182E+00  0.3736E+00  0.1356E+02  0.1344E+02
     22.374  0.4059E+00  0.2272E+00  0.1361E+02  0.1347E+02
     22.502  0.5345E+00  0.2194E+00  0.1368E+02  0.1350E+02
     22.629  0.4664E+00  0.2356E+00  0.1374E+02  0.1353E+02
     22.757  0.2158E+00  0.2665E+00  0.1377E+02  0.1356E+02
     22.885  0.1743E+00  0.4354E+00  0.1379E+02  0.1362E+02
     23.013  0.1980E+00  0.5695E+00  0.1381E+02  0.1369E+02
     23.140  0.1317E+00  0.4071E+00  0.1383E+02  0.1374E+02
     23.268  0.2263E+00  0.1848E+00  0.1386E+02  0.1377E+02
     23.396  0.3190E+00  0.2002E+00  0.1390E+02  0.1379E+02
     23.524  0.3378E+00  0.2103E+00  0.1394E+02  0.1382E+02
     23.652  0.4109E+00  0.1341E+00  0.1400E+02  0.1384E+02
     23.779  0.2904E+00  0.2184E+00  0.1403E+02  0.1386E+02
     23.907  0.1337E+00  0.3844E+00  0.1405E+02  0.1391E+02
     24.035  0.2601E+00  0.4412E+00  0.1408E+02  0.1397E+02
     24.163  0.3717E+00  0.3713E+00  0.1413E+02  0.1402E+02
     24.290  0.2595E+00  0.1834E+00  0.1417E+02  0.1404E+02
     24.418  0.3537E+00  0.1256E+00  0.1421E+02  0.1406E+02
     24.546  0.5476E+00  0.3082E+00  0.1428E+02  0.1410E+02
     24.674  0.4956E+00  0.4012E+00  0.1434E+02  0.1415E+02
     24.802  0.3698E+00  0.3685E+00  0.1439E+02  0.1419E+02
     24.929  0.2343E+00  0.4618E+00  0.1442E+02  0.1425E+02
     25.057  0.1151E+00  0.5060E+00  0.1444E+02  0.1432E+02
     25.185  0.1975E+00  0.4021E+00  0.1446E+02  0.1437E+02
     25.313  0.3884E+00  0.2972E+00  0.1451E+02  0.1441E+02
     25.441  0.4162E+00  0.1694E+00  0.1456E+02  0.1443E+02
     25.568  0.3226E+00  0.1377E+00  0.1460E+02  0.1445E+02
     25.696  0.3526E+00  0.3396E+00  0.1465E+02  0.1449E+02
     25.824  0.3891E+00  0.4493E+00  0.1470E+02  0.1455E+02
     25.952  0.2546E+00  0.3666E+00  0.1473E+02  0.1459E+02
     26.079  0.2570E+00  0.3530E+00  0.1476E+02  0.1464E+02
     26.207  0.4646E+00  0.3765E+00  0.1482E+02  0.1469E+02
     26.335  0.4995E+00  0.3269E+00  0.1489E+02  0.1473E+02
     26.463  0.3597E+00  0.3243E+00  0.1493E+02  0.1477E+02
     26.591  0.2940E+00  0.4605E+00  0.1497E+02  0.1483E+02
     26.718  0.4180E+00  0.5161E+00  0.1503E+02  0.1489E+02
     26.846  0.4421E+00  0.3898E+00  0.1508E+02  0.1494E+02
     26.974  0.2153E+00  0.2970E+00  0.1511E+02  0.1498E+02
     27.102  0.1569E+00  0.4110E+00  0.1513E+02  0.1504E+02
     27.229  0.2372E+00  0.4349E+00  0.1516E+02  0.1509E+02
     27.357  0.2222E+00  0.2246E+00  0.1519E+02  0.1512E+02
     27.485  0.1169E+00  0.1704E+00  0.1520E+02  0.1514E+02
     27.613  0.8151E-01  0.2223E+00  0.1521E+02  0.1517E+02
     27.741  0.2530E+00  0.1855E+00  0.1525E+02  0.1519E+02
     27.868  0.4232E+00  0.9481E-01  0.1530E+02  0.1521E+02
     27.996  0.3597E+00  0.1415E+00  0.1535E+02  0.1522E+02
     28.124  0.1895E+00  0.3469E+00  0.1537E+02  0.1527E+02
     28.252  0.1763E+00  0.4463E+00  0.1539E+02  0.1532E+02
     28.379  0.2146E+00  0.3270E+00  0.1542E+02  0.1537E+02
     28.507  0.2152E+00  0.1988E+00  0.1545E+02  0.1539E+02
     28.635  0.2247E+00  0.1588E+00  0.1548E+02  0.1541E+02
     28.763  0.2031E+00  0.1692E+00  0.1550E+02  0.1543E+02
     28.891  0.1790E+00  0.2398E+00  0.1552E+02  0.1546E+02
     29.018  0.1495E+00  0.2824E+00  0.1554E+02  0.1550E+02
     29.146  0.8962E-01  0.1919E+00  0.1556E+02  0.1553E+02
     29.274  0.1022E+00  0.1031E+00  0.1557E+02  0.1554E+02
     29.402  0.1753E+00  0.1092E+00  0.1559E+02  0.1555E+02
     29.529  0.1793E+00  0.1539E+00  0.1561E+02  0.1557E+02
     29.657  0.1532E+00  0.1798E+00  0.1563E+02  0.1559E+02
     29.785  0.1737E+00  0.1307E+00  0.1566E+02  0.1561E+02
     29.913  0.2209E+00  0.1235E+00  0.1568E+02  0.1563E+02
     30.041  0.1652E+00  0.2279E+00  0.1570E+02  0.1566E+02
     30.168  0.9768E-01  0.2399E+00  0.1572E+02  0.1569E+02
     30.296  0.1282E+00  0.1380E+00  0.1573E+02  0.1570E+02
     30.424  0.1049E+00  0.1067E+00  0.1575E+02  0.1572E+02
     30.552  0.5400E-01  0.1518E+00  0.1575E+02  0.1574E+02
     30.679  0.6152E-01  0.1378E+00  0.1576E+02  0.1576E+02
     30.807  0.9035E-01  0.6015E-01  0.1577E+02  0.1576E+02
     30.935  0.1062E+00  0.2617E-01  0.1579E+02  0.1577E+02
     31.063  0.9073E-01  0.7886E-01  0.1580E+02  0.1578E+02
     31.191  0.1071E+00  0.1299E+00  0.1581E+02  0.1579E+02
     31.318  0.8044E-01  0.1331E+00  0.1582E+02  0.1581E+02
     31.446  0.1432E-01  0.9064E-01  0.1582E+02  0.1582E+02
     31.574  0.1445E-02  0.3158E-01  0.1582E+02  0.1583E+02
     31.702  0.3530E-01  0.2246E-01  0.1583E+02  0.1583E+02
     31.829  0.9226E-01  0.5006E-01  0.1584E+02  0.1583E+02
     31.957  0.1468E+00  0.5358E-01  0.1586E+02  0.1584E+02
     32.085  0.1234E+00  0.9746E-01  0.1588E+02  0.1585E+02
     32.213  0.3215E-01  0.1308E+00  0.1588E+02  0.1587E+02
     32.341 -0.1412E-02  0.7215E-01  0.1588E+02  0.1588E+02
     32.468  0.3597E-01  0.5466E-01  0.1588E+02  0.1589E+02
     32.596  0.5999E-01  0.6221E-01  0.1589E+02  0.1590E+02
     32.724  0.3268E-01  0.2006E-01  0.1590E+02  0.1590E+02
     32.852  0.3155E-01 -0.3513E-02  0.1590E+02  0.1590E+02
     32.979  0.1109E+00  0.2802E-01  0.1591E+02  0.1590E+02
     33.107  0.2014E+00  0.1057E+00  0.1594E+02  0.1591E+02
     33.235  0.1498E+00  0.1677E+00  0.1596E+02  0.1594E+02
     33.363  0.4628E-01  0.1556E+00  0.1596E+02  0.1596E+02
     33.491  0.4946E-01  0.1114E+00  0.1597E+02  0.1597E+02
     33.618  0.5899E-01  0.6701E-01  0.1598E+02  0.1598E+02
     33.746  0.1602E-01  0.2033E-01  0.1598E+02  0.1598E+02
     33.874 -0.3368E-02  0.6096E-02  0.1598E+02  0.1598E+02
     34.002  0.2761E-02  0.5369E-02  0.1598E+02  0.1598E+02
     34.130  0.9645E-02  0.3428E-03  0.1598E+02  0.1598E+02
     34.257  0.5202E-02 -0.2166E-02  0.1598E+02  0.1598E+02
     34.385 -0.8493E-03  0.2577E-02  0.1598E+02  0.1598E+02
     34.513  0.9324E-02  0.2416E-01  0.1598E+02  0.1599E+02
     34.641  0.3113E-01  0.3835E-01  0.1599E+02  0.1599E+02
     34.768  0.3415E-01  0.2523E-01  0.1599E+02  0.1599E+02
     34.896  0.2033E-01  0.9384E-02  0.1599E+02  0.1599E+02
     35.024  0.5853E-02  0.8512E-03  0.1600E+02  0.1600E+02
     35.152 -0.8589E-03 -0.1185E-02  0.1600E+02  0.1599E+02
     35.280 -0.1571E-02  0.2028E-02  0.1599E+02  0.1600E+02
     35.407  0.2227E-02  0.8652E-02  0.1600E+02  0.1600E+02
     35.535  0.1511E-01  0.7847E-02  0.1600E+02  0.1600E+02
     35.663  0.1859E-01  0.3891E-02  0.1600E+02  0.1600E+02
     35.791  0.5733E-02  0.7585E-02  0.1600E+02  0.1600E+02
     35.918 -0.8142E-03  0.7883E-02  0.1600E+02  0.1600E+02
     36.046 -0.4900E-03  0.2252E-02  0.1600E+02  0.1600E+02
     36.174 -0.5438E-04 -0.3304E-03  0.1600E+02  0.1600E+02
     36.302 -0.2188E-05 -0.2058E-03  0.1600E+02  0.1600E+02
     36.430 -0.3572E-07 -0.2489E-04  0.1600E+02  0.1600E+02
     36.557 -0.2459E-09 -0.1118E-05  0.1600E+02  0.1600E+02
     36.685 -0.7270E-12 -0.2062E-07  0.1600E+02  0.1600E+02
     36.813 -0.9319E-15 -0.1615E-09  0.1600E+02  0.1600E+02
     36.941  0.0000E+00 -0.5447E-12  0.1600E+02  0.1600E+02
     37.068  0.0000E+00 -0.7972E-15  0.1600E+02  0.1600E+02
     37.196  0.0000E+00  0.0000E+00  0.1600E+02  0.1600E+02
     37.324  0.0000E+00  0.0000E+00  0.1600E+02  0.1600E+02
     37.452  0.0000E+00  0.0000E+00  0.1600E+02  0.1600E+02
     37.580  0.0000E+00  0.0000E+00  0.1600E+02  0.1600E+02
     37.707  0.0000E+00  0.0000E+00  0.1600E+02  0.1600E+02
     37.835  0.0000E+00  0.0000E+00  0.1600E+02  0.1600E+02
