    2    2    1    2
  0.1064014E+02  0.2472000E-09  0.2472000E-09  0.4021144E-09  0.5000000E-15
  1.000000000000000E-004
  CAR 
 Co fcc                                  
     18     70     16
 
  0.0000000E+00  0.0000000E+00  0.0000000E+00  0.1250000E-02
      1          1.501244        1.519929   1.000000   1.000000
      2          5.281577        6.255057   1.000000   1.000000
      3          7.828073        9.498839   1.000000   1.000000
      4          7.885478        9.568294   1.000000   1.000000
      5          7.885478        9.568295   1.000000   1.000000
      6          8.200006        9.937273   1.000000   1.000326
      7          8.200006        9.937274   1.000000   1.000326
      8          8.576291       10.331641   1.000000   0.988469
      9          8.576291       10.394999   1.000000   0.857264
     10          9.683791       10.394999   1.000000   0.857263
     11          9.683791       11.620632   1.000000  -0.000000
     12         10.373695       11.620632   0.912530  -0.000000
     13         16.949832       18.008240   0.000000   0.000000
     14         32.751225       32.490348   0.000000   0.000000
     15         35.548159       35.745355   0.000000   0.000000
     16         35.548390       35.835122   0.000000   0.000000
 
  0.1000000E+00 -0.6938894E-17  0.0000000E+00  0.7500000E-02
      1          1.856751        1.877025   1.000000   1.000000
      2          5.493199        6.496687   1.000000   1.000000
      3          7.581726        9.202093   1.000000   1.000000
      4          8.052644        9.473985   1.000000   1.000000
      5          8.061921        9.752226   1.000000   1.000001
      6          8.150791        9.764437   1.000000   1.000002
      7          8.306127        9.865749   1.000000   1.000046
      8          8.348042       10.100041   1.000000   1.009310
      9          8.474123       10.275581   1.000000   1.031212
     10          8.761149       10.299942   1.000000   1.019454
     11          9.725527       11.670306   1.000000  -0.000000
     12         11.803692       12.787126  -0.000000  -0.000000
     13         17.011417       18.035927   0.000000   0.000000
     14         30.228395       30.409322   0.000000   0.000000
     15         32.870414       33.152880   0.000000   0.000000
     16         33.089682       33.223164   0.000000   0.000000
 
  0.2000000E+00 -0.1387779E-16  0.0000000E+00  0.7500000E-02
      1          2.863124        2.899194   1.000000   1.000000
      2          5.951511        7.057953   1.000000   1.000000
      3          7.269772        8.481996   1.000000   1.000000
      4          7.348293        8.774965   1.000000   1.000000
      5          7.908919        9.550709   1.000000   1.000000
      6          8.239384       10.003525   1.000000   1.001544
      7          8.431912       10.064983   1.000000   1.005189
      8          8.506207       10.240541   1.000000   1.035367
      9          8.511533       10.261204   1.000000   1.034399
     10          8.751236       10.545175   1.000000   0.277659
     11          9.803600       11.761861   1.000007  -0.000000
     12         13.825114       14.682418  -0.000000  -0.000000
     13         17.237721       18.154434   0.000000   0.000000
     14         25.587617       26.001149   0.000000   0.000000
     15         30.053449       30.374588   0.000000   0.000000
     16         31.933386       32.086139   0.000000   0.000000
 
  0.3000000E+00  0.2775558E-16  0.0000000E+00  0.7500000E-02
      1          4.262248        4.400662   1.000000   1.000000
      2          6.076970        7.346924   1.000000   1.000000
      3          6.575570        7.768465   1.000000   1.000000
      4          7.250120        8.531290   1.000000   1.000000
      5          7.916338        9.494616   1.000000   1.000000
      6          7.987714        9.714053   1.000000   1.000000
      7          8.190973        9.780825   1.000000   1.000003
      8          9.123197       10.915184   1.000000  -0.005251
      9          9.184641       10.951072   1.000000  -0.002665
     10          9.287091       11.140340   1.000000  -0.000022
     11          9.864021       11.831517   1.000044  -0.000000
     12         16.116025       16.855962   0.000000   0.000000
     13         17.593032       18.322530   0.000000   0.000000
     14         21.422607       22.009399   0.000000   0.000000
     15         27.764248       28.029172   0.000000   0.000000
     16         28.871918       29.109552   0.000000   0.000000
 
  0.4000000E+00  0.5551115E-16  0.0000000E+00  0.7500000E-02
      1          5.346941        5.900103   1.000000   1.000000
      2          5.855500        7.132526   1.000000   1.000000
      3          6.110729        7.348940   1.000000   1.000000
      4          7.632654        8.551580   1.000000   1.000000
      5          7.803433        9.503122   1.000000   1.000000
      6          8.008057        9.555005   1.000000   1.000000
      7          8.172452        9.762567   1.000000   1.000002
      8          9.644182       11.549680   1.000000  -0.000000
      9          9.777593       11.693088   1.000003  -0.000000
     10          9.895716       11.867497   1.000108  -0.000000
     11         10.399598       11.981453   0.843861  -0.000000
     12         16.187040       16.929652   0.000000   0.000000
     13         18.576032       19.176430   0.000000   0.000000
     14         20.127763       20.704755   0.000000   0.000000
     15         25.454764       25.867671   0.000000   0.000000
     16         26.218159       26.416153   0.000000   0.000000
 
  0.5000000E+00  0.5551115E-16  0.0000000E+00  0.3750000E-02
      1          5.661866        6.608449   1.000000   1.000000
      2          5.705107        6.897801   1.000000   1.000000
      3          5.956560        7.211638   1.000000   1.000000
      4          7.736455        8.683983   1.000000   1.000000
      5          7.939727        9.426650   1.000000   1.000000
      6          7.981528        9.469641   1.000000   1.000000
      7          8.284091        9.892026   1.000000   1.000098
      8          9.841724       11.775831   1.000022  -0.000000
      9          9.904958       11.877878   1.000139  -0.000000
     10          9.990359       11.940357   1.001156  -0.000000
     11         11.877357       13.149616  -0.000000  -0.000000
     12         13.946338       14.953533  -0.000000  -0.000000
     13         20.322543       20.769779   0.000000   0.000000
     14         21.002542       21.419339   0.000000   0.000000
     15         23.394856       23.974763   0.000000   0.000000
     16         24.697108       25.291425   0.000000   0.000000
 
  0.1000000E+00  0.1000000E+00  0.0000000E+00  0.7500000E-02
      1          2.540718        2.568418   1.000000   1.000000
      2          5.847669        6.912964   1.000000   1.000000
      3          7.305436        8.739179   1.000000   1.000000
      4          7.635500        8.858566   1.000000   1.000000
      5          7.991888        9.656937   1.000000   1.000000
      6          8.190955        9.935092   1.000000   1.000308
      7          8.275245       10.002831   1.000000   1.001521
      8          8.394088       10.125749   1.000000   1.013550
      9          8.596137       10.280469   1.000000   1.029550
     10          8.683063       10.459738   1.000000   0.628146
     11          9.766316       11.717860   1.000002  -0.000000
     12         13.259036       14.150331  -0.000000  -0.000000
     13         17.161776       18.115697   0.000000   0.000000
     14         27.758483       28.053137   0.000000   0.000000
     15         28.445210       28.830271   0.000000   0.000000
     16         34.606730       34.534561   0.000000   0.000000
 
  0.2000000E+00  0.1000000E+00  0.0000000E+00  0.1500000E-01
      1          3.775493        3.846971   1.000000   1.000000
      2          6.226956        7.424627   1.000000   1.000000
      3          6.859738        8.026511   1.000000   1.000000
      4          7.025640        8.444624   1.000000   1.000000
      5          7.894639        9.493880   1.000000   1.000000
      6          7.915784        9.597825   1.000000   1.000000
      7          8.401045       10.068590   1.000000   1.005531
      8          8.628274       10.388228   1.000000   0.876057
      9          8.979152       10.772430   1.000000  -0.031399
     10          9.297755       11.097407   1.000000  -0.000077
     11          9.807636       11.765802   1.000008  -0.000000
     12         15.297677       16.088315  -0.000000   0.000000
     13         17.544462       18.351866   0.000000   0.000000
     14         23.508532       23.988038   0.000000   0.000000
     15         26.149425       26.523506   0.000000   0.000000
     16         30.899981       31.018271   0.000000   0.000000
 
  0.3000000E+00  0.1000000E+00  0.0000000E+00  0.1500000E-01
      1          5.114830        5.412860   1.000000   1.000000
      2          6.106252        7.405054   1.000000   1.000000
      3          6.308145        7.536617   1.000000   1.000000
      4          7.177752        8.344167   1.000000   1.000000
      5          7.738186        9.378760   1.000000   1.000000
      6          8.061078        9.642040   1.000000   1.000000
      7          8.143872        9.761248   1.000000   1.000002
      8          9.194529       10.998446   1.000000  -0.000966
      9          9.553062       11.423985   1.000000  -0.000000
     10          9.835500       11.797706   1.000019  -0.000000
     11         10.183764       11.914533   1.026146  -0.000000
     12         17.610500       18.253090   0.000000   0.000000
     13         17.651248       18.325837   0.000000   0.000000
     14         20.236696       20.862643   0.000000   0.000000
     15         24.554554       24.900786   0.000000   0.000000
     16         27.272895       27.582459   0.000000   0.000000
 
  0.4000000E+00  0.1000000E+00  0.0000000E+00  0.1500000E-01
      1          5.748917        6.581049   1.000000   1.000000
      2          5.897936        7.132503   1.000000   1.000000
      3          6.029815        7.294931   1.000000   1.000000
      4          7.634641        8.464689   1.000000   1.000000
      5          7.682787        9.329061   1.000000   1.000000
      6          7.939883        9.494157   1.000000   1.000000
      7          8.278974        9.892229   1.000000   1.000098
      8          9.725398       11.618695   1.000000  -0.000000
      9          9.847027       11.773738   1.000026  -0.000000
     10          9.853239       11.810604   1.000032  -0.000000
     11         11.672881       13.032463  -0.000000  -0.000000
     12         15.021276       15.907285  -0.000000  -0.000000
     13         20.053191       20.575539   0.000000   0.000000
     14         20.863875       21.333321   0.000000   0.000000
     15         23.519966       23.856950   0.000000   0.000000
     16         24.237004       24.735662   0.000000   0.000000
 
  0.2000000E+00  0.2000000E+00  0.0000000E+00  0.7500000E-02
      1          5.048133        5.239302   1.000000   1.000000
      2          6.435787        7.660136   1.000000   1.000000
      3          6.507898        7.763721   1.000000   1.000000
      4          6.675663        8.012219   1.000000   1.000000
      5          7.637587        9.261794   1.000000   1.000000
      6          8.025508        9.604711   1.000000   1.000000
      7          8.240861        9.875969   1.000000   1.000062
      8          8.832425       10.626979   1.000000   0.046276
      9          9.556264       11.417684   1.000000  -0.000000
     10          9.776757       11.730069   1.000003  -0.000000
     11         10.220580       11.953176   1.033454  -0.000000
     12         17.343837       18.051417   0.000000   0.000000
     13         18.190304       18.838665   0.000000   0.000000
     14         21.600818       22.115639   0.000000   0.000000
     15         22.215405       22.698299   0.000000   0.000000
     16         29.296417       29.385005   0.000000   0.000000
 
  0.3000000E+00  0.2000000E+00  0.0000000E+00  0.1500000E-01
      1          6.018262        6.614862   1.000000   1.000000
      2          6.167712        7.452010   1.000000   1.000000
      3          6.303372        7.571615   1.000000   1.000000
      4          6.932010        8.025901   1.000000   1.000000
      5          7.544160        9.130943   1.000000   1.000000
      6          7.976358        9.555574   1.000000   1.000000
      7          8.278707        9.892592   1.000000   1.000099
      8          9.232237       11.067423   1.000000  -0.000175
      9          9.750012       11.699253   1.000001  -0.000000
     10          9.851591       11.764380   1.000030  -0.000000
     11         11.632691       13.088242  -0.000000  -0.000000
     12         17.226844       17.895062   0.000000   0.000000
     13         19.745777       20.347910   0.000000   0.000000
     14         19.952482       20.489612   0.000000   0.000000
     15         21.303174       21.767935   0.000000   0.000000
     16         26.183754       26.554495   0.000000   0.000000
 
  0.4000000E+00  0.2000000E+00  0.0000000E+00  0.7500000E-02
      1          6.077735        7.181332   1.000000   1.000000
      2          6.185514        7.387715   1.000000   1.000000
      3          6.214386        7.415446   1.000000   1.000000
      4          7.239427        8.142904   1.000000   1.000000
      5          7.580261        9.182026   1.000000   1.000000
      6          7.802992        9.327843   1.000000   1.000000
      7          8.404782       10.045713   1.000000   1.003638
      8          9.588747       11.464116   1.000000  -0.000000
      9          9.739975       11.687576   1.000001  -0.000000
     10          9.791507       11.703408   1.000005  -0.000000
     11         13.340479       14.365824  -0.000000  -0.000000
     12         14.773180       15.758518  -0.000000  -0.000000
     13         19.971872       20.451567   0.000000   0.000000
     14         21.676908       22.152881   0.000000   0.000000
     15         21.997732       22.405690   0.000000   0.000000
     16         23.924566       24.453299   0.000000   0.000000
 
  0.3000000E+00  0.3000000E+00  0.0000000E+00  0.7500000E-02
      1          6.129514        7.441907   1.000000   1.000000
      2          6.418624        7.468067   1.000000   1.000000
      3          6.577252        7.753862   1.000000   1.000000
      4          6.810487        7.796446   1.000000   1.000000
      5          7.532776        9.078760   1.000000   1.000000
      6          7.729551        9.267515   1.000000   1.000000
      7          8.500560       10.148065   1.000000   1.018037
      8          9.416529       11.282500   1.000000  -0.000000
      9          9.686708       11.626968   1.000000  -0.000000
     10          9.745194       11.649372   1.000001  -0.000000
     11         13.764834       14.806169  -0.000000  -0.000000
     12         16.791500       17.503642   0.000000   0.000000
     13         16.826193       17.519217   0.000000   0.000000
     14         22.225025       22.742444   0.000000   0.000000
     15         22.484600       22.905828   0.000000   0.000000
     16         25.106139       25.561431   0.000000   0.000000
 
  0.0000000E+00  0.0000000E+00  0.1250000E+00  0.2500000E-02
      1          1.659923        1.679215   1.000000   1.000000
      2          5.250491        6.139763   1.000000   1.000000
      3          7.787308        9.446004   1.000000   1.000000
      4          7.845357        9.526839   1.000000   1.000000
      5          7.845357        9.526840   1.000000   1.000000
      6          8.157591        9.888784   1.000000   1.000089
      7          8.157591        9.888785   1.000000   1.000089
      8          8.672413        9.939939   1.000000   1.000349
      9          8.672413       10.499742   1.000000   0.460600
     10          9.674815       10.499742   1.000000   0.460598
     11          9.674815       11.612352   1.000000  -0.000000
     12          9.763816       11.612352   1.000002  -0.000000
     13         17.870982       18.795410   0.000000   0.000000
     14         32.678285       32.389757   0.000000   0.000000
     15         34.759573       34.776931   0.000000   0.000000
     16         35.563269       35.399026   0.000000   0.000000
 
  0.1000000E+00 -0.6938894E-17  0.1250000E+00  0.1500000E-01
      1          2.011774        2.033152   1.000000   1.000000
      2          5.474263        6.393553   1.000000   1.000000
      3          7.585808        9.206027   1.000000   1.000000
      4          7.948724        9.212043   1.000000   1.000000
      5          7.982087        9.639279   1.000000   1.000000
      6          7.994074        9.692626   1.000000   1.000000
      7          8.297824        9.891173   1.000000   1.000095
      8          8.435423       10.041740   1.000000   1.003371
      9          8.600128       10.412489   1.000000   0.803635
     10          8.741345       10.436429   1.000000   0.719486
     11          9.710537       11.654701   1.000000  -0.000000
     12         11.242537       12.491465  -0.000001  -0.000000
     13         18.005255       18.890534   0.000000   0.000000
     14         30.324292       30.485880   0.000000   0.000000
     15         33.027954       33.065209   0.000000   0.000000
     16         33.030340       33.378161   0.000000   0.000000
 
  0.2000000E+00 -0.1387779E-16  0.1250000E+00  0.1500000E-01
      1          3.002557        3.043209   1.000000   1.000000
      2          5.967548        6.995683   1.000000   1.000000
      3          7.211356        8.342873   1.000000   1.000000
      4          7.304354        8.804612   1.000000   1.000000
      5          7.839578        9.495921   1.000000   1.000000
      6          8.200323        9.892731   1.000000   1.000100
      7          8.296234        9.947620   1.000000   1.000422
      8          8.589969       10.352861   1.000000   0.955539
      9          8.705326       10.463843   1.000000   0.611360
     10          8.733572       10.533254   1.000000   0.323280
     11          9.776642       11.731604   1.000003  -0.000000
     12         12.932255       14.003112  -0.000000  -0.000000
     13         18.472418       19.243135   0.000000   0.000000
     14         25.722997       26.132129   0.000000   0.000000
     15         30.244690       30.568578   0.000000   0.000000
     16         31.208805       31.370861   0.000000   0.000000
 
  0.3000000E+00  0.2775558E-16  0.1250000E+00  0.1500000E-01
      1          4.349786        4.511653   1.000000   1.000000
      2          6.109996        7.321911   1.000000   1.000000
      3          6.548520        7.730975   1.000000   1.000000
      4          7.227406        8.560366   1.000000   1.000000
      5          7.824970        9.382254   1.000000   1.000000
      6          8.032099        9.761460   1.000000   1.000002
      7          8.331278        9.848915   1.000000   1.000028
      8          9.142386       10.943258   1.000000  -0.003110
      9          9.178732       10.969465   1.000000  -0.001826
     10          9.241552       11.093955   1.000000  -0.000085
     11          9.830242       11.791545   1.000016  -0.000000
     12         14.650262       15.544756  -0.000000  -0.000000
     13         19.266820       19.887704   0.000000   0.000000
     14         21.595904       22.171056   0.000000   0.000000
     15         27.646919       27.993258   0.000000   0.000000
     16         27.983725       28.256637   0.000000   0.000000
 
  0.4000000E+00  0.5551115E-16  0.1250000E+00  0.1500000E-01
      1          5.292103        5.920174   1.000000   1.000000
      2          5.848489        7.089202   1.000000   1.000000
      3          6.294400        7.473493   1.000000   1.000000
      4          7.222110        8.404185   1.000000   1.000000
      5          7.866640        9.572234   1.000000   1.000000
      6          8.167041        9.703593   1.000000   1.000000
      7          8.538150        9.858831   1.000000   1.000038
      8          9.643956       11.554742   1.000000  -0.000000
      9          9.693571       11.602147   1.000000  -0.000000
     10          9.890275       11.848640   1.000093  -0.000000
     11         10.314641       11.902582   1.007569  -0.000000
     12         15.474079       16.177351  -0.000000   0.000000
     13         18.368062       19.142861   0.000000   0.000000
     14         21.084775       21.536489   0.000000   0.000000
     15         24.534926       25.056910   0.000000   0.000000
     16         26.458270       26.669397   0.000000   0.000000
 
  0.5000000E+00  0.5551115E-16  0.1250000E+00  0.7500000E-02
      1          5.481708        6.476512   1.000000   1.000000
      2          5.693862        6.912494   1.000000   1.000000
      3          6.282424        7.472028   1.000000   1.000000
      4          7.247647        8.327182   1.000000   1.000000
      5          7.804554        9.501296   1.000000   1.000000
      6          8.288310        9.864515   1.000000   1.000044
      7          8.780215        9.977735   1.000000   1.000868
      8          9.766863       11.709127   1.000002  -0.000000
      9          9.884705       11.832038   1.000080  -0.000000
     10          9.985958       11.935440   1.001047  -0.000000
     11         11.760155       12.968157  -0.000000  -0.000000
     12         13.847891       14.819425  -0.000000  -0.000000
     13         19.760468       20.312585   0.000000   0.000000
     14         20.136301       20.712098   0.000000   0.000000
     15         24.554878       24.997356   0.000000   0.000000
     16         25.583028       26.090555   0.000000   0.000000
 
  0.1000000E+00  0.1000000E+00  0.1250000E+00  0.1500000E-01
      1          2.686474        2.717062   1.000000   1.000000
      2          5.853800        6.836972   1.000000   1.000000
      3          7.325709        8.566103   1.000000   1.000000
      4          7.454881        8.883077   1.000000   1.000000
      5          7.975098        9.664800   1.000000   1.000000
      6          8.061119        9.703061   1.000000   1.000000
      7          8.289237        9.983819   1.000000   1.000998
      8          8.446407       10.200083   1.000000   1.029742
      9          8.700204       10.450832   1.000000   0.663925
     10          8.710566       10.491656   1.000000   0.494768
     11          9.746419       11.694890   1.000001  -0.000000
     12         12.476570       13.590586  -0.000000  -0.000000
     13         18.312108       19.120640   0.000000   0.000000
     14         27.877321       28.164544   0.000000   0.000000
     15         28.593237       28.975985   0.000000   0.000000
     16         33.504125       33.527180   0.000000   0.000000
 
  0.2000000E+00  0.1000000E+00  0.1250000E+00  0.3000000E-01
      1          3.891847        3.975061   1.000000   1.000000
      2          6.271556        7.404723   1.000000   1.000000
      3          6.763288        7.927133   1.000000   1.000000
      4          7.064953        8.483930   1.000000   1.000000
      5          7.773859        9.403133   1.000000   1.000000
      6          8.020013        9.646132   1.000000   1.000000
      7          8.319238        9.992293   1.000000   1.001207
      8          8.683282       10.453047   1.000000   0.655114
      9          9.056829       10.854062   1.000000  -0.013741
     10          9.246388       11.056472   1.000000  -0.000234
     11          9.798233       11.744619   1.000006  -0.000000
     12         14.087110       15.059548  -0.000000  -0.000000
     13         19.038595       19.712136   0.000000   0.000000
     14         23.654663       24.131461   0.000000   0.000000
     15         26.306348       26.682886   0.000000   0.000000
     16         29.821074       30.045627   0.000000   0.000000
 
  0.3000000E+00  0.1000000E+00  0.1250000E+00  0.3000000E-01
      1          5.138359        5.487056   1.000000   1.000000
      2          6.137719        7.370149   1.000000   1.000000
      3          6.346958        7.567700   1.000000   1.000000
      4          7.103633        8.367253   1.000000   1.000000
      5          7.773299        9.345811   1.000000   1.000000
      6          8.092286        9.718780   1.000000   1.000000
      7          8.235603        9.757386   1.000000   1.000001
      8          9.179913       10.992475   1.000000  -0.001106
      9          9.596623       11.470593   1.000000  -0.000000
     10          9.703965       11.609124   1.000000  -0.000000
     11         10.218837       11.994502   1.033193  -0.000000
     12         15.680108       16.437637  -0.000000   0.000000
     13         19.221157       19.891482   0.000000   0.000000
     14         20.900885       21.432051   0.000000   0.000000
     15         24.694063       25.059781   0.000000   0.000000
     16         26.211858       26.609102   0.000000   0.000000
 
  0.4000000E+00  0.1000000E+00  0.1250000E+00  0.3000000E-01
      1          5.591977        6.514802   1.000000   1.000000
      2          5.886549        7.117385   1.000000   1.000000
      3          6.338179        7.507308   1.000000   1.000000
      4          7.174747        8.273813   1.000000   1.000000
      5          7.716357        9.360646   1.000000   1.000000
      6          8.311820        9.726803   1.000000   1.000000
      7          8.416538        9.924762   1.000000   1.000236
      8          9.677452       11.581527   1.000000  -0.000000
      9          9.771782       11.698482   1.000002  -0.000000
     10          9.879729       11.805558   1.000069  -0.000000
     11         11.656045       12.981879  -0.000000  -0.000000
     12         14.858795       15.696655  -0.000000  -0.000000
     13         19.085985       19.759293   0.000000   0.000000
     14         21.205572       21.663013   0.000000   0.000000
     15         23.631943       24.022178   0.000000   0.000000
     16         24.505559       24.947203   0.000000   0.000000
 
  0.2000000E+00  0.2000000E+00  0.1250000E+00  0.1500000E-01
      1          5.109792        5.332711   1.000000   1.000000
      2          6.352310        7.573059   1.000000   1.000000
      3          6.622997        7.835998   1.000000   1.000000
      4          6.704257        8.052725   1.000000   1.000000
      5          7.679676        9.258700   1.000000   1.000000
      6          8.008374        9.596128   1.000000   1.000000
      7          8.174893        9.806952   1.000000   1.000007
      8          8.865467       10.662312   1.000000  -0.003735
      9          9.614481       11.484325   1.000000  -0.000000
     10          9.634935       11.543329   1.000000  -0.000000
     11         10.289532       12.052500   1.025582  -0.000000
     12         15.645071       16.457035  -0.000000   0.000000
     13         20.075861       20.651285   0.000000   0.000000
     14         21.753116       22.268705   0.000000   0.000000
     15         22.410543       22.890093   0.000000   0.000000
     16         28.204927       28.428016   0.000000   0.000000
 
  0.3000000E+00  0.2000000E+00  0.1250000E+00  0.3000000E-01
      1          5.917080        6.635947   1.000000   1.000000
      2          6.285654        7.439235   1.000000   1.000000
      3          6.359618        7.628154   1.000000   1.000000
      4          6.892359        8.084899   1.000000   1.000000
      5          7.625622        9.157457   1.000000   1.000000
      6          7.950131        9.481580   1.000000   1.000000
      7          8.298951        9.913346   1.000000   1.000175
      8          9.241043       11.079376   1.000000  -0.000127
      9          9.627218       11.552333   1.000000  -0.000000
     10          9.891222       11.812663   1.000096  -0.000000
     11         11.697180       13.140438  -0.000000  -0.000000
     12         16.720802       17.364701   0.000000   0.000000
     13         18.890474       19.590120   0.000000   0.000000
     14         20.767749       21.285247   0.000000   0.000000
     15         22.111422       22.542923   0.000000   0.000000
     16         25.236480       25.690131   0.000000   0.000000
 
  0.4000000E+00  0.2000000E+00  0.1250000E+00  0.1500000E-01
      1          5.923285        7.049001   1.000000   1.000000
      2          6.233992        7.456165   1.000000   1.000000
      3          6.473942        7.640346   1.000000   1.000000
      4          7.025773        8.051689   1.000000   1.000000
      5          7.551067        9.135806   1.000000   1.000000
      6          7.967450        9.385647   1.000000   1.000000
      7          8.439960       10.079294   1.000000   1.006652
      8          9.592523       11.469991   1.000000  -0.000000
      9          9.605892       11.528440   1.000000  -0.000000
     10          9.823846       11.742122   1.000013  -0.000000
     11         13.434127       14.432145  -0.000000  -0.000000
     12         14.768545       15.729375  -0.000000  -0.000000
     13         19.889319       20.407391   0.000000   0.000000
     14         20.956196       21.493324   0.000000   0.000000
     15         21.243641       21.757414   0.000000   0.000000
     16         25.138082       25.574959   0.000000   0.000000
 
  0.3000000E+00  0.3000000E+00  0.1250000E+00  0.1500000E-01
      1          6.156871        7.470591   1.000000   1.000000
      2          6.437561        7.475310   1.000000   1.000000
      3          6.628847        7.810398   1.000000   1.000000
      4          6.776907        7.839615   1.000000   1.000000
      5          7.584654        9.078702   1.000000   1.000000
      6          7.676881        9.185498   1.000000   1.000000