 vasp.6.3.2 27Jun22 (build Aug 12 2022 00:53:59) complex                        
  
 executed on               tv2STD date 2024.11.30  15:14:20
 running   24 mpi-ranks, with    1 threads/rank
 distrk:  each k-point on   24 cores,    1 groups
 distr:  one band on NCORE=   6 cores,    4 groups


--------------------------------------------------------------------------------------------------------


 INCAR:
   SYSTEM = Co fcc
   NWRITE = 2    write-flag
   ISTART = 0    job   : 0-new, 1-cont, 2-samecut
   ICHARG = 2    charge: 0-wave, 1-file, 2-atom, >10-const
   INIWAV = 1    electr: 0-lowe 1-rand  2-diag
   ENCUT = 425     energy cutoff in eV
   PREC = Accurate      normal | accurate
   ADDGRID = .FALSE.  (use fine grid)
   NELM = 100     number of ELM steps
   EDIFF = 1E-06    energy stopping-criterion for ELM
   LREAL = .FALSE.      real-space projection (.FALSE., .TRUE., On, Auto)
   ALGO = Normal     Normal, Fast, Very_Fast
   LWAVE = .FALSE.
   LCHARG = .FALSE.
   NSW = 0       max number of geometry steps
   IBRION = -1     ionic relax: 0-MD, 1-quasi-Newton, 2-CG, 3-Damped MD
   EDIFFG = -0.02  force (eV/A) stopping-criterion for geometry steps
   ISIF = 2     (1:force\=y stress\=trace only ions\=y shape\=n volume\=n)
   ISYM = 1     (1-use symmetry, 0-no symmetry)
   ISMEAR = 1     (-1-Fermi, 1-Methfessel/Paxton)
   SIGMA = 0.2   broadening in eV
   NPAR = 4
   ISPIN = 2
   MAGMOM = 2*3

 POTCAR:    PAW_PBE Co 02Aug2007                  
 POTCAR:    PAW_PBE Co 02Aug2007                  
   SHA256 =  0e690c60710354995174544f52f9f2c30879afabeffe3b3fbd4001cb294e56d4 Co/POTCAR             
   COPYR  = (c) Copyright 02Aug2007 Georg Kresse                                                    
   COPYR  = This file is part of the software VASP. Any use, copying, and all other rights are regul
   COPYR  = If you do not have a valid VASP license, you may not use, copy or distribute this file. 
   VRHFIN =Co: d8 s1                                                                                
   LEXCH  = PE                                                                                      
   EATOM  =   813.3670 eV,   59.7808 Ry                                                             
                                                                                                    
   TITEL  = PAW_PBE Co 02Aug2007                                                                    
   LULTRA =        F    use ultrasoft PP ?                                                          
   IUNSCR =        1    unscreen: 0-lin 1-nonlin 2-no                                               
   RPACOR =    2.000    partial core radius                                                         
   POMASS =   58.933; ZVAL   =    9.000    mass and valenz                                          
   RCORE  =    2.300    outmost cutoff radius                                                       
   RWIGS  =    2.460; RWIGS  =    1.302    wigner-seitz radius (au A)                               
   ENMAX  =  267.968; ENMIN  =  200.976 eV                                                          
   RCLOC  =    1.203    cutoff for local pot                                                        
   LCOR   =        T    correct aug charges                                                         
   LPAW   =        T    paw PP                                                                      
   EAUG   =  477.818                                                                                
   DEXC   =    0.000                                                                                
   RMAX   =    2.360    core radius for proj-oper                                                   
   RAUG   =    1.300    factor for augmentation sphere                                              
   RDEP   =    2.393    radius for radial grids                                                     
   RDEPT  =    1.864    core radius for aug-charge                                                  
                                                                                                    
   Atomic configuration                                                                             
    9 entries                                                                                       
     n  l   j            E        occ.                                                              
     1  0  0.50     -7587.6674   2.0000                                                             
     2  0  0.50      -893.6084   2.0000                                                             
     2  1  1.50      -764.5805   6.0000                                                             
     3  0  0.50       -97.5973   2.0000                                                             
     3  1  1.50       -60.9648   6.0000                                                             
     3  2  2.50        -4.2382   8.0000                                                             
     4  0  0.50        -4.3746   1.0000                                                             
     4  1  1.50        -4.0817   0.0000                                                             
     4  3  2.50        -1.3606   0.0000                                                             
   Description                                                                                      
     l       E           TYP  RCUT    TYP  RCUT                                                     
     2     -4.2382362     23  2.300                                                                 
     2     -5.5988188     23  2.300                                                                 
     0     -4.3745797     23  2.300                                                                 
     0      5.7660125     23  2.300                                                                 
     1     -2.7211652     23  2.300                                                                 
     1     16.9860234     23  2.300                                                                 
  local pseudopotential read in
  partial core-charges read in
  partial kinetic energy density read in
  atomic valenz-charges read in
  non local Contribution for L=           2  read in
    real space projection operators read in
  non local Contribution for L=           2  read in
    real space projection operators read in
  non local Contribution for L=           0  read in
    real space projection operators read in
  non local Contribution for L=           0  read in
    real space projection operators read in
  non local Contribution for L=           1  read in
    real space projection operators read in
  non local Contribution for L=           1  read in
    real space projection operators read in
    PAW grid and wavefunctions read in
 
   number of l-projection  operators is LMAX  =           6
   number of lm-projection operators is LMMAX =          18
 
  PAW_PBE Co 02Aug2007                  :
 energy of atom  1       EATOM= -813.3670
 kinetic energy error for atom=    0.0054 (will be added to EATOM!!)
 
 
 POSCAR: Co
  positions in cartesian coordinates
  No initial velocities read in
 exchange correlation table for  LEXCH =        8
   RHO(1)=    0.500       N(1)  =     2000
   RHO(2)=  100.500       N(2)  =     4000
 


--------------------------------------------------------------------------------------------------------


 ion  position               nearest neighbor table
   1  0.000  0.000  0.000-
   2  0.333  0.667  0.500-
 
  LATTYP: Found a hexagonal cell.
 ALAT       =     2.4700000000
 C/A-ratio  =     3.2753036437
  
  Lattice vectors:
  
 A1 = (   2.4700000000,   0.0000000000,   0.0000000000)
 A2 = (  -1.2350000000,   2.1390827473,   0.0000000000)
 A3 = (   0.0000000000,   0.0000000000,   8.0900000000)


Analysis of symmetry for initial positions (statically):
=====================================================================
 Subroutine PRICEL returns:
 Original cell was already a primitive cell.
 

 Routine SETGRP: Setting up the symmetry group for a 
 hexagonal supercell.


 Subroutine GETGRP returns: Found 24 space group operations
 (whereof 12 operations were pure point group operations)
 out of a pool of 24 trial point group operations.


The static configuration has the point symmetry D_3h.
 The point group associated with its full space group is D_6h.


Analysis of symmetry for dynamics (positions and initial velocities):
=====================================================================
 Subroutine PRICEL returns:
 Original cell was already a primitive cell.
 

 Routine SETGRP: Setting up the symmetry group for a 
 hexagonal supercell.


 Subroutine GETGRP returns: Found 24 space group operations
 (whereof 12 operations were pure point group operations)
 out of a pool of 24 trial point group operations.


The dynamic configuration has the point symmetry D_3h.
 The point group associated with its full space group is D_6h.


Analysis of structural, dynamic, and magnetic symmetry:
=====================================================================
 Subroutine PRICEL returns:
 Original cell was already a primitive cell.
 

 Routine SETGRP: Setting up the symmetry group for a 
 hexagonal supercell.


 Subroutine GETGRP returns: Found 24 space group operations
 (whereof 12 operations were pure point group operations)
 out of a pool of 24 trial point group operations.


The overall configuration has the point symmetry D_3h.
 The point group associated with its full space group is D_6h.


 Subroutine INISYM returns: Found 24 space group operations
 (whereof 12 operations are pure point group operations),
 and found     1 'primitive' translations


----------------------------------------------------------------------------------------

                                     Primitive cell                                     

  volume of cell :      42.7438

  direct lattice vectors                    reciprocal lattice vectors
     2.470000000  0.000000000  0.000000000     0.404858300  0.233745048  0.000000000
    -1.235000000  2.139082747  0.000000000     0.000000000  0.467490097  0.000000000
     0.000000000  0.000000000  8.090000000     0.000000000  0.000000000  0.123609394

  length of vectors
     2.470000000  2.470000000  8.090000000     0.467490097  0.467490097  0.123609394

  position of ions in fractional coordinates (direct lattice)
     0.000000000  0.000000000  0.000000000
     0.333333333  0.666666667  0.500000000

  ion indices of the primitive-cell ions
   primitive index   ion index
                 1           1
                 2           2

----------------------------------------------------------------------------------------

 
 
 KPOINTS: Automatic mesh                          

Automatic generation of k-mesh.
 Grid dimensions read from file:
 generate k-points for:    6    6    4

 Generating k-lattice:

  Cartesian coordinates                     Fractional coordinates (reciprocal lattice)
     0.067476383  0.038957508  0.000000000     0.166666667  0.000000000  0.000000000
     0.000000000  0.077915016  0.000000000     0.000000000  0.166666667  0.000000000
     0.000000000  0.000000000  0.030902349     0.000000000  0.000000000  0.250000000

  Length of vectors
     0.077915016  0.077915016  0.030902349

  Shift w.r.t. Gamma in fractional coordinates (k-lattice)
     0.000000000  0.000000000  0.000000000

 
 Subroutine IBZKPT returns following result:
 ===========================================
 
 Found     21 irreducible k-points:
 
 Following reciprocal coordinates:
            Coordinates               Weight
  0.000000  0.000000  0.000000      1.000000
  0.166667 -0.000000  0.000000      6.000000
  0.333333 -0.000000  0.000000      6.000000
  0.500000 -0.000000  0.000000      3.000000
  0.166667  0.166667  0.000000      6.000000
  0.333333  0.166667  0.000000     12.000000
  0.333333  0.333333  0.000000      2.000000
  0.000000  0.000000  0.250000      2.000000
  0.166667 -0.000000  0.250000     12.000000
  0.333333 -0.000000  0.250000     12.000000
  0.500000 -0.000000  0.250000      6.000000
  0.166667  0.166667  0.250000     12.000000
  0.333333  0.166667  0.250000     24.000000
  0.333333  0.333333  0.250000      4.000000
  0.000000  0.000000  0.500000      1.000000
  0.166667 -0.000000  0.500000      6.000000
  0.333333 -0.000000  0.500000      6.000000
  0.500000 -0.000000  0.500000      3.000000
  0.166667  0.166667  0.500000      6.000000
  0.333333  0.166667  0.500000     12.000000
  0.333333  0.333333  0.500000      2.000000
 
 Following cartesian coordinates:
            Coordinates               Weight
  0.000000  0.000000  0.000000      1.000000
  0.067476  0.038958  0.000000      6.000000
  0.134953  0.077915  0.000000      6.000000
  0.202429  0.116873  0.000000      3.000000
  0.067476  0.116873  0.000000      6.000000
  0.134953  0.155830  0.000000     12.000000
  0.134953  0.233745  0.000000      2.000000
  0.000000  0.000000  0.030902      2.000000
  0.067476  0.038958  0.030902     12.000000
  0.134953  0.077915  0.030902     12.000000
  0.202429  0.116873  0.030902      6.000000
  0.067476  0.116873  0.030902     12.000000
  0.134953  0.155830  0.030902     24.000000
  0.134953  0.233745  0.030902      4.000000
  0.000000  0.000000  0.061805      1.000000
  0.067476  0.038958  0.061805      6.000000
  0.134953  0.077915  0.061805      6.000000
  0.202429  0.116873  0.061805      3.000000
  0.067476  0.116873  0.061805      6.000000
  0.134953  0.155830  0.061805     12.000000
  0.134953  0.233745  0.061805      2.000000
 


--------------------------------------------------------------------------------------------------------




 Dimension of arrays:
   k-points           NKPTS =     21   k-points in BZ     NKDIM =     21   number of bands    NBANDS=     16
   number of dos      NEDOS =    301   number of ions     NIONS =      2
   non local maximal  LDIM  =      6   non local SUM 2l+1 LMDIM =     18
   total plane-waves  NPLWV =  17496
   max r-space proj   IRMAX =      1   max aug-charges    IRDMAX=  16341
   dimension x,y,z NGX =    18 NGY =   18 NGZ =   54
   dimension x,y,z NGXF=    36 NGYF=   36 NGZF=  108
   support grid    NGXF=    36 NGYF=   36 NGZF=  108
   ions per type =               2
   NGX,Y,Z   is equivalent  to a cutoff of  12.12, 12.12, 11.10 a.u.
   NGXF,Y,Z  is equivalent  to a cutoff of  24.23, 24.23, 22.19 a.u.

 SYSTEM =  Co fcc                                  
 POSCAR =  Co                                      

 Startparameter for this run:
   NWRITE =      2    write-flag & timer
   PREC   = accura    normal or accurate (medium, high low for compatibility)
   ISTART =      0    job   : 0-new  1-cont  2-samecut
   ICHARG =      2    charge: 1-file 2-atom 10-const
   ISPIN  =      2    spin polarized calculation?
   LNONCOLLINEAR =      F non collinear calculations
   LSORBIT =      F    spin-orbit coupling
   INIWAV =      1    electr: 0-lowe 1-rand  2-diag
   LASPH  =      F    aspherical Exc in radial PAW
 Electronic Relaxation 1
   ENCUT  =  425.0 eV  31.24 Ry    5.59 a.u.   4.15  4.15 13.60*2*pi/ulx,y,z
   ENINI  =  425.0     initial cutoff
   ENAUG  =  477.8 eV  augmentation charge cutoff
   NELM   =    100;   NELMIN=  2; NELMDL= -5     # of ELM steps 
   EDIFF  = 0.1E-05   stopping-criterion for ELM
   LREAL  =      F    real-space projection
   NLSPLINE    = F    spline interpolate recip. space projectors
   LCOMPAT=      F    compatible to vasp.4.4
   GGA_COMPAT  = T    GGA compatible to vasp.4.4-vasp.4.6
   LMAXPAW     = -100 max onsite density
   LMAXMIX     =    2 max onsite mixed and CHGCAR
   VOSKOWN=      0    Vosko Wilk Nusair interpolation
   ROPT   =    0.00000
 Ionic relaxation
   EDIFFG = -.2E-01   stopping-criterion for IOM
   NSW    =      0    number of steps for IOM
   NBLOCK =      1;   KBLOCK =      1    inner block; outer block 
   IBRION =     -1    ionic relax: 0-MD 1-quasi-New 2-CG
   NFREE  =      0    steps in history (QN), initial steepest desc. (CG)
   ISIF   =      2    stress and relaxation
   IWAVPR =     10    prediction:  0-non 1-charg 2-wave 3-comb
   ISYM   =      1    0-nonsym 1-usesym 2-fastsym
   LCORR  =      T    Harris-Foulkes like correction to forces

   POTIM  = 0.5000    time-step for ionic-motion
   TEIN   =    0.0    initial temperature
   TEBEG  =    0.0;   TEEND  =   0.0 temperature during run
   SMASS  =  -3.00    Nose mass-parameter (am)
   estimated Nose-frequenzy (Omega)   =  0.10E-29 period in steps = 0.13E+47 mass=  -0.139E-27a.u.
   SCALEE = 1.0000    scale energy and forces
   NPACO  =    256;   APACO  = 10.0  distance and # of slots for P.C.
   PSTRESS=    0.0 pullay stress

  Mass of Ions in am
   POMASS =  58.93
  Ionic Valenz
   ZVAL   =   9.00
  Atomic Wigner-Seitz radii
   RWIGS  =  -1.00
  virtual crystal weights 
   VCA    =   1.00
   NELECT =      18.0000    total number of electrons
   NUPDOWN=      -1.0000    fix difference up-down

 DOS related values:
   EMIN   =  10.00;   EMAX   =-10.00  energy-range for DOS
   EFERMI =   0.00
   ISMEAR =     1;   SIGMA  =   0.20  broadening in eV -4-tet -1-fermi 0-gaus

 Electronic relaxation 2 (details)
   IALGO  =     38    algorithm
   LDIAG  =      T    sub-space diagonalisation (order eigenvalues)
   LSUBROT=      F    optimize rotation matrix (better conditioning)
   TURBO    =      0    0=normal 1=particle mesh
   IRESTART =      0    0=no restart 2=restart with 2 vectors
   NREBOOT  =      0    no. of reboots
   NMIN     =      0    reboot dimension
   EREF     =   0.00    reference energy to select bands
   IMIX   =      4    mixing-type and parameters
     AMIX     =   0.40;   BMIX     =  1.00
     AMIX_MAG =   1.60;   BMIX_MAG =  1.00
     AMIN     =   0.10
     WC   =   100.;   INIMIX=   1;  MIXPRE=   1;  MAXMIX= -45

 Intra band minimization:
   WEIMIN = 0.0000     energy-eigenvalue tresh-hold
   EBREAK =  0.16E-07  absolut break condition
   DEPER  =   0.30     relativ break condition  

   TIME   =   0.40     timestep for ELM

  volume/ion in A,a.u.               =      21.37       144.22
  Fermi-wavevector in a.u.,A,eV,Ry     =   1.227085  2.318854 20.486804  1.505738
  Thomas-Fermi vector in A             =   2.362062
 
 Write flags
   LWAVE        =      F    write WAVECAR
   LDOWNSAMPLE  =      F    k-point downsampling of WAVECAR
   LCHARG       =      F    write CHGCAR
   LVTOT        =      F    write LOCPOT, total local potential
   LVHAR        =      F    write LOCPOT, Hartree potential only
   LELF         =      F    write electronic localiz. function (ELF)
   LORBIT       =      0    0 simple, 1 ext, 2 COOP (PROOUT), +10 PAW based schemes


 Dipole corrections
   LMONO  =      F    monopole corrections only (constant potential shift)
   LDIPOL =      F    correct potential (dipole corrections)
   IDIPOL =      0    1-x, 2-y, 3-z, 4-all directions 
   EPSILON=  1.0000000 bulk dielectric constant

 Exchange correlation treatment:
   GGA     =    --    GGA type
   LEXCH   =     8    internal setting for exchange type
   LIBXC   =     F    Libxc                    
   VOSKOWN =     0    Vosko Wilk Nusair interpolation
   LHFCALC =     F    Hartree Fock is set to
   LHFONE  =     F    Hartree Fock one center treatment
   AEXX    =    0.0000 exact exchange contribution

 Linear response parameters
   LEPSILON=     F    determine dielectric tensor
   LRPA    =     F    only Hartree local field effects (RPA)
   LNABLA  =     F    use nabla operator in PAW spheres
   LVEL    =     F    velocity operator in full k-point grid
   CSHIFT  =0.1000    complex shift for real part using Kramers Kronig
   OMEGAMAX=  -1.0    maximum frequency
   DEG_THRESHOLD= 0.2000000E-02 threshold for treating states as degnerate
   RTIME   =   -0.100 relaxation time in fs
  (WPLASMAI=    0.000 imaginary part of plasma frequency in eV, 0.658/RTIME)
   DFIELD  = 0.0000000 0.0000000 0.0000000 field for delta impulse in time
 
  Optional k-point grid parameters
   LKPOINTS_OPT  =     F    use optional k-point grid
   KPOINTS_OPT_MODE=     1    mode for optional k-point grid
 
 Orbital magnetization related:
   ORBITALMAG=     F  switch on orbital magnetization
   LCHIMAG   =     F  perturbation theory with respect to B field
   DQ        =  0.001000  dq finite difference perturbation B field
   LLRAUG    =     F  two centre corrections for induced B field



--------------------------------------------------------------------------------------------------------


 Static calculation
 charge density and potential will be updated during run
 spin polarized calculation
 Variant of blocked Davidson
 Davidson routine will perform the subspace rotation
 perform sub-space diagonalisation
    after iterative eigenvector-optimisation
 modified Broyden-mixing scheme, WC =      100.0
 initial mixing is a Kerker type mixing with AMIX =  0.4000 and BMIX =      1.0000
 Hartree-type preconditioning will be used
 using additional bands            7
 reciprocal scheme for non local part
 use partial core corrections
 calculate Harris-corrections to forces 
   (improved forces if not selfconsistent)
 use gradient corrections 
 use of overlap-Matrix (Vanderbilt PP)
 Methfessel and Paxton  Order N= 1 SIGMA  =   0.20


--------------------------------------------------------------------------------------------------------


  energy-cutoff  :      425.00
  volume of cell :       42.74
      direct lattice vectors                 reciprocal lattice vectors
     2.470000000  0.000000000  0.000000000     0.404858300  0.233745048  0.000000000
    -1.235000000  2.139082747  0.000000000     0.000000000  0.467490097  0.000000000
     0.000000000  0.000000000  8.090000000     0.000000000  0.000000000  0.123609394

  length of vectors
     2.470000000  2.470000000  8.090000000     0.467490097  0.467490097  0.123609394


 
 k-points in units of 2pi/SCALE and weight: Automatic mesh                          
   0.00000000  0.00000000  0.00000000       0.007
   0.06747638  0.03895751  0.00000000       0.042
   0.13495277  0.07791502  0.00000000       0.042
   0.20242915  0.11687252  0.00000000       0.021
   0.06747638  0.11687252  0.00000000       0.042
   0.13495277  0.15583003  0.00000000       0.083
   0.13495277  0.23374505  0.00000000       0.014
   0.00000000  0.00000000  0.03090235       0.014
   0.06747638  0.03895751  0.03090235       0.083
   0.13495277  0.07791502  0.03090235       0.083
   0.20242915  0.11687252  0.03090235       0.042
   0.06747638  0.11687252  0.03090235       0.083
   0.13495277  0.15583003  0.03090235       0.167
   0.13495277  0.23374505  0.03090235       0.028
   0.00000000  0.00000000  0.06180470       0.007
   0.06747638  0.03895751  0.06180470       0.042
   0.13495277  0.07791502  0.06180470       0.042
   0.20242915  0.11687252  0.06180470       0.021
   0.06747638  0.11687252  0.06180470       0.042
   0.13495277  0.15583003  0.06180470       0.083
   0.13495277  0.23374505  0.06180470       0.014
 
 k-points in reciprocal lattice and weights: Automatic mesh                          
   0.00000000  0.00000000  0.00000000       0.007
   0.16666667 -0.00000000  0.00000000       0.042
   0.33333333 -0.00000000  0.00000000       0.042
   0.50000000 -0.00000000  0.00000000       0.021
   0.16666667  0.16666667  0.00000000       0.042
   0.33333333  0.16666667  0.00000000       0.083
   0.33333333  0.33333333  0.00000000       0.014
   0.00000000  0.00000000  0.25000000       0.014
   0.16666667 -0.00000000  0.25000000       0.083
   0.33333333 -0.00000000  0.25000000       0.083
   0.50000000 -0.00000000  0.25000000       0.042
   0.16666667  0.16666667  0.25000000       0.083
   0.33333333  0.16666667  0.25000000       0.167
   0.33333333  0.33333333  0.25000000       0.028
   0.00000000  0.00000000  0.50000000       0.007
   0.16666667 -0.00000000  0.50000000       0.042
   0.33333333 -0.00000000  0.50000000       0.042
   0.50000000 -0.00000000  0.50000000       0.021
   0.16666667  0.16666667  0.50000000       0.042
   0.33333333  0.16666667  0.50000000       0.083
   0.33333333  0.33333333  0.50000000       0.014
 
 position of ions in fractional coordinates (direct lattice) 
   0.00000000  0.00000000  0.00000000
   0.33333333  0.66666667  0.50000000
 
 position of ions in cartesian coordinates  (Angst):
   0.00000000  0.00000000  0.00000000
   0.00000000  1.42605516  4.04500000
 


--------------------------------------------------------------------------------------------------------


 k-point   1 :   0.0000 0.0000 0.0000  plane waves:     825
 k-point   2 :   0.1667-0.0000 0.0000  plane waves:     837
 k-point   3 :   0.3333-0.0000 0.0000  plane waves:     859
 k-point   4 :   0.5000-0.0000 0.0000  plane waves:     860
 k-point   5 :   0.1667 0.1667 0.0000  plane waves:     850
 k-point   6 :   0.3333 0.1667 0.0000  plane waves:     850
 k-point   7 :   0.3333 0.3333 0.0000  plane waves:     870
 k-point   8 :   0.0000 0.0000 0.2500  plane waves:     813
 k-point   9 :   0.1667-0.0000 0.2500  plane waves:     840
 k-point  10 :   0.3333-0.0000 0.2500  plane waves:     856
 k-point  11 :   0.5000-0.0000 0.2500  plane waves:     862
 k-point  12 :   0.1667 0.1667 0.2500  plane waves:     845
 k-point  13 :   0.3333 0.1667 0.2500  plane waves:     852
 k-point  14 :   0.3333 0.3333 0.2500  plane waves:     858
 k-point  15 :   0.0000 0.0000 0.5000  plane waves:     808
 k-point  16 :   0.1667-0.0000 0.5000  plane waves:     846
 k-point  17 :   0.3333-0.0000 0.5000  plane waves:     852
 k-point  18 :   0.5000-0.0000 0.5000  plane waves:     864
 k-point  19 :   0.1667 0.1667 0.5000  plane waves:     846
 k-point  20 :   0.3333 0.1667 0.5000  plane waves:     842
 k-point  21 :   0.3333 0.3333 0.5000  plane waves:     852

 maximum and minimum number of plane-waves per node :       151      121

 maximum number of plane-waves:       870
 maximum index in each direction: 
   IXMAX=    4   IYMAX=    4   IZMAX=   13
   IXMIN=   -4   IYMIN=   -4   IZMIN=  -14


 parallel 3D FFT for wavefunctions:
    minimum data exchange during FFTs selected (reduces bandwidth)
 parallel 3D FFT for charge:
    minimum data exchange during FFTs selected (reduces bandwidth)


 total amount of memory used by VASP MPI-rank0    32094. kBytes
=======================================================================

   base      :      30000. kBytes
   nonl-proj :        464. kBytes
   fftplans  :        335. kBytes
   grid      :        802. kBytes
   one-center:         31. kBytes
   wavefun   :        462. kBytes
 
     INWAV:  cpu time      0.0000: real time      0.0003
 Broyden mixing: mesh for mixing (old mesh)
   NGX =  9   NGY =  9   NGZ = 27
  (NGX  = 36   NGY  = 36   NGZ  =108)
  gives a total of   2187 points

 initial charge density was supplied:
 charge density of overlapping atoms calculated
 number of electron      18.0000000 magnetization       6.0000000
 keeping initial charge density in first step


--------------------------------------------------------------------------------------------------------


 Maximum index for augmentation-charges         1028 (set IRDMAX)


--------------------------------------------------------------------------------------------------------


 First call to EWALD:  gamma=   0.507
 Maximum number of real-space cells 4x 4x 1
 Maximum number of reciprocal cells 2x 2x 6

    FEWALD:  cpu time      0.0015: real time      0.0015


--------------------------------------- Iteration      1(   1)  ---------------------------------------


    POTLOK:  cpu time      0.0102: real time      0.0104
    SETDIJ:  cpu time      0.0055: real time      0.0055
     EDDAV:  cpu time      0.1464: real time      0.1473
       DOS:  cpu time      0.0011: real time      0.0012
    --------------------------------------------
      LOOP:  cpu time      0.1632: real time      0.1643

 eigenvalue-minimisations  :  1344
 total energy-change (2. order) : 0.7941926E+02  (-0.7242603E+03)
 number of electron      18.0000000 magnetization       6.0000000
 augmentation part       18.0000000 magnetization       6.0000000

 Free energy of the ion-electron system (eV)
  ---------------------------------------------------
  alpha Z        PSCENC =        39.63868225
  Ewald energy   TEWEN  =     -1054.56880693
  -Hartree energ DENC   =      -595.60964207
  -exchange      EXHF   =         0.00000000
  -V(xc)+E(xc)   XCENC  =        33.36921949
  PAW double counting   =      1439.98163886    -1545.88690193
  entropy T*S    EENTRO =        -0.00640233
  eigenvalues    EBANDS =       135.77824300
  atomic energy  EATOM  =      1626.72322989
  Solvation  Ediel_sol  =         0.00000000
  ---------------------------------------------------
  free energy    TOTEN  =        79.41926024 eV

  energy without entropy =       79.42566257  energy(sigma->0) =       79.42139435


--------------------------------------------------------------------------------------------------------




--------------------------------------- Iteration      1(   2)  ---------------------------------------


     EDDAV:  cpu time      0.1403: real time      0.1416
       DOS:  cpu time      0.0009: real time      0.0009
    --------------------------------------------
      LOOP:  cpu time      0.1411: real time      0.1425

 eigenvalue-minimisations  :  1344
 total energy-change (2. order) :-0.8989814E+02  (-0.8302810E+02)
 number of electron      18.0000000 magnetization       6.0000000
 augmentation part       18.0000000 magnetization       6.0000000

 Free energy of the ion-electron system (eV)
  ---------------------------------------------------
  alpha Z        PSCENC =        39.63868225
  Ewald energy   TEWEN  =     -1054.56880693
  -Hartree energ DENC   =      -595.60964207
  -exchange      EXHF   =         0.00000000
  -V(xc)+E(xc)   XCENC  =        33.36921949
  PAW double counting   =      1439.98163886    -1545.88690193
  entropy T*S    EENTRO =        -0.00274784
  eigenvalues    EBANDS =        45.87645185
  atomic energy  EATOM  =      1626.72322989
  Solvation  Ediel_sol  =         0.00000000
  ---------------------------------------------------
  free energy    TOTEN  =       -10.47887642 eV

  energy without entropy =      -10.47612858  energy(sigma->0) =      -10.47796047


--------------------------------------------------------------------------------------------------------




--------------------------------------- Iteration      1(   3)  ---------------------------------------


     EDDAV:  cpu time      0.1675: real time      0.1686
       DOS:  cpu time      0.0008: real time      0.0008
    --------------------------------------------
      LOOP:  cpu time      0.1684: real time      0.1694

 eigenvalue-minimisations  :  1672
 total energy-change (2. order) :-0.2241418E+01  (-0.2209606E+01)
 number of electron      18.0000000 magnetization       6.0000000
 augmentation part       18.0000000 magnetization       6.0000000

 Free energy of the ion-electron system (eV)
  ---------------------------------------------------
  alpha Z        PSCENC =        39.63868225
  Ewald energy   TEWEN  =     -1054.56880693
  -Hartree energ DENC   =      -595.60964207
  -exchange      EXHF   =         0.00000000
  -V(xc)+E(xc)   XCENC  =        33.36921949
  PAW double counting   =      1439.98163886    -1545.88690193
  entropy T*S    EENTRO =        -0.00777715
  eigenvalues    EBANDS =        43.64006302
  atomic energy  EATOM  =      1626.72322989
  Solvation  Ediel_sol  =         0.00000000
  ---------------------------------------------------
  free energy    TOTEN  =       -12.72029457 eV

  energy without entropy =      -12.71251742  energy(sigma->0) =      -12.71770218


--------------------------------------------------------------------------------------------------------




--------------------------------------- Iteration      1(   4)  ---------------------------------------


     EDDAV:  cpu time      0.1724: real time      0.1735
       DOS:  cpu time      0.0009: real time      0.0009
    --------------------------------------------
      LOOP:  cpu time      0.1733: real time      0.1743

 eigenvalue-minimisations  :  1784
 total energy-change (2. order) :-0.3908031E-01  (-0.3907136E-01)
 number of electron      18.0000000 magnetization       6.0000000
 augmentation part       18.0000000 magnetization       6.0000000

 Free energy of the ion-electron system (eV)
  ---------------------------------------------------
  alpha Z        PSCENC =        39.63868225
  Ewald energy   TEWEN  =     -1054.56880693
  -Hartree energ DENC   =      -595.60964207
  -exchange      EXHF   =         0.00000000
  -V(xc)+E(xc)   XCENC  =        33.36921949
  PAW double counting   =      1439.98163886    -1545.88690193
  entropy T*S    EENTRO =        -0.00777913
  eigenvalues    EBANDS =        43.60098468
  atomic energy  EATOM  =      1626.72322989
  Solvation  Ediel_sol  =         0.00000000
  ---------------------------------------------------
  free energy    TOTEN  =       -12.75937488 eV

  energy without entropy =      -12.75159576  energy(sigma->0) =      -12.75678184


--------------------------------------------------------------------------------------------------------




--------------------------------------- Iteration      1(   5)  ---------------------------------------


     EDDAV:  cpu time      0.1624: real time      0.1633
       DOS:  cpu time      0.0008: real time      0.0008
    CHARGE:  cpu time      0.0312: real time      0.0313
    MIXING:  cpu time      0.0004: real time      0.0004
    --------------------------------------------
      LOOP:  cpu time      0.1947: real time      0.1958

 eigenvalue-minimisations  :  1656
 total energy-change (2. order) :-0.3548832E-03  (-0.3548742E-03)
 number of electron      17.9999991 magnetization       5.2034973
 augmentation part        9.0469075 magnetization       4.0100144

 Broyden mixing:
  rms(total) = 0.12742E+01    rms(broyden)= 0.12742E+01
  rms(prec ) = 0.17309E+01
  weight for this iteration     100.00

 Free energy of the ion-electron system (eV)
  ---------------------------------------------------
  alpha Z        PSCENC =        39.63868225
  Ewald energy   TEWEN  =     -1054.56880693
  -Hartree energ DENC   =      -595.60964207
  -exchange      EXHF   =         0.00000000
  -V(xc)+E(xc)   XCENC  =        33.36921949
  PAW double counting   =      1439.98163886    -1545.88690193
  entropy T*S    EENTRO =        -0.00778659
  eigenvalues    EBANDS =        43.60063726
  atomic energy  EATOM  =      1626.72322989
  Solvation  Ediel_sol  =         0.00000000
  ---------------------------------------------------
  free energy    TOTEN  =       -12.75972976 eV

  energy without entropy =      -12.75194317  energy(sigma->0) =      -12.75713423


--------------------------------------------------------------------------------------------------------




--------------------------------------- Iteration      1(   6)  ---------------------------------------


    POTLOK:  cpu time      0.0087: real time      0.0089
    SETDIJ:  cpu time      0.0049: real time      0.0049
     EDDAV:  cpu time      0.1493: real time      0.1501
       DOS:  cpu time      0.0009: real time      0.0009
    CHARGE:  cpu time      0.0295: real time      0.0296
    MIXING:  cpu time      0.0004: real time      0.0004
    --------------------------------------------
      LOOP:  cpu time      0.1937: real time      0.1948

 eigenvalue-minimisations  :  1504
 total energy-change (2. order) : 0.8645858E-01  (-0.2299956E+01)
 number of electron      17.9999990 magnetization       4.7926871
 augmentation part       11.3324188 magnetization       3.8738404

 Broyden mixing:
  rms(total) = 0.13156E+01    rms(broyden)= 0.13156E+01
  rms(prec ) = 0.15672E+01
  weight for this iteration     100.00

 eigenvalues of (default mixing * dielectric matrix)
  average eigenvalue GAMMA=   0.4098
  0.4098

 Free energy of the ion-electron system (eV)
  ---------------------------------------------------
  alpha Z        PSCENC =        39.63868225
  Ewald energy   TEWEN  =     -1054.56880693
  -Hartree energ DENC   =      -548.96105915
  -exchange      EXHF   =         0.00000000
  -V(xc)+E(xc)   XCENC  =        30.99163834
  PAW double counting   =      1469.92696046    -1564.04307069
  entropy T*S    EENTRO =         0.00815223
  eigenvalues    EBANDS =       -12.38899757
  atomic energy  EATOM  =      1626.72322989
  Solvation  Ediel_sol  =         0.00000000
  ---------------------------------------------------
  free energy    TOTEN  =       -12.67327118 eV

  energy without entropy =      -12.68142341  energy(sigma->0) =      -12.67598859


--------------------------------------------------------------------------------------------------------




--------------------------------------- Iteration      1(   7)  ---------------------------------------


    POTLOK:  cpu time      0.0084: real time      0.0086
    SETDIJ:  cpu time      0.0048: real time      0.0049
     EDDAV:  cpu time      0.1541: real time      0.1549
       DOS:  cpu time      0.0009: real time      0.0009
    CHARGE:  cpu time      0.0284: real time      0.0285
    MIXING:  cpu time      0.0004: real time      0.0004
    --------------------------------------------
      LOOP:  cpu time      0.1971: real time      0.1982

 eigenvalue-minimisations  :  1568
 total energy-change (2. order) : 0.1484881E+01  (-0.4377113E+00)
 number of electron      17.9999990 magnetization       4.4365348
 augmentation part       10.3495934 magnetization       3.5417511

 Broyden mixing:
  rms(total) = 0.34186E+00    rms(broyden)= 0.34183E+00
  rms(prec ) = 0.38503E+00
  weight for this iteration     100.00

 eigenvalues of (default mixing * dielectric matrix)
  average eigenvalue GAMMA=   0.6426
  0.7943  0.4908

 Free energy of the ion-electron system (eV)
  ---------------------------------------------------
  alpha Z        PSCENC =        39.63868225
  Ewald energy   TEWEN  =     -1054.56880693
  -Hartree energ DENC   =      -568.10758807
  -exchange      EXHF   =         0.00000000
  -V(xc)+E(xc)   XCENC  =        31.44884785
  PAW double counting   =      1529.27015801    -1631.27692412
  entropy T*S    EENTRO =        -0.00806888
  eigenvalues    EBANDS =        15.69208027
  atomic energy  EATOM  =      1626.72322989
  Solvation  Ediel_sol  =         0.00000000
  ---------------------------------------------------
  free energy    TOTEN  =       -11.18838974 eV

  energy without entropy =      -11.18032086  energy(sigma->0) =      -11.18570011


--------------------------------------------------------------------------------------------------------




--------------------------------------- Iteration      1(   8)  ---------------------------------------


    POTLOK:  cpu time      0.0084: real time      0.0086
    SETDIJ:  cpu time      0.0048: real time      0.0048
     EDDAV:  cpu time      0.1639: real time      0.1647
       DOS:  cpu time      0.0009: real time      0.0009
    CHARGE:  cpu time      0.0375: real time      0.0376
    MIXING:  cpu time      0.0007: real time      0.0008
    --------------------------------------------
      LOOP:  cpu time      0.2162: real time      0.2174

 eigenvalue-minimisations  :  1680
 total energy-change (2. order) :-0.2843955E-01  (-0.1773357E-01)
 number of electron      17.9999990 magnetization       4.1319364
 augmentation part       10.2052776 magnetization       3.3507626

 Broyden mixing:
  rms(total) = 0.18719E+00    rms(broyden)= 0.18716E+00
  rms(prec ) = 0.22749E+00
  weight for this iteration     100.00

 eigenvalues of (default mixing * dielectric matrix)
  average eigenvalue GAMMA=   0.8338
  1.3654  0.5680  0.5680

 Free energy of the ion-electron system (eV)
  ---------------------------------------------------
  alpha Z        PSCENC =        39.63868225
  Ewald energy   TEWEN  =     -1054.56880693
  -Hartree energ DENC   =      -570.30931999
  -exchange      EXHF   =         0.00000000
  -V(xc)+E(xc)   XCENC  =        31.57161167
  PAW double counting   =      1565.79645766    -1669.79199225
  entropy T*S    EENTRO =        -0.01104018
  eigenvalues    EBANDS =        19.73434860
  atomic energy  EATOM  =      1626.72322989
  Solvation  Ediel_sol  =         0.00000000
  ---------------------------------------------------
  free energy    TOTEN  =       -11.21682929 eV

  energy without entropy =      -11.20578911  energy(sigma->0) =      -11.21314923


--------------------------------------------------------------------------------------------------------




--------------------------------------- Iteration      1(   9)  ---------------------------------------


    POTLOK:  cpu time      0.0098: real time      0.0100
    SETDIJ:  cpu time      0.0051: real time      0.0051
     EDDAV:  cpu time      0.1602: real time      0.1610
       DOS:  cpu time      0.0009: real time      0.0009
    CHARGE:  cpu time      0.0290: real time      0.0291
    MIXING:  cpu time      0.0005: real time      0.0005
    --------------------------------------------
      LOOP:  cpu time      0.2054: real time      0.2065

 eigenvalue-minimisations  :  1624
 total energy-change (2. order) :-0.2043249E-01  (-0.8355220E-02)
 number of electron      17.9999990 magnetization       4.1167909
 augmentation part       10.2181916 magnetization       3.4246145

 Broyden mixing:
  rms(total) = 0.10521E+00    rms(broyden)= 0.10515E+00
  rms(prec ) = 0.12570E+00
  weight for this iteration     100.00

 eigenvalues of (default mixing * dielectric matrix)
  average eigenvalue GAMMA=   0.9090
  1.5411  0.9100  0.5924  0.5924

 Free energy of the ion-electron system (eV)
  ---------------------------------------------------
  alpha Z        PSCENC =        39.63868225
  Ewald energy   TEWEN  =     -1054.56880693
  -Hartree energ DENC   =      -569.07332645
  -exchange      EXHF   =         0.00000000
  -V(xc)+E(xc)   XCENC  =        31.53705219
  PAW double counting   =      1599.09094960    -1704.16706020
  entropy T*S    EENTRO =        -0.00657280
  eigenvalues    EBANDS =        19.58859068
  atomic energy  EATOM  =      1626.72322989
  Solvation  Ediel_sol  =         0.00000000
  ---------------------------------------------------
  free energy    TOTEN  =       -11.23726178 eV

  energy without entropy =      -11.23068898  energy(sigma->0) =      -11.23507084


--------------------------------------------------------------------------------------------------------




--------------------------------------- Iteration      1(  10)  ---------------------------------------


    POTLOK:  cpu time      0.0085: real time      0.0087
    SETDIJ:  cpu time      0.0049: real time      0.0049
     EDDAV:  cpu time      0.1589: real time      0.1597
       DOS:  cpu time      0.0009: real time      0.0009
    CHARGE:  cpu time      0.0286: real time      0.0287
    MIXING:  cpu time      0.0004: real time      0.0004
    --------------------------------------------
      LOOP:  cpu time      0.2022: real time      0.2033

 eigenvalue-minimisations  :  1616
 total energy-change (2. order) :-0.2473499E-02  (-0.1770945E-02)
 number of electron      17.9999990 magnetization       4.1423364
 augmentation part       10.2506027 magnetization       3.4562212

 Broyden mixing:
  rms(total) = 0.72326E-01    rms(broyden)= 0.72288E-01
  rms(prec ) = 0.84925E-01
  weight for this iteration     100.00

 eigenvalues of (default mixing * dielectric matrix)
  average eigenvalue GAMMA=   0.9914
  1.8532  0.9683  0.9683  0.5837  0.5837

 Free energy of the ion-electron system (eV)
  ---------------------------------------------------
  alpha Z        PSCENC =        39.63868225
  Ewald energy   TEWEN  =     -1054.56880693
  -Hartree energ DENC   =      -567.93270936
  -exchange      EXHF   =         0.00000000
  -V(xc)+E(xc)   XCENC  =        31.49998014
  PAW double counting   =      1605.15116123    -1710.41772574
  entropy T*S    EENTRO =        -0.00281491
  eigenvalues    EBANDS =        18.66926815
  atomic energy  EATOM  =      1626.72322989
  Solvation  Ediel_sol  =         0.00000000
  ---------------------------------------------------
  free energy    TOTEN  =       -11.23973528 eV

  energy without entropy =      -11.23692037  energy(sigma->0) =      -11.23879697


--------------------------------------------------------------------------------------------------------




--------------------------------------- Iteration      1(  11)  ---------------------------------------


    POTLOK:  cpu time      0.0083: real time      0.0085
    SETDIJ:  cpu time      0.0048: real time      0.0048
     EDDAV:  cpu time      0.1633: real time      0.1642
       DOS:  cpu time      0.0009: real time      0.0009
    CHARGE:  cpu time      0.0286: real time      0.0287
    MIXING:  cpu time      0.0004: real time      0.0004
    --------------------------------------------
      LOOP:  cpu time      0.2065: real time      0.2076

 eigenvalue-minimisations  :  1680
 total energy-change (2. order) : 0.3853022E-02  (-0.3191775E-03)
 number of electron      17.9999990 magnetization       4.1280861
 augmentation part       10.2539479 magnetization       3.4398374

 Broyden mixing:
  rms(total) = 0.33879E-01    rms(broyden)= 0.33849E-01
  rms(prec ) = 0.41688E-01
  weight for this iteration     100.00

 eigenvalues of (default mixing * dielectric matrix)
  average eigenvalue GAMMA=   1.0724
  2.2651  1.0931  1.0931  0.5679  0.7076  0.7076

 Free energy of the ion-electron system (eV)
  ---------------------------------------------------
  alpha Z        PSCENC =        39.63868225
  Ewald energy   TEWEN  =     -1054.56880693
  -Hartree energ DENC   =      -567.40218652
  -exchange      EXHF   =         0.00000000
  -V(xc)+E(xc)   XCENC  =        31.48571816
  PAW double counting   =      1607.62119458    -1713.16947891
  entropy T*S    EENTRO =        -0.00549103
  eigenvalues    EBANDS =        18.44125627
  atomic energy  EATOM  =      1626.72322989
  Solvation  Ediel_sol  =         0.00000000
  ---------------------------------------------------
  free energy    TOTEN  =       -11.23588225 eV

  energy without entropy =      -11.23039122  energy(sigma->0) =      -11.23405191


--------------------------------------------------------------------------------------------------------




--------------------------------------- Iteration      1(  12)  ---------------------------------------


    POTLOK:  cpu time      0.0084: real time      0.0086
    SETDIJ:  cpu time      0.0049: real time      0.0050
     EDDAV:  cpu time      0.1557: real time      0.1565
       DOS:  cpu time      0.0009: real time      0.0009
    CHARGE:  cpu time      0.0291: real time      0.0292
    MIXING:  cpu time      0.0004: real time      0.0004
    --------------------------------------------
      LOOP:  cpu time      0.1995: real time      0.2006

 eigenvalue-minimisations  :  1584
 total energy-change (2. order) : 0.5290994E-03  (-0.2521600E-03)
 number of electron      17.9999990 magnetization       4.1450146
 augmentation part       10.2700504 magnetization       3.4581714

 Broyden mixing:
  rms(total) = 0.11662E-01    rms(broyden)= 0.11654E-01
  rms(prec ) = 0.12747E-01
  weight for this iteration     100.00

 eigenvalues of (default mixing * dielectric matrix)
  average eigenvalue GAMMA=   1.0664
  2.3329  1.1693  1.1693  0.5861  0.6131  0.7972  0.7972

 Free energy of the ion-electron system (eV)
  ---------------------------------------------------
  alpha Z        PSCENC =        39.63868225
  Ewald energy   TEWEN  =     -1054.56880693
  -Hartree energ DENC   =      -566.71725509
  -exchange      EXHF   =         0.00000000
  -V(xc)+E(xc)   XCENC  =        31.47093626
  PAW double counting   =      1612.97046605    -1718.77679770
  entropy T*S    EENTRO =        -0.00528787
  eigenvalues    EBANDS =        18.02947999
  atomic energy  EATOM  =      1626.72322989
  Solvation  Ediel_sol  =         0.00000000
  ---------------------------------------------------
  free energy    TOTEN  =       -11.23535315 eV

  energy without entropy =      -11.23006529  energy(sigma->0) =      -11.23359053


--------------------------------------------------------------------------------------------------------




--------------------------------------- Iteration      1(  13)  ---------------------------------------


    POTLOK:  cpu time      0.0083: real time      0.0085
    SETDIJ:  cpu time      0.0048: real time      0.0048
     EDDAV:  cpu time      0.1535: real time      0.1543
       DOS:  cpu time      0.0009: real time      0.0009
    CHARGE:  cpu time      0.0290: real time      0.0291
    MIXING:  cpu time      0.0005: real time      0.0005
    --------------------------------------------
      LOOP:  cpu time      0.1971: real time      0.1982

 eigenvalue-minimisations  :  1544
 total energy-change (2. order) :-0.2854346E-03  (-0.2497125E-04)
 number of electron      17.9999990 magnetization       4.1599303
 augmentation part       10.2722641 magnetization       3.4689148

 Broyden mixing:
  rms(total) = 0.66728E-02    rms(broyden)= 0.66613E-02
  rms(prec ) = 0.73366E-02
  weight for this iteration     100.00

 eigenvalues of (default mixing * dielectric matrix)
  average eigenvalue GAMMA=   1.1063
  2.3313  1.6097  1.0212  1.0212  0.9621  0.6648  0.6648  0.5748

 Free energy of the ion-electron system (eV)
  ---------------------------------------------------
  alpha Z        PSCENC =        39.63868225
  Ewald energy   TEWEN  =     -1054.56880693
  -Hartree energ DENC   =      -566.60550831
  -exchange      EXHF   =         0.00000000
  -V(xc)+E(xc)   XCENC  =        31.45956548
  PAW double counting   =      1613.07393680    -1718.94652163
  entropy T*S    EENTRO =        -0.00495919
  eigenvalues    EBANDS =        17.99474306
  atomic energy  EATOM  =      1626.72322989
  Solvation  Ediel_sol  =         0.00000000
  ---------------------------------------------------
  free energy    TOTEN  =       -11.23563859 eV

  energy without entropy =      -11.23067940  energy(sigma->0) =      -11.23398552


--------------------------------------------------------------------------------------------------------




--------------------------------------- Iteration      1(  14)  ---------------------------------------


    POTLOK:  cpu time      0.0083: real time      0.0085
    SETDIJ:  cpu time      0.0050: real time      0.0050
     EDDAV:  cpu time      0.1587: real time      0.1595
       DOS:  cpu time      0.0009: real time      0.0009
    CHARGE:  cpu time      0.0290: real time      0.0291
    MIXING:  cpu time      0.0005: real time      0.0005
    --------------------------------------------
      LOOP:  cpu time      0.2024: real time      0.2035

 eigenvalue-minimisations  :  1624
 total energy-change (2. order) :-0.1272397E-03  (-0.1938688E-04)
 number of electron      17.9999990 magnetization       4.1603970
 augmentation part       10.2745384 magnetization       3.4644781

 Broyden mixing:
  rms(total) = 0.31445E-02    rms(broyden)= 0.31306E-02
  rms(prec ) = 0.34589E-02
  weight for this iteration     100.00

 eigenvalues of (default mixing * dielectric matrix)
  average eigenvalue GAMMA=   1.1397
  2.2429  2.2429  1.0506  1.0506  0.9078  0.9078  0.5750  0.6399  0.6399

 Free energy of the ion-electron system (eV)
  ---------------------------------------------------
  alpha Z        PSCENC =        39.63868225
  Ewald energy   TEWEN  =     -1054.56880693
  -Hartree energ DENC   =      -566.52439518
  -exchange      EXHF   =         0.00000000
  -V(xc)+E(xc)   XCENC  =        31.45235709
  PAW double counting   =      1612.65241132    -1718.56347854
  entropy T*S    EENTRO =        -0.00476158
  eigenvalues    EBANDS =        17.95899586
  atomic energy  EATOM  =      1626.72322989
  Solvation  Ediel_sol  =         0.00000000
  ---------------------------------------------------
  free energy    TOTEN  =       -11.23576583 eV

  energy without entropy =      -11.23100425  energy(sigma->0) =      -11.23417863


--------------------------------------------------------------------------------------------------------




--------------------------------------- Iteration      1(  15)  ---------------------------------------


    POTLOK:  cpu time      0.0083: real time      0.0085
    SETDIJ:  cpu time      0.0048: real time      0.0049
     EDDAV:  cpu time      0.1610: real time      0.1618
       DOS:  cpu time      0.0009: real time      0.0009
    CHARGE:  cpu time      0.0290: real time      0.0291
    MIXING:  cpu time      0.0005: real time      0.0005
    --------------------------------------------
      LOOP:  cpu time      0.2045: real time      0.2056

 eigenvalue-minimisations  :  1512
 total energy-change (2. order) :-0.7187070E-05  (-0.1729733E-05)
 number of electron      17.9999990 magnetization       4.1571138
 augmentation part       10.2740239 magnetization       3.4607996

 Broyden mixing:
  rms(total) = 0.18407E-02    rms(broyden)= 0.18370E-02
  rms(prec ) = 0.19786E-02
  weight for this iteration     100.00

 eigenvalues of (default mixing * dielectric matrix)
  average eigenvalue GAMMA=   1.2310
  2.8719  2.2620  1.0578  1.0578  1.2212  1.2212  0.7750  0.5729  0.6350  0.6350

 Free energy of the ion-electron system (eV)
  ---------------------------------------------------
  alpha Z        PSCENC =        39.63868225
  Ewald energy   TEWEN  =     -1054.56880693
  -Hartree energ DENC   =      -566.52985594
  -exchange      EXHF   =         0.00000000
  -V(xc)+E(xc)   XCENC  =        31.45088247
  PAW double counting   =      1612.51139635    -1718.42996982
  entropy T*S    EENTRO =        -0.00469946
  eigenvalues    EBANDS =        17.97336817
  atomic energy  EATOM  =      1626.72322989
  Solvation  Ediel_sol  =         0.00000000
  ---------------------------------------------------
  free energy    TOTEN  =       -11.23577302 eV

  energy without entropy =      -11.23107356  energy(sigma->0) =      -11.23420653


--------------------------------------------------------------------------------------------------------




--------------------------------------- Iteration      1(  16)  ---------------------------------------


    POTLOK:  cpu time      0.0084: real time      0.0085
    SETDIJ:  cpu time      0.0049: real time      0.0049
     EDDAV:  cpu time      0.1455: real time      0.1463
       DOS:  cpu time      0.0009: real time      0.0009
    CHARGE:  cpu time      0.0291: real time      0.0291
    MIXING:  cpu time      0.0005: real time      0.0005
    --------------------------------------------
      LOOP:  cpu time      0.1892: real time      0.1903

 eigenvalue-minimisations  :  1456
 total energy-change (2. order) :-0.9968627E-05  (-0.7805459E-06)
 number of electron      17.9999990 magnetization       4.1566608
 augmentation part       10.2740798 magnetization       3.4610156

 Broyden mixing:
  rms(total) = 0.65324E-03    rms(broyden)= 0.64337E-03
  rms(prec ) = 0.73126E-03
  weight for this iteration     100.00

 eigenvalues of (default mixing * dielectric matrix)
  average eigenvalue GAMMA=   1.2526
  3.1737  2.2920  1.3806  1.3806  1.0513  1.0513  0.8100  0.8100  0.5714  0.6291
  0.6291

 Free energy of the ion-electron system (eV)
  ---------------------------------------------------
  alpha Z        PSCENC =        39.63868225
  Ewald energy   TEWEN  =     -1054.56880693
  -Hartree energ DENC   =      -566.52772693
  -exchange      EXHF   =         0.00000000
  -V(xc)+E(xc)   XCENC  =        31.45149731
  PAW double counting   =      1612.55978016    -1718.47875676
  entropy T*S    EENTRO =        -0.00457970
  eigenvalues    EBANDS =        17.97089772
  atomic energy  EATOM  =      1626.72322989
  Solvation  Ediel_sol  =         0.00000000
  ---------------------------------------------------
  free energy    TOTEN  =       -11.23578298 eV

  energy without entropy =      -11.23120328  energy(sigma->0) =      -11.23425642


--------------------------------------------------------------------------------------------------------




--------------------------------------- Iteration      1(  17)  ---------------------------------------


    POTLOK:  cpu time      0.0083: real time      0.0085
    SETDIJ:  cpu time      0.0048: real time      0.0048
     EDDAV:  cpu time      0.1345: real time      0.1352
       DOS:  cpu time      0.0009: real time      0.0009
    --------------------------------------------
      LOOP:  cpu time      0.1485: real time      0.1494

 eigenvalue-minimisations  :  1272
 total energy-change (2. order) :-0.8473623E-06  (-0.9591579E-07)
 number of electron      17.9999990 magnetization       4.1566608
 augmentation part       10.2740798 magnetization       3.4610156

 Free energy of the ion-electron system (eV)
  ---------------------------------------------------
  alpha Z        PSCENC =        39.63868225
  Ewald energy   TEWEN  =     -1054.56880693
  -Hartree energ DENC   =      -566.53603525
  -exchange      EXHF   =         0.00000000
  -V(xc)+E(xc)   XCENC  =        31.45215102
  PAW double counting   =      1612.52892821    -1718.44357467
  entropy T*S    EENTRO =        -0.00454379
  eigenvalues    EBANDS =        17.97418543
  atomic energy  EATOM  =      1626.72322989
  Solvation  Ediel_sol  =         0.00000000
  ---------------------------------------------------
  free energy    TOTEN  =       -11.23578383 eV

  energy without entropy =      -11.23124004  energy(sigma->0) =      -11.23426924


--------------------------------------------------------------------------------------------------------




 average (electrostatic) potential at core
  the test charge radii are     1.0452
  (the norm of the test charge is              1.0000)
       1 -85.5624       2 -85.5624
 
 
 
 E-fermi :   3.0195     XC(G=0):  -9.3944     alpha+bet : -8.9999

 Fermi energy:         3.0194717817

 spin component 1

 k-point     1 :       0.0000    0.0000    0.0000
  band No.  band energies     occupation 
      1      -3.0051      1.00000
      2      -2.5452      1.00000
      3      -0.2942      1.00000
      4       0.7168      1.00000
      5       0.7168      1.00000
      6       0.7176      1.00000
      7       0.7176      1.00000
      8       0.7294      1.00000
      9       1.4224      1.00000
     10       1.4224      1.00000
     11       1.4253      1.00000
     12       1.4253      1.00000
     13       2.1353      1.00000
     14       6.4117     -0.00000
     15      10.8437      0.00000
     16      18.7998      0.00000

 k-point     2 :       0.1667   -0.0000    0.0000
  band No.  band energies     occupation 
      1      -2.0398      1.00000
      2      -1.6493      1.00000
      3      -0.0024      1.00000
      4       0.4782      1.00000
      5       0.4875      1.00000
      6       0.5218      1.00000
      7       0.8015      1.00000
      8       0.9941      1.00000
      9       1.1264      1.00000
     10       1.1273      1.00000
     11       1.3419      1.00000
     12       1.3481      1.00000
     13       3.7268     -0.00000
     14       7.8465     -0.00000
     15      11.4694      0.00000
     16      19.9422      0.00000

 k-point     3 :       0.3333   -0.0000    0.0000
  band No.  band energies     occupation 
      1      -0.9050      1.00000
      2      -0.8561      1.00000
      3      -0.2009      1.00000
      4      -0.0410      1.00000
      5       0.6190      1.00000
      6       0.7839      1.00000
      7       1.1839      1.00000
      8       1.1947      1.00000
      9       1.7698      1.00000
     10       2.0246      1.00000
     11       2.0251      1.00000
     12       2.7019      1.02362
     13       6.6988     -0.00000
     14      11.0722      0.00000
     15      13.0111      0.00000
     16      14.2158      0.00000

 k-point     4 :       0.5000   -0.0000    0.0000
  band No.  band energies     occupation 
      1      -1.0445      1.00000
      2      -1.0416      1.00000
      3      -0.4432      1.00000
      4      -0.3765      1.00000
      5       0.9347      1.00000
      6       1.0294      1.00000
      7       1.1062      1.00000
      8       1.1188      1.00000
      9       2.5234      1.00126
     10       2.5234      1.00126
     11       5.2371     -0.00000
     12       5.5907     -0.00000
     13       9.2186      0.00000
     14      10.0374      0.00000
     15      10.4405      0.00000
     16      11.5766      0.00000

 k-point     5 :       0.1667    0.1667    0.0000
  band No.  band energies     occupation 
      1      -0.5303      1.00000
      2      -0.3941      1.00000
      3       0.0141      1.00000
      4       0.1053      1.00000
      5       0.1093      1.00000
      6       0.2228      1.00000
      7       0.5143      1.00000
      8       1.1277      1.00000
      9       1.1355      1.00000
     10       1.2199      1.00000
     11       2.1865      1.00000
     12       2.5762      1.00374
     13       5.8017     -0.00000
     14      10.1490      0.00000
     15      12.7758      0.00000
     16      18.2678      0.00000

 k-point     6 :       0.3333    0.1667    0.0000
  band No.  band energies     occupation 
      1      -0.4745      1.00000
      2      -0.4681      1.00000
      3      -0.2420      1.00000
      4      -0.1536      1.00000
      5       0.8262      1.00000
      6       0.8385      1.00000
      7       0.8521      1.00000
      8       0.8758      1.00000
      9       1.3597      1.00000
     10       1.5219      1.00000
     11       5.1580     -0.00000
     12       5.9777     -0.00000
     13       9.4002      0.00000
     14      11.3242      0.00000
     15      12.3488      0.00000
     16      13.4040      0.00000

 k-point     7 :       0.3333    0.3333    0.0000
  band No.  band energies     occupation 
      1       0.1737      1.00000
      2       0.2104      1.00000
      3       0.2104      1.00000
      4       0.2493      1.00000
      5       0.4436      1.00000
      6       0.4589      1.00000
      7       0.4589      1.00000
      8       0.4800      1.00000
      9       0.9637      1.00000
     10       0.9637      1.00000
     11       9.6825      0.00000
     12       9.9376      0.00000
     13       9.9376      0.00000
     14      10.5889      0.00000
     15      12.0414      0.00000
     16      12.0414      0.00000

 k-point     8 :       0.0000    0.0000    0.2500
  band No.  band energies     occupation 
      1      -2.9404      1.00000
      2      -2.6145      1.00000
      3      -0.2288      1.00000
      4       0.3876      1.00000
      5       0.7169      1.00000
      6       0.7169      1.00000
      7       0.7176      1.00000
      8       0.7176      1.00000
      9       1.4229      1.00000
     10       1.4229      1.00000
     11       1.4249      1.00000
     12       1.4249      1.00000
     13       2.8059      1.03082
     14       5.5792     -0.00000
     15      11.9447      0.00000
     16      16.8515      0.00000

 k-point     9 :       0.1667   -0.0000    0.2500
  band No.  band energies     occupation 
      1      -1.9820      1.00000
      2      -1.7047      1.00000
      3       0.0484      1.00000
      4       0.4144      1.00000
      5       0.4872      1.00000
      6       0.4891      1.00000
      7       0.8083      1.00000
      8       0.9105      1.00000
      9       1.1266      1.00000
     10       1.1272      1.00000
     11       1.3428      1.00000
     12       1.3472      1.00000
     13       4.2285     -0.00000
     14       6.9127     -0.00000
     15      12.6896      0.00000
     16      17.7617      0.00000

 k-point    10 :       0.3333   -0.0000    0.2500
  band No.  band energies     occupation 
      1      -0.8978      1.00000
      2      -0.8633      1.00000
      3      -0.1835      1.00000
      4      -0.0734      1.00000
      5       0.6591      1.00000
      6       0.7714      1.00000
      7       1.1855      1.00000
      8       1.1931      1.00000
      9       1.8634      1.00000
     10       2.0247      1.00000
     11       2.0250      1.00000
     12       2.5065      1.00086
     13       7.1677     -0.00000
     14       9.9000      0.00000
     15      13.9194      0.00000
     16      14.3960      0.00000

 k-point    11 :       0.5000   -0.0000    0.2500
  band No.  band energies     occupation 
      1      -1.0443      1.00000
      2      -1.0421      1.00000
      3      -0.4348      1.00000
      4      -0.3877      1.00000
      5       0.9516      1.00000
      6       1.0187      1.00000
      7       1.1080      1.00000
      8       1.1169      1.00000
      9       2.5234      1.00126
     10       2.5234      1.00126
     11       5.2796     -0.00000
     12       5.5293     -0.00000
     13       9.2210      0.00000
     14       9.6282      0.00000
     15      11.0723      0.00000
     16      11.7719      0.00000

 k-point    12 :       0.1667    0.1667    0.2500
  band No.  band energies     occupation 
      1      -0.5087      1.00000
      2      -0.4126      1.00000
      3       0.0321      1.00000
      4       0.1059      1.00000
      5       0.1089      1.00000
      6       0.1639      1.00000
      7       0.6384      1.00000
      8       1.1222      1.00000
      9       1.1322      1.00000
     10       1.1344      1.00000
     11       2.2107      1.00000
     12       2.4609      1.00028
     13       6.2841     -0.00000
     14       9.0367      0.00000
     15      14.1635      0.00000
     16      18.3458      0.00000

 k-point    13 :       0.3333    0.1667    0.2500
  band No.  band energies     occupation 
      1      -0.4739      1.00000
      2      -0.4695      1.00000
      3      -0.2305      1.00000
      4      -0.1684      1.00000
      5       0.8276      1.00000
      6       0.8442      1.00000
      7       0.8521      1.00000
      8       0.8754      1.00000
      9       1.3829      1.00000
     10       1.4982      1.00000
     11       5.2414     -0.00000
     12       5.8021     -0.00000
     13       9.8327      0.00000
     14      11.3643      0.00000
     15      12.1044      0.00000
     16      12.6655      0.00000

 k-point    14 :       0.3333    0.3333    0.2500
  band No.  band energies     occupation 
      1       0.1836      1.00000
      2       0.2090      1.00000
      3       0.2090      1.00000
      4       0.2367      1.00000
      5       0.4506      1.00000
      6       0.4601      1.00000
      7       0.4601      1.00000
      8       0.4759      1.00000
      9       0.9644      1.00000
     10       0.9644      1.00000
     11       9.7869      0.00000
     12       9.9628      0.00000
     13       9.9628      0.00000
     14      10.4156      0.00000
     15      11.7924      0.00000
     16      11.7924      0.00000

 k-point    15 :       0.0000    0.0000    0.5000
  band No.  band energies     occupation 
      1      -2.7798      1.00000
      2      -2.7798      1.00000
      3      -0.0117      1.00000
      4      -0.0117      1.00000
      5       0.7172      1.00000
      6       0.7172      1.00000
      7       0.7172      1.00000
      8       0.7172      1.00000
      9       1.4240      1.00000
     10       1.4240      1.00000
     11       1.4240      1.00000
     12       1.4240      1.00000
     13       4.1191     -0.00000
     14       4.1191     -0.00000
     15      14.2108      0.00000
     16      14.2108      0.00000

 k-point    16 :       0.1667   -0.0000    0.5000
  band No.  band energies     occupation 
      1      -1.8422      1.00000
      2      -1.8422      1.00000
      3       0.2040      1.00000
      4       0.2040      1.00000
      5       0.4869      1.00000
      6       0.4869      1.00000
      7       0.8352      1.00000
      8       0.8352      1.00000
      9       1.1268      1.00000
     10       1.1268      1.00000
     11       1.3450      1.00000
     12       1.3450      1.00000
     13       5.4300     -0.00000
     14       5.4300     -0.00000
     15      15.0467      0.00000
     16      15.0467      0.00000

 k-point    17 :       0.3333   -0.0000    0.5000
  band No.  band energies     occupation 
      1      -0.8806      1.00000
      2      -0.8806      1.00000
      3      -0.1353      1.00000
      4      -0.1353      1.00000
      5       0.7283      1.00000
      6       0.7283      1.00000
      7       1.1893      1.00000
      8       1.1893      1.00000
      9       2.0248      1.00000
     10       2.0248      1.00000
     11       2.1384      1.00000
     12       2.1384      1.00000
     13       8.3468     -0.00000
     14       8.3468     -0.00000
     15      14.3840      0.00000
     16      14.3840      0.00000

 k-point    18 :       0.5000   -0.0000    0.5000
  band No.  band energies     occupation 
      1      -1.0434      1.00000
      2      -1.0434      1.00000
      3      -0.4125      1.00000
      4      -0.4125      1.00000
      5       0.9882      1.00000
      6       0.9882      1.00000
      7       1.1125      1.00000
      8       1.1125      1.00000
      9       2.5234      1.00126
     10       2.5234      1.00126
     11       5.3950     -0.00000
     12       5.3950     -0.00000
     13       9.3209      0.00000
     14       9.3209      0.00000
     15      11.7837      0.00000
     16      11.7837      0.00000

 k-point    19 :       0.1667    0.1667    0.5000
  band No.  band energies     occupation 
      1      -0.4591      1.00000
      2      -0.4591      1.00000
      3       0.0838      1.00000
      4       0.0838      1.00000
      5       0.1079      1.00000
      6       0.1079      1.00000
      7       0.8887      1.00000
      8       0.8887      1.00000
      9       1.1317      1.00000
     10       1.1317      1.00000
     11       2.2969      1.00000
     12       2.2969      1.00000
     13       7.4813     -0.00000
     14       7.4813     -0.00000
     15      16.5240      0.00000
     16      16.5240      0.00000

 k-point    20 :       0.3333    0.1667    0.5000
  band No.  band energies     occupation 
      1      -0.4721      1.00000
      2      -0.4721      1.00000
      3      -0.2011      1.00000
      4      -0.2011      1.00000
      5       0.8353      1.00000
      6       0.8353      1.00000
      7       0.8676      1.00000
      8       0.8676      1.00000
      9       1.4404      1.00000
     10       1.4404      1.00000
     11       5.4804     -0.00000
     12       5.4804     -0.00000
     13      10.8335      0.00000
     14      10.8335      0.00000
     15      11.9626      0.00000
     16      11.9626      0.00000

 k-point    21 :       0.3333    0.3333    0.5000
  band No.  band energies     occupation 
      1       0.2075      1.00000
      2       0.2075      1.00000
      3       0.2087      1.00000
      4       0.2087      1.00000
      5       0.4613      1.00000
      6       0.4613      1.00000
      7       0.4646      1.00000
      8       0.4646      1.00000
      9       0.9652      1.00000
     10       0.9652      1.00000
     11       9.9904      0.00000
     12       9.9904      0.00000
     13      10.0694      0.00000
     14      10.0694      0.00000
     15      11.6073      0.00000
     16      11.6073      0.00000
 Fermi energy:         3.0194717817

 spin component 2

 k-point     1 :       0.0000    0.0000    0.0000
  band No.  band energies     occupation 
      1      -2.7746      1.00000
      2      -2.1309      1.00000
      3       1.4934      1.00000
      4       2.1810      1.00000
      5       2.5673      1.00315
      6       2.5673      1.00315
      7       2.5685      1.00323
      8       2.5685      1.00323
      9       2.7026      1.02380
     10       3.8468     -0.00000
     11       3.8468     -0.00000
     12       3.8507     -0.00000
     13       3.8507     -0.00000
     14       6.7004     -0.00000
     15      11.1973      0.00000
     16      18.7852      0.00000

 k-point     2 :       0.1667   -0.0000    0.0000
  band No.  band energies     occupation 
      1      -1.7808      1.00000
      2      -1.1430      1.00000
      3       1.8476      1.00000
      4       1.9865      1.00000
      5       2.2488      1.00000
      6       2.2654      1.00000
      7       2.9139      0.88507
      8       2.9465      0.78712
      9       3.0245      0.47883
     10       3.0258      0.47329
     11       3.7506     -0.00000
     12       3.7593     -0.00000
     13       4.6731     -0.00000
     14       8.3929     -0.00000
     15      11.7374      0.00000
     16      19.9757      0.00000

 k-point     3 :       0.3333   -0.0000    0.0000
  band No.  band energies     occupation 
      1       0.1790      1.00000
      2       0.4043      1.00000
      3       1.6248      1.00000
      4       1.9689      1.00000
      5       2.3890      1.00004
      6       2.7636      1.03503
      7       2.8435      1.00771
      8       3.5374     -0.00077
      9       3.5627     -0.00042
     10       3.5780     -0.00028
     11       4.0423     -0.00000
     12       4.0431     -0.00000
     13       7.1692     -0.00000
     14      11.6869      0.00000
     15      13.1938      0.00000
     16      14.7125      0.00000

 k-point     4 :       0.5000   -0.0000    0.0000
  band No.  band energies     occupation 
      1       0.3510      1.00000
      2       0.3655      1.00000
      3       1.4829      1.00000
      4       1.5964      1.00000
      5       3.1875      0.00038
      6       3.3286     -0.02558
      7       3.4704     -0.00323
      8       3.4885     -0.00225
      9       4.6193     -0.00000
     10       4.6193     -0.00000
     11       5.2665     -0.00000
     12       5.6448     -0.00000
     13      10.0951      0.00000
     14      10.7392      0.00000
     15      10.9646      0.00000
     16      11.8497      0.00000

 k-point     5 :       0.1667    0.1667    0.0000
  band No.  band energies     occupation 
      1      -0.0339      1.00000
      2       0.4929      1.00000
      3       1.7636      1.00000
      4       1.7699      1.00000
      5       1.7762      1.00000
      6       2.2662      1.00000
      7       2.4428      1.00018
      8       3.2278     -0.02892
      9       3.4867     -0.00233
     10       3.4985     -0.00183
     11       4.0062     -0.00000
     12       4.1407     -0.00000
     13       6.3890     -0.00000
     14      10.7846      0.00000
     15      12.9130      0.00000
     16      18.5969      0.00000

 k-point     6 :       0.3333    0.1667    0.0000
  band No.  band energies     occupation 
      1       0.9479      1.00000
      2       0.9829      1.00000
      3       1.7017      1.00000
      4       1.8688      1.00000
      5       2.6587      1.01429
      6       2.7295      1.02983
      7       3.1235      0.11905
      8       3.1286      0.10585
      9       3.1427      0.07286
     10       3.4529     -0.00449
     11       6.1088     -0.00000
     12       6.7841     -0.00000
     13       9.7598      0.00000
     14      11.9472      0.00000
     15      12.9937      0.00000
     16      13.9726      0.00000

 k-point     7 :       0.3333    0.3333    0.0000
  band No.  band energies     occupation 
      1       1.9088      1.00000
      2       1.9397      1.00000
      3       1.9397      1.00000
      4       1.9775      1.00000
      5       2.2661      1.00000
      6       2.3279      1.00001
      7       2.3279      1.00001
      8       2.3945      1.00005
      9       3.3200     -0.02753
     10       3.3200     -0.02753
     11      10.2105      0.00000
     12      10.5086      0.00000
     13      10.5086      0.00000
     14      11.2053      0.00000
     15      12.7987      0.00000
     16      12.7987      0.00000

 k-point     8 :       0.0000    0.0000    0.2500
  band No.  band energies     occupation 
      1      -2.6936      1.00000
      2      -2.2414      1.00000
      3       1.5233      1.00000
      4       1.8694      1.00000
      5       2.5675      1.00316
      6       2.5675      1.00316
      7       2.5684      1.00322
      8       2.5684      1.00322
      9       3.3761     -0.01508
     10       3.8474     -0.00000
     11       3.8474     -0.00000
     12       3.8502     -0.00000
     13       3.8502     -0.00000
     14       5.9319     -0.00000
     15      12.2454      0.00000
     16      16.9876      0.00000

 k-point     9 :       0.1667   -0.0000    0.2500
  band No.  band energies     occupation 
      1      -1.7007      1.00000
      2      -1.2528      1.00000
      3       1.8569      1.00000
      4       1.9466      1.00000
      5       2.2537      1.00000
      6       2.2642      1.00000
      7       2.9277      0.84656
      8       2.9468      0.78610
      9       3.0247      0.47789
     10       3.0256      0.47405
     11       3.7518     -0.00000
     12       3.7581     -0.00000
     13       5.0648     -0.00000
     14       7.4826     -0.00000
     15      12.9555      0.00000
     16      17.9371      0.00000

 k-point    10 :       0.3333   -0.0000    0.2500
  band No.  band energies     occupation 
      1       0.2110      1.00000
      2       0.3702      1.00000
      3       1.6579      1.00000
      4       1.8793      1.00000
      5       2.5409      1.00184
      6       2.7654      1.03516
      7       2.8510      1.00009
      8       3.3436     -0.02212
      9       3.5648     -0.00040
     10       3.5757     -0.00030
     11       4.0424     -0.00000
     12       4.0430     -0.00000
     13       7.6363     -0.00000
     14      10.3840      0.00000
     15      14.3853      0.00000
     16      14.8741      0.00000

 k-point    11 :       0.5000   -0.0000    0.2500
  band No.  band energies     occupation 
      1       0.3529      1.00000
      2       0.3631      1.00000
      3       1.4972      1.00000
      4       1.5771      1.00000
      5       3.2172     -0.02391
      6       3.3194     -0.02767
      7       3.4730     -0.00307
      8       3.4859     -0.00237
      9       4.6193     -0.00000
     10       4.6193     -0.00000
     11       5.3009     -0.00000
     12       5.5698     -0.00000
     13      10.0862      0.00000
     14      10.3730      0.00000
     15      11.5521      0.00000
     16      12.0528      0.00000

 k-point    12 :       0.1667    0.1667    0.2500
  band No.  band energies     occupation 
      1       0.0329      1.00000
      2       0.4022      1.00000
      3       1.7645      1.00000
      4       1.7686      1.00000
      5       1.8341      1.00000
      6       2.1363      1.00000
      7       2.6024      1.00601
      8       3.1097      0.15784
      9       3.4886     -0.00224
     10       3.4968     -0.00189
     11       4.0121     -0.00000
     12       4.0908     -0.00000
     13       6.8606     -0.00000
     14       9.5846      0.00000
     15      14.3995      0.00000
     16      18.6997      0.00000

 k-point    13 :       0.3333    0.1667    0.2500
  band No.  band energies     occupation 
      1       0.9526      1.00000
      2       0.9773      1.00000
      3       1.7217      1.00000
      4       1.8381      1.00000
      5       2.6794      1.01854
      6       2.7264      1.02917
      7       3.1191      0.13083
      8       3.1375      0.08448
      9       3.1807      0.00835
     10       3.4064     -0.00982
     11       6.1687     -0.00000
     12       6.6237     -0.00000
     13      10.2026      0.00000
     14      11.9531      0.00000
     15      12.6913      0.00000
     16      13.2190      0.00000

 k-point    14 :       0.3333    0.3333    0.2500
  band No.  band energies     occupation 
      1       1.9166      1.00000
      2       1.9407      1.00000
      3       1.9407      1.00000
      4       1.9643      1.00000
      5       2.2880      1.00000
      6       2.3253      1.00001
      7       2.3253      1.00001
      8       2.3780      1.00003
      9       3.3226     -0.02696
     10       3.3226     -0.02696
     11      10.3216      0.00000
     12      10.5263      0.00000
     13      10.5263      0.00000
     14      11.0070      0.00000
     15      12.4925      0.00000
     16      12.4925      0.00000

 k-point    15 :       0.0000    0.0000    0.5000
  band No.  band energies     occupation 
      1      -2.4819      1.00000
      2      -2.4819      1.00000
      3       1.6303      1.00000
      4       1.6303      1.00000
      5       2.5679      1.00319
      6       2.5679      1.00319
      7       2.5679      1.00319
      8       2.5679      1.00319
      9       3.8489     -0.00000
     10       3.8489     -0.00000
     11       3.8489     -0.00000
     12       3.8489     -0.00000
     13       4.5786     -0.00000
     14       4.5786     -0.00000
     15      14.4364      0.00000
     16      14.4364      0.00000

 k-point    16 :       0.1667   -0.0000    0.5000
  band No.  band energies     occupation 
      1      -1.4913      1.00000
      2      -1.4913      1.00000
      3       1.8888      1.00000
      4       1.8888      1.00000
      5       2.2602      1.00000
      6       2.2602      1.00000
      7       2.9428      0.79962
      8       2.9428      0.79962
      9       3.0251      0.47612
     10       3.0251      0.47612
     11       3.7549     -0.00000
     12       3.7549     -0.00000
     13       6.1025     -0.00000
     14       6.1025     -0.00000
     15      15.2787      0.00000
     16      15.2787      0.00000

 k-point    17 :       0.3333   -0.0000    0.5000
  band No.  band energies     occupation 
      1       0.2896      1.00000
      2       0.2896      1.00000
      3       1.7493      1.00000
      4       1.7493      1.00000
      5       2.7410      1.03205
      6       2.7410      1.03205
      7       2.9888      0.62809
      8       2.9888      0.62809
      9       3.5703     -0.00035
     10       3.5703     -0.00035
     11       4.0427     -0.00000
     12       4.0427     -0.00000
     13       8.8107      0.00000
     14       8.8107      0.00000
     15      14.9400      0.00000
     16      14.9400      0.00000

 k-point    18 :       0.5000   -0.0000    0.5000
  band No.  band energies     occupation 
      1       0.3577      1.00000
      2       0.3577      1.00000
      3       1.5346      1.00000
      4       1.5346      1.00000
      5       3.2784     -0.03477
      6       3.2784     -0.03477
      7       3.4794     -0.00270
      8       3.4794     -0.00270
      9       4.6193     -0.00000
     10       4.6193     -0.00000
     11       5.4153     -0.00000
     12       5.4153     -0.00000
     13      10.1445      0.00000
     14      10.1445      0.00000
     15      12.1461      0.00000
     16      12.1461      0.00000

 k-point    19 :       0.1667    0.1667    0.5000
  band No.  band energies     occupation 
      1       0.2063      1.00000
      2       0.2063      1.00000
      3       1.7667      1.00000
      4       1.7667      1.00000
      5       1.9695      1.00000
      6       1.9695      1.00000
      7       2.8563      0.99400
      8       2.8563      0.99400
      9       3.4926     -0.00206
     10       3.4926     -0.00206
     11       4.0355     -0.00000
     12       4.0355     -0.00000
     13       8.0311     -0.00000
     14       8.0311     -0.00000
     15      16.8084      0.00000
     16      16.8084      0.00000

 k-point    20 :       0.3333    0.1667    0.5000
  band No.  band energies     occupation 
      1       0.9645      1.00000
      2       0.9645      1.00000
      3       1.7749      1.00000
      4       1.7749      1.00000
      5       2.7110      1.02574
      6       2.7110      1.02574
      7       3.1277      0.10805
      8       3.1277      0.10805
      9       3.2927     -0.03294
     10       3.2927     -0.03294
     11       6.3520     -0.00000
     12       6.3520     -0.00000
     13      11.2362      0.00000
     14      11.2362      0.00000
     15      12.5880      0.00000
     16      12.5880      0.00000

 k-point    21 :       0.3333    0.3333    0.5000
  band No.  band energies     occupation 
      1       1.9379      1.00000
      2       1.9379      1.00000
      3       1.9417      1.00000
      4       1.9417      1.00000
      5       2.3226      1.00000
      6       2.3226      1.00000
      7       2.3353      1.00001
      8       2.3353      1.00001
      9       3.3252     -0.02636
     10       3.3252     -0.02636
     11      10.5453      0.00000
     12      10.5453      0.00000
     13      10.6250      0.00000
     14      10.6250      0.00000
     15      12.2930      0.00000
     16      12.2930      0.00000


--------------------------------------------------------------------------------------------------------


 soft charge-density along one line, spin component           1
         0         1         2         3         4         5         6         7         8         9
 total charge-density along one line
 
 soft charge-density along one line, spin component           2
         0         1         2         3         4         5         6         7         8         9
 total charge-density along one line
 
 pseudopotential strength for first ion, spin component:           1
 -5.510  -0.000   0.000  -0.000   0.000  -5.966  -0.000   0.000
 -0.000  -5.816  -0.000  -0.000   0.000  -0.000  -6.262  -0.000
  0.000  -0.000  -5.867  -0.000  -0.000   0.000  -0.000  -6.311
 -0.000  -0.000  -0.000  -5.816  -0.000  -0.000  -0.000  -0.000
  0.000   0.000  -0.000  -0.000  -5.510   0.000   0.000  -0.000
 -5.966  -0.000   0.000  -0.000   0.000  -6.370  -0.000   0.000
 -0.000  -6.262  -0.000  -0.000   0.000  -0.000  -6.655  -0.000
  0.000  -0.000  -6.311  -0.000  -0.000   0.000  -0.000  -6.702
 -0.000  -0.000  -0.000  -6.262  -0.000  -0.000  -0.000  -0.000
  0.000   0.000  -0.000  -0.000  -5.966   0.000   0.000  -0.000
  0.000   0.000   0.040   0.000  -0.000   0.000   0.000   0.040
  0.000   0.000   0.071   0.000  -0.000   0.000   0.000   0.070
  0.000   0.000   0.000   0.000  -0.000   0.000   0.000   0.000
  0.000  -0.000   0.000   0.000   0.000   0.000  -0.000   0.000
 -0.000   0.000  -0.000   0.000   0.000  -0.000   0.000  -0.000
  0.000   0.000   0.000   0.000  -0.000   0.000   0.000   0.000
  0.000  -0.000   0.000   0.000   0.000   0.000  -0.000   0.000
 -0.000   0.000  -0.000   0.000   0.000  -0.000   0.000  -0.000
 pseudopotential strength for first ion, spin component:           2
 -4.037  -0.000   0.000  -0.000   0.000  -4.556  -0.000   0.000
 -0.000  -4.100  -0.000  -0.000   0.000  -0.000  -4.617  -0.000
  0.000  -0.000  -4.166  -0.000  -0.000   0.000  -0.000  -4.681
 -0.000  -0.000  -0.000  -4.100  -0.000  -0.000  -0.000  -0.000
  0.000   0.000  -0.000  -0.000  -4.037   0.000   0.000  -0.000
 -4.556  -0.000   0.000  -0.000   0.000  -5.021  -0.000   0.000
 -0.000  -4.617  -0.000  -0.000   0.000  -0.000  -5.078  -0.000
  0.000  -0.000  -4.681  -0.000  -0.000   0.000  -0.000  -5.140
 -0.000  -0.000  -0.000  -4.617  -0.000  -0.000  -0.000  -0.000
  0.000   0.000  -0.000  -0.000  -4.556   0.000   0.000  -0.000
  0.000   0.000   0.010   0.000  -0.000   0.000   0.000   0.009
  0.000   0.000   0.017   0.000  -0.000   0.000   0.000   0.015
 -0.000   0.000  -0.000   0.000   0.000  -0.000   0.000  -0.000
  0.000   0.000   0.000  -0.000   0.000   0.000   0.000   0.000
  0.000   0.000   0.000   0.000  -0.000   0.000   0.000   0.000
 -0.000   0.000  -0.000   0.000   0.000  -0.000   0.000  -0.000
  0.000   0.000   0.000  -0.000   0.000   0.000   0.000   0.000
  0.000   0.000   0.000   0.000  -0.000   0.000   0.000   0.000
 total augmentation occupancy for first ion, spin component:           1
  2.654   0.000   0.000  -0.000   0.000  -1.166  -0.000  -0.000   0.000  -0.000   0.000   0.000   0.000   0.000   0.000  -0.000
  0.000   2.712   0.000  -0.000  -0.000  -0.000  -0.935  -0.000   0.000   0.000  -0.000   0.000  -0.000  -0.000   0.000   0.000
  0.000  -0.000   3.122   0.000  -0.000  -0.000  -0.000  -1.272   0.000   0.000   0.574   0.085   0.000   0.000   0.000   0.000
  0.000  -0.000   0.000   2.712   0.000   0.000   0.000   0.000  -0.935  -0.000   0.000   0.000   0.000   0.000   0.000   0.000
  0.000   0.000  -0.000  -0.000   2.654  -0.000  -0.000   0.000  -0.000  -1.166  -0.000  -0.000   0.000  -0.000   0.000  -0.000
 -1.166  -0.000  -0.000  -0.000  -0.000   1.293   0.000   0.000  -0.000   0.000  -0.000   0.000  -0.000   0.000  -0.000   0.000
  0.000  -0.935   0.000   0.000   0.000   0.000   0.626  -0.000  -0.000   0.000   0.000   0.000   0.000   0.000   0.000   0.000
 -0.000  -0.000  -1.272   0.000   0.000   0.000  -0.000   0.906  -0.000  -0.000  -0.858   0.016   0.000   0.000  -0.000   0.000
 -0.000   0.000   0.000  -0.935  -0.000   0.000  -0.000   0.000   0.626   0.000   0.000   0.000   0.000   0.000  -0.000   0.000
 -0.000   0.000   0.000   0.000  -1.166   0.000   0.000  -0.000   0.000   1.293   0.000  -0.000  -0.000   0.000  -0.000   0.000
  0.000  -0.000   0.574   0.000  -0.000  -0.000   0.000  -0.858   0.000   0.000   1.742  -0.087   0.000   0.000   0.000   0.000
  0.000   0.000   0.085   0.000  -0.000   0.000  -0.000   0.016   0.000  -0.000  -0.087   0.021   0.000   0.000   0.000  -0.000
  0.000   0.000   0.000   0.000   0.000  -0.000  -0.000   0.000  -0.000  -0.000   0.000   0.000   0.250   0.000  -0.000  -0.018
  0.000   0.000   0.000   0.000  -0.000   0.000   0.000   0.000  -0.000   0.000   0.000   0.000   0.000   0.061  -0.000   0.000
  0.000   0.000   0.000   0.000  -0.000  -0.000   0.000   0.000   0.000  -0.000   0.000   0.000   0.000  -0.000   0.250   0.000
  0.000   0.000   0.000  -0.000  -0.000   0.000  -0.000   0.000   0.000   0.000   0.000   0.000  -0.018  -0.000   0.000   0.001
  0.000   0.000   0.000  -0.000   0.000   0.000  -0.000   0.000   0.000  -0.000   0.000   0.000   0.000  -0.004   0.000  -0.000
 -0.000   0.000   0.000   0.000  -0.000   0.000   0.000   0.000   0.000   0.000  -0.000  -0.000  -0.000   0.000  -0.018   0.000
 total augmentation occupancy for first ion, spin component:           2
  1.964   0.000   0.000   0.000   0.000  -0.931   0.000   0.000   0.000  -0.000  -0.000   0.000  -0.000  -0.000  -0.000   0.000
  0.000   2.310   0.000  -0.000   0.000   0.000  -1.054  -0.000   0.000   0.000   0.000   0.000   0.000  -0.000  -0.000   0.000
  0.000   0.000   2.091   0.000  -0.000   0.000  -0.000  -0.912   0.000   0.000   0.014   0.142   0.000   0.000  -0.000   0.000
  0.000   0.000   0.000   2.310   0.000  -0.000   0.000  -0.000  -1.054   0.000   0.000   0.000  -0.000   0.000   0.000   0.000
  0.000   0.000  -0.000   0.000   1.964  -0.000  -0.000   0.000   0.000  -0.931   0.000  -0.000  -0.000   0.000   0.000   0.000
 -0.931  -0.000   0.000  -0.000  -0.000   0.229   0.000  -0.000  -0.000   0.000   0.000  -0.000   0.000  -0.000   0.000  -0.000
 -0.000  -1.054   0.000   0.000  -0.000  -0.000   0.349   0.000  -0.000  -0.000  -0.000   0.000  -0.000   0.000  -0.000  -0.000
  0.000   0.000  -0.912   0.000   0.000  -0.000   0.000   0.277   0.000  -0.000   0.096  -0.080   0.000   0.000   0.000   0.000
  0.000   0.000   0.000  -1.054   0.000   0.000  -0.000  -0.000   0.349   0.000   0.000   0.000   0.000   0.000   0.000   0.000
 -0.000  -0.000   0.000   0.000  -0.931   0.000   0.000   0.000   0.000   0.229  -0.000   0.000   0.000   0.000  -0.000  -0.000
 -0.000   0.000   0.014   0.000   0.000   0.000   0.000   0.096   0.000  -0.000  -0.190   0.081   0.000   0.000  -0.000   0.000
  0.000  -0.000   0.142   0.000  -0.000  -0.000  -0.000  -0.080   0.000   0.000   0.081   0.002  -0.000   0.000   0.000   0.000
 -0.000   0.000   0.000   0.000  -0.000   0.000   0.000   0.000   0.000   0.000   0.000  -0.000  -0.025   0.000  -0.000   0.003
 -0.000   0.000   0.000  -0.000   0.000  -0.000   0.000   0.000   0.000   0.000   0.000   0.000   0.000  -0.017  -0.000   0.000
 -0.000   0.000  -0.000   0.000   0.000   0.000  -0.000   0.000  -0.000  -0.000  -0.000   0.000  -0.000  -0.000  -0.025   0.000
  0.000   0.000   0.000  -0.000   0.000  -0.000   0.000   0.000  -0.000  -0.000  -0.000   0.000   0.003  -0.000  -0.000  -0.000
  0.000   0.000   0.000   0.000  -0.000   0.000   0.000   0.000  -0.000   0.000   0.000   0.000   0.000   0.001  -0.000  -0.000
  0.000   0.000   0.000   0.000  -0.000  -0.000   0.000  -0.000   0.000   0.000   0.000   0.000   0.000   0.000   0.003  -0.000


------------------------ aborting loop because EDIFF is reached ----------------------------------------


    CHARGE:  cpu time      0.0290: real time      0.0291
    FORLOC:  cpu time      0.0002: real time      0.0002
    FORNL :  cpu time      0.0117: real time      0.0117
    STRESS:  cpu time      0.0311: real time      0.0312
    FORCOR:  cpu time      0.0080: real time      0.0080
    FORHAR:  cpu time      0.0008: real time      0.0008
    MIXING:  cpu time      0.0004: real time      0.0004
    OFIELD:  cpu time      0.0000: real time      0.0000

  FORCE on cell =-STRESS in cart. coord.  units (eV):
  Direction    XX          YY          ZZ          XY          YZ          ZX
  --------------------------------------------------------------------------------------
  Alpha Z    39.63868    39.63868    39.63868
  Ewald     -59.61202   -59.61202  -935.34508    -0.00000     0.00000     0.00000
  Hartree   385.13765   385.13765  -203.73434    -0.00000    -0.00000    -0.00000
  E(xc)     -91.03935   -91.03936   -91.11972    -0.00000    -0.00000    -0.00000
  Local    -727.59815  -727.59820   748.16127    -0.00004    -0.00000    -0.00000
  n-local    -8.55755    -8.59972   -14.67005    -9.23582    -0.00435    -0.01129
  augment   314.09826   314.09829   307.92067     0.00003     0.00000     0.00000
  Kinetic   148.98426   141.10786   147.82181    10.14653     0.00847     0.05453
  Fock        0.00000     0.00000     0.00000     0.00000     0.00000     0.00000
  -------------------------------------------------------------------------------------
  Total      -2.90751    -2.90751    -1.32676     0.00000    -0.00000    -0.00000
  in kB    -108.98296  -108.98296   -49.73117     0.00000    -0.00000    -0.00000
  external pressure =      -89.23 kB  Pullay stress =        0.00 kB


 VOLUME and BASIS-vectors are now :
 -----------------------------------------------------------------------------
  energy-cutoff  :      425.00
  volume of cell :       42.74
      direct lattice vectors                 reciprocal lattice vectors
     2.470000000  0.000000000  0.000000000     0.404858300  0.233745048  0.000000000
    -1.235000000  2.139082747  0.000000000     0.000000000  0.467490097  0.000000000
     0.000000000  0.000000000  8.090000000     0.000000000  0.000000000  0.123609394

  length of vectors
     2.470000000  2.470000000  8.090000000     0.467490097  0.467490097  0.123609394


 FORCES acting on ions
    electron-ion (+dipol)            ewald-force                    non-local-force                 convergence-correction
 -----------------------------------------------------------------------------------------------
   -.121E-07 0.699E-08 -.277E-13   -.208E-13 0.254E-14 -.503E-13   -.244E-18 0.000E+00 0.000E+00   0.527E-10 -.304E-10 -.631E-14
   0.121E-07 -.698E-08 -.545E-12   -.268E-13 0.108E-13 0.503E-13   0.163E-18 0.000E+00 0.000E+00   -.527E-10 0.303E-10 0.109E-12
 -----------------------------------------------------------------------------------------------
   -.210E-10 0.120E-10 -.573E-12   -.476E-13 0.133E-13 0.000E+00   -.813E-19 0.000E+00 0.000E+00   -.199E-13 -.597E-13 0.103E-12
 
 
 POSITION                                       TOTAL-FORCE (eV/Angst)
 -----------------------------------------------------------------------------------
      0.00000      0.00000      0.00000        -0.000000     -0.000000      0.000000
      0.00000      1.42606      4.04500         0.000000      0.000000      0.000000
 -----------------------------------------------------------------------------------
    total drift:                               -0.000000      0.000000     -0.000000


--------------------------------------------------------------------------------------------------------



  FREE ENERGIE OF THE ION-ELECTRON SYSTEM (eV)
  ---------------------------------------------------
  free  energy   TOTEN  =       -11.23578383 eV

  energy  without entropy=      -11.23124004  energy(sigma->0) =      -11.23426924
 


--------------------------------------------------------------------------------------------------------


    POTLOK:  cpu time      0.0137: real time      0.0138


--------------------------------------------------------------------------------------------------------


     LOOP+:  cpu time      3.3061: real time      3.3294
    4ORBIT:  cpu time      0.0000: real time      0.0000

 total amount of memory used by VASP MPI-rank0    32094. kBytes
=======================================================================

   base      :      30000. kBytes
   nonl-proj :        464. kBytes
   fftplans  :        335. kBytes
   grid      :        802. kBytes
   one-center:         31. kBytes
   wavefun   :        462. kBytes
 
  
  
 General timing and accounting informations for this job:
 ========================================================
  
                  Total CPU time used (sec):        4.028
                            User time (sec):        3.541
                          System time (sec):        0.487
                         Elapsed time (sec):        5.582
  
                   Maximum memory used (kb):      223804.
                   Average memory used (kb):          N/A
  
                          Minor page faults:        20107
                          Major page faults:           66
                 Voluntary context switches:         2175
