Pt-fcc                                  
   1.00000000000000     
     0.000000    1.978849    1.978849
     1.978849    0.000000    1.978849
     1.978849    1.978849    0.000000
   Pt
     1
Direct
  0.000000  0.000000  0.000000
 
   40   40   40
  135.63      135.51      134.83      132.74      128.16      120.26      108.79      94.278      77.972      61.490    
  46.411      33.879      24.380      17.747      13.333      10.322      8.2771      6.9558      6.1550      5.7304    
  5.5980      5.7304      6.1550      6.9558      8.2771      10.322      13.333      17.747      24.380      33.879    
  46.411      61.490      77.972      94.278      108.79      120.26      128.16      132.74      134.83      135.51    
  135.51      135.11      133.71      130.33      123.99      114.16      101.00      85.431      68.915      53.089    
  39.327      28.432      20.533      15.185      11.604      9.1348      7.4980      6.4698      5.8774      5.6084    
  5.6084      5.8774      6.4698      7.4981      9.1348      11.604      15.185      20.533      28.432      39.327    
  53.089      68.915      85.431      101.00      114.16      123.99      130.33      133.71      135.11      135.51    
  134.83      133.71      130.98      125.73      117.27      105.47      90.920      74.862      58.843      44.339    
  32.383      23.378      17.110      12.921      10.039      8.0813      6.8154      6.0471      5.6390      5.5117    
  5.6391      6.0471      6.8154      8.0813      10.039      12.921      17.110      23.378      32.383      44.339    
  58.843      74.862      90.920      105.47      117.27      125.73      130.98      133.71      134.83      135.11    
  132.74      130.33      125.73      118.28      107.67      94.255      78.985      63.248      48.498      35.898    
  26.062      18.996      14.209      10.944      8.6810      7.1797      6.2340      5.6873      5.4384      5.4384    
  5.6873      6.2340      7.1797      8.6810      10.944      14.209      18.996      26.062      35.898      48.498    
  63.248      78.985      94.255      107.67      118.28      125.73      130.33      132.74      133.71      133.71    
  128.16      123.99      117.27      107.67      95.371      81.090      66.005      51.467      38.663      28.343    
  20.697      15.402      11.796      9.2649      7.5455      6.4299      5.7493      5.3860      5.2722      5.3860    
  5.7493      6.4299      7.5455      9.2649      11.796      15.402      20.697      28.343      38.663      51.467    
  66.005      81.090      95.371      107.67      117.27      123.99      128.16      130.33      130.98      130.33    
  120.26      114.16      105.47      94.255      81.090      66.942      53.011      40.429      30.003      22.055    
  16.412      12.536      9.7957      7.8913      6.6235      5.8194      5.3509      5.1362      5.1362      5.3509    
  5.8194      6.6235      7.8913      9.7957      12.536      16.412      22.055      30.003      40.429      53.011    
  66.942      81.090      94.255      105.47      114.16      120.26      123.99      125.73      125.73      123.99    
  108.79      101.00      90.920      78.985      66.005      53.011      41.036      30.877      22.931      17.148    
  13.112      10.236      8.1936      6.8018      5.8912      5.3295      5.0267      4.9313      5.0267      5.3295    
  5.8912      6.8018      8.1936      10.236      13.112      17.148      22.931      30.877      41.036      53.011    
  66.005      78.985      90.920      101.00      108.79      114.16      117.27      118.28      117.27      114.16    
  94.278      85.431      74.862      63.248      51.467      40.429      30.877      23.234      17.537      13.479    
  10.550      8.4294      6.9510      5.9572      5.3182      4.9405      4.7656      4.7656      4.9405      5.3182    
  5.9572      6.9510      8.4294      10.550      13.479      17.537      23.234      30.877      40.429      51.467    
  63.248      74.862      85.431      94.278      101.00      105.47      107.67      107.67      105.47      101.00    
  77.972      68.915      58.843      48.498      38.663      30.003      22.931      17.537      13.605      10.715    
  8.5794      7.0587      6.0106      5.3134      4.8753      4.6352      4.5588      4.6352      4.8753      5.3134    
  6.0106      7.0587      8.5794      10.715      13.605      17.537      22.931      30.003      38.663      48.498    
  58.843      68.915      77.972      85.431      90.920      94.255      95.371      94.255      90.920      85.431    
  61.490      53.089      44.339      35.898      28.343      22.055      17.148      13.479      10.715      8.6309    
  7.1151      6.0453      5.3121      4.8296      4.5381      4.4009      4.4009      4.5381      4.8296      5.3121    
  6.0453      7.1151      8.6309      10.715      13.479      17.148      22.055      28.343      35.898      44.339    
  53.089      61.490      68.915      74.862      78.985      81.090      81.090      78.985      74.862      68.915    
  46.411      39.327      32.383      26.062      20.697      16.412      13.112      10.550      8.5794      7.1151    
  6.0574      5.3121      4.8026      4.4735      4.2890      4.2295      4.2890      4.4735      4.8026      5.3121    
  6.0574      7.1151      8.5794      10.550      13.112      16.412      20.697      26.062      32.383      39.327    
  46.411      53.089      58.843      63.248      66.005      66.942      66.005      63.248      58.843      53.089    
  33.879      28.432      23.378      18.996      15.402      12.536      10.236      8.4294      7.0587      6.0453    
  5.3121      4.7936      4.4411      4.2219      4.1167      4.1167      4.2219      4.4411      4.7936      5.3121    
  6.0453      7.0587      8.4294      10.236      12.536      15.402      18.996      23.378      28.432      33.879    
  39.327      44.339      48.498      51.467      53.011      53.011      51.467      48.498      44.339      39.327    
  24.380      20.533      17.110      14.209      11.796      9.7957      8.1936      6.9510      6.0106      5.3121    
  4.8026      4.4411      4.1995      4.0605      4.0151      4.0605      4.1995      4.4411      4.8026      5.3121    
  6.0106      6.9510      8.1936      9.7957      11.796      14.209      17.110      20.533      24.380      28.432    
  32.383      35.898      38.663      40.429      41.036      40.429      38.663      35.898      32.383      28.432    
  17.747      15.185      12.921      10.944      9.2649      7.8913      6.8018      5.9572      5.3134      4.8296    
  4.4735      4.2219      4.0605      3.9815      3.9815      4.0605      4.2219      4.4735      4.8296      5.3134    
  5.9572      6.8018      7.8913      9.2649      10.944      12.921      15.185      17.747      20.533      23.378    
  26.062      28.343      30.003      30.877      30.877      30.003      28.343      26.062      23.378      20.533    
  13.333      11.604      10.039      8.6810      7.5455      6.6235      5.8912      5.3182      4.8753      4.5381    
  4.2890      4.1167      4.0151      3.9815      4.0151      4.1167      4.2890      4.5381      4.8753      5.3182    
  5.8912      6.6235      7.5455      8.6810      10.039      11.604      13.333      15.185      17.110      18.996    
  20.697      22.055      22.931      23.234      22.931      22.055      20.697      18.996      17.110      15.185    
  10.322      9.1348      8.0813      7.1797      6.4299      5.8194      5.3295      4.9405      4.6352      4.4009    
  4.2295      4.1167      4.0605      4.0605      4.1167      4.2295      4.4009      4.6352      4.9405      5.3295    
  5.8194      6.4299      7.1797      8.0813      9.1348      10.322      11.604      12.921      14.209      15.402    
  16.412      17.148      17.537      17.537      17.148      16.412      15.402      14.209      12.921      11.604    
  8.2771      7.4980      6.8154      6.2340      5.7493      5.3509      5.0267      4.7656      4.5588      4.4009    
  4.2890      4.2219      4.1995      4.2219      4.2890      4.4009      4.5588      4.7656      5.0267      5.3509    
  5.7493      6.2340      6.8154      7.4981      8.2771      9.1348      10.039      10.944      11.796      12.536    
  13.112      13.479      13.605      13.479      13.112      12.536      11.796      10.944      10.039      9.1348    
  6.9558      6.4698      6.0471      5.6873      5.3860      5.1362      4.9313      4.7656      4.6352      4.5381    
  4.4735      4.4411      4.4411      4.4735      4.5381      4.6352      4.7656      4.9313      5.1362      5.3860    
  5.6873      6.0471      6.4698      6.9558      7.4981      8.0813      8.6810      9.2649      9.7957      10.236    
  10.550      10.715      10.715      10.550      10.236      9.7957      9.2649      8.6810      8.0813      7.4981    
  6.1550      5.8774      5.6390      5.4384      5.2722      5.1362      5.0267      4.9405      4.8753      4.8296    
  4.8026      4.7936      4.8026      4.8296      4.8753      4.9405      5.0267      5.1362      5.2722      5.4384    
  5.6390      5.8774      6.1550      6.4698      6.8154      7.1797      7.5455      7.8913      8.1936      8.4294    
  8.5794      8.6309      8.5794      8.4294      8.1936      7.8913      7.5455      7.1797      6.8154      6.4698    
  5.7304      5.6084      5.5117      5.4384      5.3860      5.3509      5.3295      5.3182      5.3134      5.3121    
  5.3121      5.3121      5.3121      5.3134      5.3182      5.3295      5.3509      5.3860      5.4384      5.5117    
  5.6084      5.7304      5.8774      6.0471      6.2340      6.4299      6.6235      6.8018      6.9510      7.0587    
  7.1151      7.1151      7.0587      6.9510      6.8018      6.6235      6.4299      6.2340      6.0471      5.8774    
  5.5980      5.6084      5.6391      5.6873      5.7493      5.8194      5.8912      5.9572      6.0106      6.0453    
  6.0574      6.0453      6.0106      5.9572      5.8912      5.8194      5.7493      5.6873      5.6390      5.6084    
  5.5980      5.6084      5.6390      5.6873      5.7493      5.8194      5.8912      5.9572      6.0106      6.0453    
  6.0574      6.0453      6.0106      5.9572      5.8912      5.8194      5.7493      5.6873      5.6391      5.6084    
  5.7304      5.8774      6.0471      6.2340      6.4299      6.6235      6.8018      6.9510      7.0587      7.1151    
  7.1151      7.0587      6.9510      6.8018      6.6235      6.4299      6.2340      6.0471      5.8774      5.7304    
  5.6084      5.5117      5.4384      5.3860      5.3509      5.3295      5.3182      5.3134      5.3121      5.3121    
  5.3121      5.3121      5.3134      5.3182      5.3295      5.3509      5.3860      5.4384      5.5117      5.6084    
  6.1550      6.4698      6.8154      7.1797      7.5455      7.8913      8.1936      8.4294      8.5794      8.6309    
  8.5794      8.4294      8.1936      7.8913      7.5455      7.1797      6.8154      6.4698      6.1550      5.8774    
  5.6390      5.4384      5.2722      5.1362      5.0267      4.9405      4.8753      4.8296      4.8026      4.7936    
  4.8026      4.8296      4.8753      4.9405      5.0267      5.1362      5.2722      5.4384      5.6390      5.8774    
  6.9558      7.4981      8.0813      8.6810      9.2649      9.7957      10.236      10.550      10.715      10.715    
  10.550      10.236      9.7957      9.2649      8.6810      8.0813      7.4981      6.9558      6.4698      6.0471    
  5.6873      5.3860      5.1362      4.9313      4.7656      4.6352      4.5381      4.4735      4.4411      4.4411    
  4.4735      4.5381      4.6352      4.7656      4.9313      5.1362      5.3860      5.6873      6.0471      6.4698    
  8.2771      9.1348      10.039      10.944      11.796      12.536      13.112      13.479      13.605      13.479    
  13.112      12.536      11.796      10.944      10.039      9.1348      8.2771      7.4981      6.8154      6.2340    
  5.7493      5.3509      5.0267      4.7656      4.5588      4.4009      4.2890      4.2219      4.1995      4.2219    
  4.2890      4.4009      4.5588      4.7656      5.0267      5.3509      5.7493      6.2340      6.8154      7.4980    
  10.322      11.604      12.921      14.209      15.402      16.412      17.148      17.537      17.537      17.148    
  16.412      15.402      14.209      12.921      11.604      10.322      9.1348      8.0813      7.1797      6.4299    
  5.8194      5.3295      4.9405      4.6352      4.4009      4.2295      4.1167      4.0605      4.0605      4.1167    
  4.2295      4.4009      4.6352      4.9405      5.3295      5.8194      6.4299      7.1797      8.0813      9.1348    
  13.333      15.185      17.110      18.996      20.697      22.055      22.931      23.234      22.931      22.055    
  20.697      18.996      17.110      15.185      13.333      11.604      10.039      8.6810      7.5455      6.6235    
  5.8912      5.3182      4.8753      4.5381      4.2890      4.1167      4.0151      3.9815      4.0151      4.1167    
  4.2890      4.5381      4.8753      5.3182      5.8912      6.6235      7.5455      8.6810      10.039      11.604    
  17.747      20.533      23.378      26.062      28.343      30.003      30.877      30.877      30.003      28.343    
  26.062      23.378      20.533      17.747      15.185      12.921      10.944      9.2649      7.8913      6.8018    
  5.9572      5.3134      4.8296      4.4735      4.2219      4.0605      3.9815      3.9815      4.0605      4.2219    
  4.4735      4.8296      5.3134      5.9572      6.8018      7.8913      9.2649      10.944      12.921      15.185    
  24.380      28.432      32.383      35.898      38.663      40.429      41.036      40.429      38.663      35.898    
  32.383      28.432      24.380      20.533      17.110      14.209      11.796      9.7957      8.1936      6.9510    
  6.0106      5.3121      4.8026      4.4411      4.1995      4.0605      4.0151      4.0605      4.1995      4.4411    
  4.8026      5.3121      6.0106      6.9510      8.1936      9.7957      11.796      14.209      17.110      20.533    
  33.879      39.327      44.339      48.498      51.467      53.011      53.011      51.467      48.498      44.339    
  39.327      33.879      28.432      23.378      18.996      15.402      12.536      10.236      8.4294      7.0587    
  6.0453      5.3121      4.7936      4.4411      4.2219      4.1167      4.1167      4.2219      4.4411      4.7936    
  5.3121      6.0453      7.0587      8.4294      10.236      12.536      15.402      18.996      23.378      28.432    
  46.411      53.089      58.843      63.248      66.005      66.942      66.005      63.248      58.843      53.089    
  46.411      39.327      32.383      26.062      20.697      16.412      13.112      10.550      8.5794      7.1151    
  6.0574      5.3121      4.8026      4.4735      4.2890      4.2295      4.2890      4.4735      4.8026      5.3121    
  6.0574      7.1151      8.5794      10.550      13.112      16.412      20.697      26.062      32.383      39.327    
  61.490      68.915      74.862      78.985      81.090      81.090      78.985      74.862      68.915      61.490    
  53.089      44.339      35.898      28.343      22.055      17.148      13.479      10.715      8.6309      7.1151    
  6.0453      5.3121      4.8296      4.5381      4.4009      4.4009      4.5381      4.8296      5.3121      6.0453    
  7.1151      8.6309      10.715      13.479      17.148      22.055      28.343      35.898      44.339      53.089    
  77.972      85.431      90.920      94.255      95.371      94.255      90.920      85.431      77.972      68.915    
  58.843      48.498      38.663      30.003      22.931      17.537      13.605      10.715      8.5794      7.0587    
  6.0106      5.3134      4.8753      4.6352      4.5588      4.6352      4.8753      5.3134      6.0106      7.0587    
  8.5794      10.715      13.605      17.537      22.931      30.003      38.663      48.498      58.843      68.915    
  94.278      101.00      105.47      107.67      107.67      105.47      101.00      94.278      85.431      74.862    
  63.248      51.467      40.429      30.877      23.234      17.537      13.479      10.550      8.4294      6.9510    
  5.9572      5.3182      4.9405      4.7656      4.7656      4.9405      5.3182      5.9572      6.9510      8.4294    
  10.550      13.479      17.537      23.234      30.877      40.429      51.467      63.248      74.862      85.431    
  108.79      114.16      117.27      118.28      117.27      114.16      108.79      101.00      90.920      78.985    
  66.005      53.011      41.036      30.877      22.931      17.148      13.112      10.236      8.1936      6.8018    
  5.8912      5.3295      5.0267      4.9313      5.0267      5.3295      5.8912      6.8018      8.1936      10.236    
  13.112      17.148      22.931      30.877      41.036      53.011      66.005      78.985      90.920      101.00    
  120.26      123.99      125.73      125.73      123.99      120.26      114.16      105.47      94.255      81.090    
  66.942      53.011      40.429      30.003      22.055      16.412      12.536      9.7957      7.8913      6.6235    
  5.8194      5.3509      5.1362      5.1362      5.3509      5.8194      6.6235      7.8913      9.7957      12.536    
  16.412      22.055      30.003      40.429      53.011      66.942      81.090      94.255      105.47      114.16    
  128.16      130.33      130.98      130.33      128.16      123.99      117.27      107.67      95.371      81.090    
  66.005      51.467      38.663      28.343      20.697      15.402      11.796      9.2649      7.5455      6.4299    
  5.7493      5.3860      5.2722      5.3860      5.7493      6.4299      7.5455      9.2649      11.796      15.402    
  20.697      28.343      38.663      51.467      66.005      81.090      95.371      107.67      117.27      123.99    
  132.74      133.71      133.71      132.74      130.33      125.73      118.28      107.67      94.255      78.985    
  63.248      48.498      35.898      26.062      18.996      14.209      10.944      8.6810      7.1797      6.2340    
  5.6873      5.4384      5.4384      5.6873      6.2340      7.1797      8.6810      10.944      14.209      18.996    
  26.062      35.898      48.498      63.248      78.985      94.255      107.67      118.28      125.73      130.33    
  134.83      135.11      134.83      133.71      130.98      125.73      117.27      105.47      90.920      74.862    
  58.843      44.339      32.383      23.378      17.110      12.921      10.039      8.0813      6.8154      6.0471    
  5.6391      5.5117      5.6390      6.0471      6.8154      8.0813      10.039      12.921      17.110      23.378    
  32.383      44.339      58.843      74.862      90.920      105.47      117.27      125.73      130.98      133.71    
  135.51      135.51      135.11      133.71      130.33      123.99      114.16      101.00      85.431      68.915    
  53.089      39.327      28.432      20.533      15.185      11.604      9.1348      7.4981      6.4698      5.8774    
  5.6084      5.6084      5.8774      6.4698      7.4980      9.1348      11.604      15.185      20.533      28.432    
  39.327      53.089      68.915      85.431      101.00      114.16      123.99      130.33      133.71      135.11    
  135.51      135.11      133.71      130.33      123.99      114.16      101.00      85.431      68.915      53.089    
  39.327      28.432      20.533      15.185      11.604      9.1348      7.4980      6.4698      5.8774      5.6084    
  5.6084      5.8774      6.4698      7.4981      9.1348      11.604      15.185      20.533      28.432      39.327    
  53.089      68.915      85.431      101.00      114.16      123.99      130.33      133.71      135.11      135.51    
  135.11      134.08      131.49      126.40      118.06      106.34      91.815      75.702      59.572      44.920    
  32.810      23.669      17.297      13.045      10.126      8.1434      6.8616      6.0840      5.6712      5.5424    
  5.6712      6.0840      6.8616      8.1434      10.126      13.045      17.297      23.669      32.810      44.920    
  59.572      75.702      91.815      106.34      118.06      126.39      131.49      134.08      135.11      135.36    
  133.71      131.49      127.14      119.91      109.46      96.088      80.734      64.796      49.768      36.859    
  26.735      19.438      14.494      11.142      8.8207      7.2812      6.3122      5.7526      5.4981      5.4981    
  5.7526      6.3122      7.2812      8.8207      11.142      14.494      19.438      26.735      36.859      49.768    
  64.796      80.734      96.088      109.46      119.91      127.14      131.49      133.71      134.57      134.57    
  130.33      126.40      119.91      110.48      98.215      83.807      68.437      53.496      40.234      29.471    
  21.452      15.888      12.125      9.4967      7.7112      6.5538      5.8489      5.4732      5.3557      5.4732    
  5.8489      6.5538      7.7112      9.4967      12.125      15.888      21.452      29.471      40.234      53.496    
  68.437      83.807      98.215      110.48      119.91      126.39      130.33      132.32      132.91      132.32    
  123.99      118.06      109.46      98.215      84.838      70.300      55.837      42.651      31.629      23.164    
  17.133      13.014      10.132      8.1288      6.7970      5.9542      5.4644      5.2405      5.2405      5.4644    
  5.9542      6.7970      8.1288      10.132      13.014      17.133      23.164      31.629      42.651      55.837    
  70.300      84.838      98.215      109.46      118.06      123.99      127.57      129.21      129.21      127.57    
  114.16      106.34      96.088      83.807      70.300      56.634      43.909      33.009      24.410      18.121    
  13.751      10.683      8.5078      7.0272      6.0612      5.4677      5.1487      5.0484      5.1487      5.4677    
  6.0612      7.0272      8.5078      10.683      13.751      18.121      24.410      33.009      43.909      56.634    
  70.300      83.807      96.088      106.34      114.16      119.51      122.56      123.55      122.56      119.51    
  101.00      91.815      80.734      68.437      55.837      43.909      33.484      25.067      18.758      14.281    
  11.110      8.8216      7.2287      6.1616      5.4788      5.0771      4.8918      4.8918      5.0771      5.4788    
  6.1616      7.2287      8.8216      11.110      14.281      18.758      25.067      33.484      43.909      55.837    
  68.437      80.734      91.815      101.00      107.93      112.49      114.74      114.74      112.49      107.93    
  85.431      75.702      64.796      53.496      42.651      33.009      25.067      18.978      14.560      11.381    
  9.0460      7.3859      6.2467      5.4933      5.0229      4.7666      4.6853      4.7666      5.0229      5.4933    
  6.2467      7.3859      9.0460      11.381      14.560      18.978      25.067      33.009      42.651      53.496    
  64.796      75.702      85.431      93.388      99.211      102.73      103.91      102.73      99.211      93.388    
  68.915      59.572      49.768      40.234      31.629      24.410      18.758      14.560      11.474      9.1631    
  7.4860      6.3085      5.5071      4.9840      4.6703      4.5235      4.5235      4.6703      4.9840      5.5071    
  6.3085      7.4860      9.1631      11.474      14.560      18.758      24.410      31.629      40.234      49.768    
  59.572      68.915      77.123      83.665      88.186      90.488      90.488      88.186      83.665      77.123    
  53.089      44.920      36.859      29.471      23.164      18.121      14.281      11.381      9.1631      7.5204    
  6.3411      5.5169      4.9589      4.6019      4.4032      4.3395      4.4032      4.6019      4.9589      5.5169    
  6.3411      7.5204      9.1631      11.381      14.281      18.121      23.164      29.471      36.859      44.920    
  53.089      60.747      67.314      72.326      75.456      76.519      75.456      72.326      67.314      60.747    
  39.327      32.810      26.735      21.452      17.133      13.751      11.110      9.0460      7.4860      6.3411    
  5.5204      4.9466      4.5608      4.3232      4.2098      4.2098      4.3232      4.5608      4.9466      5.5204    
  6.3411      7.4860      9.0460      11.110      13.751      17.133      21.452      26.735      32.810      39.327    
  45.813      51.754      56.669      60.169      61.987      61.987      60.169      56.669      51.754      45.813    
  28.432      23.669      19.438      15.888      13.014      10.683      8.8216      7.3859      6.3085      5.5169    
  4.9466      4.5472      4.2831      4.1325      4.0834      4.1325      4.2831      4.5472      4.9466      5.5169    
  6.3085      7.3859      8.8216      10.683      13.014      15.888      19.438      23.669      28.432      33.436    
  38.302      42.618      46.007      48.168      48.910      48.168      46.007      42.618      38.302      33.436    
  20.533      17.297      14.494      12.125      10.132      8.5078      7.2287      6.2467      5.5071      4.9589    
  4.5608      4.2831      4.1067      4.0208      4.0208      4.1067      4.2831      4.5608      4.9589      5.5071    
  6.2467      7.2287      8.5078      10.132      12.125      14.494      17.297      20.533      24.078      27.706    
  31.127      34.032      36.144      37.255      37.255      36.144      34.032      31.127      27.706      24.078    
  15.185      13.045      11.142      9.4967      8.1288      7.0272      6.1616      5.4933      4.9840      4.6019    
  4.3232      4.1325      4.0208      3.9840      4.0208      4.1325      4.3232      4.6019      4.9840      5.4933    
  6.1616      7.0272      8.1288      9.4967      11.142      13.045      15.185      17.552      20.054      22.529    
  24.767      26.557      27.713      28.113      27.713      26.557      24.767      22.529      20.054      17.552    
  11.604      10.126      8.8207      7.7112      6.7970      6.0612      5.4788      5.0229      4.6703      4.4032    
  4.2098      4.0834      4.0208      4.0208      4.0834      4.2098      4.4032      4.6703      5.0229      5.4788    
  6.0612      6.7970      7.7112      8.8207      10.126      11.604      13.205      14.878      16.562      18.151    
  19.511      20.507      21.035      21.035      20.507      19.511      18.151      16.562      14.878      13.205    
  9.1348      8.1434      7.2812      6.5538      5.9542      5.4677      5.0771      4.7666      4.5235      4.3395    
  4.2098      4.1325      4.1067      4.1325      4.2098      4.3395      4.5235      4.7666      5.0771      5.4677    
  5.9542      6.5538      7.2812      8.1434      9.1348      10.232      11.394      12.559      13.661      14.635    
  15.407      15.904      16.076      15.904      15.407      14.635      13.661      12.559      11.393      10.232    
  7.4980      6.8616      6.3122      5.8489      5.4644      5.1487      4.8918      4.6853      4.5235      4.4032    
  4.3232      4.2831      4.2831      4.3232      4.4032      4.5235      4.6853      4.8918      5.1487      5.4644    
  5.8489      6.3122      6.8616      7.4981      8.2130      8.9858      9.7835      10.562      11.271      11.859    
  12.281      12.500      12.500      12.281      11.859      11.271      10.562      9.7835      8.9858      8.2129    
  6.4698      6.0840      5.7526      5.4732      5.2405      5.0484      4.8918      4.7666      4.6703      4.6019    
  4.5608      4.5472      4.5608      4.6019      4.6703      4.7666      4.8918      5.0484      5.2404      5.4732    
  5.7526      6.0840      6.4698      6.9081      7.3900      7.8991      8.4110      8.8956      9.3195      9.6503    
  9.8609      9.9332      9.8609      9.6503      9.3195      8.8956      8.4110      7.8990      7.3900      6.9081    
  5.8774      5.6712      5.4981      5.3557      5.2405      5.1487      5.0771      5.0229      4.9840      4.9589    
  4.9466      4.9466      4.9589      4.9840      5.0229      5.0771      5.1487      5.2404      5.3557      5.4981    
  5.6712      5.8774      6.1170      6.3869      6.6797      6.9833      7.2813      7.5545      7.7825      7.9466    
  8.0326      8.0326      7.9466      7.7825      7.5545      7.2813      6.9833      6.6797      6.3869      6.1170    
  5.6084      5.5424      5.4981      5.4732      5.4644      5.4677      5.4788      5.4933      5.5071      5.5169    
  5.5204      5.5169      5.5071      5.4933      5.4788      5.4677      5.4644      5.4732      5.4981      5.5424    
  5.6084      5.6974      5.8084      5.9385      6.0823      6.2318      6.3768      6.5060      6.6083      6.6740    
  6.6966      6.6740      6.6083      6.5060      6.3768      6.2318      6.0823      5.9385      5.8084      5.6974    
  5.6084      5.6712      5.7526      5.8489      5.9542      6.0612      6.1616      6.2467      6.3085      6.3411    
  6.3411      6.3085      6.2467      6.1616      6.0612      5.9542      5.8489      5.7526      5.6712      5.6084    
  5.5664      5.5455      5.5443      5.5603      5.5895      5.6269      5.6669      5.7036      5.7315      5.7467    
  5.7467      5.7315      5.7036      5.6669      5.6269      5.5895      5.5603      5.5444      5.5455      5.5664    
  5.8774      6.0840      6.3122      6.5538      6.7970      7.0272      7.2287      7.3859      7.4860      7.5204    