Pt-fcc                                  
   1.00000000000000     
     0.000000    1.978849    1.978849
     1.978849    0.000000    1.978849
     1.978849    1.978849    0.000000
   Pt
     1
Direct
  0.000000  0.000000  0.000000
 
   40   40   40
 0.13562643469E+03 0.13551019746E+03 0.13483399372E+03 0.13273818230E+03 0.12815969824E+03
 0.12025733255E+03 0.10878543168E+03 0.94278273522E+02 0.77971969224E+02 0.61490072092E+02
 0.46411296234E+02 0.33878731947E+02 0.24380168408E+02 0.17747293940E+02 0.13332926676E+02
 0.10322139725E+02 0.82770863709E+01 0.69557620603E+01 0.61549954404E+01 0.57303893123E+01
 0.55979687600E+01 0.57303893123E+01 0.61549954404E+01 0.69557620603E+01 0.82770863709E+01
 0.10322139725E+02 0.13332926676E+02 0.17747293940E+02 0.24380168408E+02 0.33878731947E+02
 0.46411296234E+02 0.61490072092E+02 0.77971969224E+02 0.94278273522E+02 0.10878543168E+03
 0.12025733255E+03 0.12815969824E+03 0.13273818230E+03 0.13483399372E+03 0.13551019746E+03
 0.13551019746E+03 0.13511184511E+03 0.13370993227E+03 0.13032538964E+03 0.12399167262E+03
 0.11416401719E+03 0.10100410627E+03 0.85431084533E+02 0.68915069178E+02 0.53089384845E+02
 0.39327045558E+02 0.28431637701E+02 0.20532654137E+02 0.15185224397E+02 0.11604203246E+02
 0.91347512113E+01 0.74980495476E+01 0.64698437447E+01 0.58774207149E+01 0.56084435371E+01
 0.56084441872E+01 0.58774223436E+01 0.64698455251E+01 0.74980505507E+01 0.91347508426E+01
 0.11604201570E+02 0.15185222132E+02 0.20532652360E+02 0.28431637294E+02 0.39327046708E+02
 0.53089386716E+02 0.68915070045E+02 0.85431082251E+02 0.10100409908E+03 0.11416400445E+03
 0.12399165529E+03 0.13032537030E+03 0.13370991449E+03 0.13511183258E+03 0.13551019294E+03
 0.13483399372E+03 0.13370993227E+03 0.13098235591E+03 0.12573189919E+03 0.11726786324E+03
 0.10546521584E+03 0.90920378796E+02 0.74861509176E+02 0.58842981591E+02 0.44338563484E+02
 0.32382715955E+02 0.23378151511E+02 0.17109549368E+02 0.12921112675E+02 0.10038942471E+02
 0.80812936430E+01 0.68154001805E+01 0.60470804460E+01 0.56390498849E+01 0.55116749048E+01
 0.56390520616E+01 0.60470837104E+01 0.68154028618E+01 0.80812942839E+01 0.10038940546E+02
 0.12921108910E+02 0.17109545471E+02 0.23378149399E+02 0.32382716751E+02 0.44338566754E+02
 0.58842985104E+02 0.74861509455E+02 0.90920372224E+02 0.10546520010E+03 0.11726783843E+03
 0.12573186827E+03 0.13098232422E+03 0.13370990623E+03 0.13483397903E+03 0.13511183258E+03
 0.13273818230E+03 0.13032538964E+03 0.12573189919E+03 0.11827606138E+03 0.10767302226E+03
 0.94255312018E+02 0.78985299241E+02 0.63247835230E+02 0.48498419614E+02 0.35897885780E+02
 0.26061928031E+02 0.18996311557E+02 0.14209081891E+02 0.10944322987E+02 0.86810145649E+01
 0.71797082816E+01 0.62340407110E+01 0.56873426213E+01 0.54384388726E+01 0.54384403069E+01
 0.56873462148E+01 0.62340446623E+01 0.71797105352E+01 0.86810137958E+01 0.10944319285E+02
 0.14209076820E+02 0.18996307518E+02 0.26061927155E+02 0.35897888777E+02 0.48498425095E+02
 0.63247839826E+02 0.78985298605E+02 0.94255302346E+02 0.10767300188E+03 0.11827603177E+03
 0.12573186499E+03 0.13032535761E+03 0.13273815949E+03 0.13370990623E+03 0.13370991449E+03
 0.12815969824E+03 0.12399167262E+03 0.11726786324E+03 0.10767302226E+03 0.95371089371E+02
 0.81089511940E+02 0.66004953960E+02 0.51467224500E+02 0.38663291309E+02 0.28343346261E+02
 0.20697205526E+02 0.15401787146E+02 0.11796180152E+02 0.92649020291E+01 0.75455079554E+01
 0.64299150757E+01 0.57492947813E+01 0.53859752792E+01 0.52721938301E+01 0.53859779484E+01
 0.57492988151E+01 0.64299184589E+01 0.75455088935E+01 0.92648998167E+01 0.11796175589E+02
 0.15401782285E+02 0.20697202821E+02 0.28343347447E+02 0.38663296446E+02 0.51467231622E+02
 0.66004959525E+02 0.81089511970E+02 0.95371080963E+02 0.10767300481E+03 0.11726783903E+03
 0.12399164645E+03 0.12815967609E+03 0.13032535761E+03 0.13098232422E+03 0.13032537030E+03
 0.12025733255E+03 0.11416401719E+03 0.10546521584E+03 0.94255312018E+02 0.81089511940E+02
 0.66942441609E+02 0.53010683814E+02 0.40428866554E+02 0.30003250520E+02 0.22054625098E+02
 0.16411846196E+02 0.12536435006E+02 0.97957273409E+01 0.78913344536E+01 0.66235384255E+01
 0.58194345854E+01 0.53508968308E+01 0.51362356890E+01 0.51362368440E+01 0.53508997587E+01
 0.58194378958E+01 0.66235405071E+01 0.78913341909E+01 0.97957246784E+01 0.12536431046E+02
 0.16411842837E+02 0.22054624257E+02 0.30003253329E+02 0.40428872759E+02 0.53010691722E+02
 0.66942448575E+02 0.81089515265E+02 0.94255309981E+02 0.10546520837E+03 0.11416400603E+03
 0.12025732082E+03 0.12399164645E+03 0.12573186499E+03 0.12573186827E+03 0.12399165529E+03
 0.10878543168E+03 0.10100410627E+03 0.90920378796E+02 0.78985299241E+02 0.66004953960E+02
 0.53010683814E+02 0.41035513339E+02 0.30877065617E+02 0.22931266502E+02 0.17148375025E+02
 0.13111852516E+02 0.10235523120E+02 0.81935963471E+01 0.68018030081E+01 0.58911504551E+01
 0.53295370792E+01 0.50267146292E+01 0.49312979220E+01 0.50267159673E+01 0.53295391890E+01
 0.58911524304E+01 0.68018039788E+01 0.81935958463E+01 0.10235521318E+02 0.13111850203E+02
 0.17148373386E+02 0.22931266714E+02 0.30877068455E+02 0.41035518899E+02 0.53010691477E+02
 0.66004962613E+02 0.78985307577E+02 0.90920385765E+02 0.10100411132E+03 0.10878543480E+03
 0.11416400603E+03 0.11726783903E+03 0.11827603177E+03 0.11726783843E+03 0.11416400445E+03
 0.94278273522E+02 0.85431084533E+02 0.74861509176E+02 0.63247835230E+02 0.51467224500E+02
 0.40428866554E+02 0.30877065617E+02 0.23234375143E+02 0.17537312311E+02 0.13478519178E+02
 0.10550312038E+02 0.84293640783E+01 0.69510230822E+01 0.59572268933E+01 0.53182009041E+01
 0.49404981094E+01 0.47655587839E+01 0.47655589676E+01 0.49404986256E+01 0.53182016695E+01
 0.59572277399E+01 0.69510237904E+01 0.84293643980E+01 0.10550311809E+02 0.13478518413E+02
 0.17537311331E+02 0.23234374578E+02 0.30877066369E+02 0.40428869602E+02 0.51467230602E+02
 0.63247844698E+02 0.74861521603E+02 0.85431098752E+02 0.94278287782E+02 0.10100411132E+03
 0.10546520837E+03 0.10767300481E+03 0.10767300188E+03 0.10546520010E+03 0.10100409908E+03
 0.77971969224E+02 0.68915069178E+02 0.58842981591E+02 0.48498419614E+02 0.38663291309E+02
 0.30003250520E+02 0.22931266502E+02 0.17537312311E+02 0.13604630089E+02 0.10714552654E+02
 0.85794068290E+01 0.70586572052E+01 0.60106136380E+01 0.53133956270E+01 0.48753085525E+01
 0.46351978411E+01 0.45588094363E+01 0.46351972670E+01 0.48753077925E+01 0.53133952497E+01
 0.60106140671E+01 0.70586584475E+01 0.85794083735E+01 0.10714553657E+02 0.13604629733E+02
 0.17537310281E+02 0.22931263299E+02 0.30003247483E+02 0.38663290365E+02 0.48498422587E+02
 0.58842989613E+02 0.68915082081E+02 0.77971985346E+02 0.85431098752E+02 0.90920385765E+02
 0.94255309981E+02 0.95371080963E+02 0.94255302346E+02 0.90920372224E+02 0.85431082251E+02
 0.61490072092E+02 0.53089384845E+02 0.44338563484E+02 0.35897885780E+02 0.28343346261E+02
 0.22054625098E+02 0.17148375025E+02 0.13478519178E+02 0.10714552654E+02 0.86309188513E+01
 0.71150869379E+01 0.60453379793E+01 0.53120978382E+01 0.48296338300E+01 0.45381109260E+01
 0.44009050434E+01 0.44009043502E+01 0.45381092211E+01 0.48296320202E+01 0.53120969551E+01
 0.60453386133E+01 0.71150889171E+01 0.86309211635E+01 0.10714553841E+02 0.13478517902E+02
 0.17148370733E+02 0.22054618422E+02 0.28343338935E+02 0.35897880255E+02 0.44338562000E+02
 0.53089388670E+02 0.61490080973E+02 0.68915082081E+02 0.74861521603E+02 0.78985307577E+02
 0.81089515265E+02 0.81089511970E+02 0.78985298605E+02 0.74861509455E+02 0.68915070045E+02
 0.46411296234E+02 0.39327045558E+02 0.32382715955E+02 0.26061928031E+02 0.20697205526E+02
 0.16411846196E+02 0.13111852516E+02 0.10550312038E+02 0.85794068290E+01 0.71150869379E+01
 0.60573849372E+01 0.53120538410E+01 0.48025525909E+01 0.44734614098E+01 0.42889581241E+01
 0.42295035499E+01 0.42889564645E+01 0.44734588708E+01 0.48025503829E+01 0.53120530460E+01
 0.60573859726E+01 0.71150892855E+01 0.85794091397E+01 0.10550312593E+02 0.13111849918E+02
 0.16411839902E+02 0.20697196274E+02 0.26061917528E+02 0.32382706522E+02 0.39327039260E+02
 0.46411294171E+02 0.53089388670E+02 0.58842989613E+02 0.63247844698E+02 0.66004962613E+02
 0.66942448575E+02 0.66004959525E+02 0.63247839826E+02 0.58842985104E+02 0.53089386716E+02
 0.33878731947E+02 0.28431637701E+02 0.23378151511E+02 0.18996311557E+02 0.15401787146E+02
 0.12536435006E+02 0.10235523120E+02 0.84293640783E+01 0.70586572052E+01 0.60453379793E+01
 0.53120538410E+01 0.47935763423E+01 0.44411053346E+01 0.42218969877E+01 0.41166601943E+01
 0.41166593329E+01 0.42218947608E+01 0.44411026920E+01 0.47935744041E+01 0.53120534442E+01
 0.60453392636E+01 0.70586595003E+01 0.84293660742E+01 0.10235523276E+02 0.12536432139E+02
 0.15401780748E+02 0.18996302135E+02 0.23378140311E+02 0.28431626360E+02 0.33878722055E+02
 0.39327039260E+02 0.44338562000E+02 0.48498422587E+02 0.51467230602E+02 0.53010691477E+02
 0.53010691722E+02 0.51467231622E+02 0.48498425095E+02 0.44338566754E+02 0.39327046708E+02
 0.24380168408E+02 0.20532654137E+02 0.17109549368E+02 0.14209081891E+02 0.11796180152E+02
 0.97957273409E+01 0.81935963471E+01 0.69510230822E+01 0.60106136380E+01 0.53120978382E+01
 0.48025525909E+01 0.44411053346E+01 0.41995364668E+01 0.40605242531E+01 0.40150945230E+01
 0.40605230254E+01 0.41995344742E+01 0.44411033312E+01 0.48025513643E+01 0.53120979030E+01
 0.60106150581E+01 0.69510253594E+01 0.81935986068E+01 0.97957284448E+01 0.11796179164E+02
 0.14209078145E+02 0.17109542774E+02 0.20532645182E+02 0.24380157905E+02 0.28431626360E+02
 0.32382706522E+02 0.35897880255E+02 0.38663290365E+02 0.40428869602E+02 0.41035518899E+02
 0.40428872759E+02 0.38663296446E+02 0.35897888777E+02 0.32382716751E+02 0.28431637294E+02
 0.17747293940E+02 0.15185224397E+02 0.12921112675E+02 0.10944322987E+02 0.92649020291E+01
 0.78913344536E+01 0.68018030081E+01 0.59572268933E+01 0.53133956270E+01 0.48296338300E+01
 0.44734614098E+01 0.42218969877E+01 0.40605242531E+01 0.39814917763E+01 0.39814914944E+01
 0.40605234792E+01 0.42218959578E+01 0.44734604702E+01 0.48296334037E+01 0.53133960919E+01
 0.59572285136E+01 0.68018057559E+01 0.78913380244E+01 0.92649057206E+01 0.10944325885E+02
 0.12921113827E+02 0.15185222912E+02 0.17747289499E+02 0.20532645182E+02 0.23378140311E+02
 0.26061917528E+02 0.28343338935E+02 0.30003247483E+02 0.30877066369E+02 0.30877068455E+02
 0.30003253329E+02 0.28343347447E+02 0.26061927155E+02 0.23378149399E+02 0.20532652360E+02
 0.13332926676E+02 0.11604203246E+02 0.10038942471E+02 0.86810145649E+01 0.75455079554E+01
 0.66235384255E+01 0.58911504551E+01 0.53182009041E+01 0.48753085525E+01 0.45381109260E+01
 0.42889581241E+01 0.41166601943E+01 0.40150945230E+01 0.39814914944E+01 0.40150947394E+01
 0.41166604829E+01 0.42889583052E+01 0.45381109508E+01 0.48753086435E+01 0.53182015552E+01
 0.58911523274E+01 0.66235420452E+01 0.75455134845E+01 0.86810215821E+01 0.10038949905E+02
 0.11604209748E+02 0.13332930826E+02 0.15185222912E+02 0.17109542774E+02 0.18996302135E+02
 0.20697196274E+02 0.22054618422E+02 0.22931263299E+02 0.23234374578E+02 0.22931266714E+02
 0.22054624257E+02 0.20697202821E+02 0.18996307518E+02 0.17109545471E+02 0.15185222132E+02
 0.10322139725E+02 0.91347512113E+01 0.80812936430E+01 0.71797082816E+01 0.64299150757E+01
 0.58194345854E+01 0.53295370792E+01 0.49404981094E+01 0.46351978411E+01 0.44009050434E+01
 0.42295035499E+01 0.41166593329E+01 0.40605230254E+01 0.40605234792E+01 0.41166604829E+01
 0.42295048733E+01 0.44009059833E+01 0.46351981303E+01 0.49404980015E+01 0.53295373379E+01
 0.58194362901E+01 0.64299191769E+01 0.71797152041E+01 0.80813030436E+01 0.91347618877E+01
 0.10322149974E+02 0.11604209748E+02 0.12921113827E+02 0.14209078145E+02 0.15401780748E+02
 0.16411839902E+02 0.17148370733E+02 0.17537310281E+02 0.17537311331E+02 0.17148373386E+02
 0.16411842837E+02 0.15401782285E+02 0.14209076820E+02 0.12921108910E+02 0.11604201570E+02
 0.82770863709E+01 0.74980495476E+01 0.68154001805E+01 0.62340407110E+01 0.57492947813E+01
 0.53508968308E+01 0.50267146292E+01 0.47655587839E+01 0.45588094363E+01 0.44009043502E+01
 0.42889564645E+01 0.42218947608E+01 0.41995344742E+01 0.42218959578E+01 0.42889583052E+01
 0.44009059833E+01 0.45588101156E+01 0.47655582391E+01 0.50267132978E+01 0.53508957457E+01
 0.57492952894E+01 0.62340439622E+01 0.68154066684E+01 0.74980589205E+01 0.82770974365E+01
 0.91347618877E+01 0.10038949905E+02 0.10944325885E+02 0.11796179164E+02 0.12536432139E+02
 0.13111849918E+02 0.13478517902E+02 0.13604629733E+02 0.13478518413E+02 0.13111850203E+02
 0.12536431046E+02 0.11796175589E+02 0.10944319285E+02 0.10038940546E+02 0.91347508426E+01
 0.69557620603E+01 0.64698437447E+01 0.60470804460E+01 0.56873426213E+01 0.53859752792E+01
 0.51362356890E+01 0.49312979220E+01 0.47655589676E+01 0.46351972670E+01 0.45381092211E+01
 0.44734588708E+01 0.44411026920E+01 0.44411033312E+01 0.44734604702E+01 0.45381109508E+01
 0.46351981303E+01 0.47655582391E+01 0.49312954750E+01 0.51362321455E+01 0.53859718256E+01
 0.56873406527E+01 0.60470811185E+01 0.64698475330E+01 0.69557686434E+01 0.74980589205E+01
 0.80813030436E+01 0.86810215821E+01 0.92649057206E+01 0.97957284448E+01 0.10235523276E+02
 0.10550312593E+02 0.10714553841E+02 0.10714553657E+02 0.10550311809E+02 0.10235521318E+02
 0.97957246784E+01 0.92648998167E+01 0.86810137958E+01 0.80812942839E+01 0.74980505507E+01
 0.61549954404E+01 0.58774207149E+01 0.56390498849E+01 0.54384388726E+01 0.52721938301E+01
 0.51362368440E+01 0.50267159673E+01 0.49404986256E+01 0.48753077925E+01 0.48296320202E+01
 0.48025503829E+01 0.47935744041E+01 0.48025513643E+01 0.48296334037E+01 0.48753086435E+01
 0.49404980015E+01 0.50267132978E+01 0.51362321455E+01 0.52721877858E+01 0.54384326251E+01
 0.56390446982E+01 0.58774176379E+01 0.61549949811E+01 0.64698475330E+01 0.68154066684E+01
 0.71797152041E+01 0.75455134845E+01 0.78913380244E+01 0.81935986068E+01 0.84293660742E+01
 0.85794091397E+01 0.86309211635E+01 0.85794083735E+01 0.84293643980E+01 0.81935958463E+01
 0.78913341909E+01 0.75455088935E+01 0.71797105352E+01 0.68154028618E+01 0.64698455251E+01
 0.57303893123E+01 0.56084435371E+01 0.55116749048E+01 0.54384403069E+01 0.53859779484E+01
 0.53508997587E+01 0.53295391890E+01 0.53182016695E+01 0.53133952497E+01 0.53120969551E+01
 0.53120530460E+01 0.53120534442E+01 0.53120979030E+01 0.53133960919E+01 0.53182015552E+01
 0.53295373379E+01 0.53508957457E+01 0.53859718256E+01 0.54384326251E+01 0.55116665857E+01
 0.56084356034E+01 0.57303826837E+01 0.58774176379E+01 0.60470811185E+01 0.62340439622E+01
 0.64299191769E+01 0.66235420452E+01 0.68018057559E+01 0.69510253594E+01 0.70586595003E+01
 0.71150892855E+01 0.71150889171E+01 0.70586584475E+01 0.69510237904E+01 0.68018039788E+01
 0.66235405071E+01 0.64299184589E+01 0.62340446623E+01 0.60470837104E+01 0.58774223436E+01
 0.55979687600E+01 0.56084441872E+01 0.56390520616E+01 0.56873462148E+01 0.57492988151E+01
 0.58194378958E+01 0.58911524304E+01 0.59572277399E+01 0.60106140671E+01 0.60453386133E+01
 0.60573859726E+01 0.60453392636E+01 0.60106150581E+01 0.59572285136E+01 0.58911523274E+01
 0.58194362901E+01 0.57492952894E+01 0.56873406527E+01 0.56390446982E+01 0.56084356034E+01
 0.55979597489E+01 0.56084356034E+01 0.56390446982E+01 0.56873406527E+01 0.57492952894E+01
 0.58194362901E+01 0.58911523274E+01 0.59572285136E+01 0.60106150581E+01 0.60453392636E+01
 0.60573859726E+01 0.60453386133E+01 0.60106140671E+01 0.59572277399E+01 0.58911524304E+01
 0.58194378958E+01 0.57492988151E+01 0.56873462148E+01 0.56390520616E+01 0.56084441872E+01
 0.57303893123E+01 0.58774223436E+01 0.60470837104E+01 0.62340446623E+01 0.64299184589E+01
 0.66235405071E+01 0.68018039788E+01 0.69510237904E+01 0.70586584475E+01 0.71150889171E+01
 0.71150892855E+01 0.70586595003E+01 0.69510253594E+01 0.68018057559E+01 0.66235420452E+01
 0.64299191769E+01 0.62340439622E+01 0.60470811185E+01 0.58774176379E+01 0.57303826837E+01
 0.56084356034E+01 0.55116665857E+01 0.54384326251E+01 0.53859718256E+01 0.53508957457E+01
 0.53295373379E+01 0.53182015552E+01 0.53133960919E+01 0.53120979030E+01 0.53120534442E+01
 0.53120530460E+01 0.53120969551E+01 0.53133952497E+01 0.53182016695E+01 0.53295391890E+01
 0.53508997587E+01 0.53859779484E+01 0.54384403069E+01 0.55116749048E+01 0.56084435371E+01
 0.61549954404E+01 0.64698455251E+01 0.68154028618E+01 0.71797105352E+01 0.75455088935E+01
 0.78913341909E+01 0.81935958463E+01 0.84293643980E+01 0.85794083735E+01 0.86309211635E+01
 0.85794091397E+01 0.84293660742E+01 0.81935986068E+01 0.78913380244E+01 0.75455134845E+01
 0.71797152041E+01 0.68154066684E+01 0.64698475330E+01 0.61549949811E+01 0.58774176379E+01
 0.56390446982E+01 0.54384326251E+01 0.52721877858E+01 0.51362321455E+01 0.50267132978E+01
 0.49404980015E+01 0.48753086435E+01 0.48296334037E+01 0.48025513643E+01 0.47935744041E+01
 0.48025503829E+01 0.48296320202E+01 0.48753077925E+01 0.49404986256E+01 0.50267159673E+01
 0.51362368440E+01 0.52721938301E+01 0.54384388726E+01 0.56390498849E+01 0.58774207149E+01
 0.69557620603E+01 0.74980505507E+01 0.80812942839E+01 0.86810137958E+01 0.92648998167E+01
 0.97957246784E+01 0.10235521318E+02 0.10550311809E+02 0.10714553657E+02 0.10714553841E+02
 0.10550312593E+02 0.10235523276E+02 0.97957284448E+01 0.92649057206E+01 0.86810215821E+01
 0.80813030436E+01 0.74980589205E+01 0.69557686434E+01 0.64698475330E+01 0.60470811185E+01
 0.56873406527E+01 0.53859718256E+01 0.51362321455E+01 0.49312954750E+01 0.47655582391E+01
 0.46351981303E+01 0.45381109508E+01 0.44734604702E+01 0.44411033312E+01 0.44411026920E+01
 0.44734588708E+01 0.45381092211E+01 0.46351972670E+01 0.47655589676E+01 0.49312979220E+01
 0.51362356890E+01 0.53859752792E+01 0.56873426213E+01 0.60470804460E+01 0.64698437447E+01
 0.82770863709E+01 0.91347508426E+01 0.10038940546E+02 0.10944319285E+02 0.11796175589E+02
 0.12536431046E+02 0.13111850203E+02 0.13478518413E+02 0.13604629733E+02 0.13478517902E+02
 0.13111849918E+02 0.12536432139E+02 0.11796179164E+02 0.10944325885E+02 0.10038949905E+02
 0.91347618877E+01 0.82770974365E+01 0.74980589205E+01 0.68154066684E+01 0.62340439622E+01
 0.57492952894E+01 0.53508957457E+01 0.50267132978E+01 0.47655582391E+01 0.45588101156E+01
 0.44009059833E+01 0.42889583052E+01 0.42218959578E+01 0.41995344742E+01 0.42218947608E+01
 0.42889564645E+01 0.44009043502E+01 0.45588094363E+01 0.47655587839E+01 0.50267146292E+01
 0.53508968308E+01 0.57492947813E+01 0.62340407110E+01 0.68154001805E+01 0.74980495476E+01
 0.10322139725E+02 0.11604201570E+02 0.12921108910E+02 0.14209076820E+02 0.15401782285E+02
 0.16411842837E+02 0.17148373386E+02 0.17537311331E+02 0.17537310281E+02 0.17148370733E+02
 0.16411839902E+02 0.15401780748E+02 0.14209078145E+02 0.12921113827E+02 0.11604209748E+02
 0.10322149974E+02 0.91347618877E+01 0.80813030436E+01 0.71797152041E+01 0.64299191769E+01
 0.58194362901E+01 0.53295373379E+01 0.49404980015E+01 0.46351981303E+01 0.44009059833E+01
 0.42295048733E+01 0.41166604829E+01 0.40605234792E+01 0.40605230254E+01 0.41166593329E+01
 0.42295035499E+01 0.44009050434E+01 0.46351978411E+01 0.49404981094E+01 0.53295370792E+01
 0.58194345854E+01 0.64299150757E+01 0.71797082816E+01 0.80812936430E+01 0.91347512113E+01
 0.13332926676E+02 0.15185222132E+02 0.17109545471E+02 0.18996307518E+02 0.20697202821E+02
 0.22054624257E+02 0.22931266714E+02 0.23234374578E+02 0.22931263299E+02 0.22054618422E+02
 0.20697196274E+02 0.18996302135E+02 0.17109542774E+02 0.15185222912E+02 0.13332930826E+02
 0.11604209748E+02 0.10038949905E+02 0.86810215821E+01 0.75455134845E+01 0.66235420452E+01
 0.58911523274E+01 0.53182015552E+01 0.48753086435E+01 0.45381109508E+01 0.42889583052E+01
 0.41166604829E+01 0.40150947394E+01 0.39814914944E+01 0.40150945230E+01 0.41166601943E+01
 0.42889581241E+01 0.45381109260E+01 0.48753085525E+01 0.53182009041E+01 0.58911504551E+01
 0.66235384255E+01 0.75455079554E+01 0.86810145649E+01 0.10038942471E+02 0.11604203246E+02
 0.17747293940E+02 0.20532652360E+02 0.23378149399E+02 0.26061927155E+02 0.28343347447E+02
 0.30003253329E+02 0.30877068455E+02 0.30877066369E+02 0.30003247483E+02 0.28343338935E+02
 0.26061917528E+02 0.23378140311E+02 0.20532645182E+02 0.17747289499E+02 0.15185222912E+02
 0.12921113827E+02 0.10944325885E+02 0.92649057206E+01 0.78913380244E+01 0.68018057559E+01
 0.59572285136E+01 0.53133960919E+01 0.48296334037E+01 0.44734604702E+01 0.42218959578E+01
 0.40605234792E+01 0.39814914944E+01 0.39814917763E+01 0.40605242531E+01 0.42218969877E+01
 0.44734614098E+01 0.48296338300E+01 0.53133956270E+01 0.59572268933E+01 0.68018030081E+01
 0.78913344536E+01 0.92649020291E+01 0.10944322987E+02 0.12921112675E+02 0.15185224397E+02
 0.24380168408E+02 0.28431637294E+02 0.32382716751E+02 0.35897888777E+02 0.38663296446E+02
 0.40428872759E+02 0.41035518899E+02 0.40428869602E+02 0.38663290365E+02 0.35897880255E+02
 0.32382706522E+02 0.28431626360E+02 0.24380157905E+02 0.20532645182E+02 0.17109542774E+02
 0.14209078145E+02 0.11796179164E+02 0.97957284448E+01 0.81935986068E+01 0.69510253594E+01
 0.60106150581E+01 0.53120979030E+01 0.48025513643E+01 0.44411033312E+01 0.41995344742E+01
 0.40605230254E+01 0.40150945230E+01 0.40605242531E+01 0.41995364668E+01 0.44411053346E+01
 0.48025525909E+01 0.53120978382E+01 0.60106136380E+01 0.69510230822E+01 0.81935963471E+01
 0.97957273409E+01 0.11796180152E+02 0.14209081891E+02 0.17109549368E+02 0.20532654137E+02
 0.33878731947E+02 0.39327046708E+02 0.44338566754E+02 0.48498425095E+02 0.51467231622E+02
 0.53010691722E+02 0.53010691477E+02 0.51467230602E+02 0.48498422587E+02 0.44338562000E+02
 0.39327039260E+02 0.33878722055E+02 0.28431626360E+02 0.23378140311E+02 0.18996302135E+02
 0.15401780748E+02 0.12536432139E+02 0.10235523276E+02 0.84293660742E+01 0.70586595003E+01
 0.60453392636E+01 0.53120534442E+01 0.47935744041E+01 0.44411026920E+01 0.42218947608E+01
 0.41166593329E+01 0.41166601943E+01 0.42218969877E+01 0.44411053346E+01 0.47935763423E+01
 0.53120538410E+01 0.60453379793E+01 0.70586572052E+01 0.84293640783E+01 0.10235523120E+02
 0.12536435006E+02 0.15401787146E+02 0.18996311557E+02 0.23378151511E+02 0.28431637701E+02
 0.46411296234E+02 0.53089386716E+02 0.58842985104E+02 0.63247839826E+02 0.66004959525E+02
 0.66942448575E+02 0.66004962613E+02 0.63247844698E+02 0.58842989613E+02 0.53089388670E+02
 0.46411294171E+02 0.39327039260E+02 0.32382706522E+02 0.26061917528E+02 0.20697196274E+02
 0.16411839902E+02 0.13111849918E+02 0.10550312593E+02 0.85794091397E+01 0.71150892855E+01
 0.60573859726E+01 0.53120530460E+01 0.48025503829E+01 0.44734588708E+01 0.42889564645E+01
 0.42295035499E+01 0.42889581241E+01 0.44734614098E+01 0.48025525909E+01 0.53120538410E+01
 0.60573849372E+01 0.71150869379E+01 0.85794068290E+01 0.10550312038E+02 0.13111852516E+02
 0.16411846196E+02 0.20697205526E+02 0.26061928031E+02 0.32382715955E+02 0.39327045558E+02
 0.61490072092E+02 0.68915070045E+02 0.74861509455E+02 0.78985298605E+02 0.81089511970E+02
 0.81089515265E+02 0.78985307577E+02 0.74861521603E+02 0.68915082081E+02 0.61490080973E+02
 0.53089388670E+02 0.44338562000E+02 0.35897880255E+02 0.28343338935E+02 0.22054618422E+02
 0.17148370733E+02 0.13478517902E+02 0.10714553841E+02 0.86309211635E+01 0.71150889171E+01
 0.60453386133E+01 0.53120969551E+01 0.48296320202E+01 0.45381092211E+01 0.44009043502E+01
 0.44009050434E+01 0.45381109260E+01 0.48296338300E+01 0.53120978382E+01 0.60453379793E+01
 0.71150869379E+01 0.86309188513E+01 0.10714552654E+02 0.13478519178E+02 0.17148375025E+02
 0.22054625098E+02 0.28343346261E+02 0.35897885780E+02 0.44338563484E+02 0.53089384845E+02
 0.77971969224E+02 0.85431082251E+02 0.90920372224E+02 0.94255302346E+02 0.95371080963E+02
 0.94255309981E+02 0.90920385765E+02 0.85431098752E+02 0.77971985346E+02 0.68915082081E+02
 0.58842989613E+02 0.48498422587E+02 0.38663290365E+02 0.30003247483E+02 0.22931263299E+02
 0.17537310281E+02 0.13604629733E+02 0.10714553657E+02 0.85794083735E+01 0.70586584475E+01
 0.60106140671E+01 0.53133952497E+01 0.48753077925E+01 0.46351972670E+01 0.45588094363E+01
 0.46351978411E+01 0.48753085525E+01 0.53133956270E+01 0.60106136380E+01 0.70586572052E+01
 0.85794068290E+01 0.10714552654E+02 0.13604630089E+02 0.17537312311E+02 0.22931266502E+02
 0.30003250520E+02 0.38663291309E+02 0.48498419614E+02 0.58842981591E+02 0.68915069178E+02
 0.94278273522E+02 0.10100409908E+03 0.10546520010E+03 0.10767300188E+03 0.10767300481E+03
 0.10546520837E+03 0.10100411132E+03 0.94278287782E+02 0.85431098752E+02 0.74861521603E+02
 0.63247844698E+02 0.51467230602E+02 0.40428869602E+02 0.30877066369E+02 0.23234374578E+02
 0.17537311331E+02 0.13478518413E+02 0.10550311809E+02 0.84293643980E+01 0.69510237904E+01
 0.59572277399E+01 0.53182016695E+01 0.49404986256E+01 0.47655589676E+01 0.47655587839E+01
 0.49404981094E+01 0.53182009041E+01 0.59572268933E+01 0.69510230822E+01 0.84293640783E+01
 0.10550312038E+02 0.13478519178E+02 0.17537312311E+02 0.23234375143E+02 0.30877065617E+02
 0.40428866554E+02 0.51467224500E+02 0.63247835230E+02 0.74861509176E+02 0.85431084533E+02
 0.10878543168E+03 0.11416400445E+03 0.11726783843E+03 0.11827603177E+03 0.11726783903E+03
 0.11416400603E+03 0.10878543480E+03 0.10100411132E+03 0.90920385765E+02 0.78985307577E+02
 0.66004962613E+02 0.53010691477E+02 0.41035518899E+02 0.30877068455E+02 0.22931266714E+02
 0.17148373386E+02 0.13111850203E+02 0.10235521318E+02 0.81935958463E+01 0.68018039788E+01
 0.58911524304E+01 0.53295391890E+01 0.50267159673E+01 0.49312979220E+01 0.50267146292E+01
 0.53295370792E+01 0.58911504551E+01 0.68018030081E+01 0.81935963471E+01 0.10235523120E+02
 0.13111852516E+02 0.17148375025E+02 0.22931266502E+02 0.30877065617E+02 0.41035513339E+02
 0.53010683814E+02 0.66004953960E+02 0.78985299241E+02 0.90920378796E+02 0.10100410627E+03
 0.12025733255E+03 0.12399165529E+03 0.12573186827E+03 0.12573186499E+03 0.12399164645E+03
 0.12025732082E+03 0.11416400603E+03 0.10546520837E+03 0.94255309981E+02 0.81089515265E+02
 0.66942448575E+02 0.53010691722E+02 0.40428872759E+02 0.30003253329E+02 0.22054624257E+02
 0.16411842837E+02 0.12536431046E+02 0.97957246784E+01 0.78913341909E+01 0.66235405071E+01
 0.58194378958E+01 0.53508997587E+01 0.51362368440E+01 0.51362356890E+01 0.53508968308E+01
 0.58194345854E+01 0.66235384255E+01 0.78913344536E+01 0.97957273409E+01 0.12536435006E+02
 0.16411846196E+02 0.22054625098E+02 0.30003250520E+02 0.40428866554E+02 0.53010683814E+02
 0.66942441609E+02 0.81089511940E+02 0.94255312018E+02 0.10546521584E+03 0.11416401719E+03
 0.12815969824E+03 0.13032537030E+03 0.13098232422E+03 0.13032535761E+03 0.12815967609E+03
 0.12399164645E+03 0.11726783903E+03 0.10767300481E+03 0.95371080963E+02 0.81089511970E+02
 0.66004959525E+02 0.51467231622E+02 0.38663296446E+02 0.28343347447E+02 0.20697202821E+02
 0.15401782285E+02 0.11796175589E+02 0.92648998167E+01 0.75455088935E+01 0.64299184589E+01
 0.57492988151E+01 0.53859779484E+01 0.52721938301E+01 0.53859752792E+01 0.57492947813E+01
 0.64299150757E+01 0.75455079554E+01 0.92649020291E+01 0.11796180152E+02 0.15401787146E+02
 0.20697205526E+02 0.28343346261E+02 0.38663291309E+02 0.51467224500E+02 0.66004953960E+02
 0.81089511940E+02 0.95371089371E+02 0.10767302226E+03 0.11726786324E+03 0.12399167262E+03
 0.13273818230E+03 0.13370991449E+03 0.13370990623E+03 0.13273815949E+03 0.13032535761E+03
 0.12573186499E+03 0.11827603177E+03 0.10767300188E+03 0.94255302346E+02 0.78985298605E+02
 0.63247839826E+02 0.48498425095E+02 0.35897888777E+02 0.26061927155E+02 0.18996307518E+02
 0.14209076820E+02 0.10944319285E+02 0.86810137958E+01 0.71797105352E+01 0.62340446623E+01
 0.56873462148E+01 0.54384403069E+01 0.54384388726E+01 0.56873426213E+01 0.62340407110E+01
 0.71797082816E+01 0.86810145649E+01 0.10944322987E+02 0.14209081891E+02 0.18996311557E+02
 0.26061928031E+02 0.35897885780E+02 0.48498419614E+02 0.63247835230E+02 0.78985299241E+02
 0.94255312018E+02 0.10767302226E+03 0.11827606138E+03 0.12573189919E+03 0.13032538964E+03
 0.13483399372E+03 0.13511183258E+03 0.13483397903E+03 0.13370990623E+03 0.13098232422E+03
 0.12573186827E+03 0.11726783843E+03 0.10546520010E+03 0.90920372224E+02 0.74861509455E+02
 0.58842985104E+02 0.44338566754E+02 0.32382716751E+02 0.23378149399E+02 0.17109545471E+02
 0.12921108910E+02 0.10038940546E+02 0.80812942839E+01 0.68154028618E+01 0.60470837104E+01
 0.56390520616E+01 0.55116749048E+01 0.56390498849E+01 0.60470804460E+01 0.68154001805E+01
 0.80812936430E+01 0.10038942471E+02 0.12921112675E+02 0.17109549368E+02 0.23378151511E+02
 0.32382715955E+02 0.44338563484E+02 0.58842981591E+02 0.74861509176E+02 0.90920378796E+02
 0.10546521584E+03 0.11726786324E+03 0.12573189919E+03 0.13098235591E+03 0.13370993227E+03
 0.13551019746E+03 0.13551019294E+03 0.13511183258E+03 0.13370991449E+03 0.13032537030E+03
 0.12399165529E+03 0.11416400445E+03 0.10100409908E+03 0.85431082251E+02 0.68915070045E+02
 0.53089386716E+02 0.39327046708E+02 0.28431637294E+02 0.20532652360E+02 0.15185222132E+02
 0.11604201570E+02 0.91347508426E+01 0.74980505507E+01 0.64698455251E+01 0.58774223436E+01
 0.56084441872E+01 0.56084435371E+01 0.58774207149E+01 0.64698437447E+01 0.74980495476E+01
 0.91347512113E+01 0.11604203246E+02 0.15185224397E+02 0.20532654137E+02 0.28431637701E+02
 0.39327045558E+02 0.53089384845E+02 0.68915069178E+02 0.85431084533E+02 0.10100410627E+03
 0.11416401719E+03 0.12399167262E+03 0.13032538964E+03 0.13370993227E+03 0.13511184511E+03
 0.13551019746E+03 0.13511184511E+03 0.13370993227E+03 0.13032538964E+03 0.12399167262E+03
 0.11416401719E+03 0.10100410627E+03 0.85431084533E+02 0.68915069178E+02 0.53089384845E+02
 0.39327045558E+02 0.28431637701E+02 0.20532654137E+02 0.15185224397E+02 0.11604203246E+02
 0.91347512113E+01 0.74980495476E+01 0.64698437447E+01 0.58774207149E+01 0.56084435371E+01
 0.56084441872E+01 0.58774223436E+01 0.64698455251E+01 0.74980505507E+01 0.91347508426E+01
 0.11604201570E+02 0.15185222132E+02 0.20532652360E+02 0.28431637294E+02 0.39327046708E+02