Pt-fcc                                  
           1
     0.000000    1.978849    1.978849
     1.978849    0.000000    1.978849
     1.978849    1.978849    0.000000
   Pt
     1
Direct configuration=     1
   0.00000000  0.00000000  0.00000000
