Co-fcc                                  
   1.00000000000000     
     0.000000    1.754268    1.754268
     1.754268    0.000000    1.754268
     1.754268    1.754268    0.000000
   Co
     1
Direct
  0.000000  0.000000  0.000000
 
   32   32   32
 0.10235498085E+03 0.10008914102E+03 0.93603529509E+02 0.83750553050E+02 0.71710402590E+02
 0.58738423190E+02 0.45962700406E+02 0.34275929172E+02 0.24307233711E+02 0.16427397400E+02
 0.10750325643E+02 0.71285518722E+01 0.51693783554E+01 0.42989640485E+01 0.38908045458E+01
 0.36494998327E+01 0.35692916222E+01 0.36494998327E+01 0.38908045458E+01 0.42989640485E+01
 0.51693783554E+01 0.71285518722E+01 0.10750325643E+02 0.16427397400E+02 0.24307233711E+02
 0.34275929172E+02 0.45962700406E+02 0.58738423190E+02 0.71710402590E+02 0.83750553050E+02
 0.93603529509E+02 0.10008914102E+03 0.10008914102E+03 0.95714875652E+02 0.87556106415E+02
 0.76639451721E+02 0.64189344547E+02 0.51396977709E+02 0.39266381943E+02 0.28550887491E+02
 0.19745673048E+02 0.13091530990E+02 0.85702493295E+01 0.59066638735E+01 0.46075042461E+01
 0.40531051680E+01 0.37357079636E+01 0.35768586838E+01 0.35768586922E+01 0.37357079621E+01
 0.40531051016E+01 0.46075040739E+01 0.59066636131E+01 0.85702490518E+01 0.13091530782E+02
 0.19745672937E+02 0.28550887414E+02 0.39266381745E+02 0.51396977227E+02 0.64189343703E+02
 0.76639450590E+02 0.87556105247E+02 0.95714874767E+02 0.10008914069E+03 0.93603529509E+02
 0.87556106415E+02 0.78357385731E+02 0.67098460938E+02 0.54948078508E+02 0.42967404776E+02
 0.32007111164E+02 0.22674048961E+02 0.15327296043E+02 0.10073020778E+02 0.67590210937E+01
 0.49940871761E+01 0.42156158013E+01 0.38287836503E+01 0.35980913243E+01 0.35216691767E+01
 0.35980914159E+01 0.38287837301E+01 0.42156157399E+01 0.49940869179E+01 0.67590207125E+01
 0.10073020434E+02 0.15327295871E+02 0.22674048946E+02 0.32007111103E+02 0.42967404349E+02
 0.54948077454E+02 0.67098459232E+02 0.78357383664E+02 0.87556104529E+02 0.93603528381E+02
 0.95714874767E+02 0.83750553050E+02 0.76639451721E+02 0.67098460938E+02 0.56183589648E+02
 0.44939798292E+02 0.34267939218E+02 0.24860227513E+02 0.17178303636E+02 0.11442023405E+02
 0.76186355965E+01 0.54283248121E+01 0.43903518634E+01 0.39204664554E+01 0.36289754385E+01
 0.34845551088E+01 0.34845552432E+01 0.36289757468E+01 0.39204667180E+01 0.43903518885E+01
 0.54283245725E+01 0.76186352560E+01 0.11442023207E+02 0.17178303721E+02 0.24860227766E+02
 0.34267939281E+02 0.44939797727E+02 0.56183588198E+02 0.67098458730E+02 0.76639449289E+02
 0.83750551151E+02 0.87556104529E+02 0.87556105247E+02 0.71710402590E+02 0.64189344547E+02
 0.54948078508E+02 0.44939798292E+02 0.35054608161E+02 0.26028901229E+02 0.18400484855E+02
 0.12484845435E+02 0.83573833735E+01 0.58485956811E+01 0.45726181719E+01 0.40026085168E+01
 0.36639896670E+01 0.34632959100E+01 0.33974231941E+01 0.34632962961E+01 0.36639902009E+01
 0.40026088776E+01 0.45726181690E+01 0.58485953822E+01 0.83573830653E+01 0.12484845427E+02
 0.18400485248E+02 0.26028901797E+02 0.35054608425E+02 0.44939797783E+02 0.54948077053E+02
 0.64189342433E+02 0.71710400496E+02 0.76639449289E+02 0.78357383664E+02 0.76639450590E+02
 0.58738423190E+02 0.51396977709E+02 0.42967404776E+02 0.34267939218E+02 0.26028901229E+02
 0.18827537809E+02 0.13048502384E+02 0.88565159215E+01 0.61824018414E+01 0.47374618972E+01
 0.40703365126E+01 0.36974201931E+01 0.34538636097E+01 0.33352790385E+01 0.33352792725E+01
 0.34538641614E+01 0.36974207096E+01 0.40703366596E+01 0.47374615808E+01 0.61824012732E+01
 0.88565155010E+01 0.13048502441E+02 0.18827538387E+02 0.26028902017E+02 0.34267939706E+02
 0.42967404547E+02 0.51396976690E+02 0.58738421735E+02 0.64189342433E+02 0.67098458730E+02
 0.67098459232E+02 0.64189343703E+02 0.45962700406E+02 0.39266381943E+02 0.32007111164E+02
 0.24860227513E+02 0.18400484855E+02 0.13048502384E+02 0.90328373606E+01 0.63672290742E+01
 0.48533228352E+01 0.41213588410E+01 0.37244811276E+01 0.34516729833E+01 0.32942510356E+01
 0.32432406010E+01 0.32942513856E+01 0.34516734224E+01 0.37244812966E+01 0.41213585043E+01
 0.48533220404E+01 0.63672281393E+01 0.90328367115E+01 0.13048502313E+02 0.18400485359E+02
 0.24860228301E+02 0.32007111808E+02 0.39266382132E+02 0.45962700107E+02 0.51396976690E+02
 0.54948077053E+02 0.56183588198E+02 0.54948077454E+02 0.51396977227E+02 0.34275929172E+02
 0.28550887491E+02 0.22674048961E+02 0.17178303636E+02 0.12484845435E+02 0.88565159215E+01
 0.63672290742E+01 0.48950973674E+01 0.41494325430E+01 0.37418908880E+01 0.34526472747E+01
 0.32695305922E+01 0.31821834706E+01 0.31821835847E+01 0.32695308363E+01 0.34526474016E+01
 0.37418906520E+01 0.41494318367E+01 0.48950963045E+01 0.63672279396E+01 0.88565150493E+01
 0.12484845057E+02 0.17178303785E+02 0.22674049489E+02 0.28550888155E+02 0.34275929752E+02
 0.39266382132E+02 0.42967404547E+02 0.44939797783E+02 0.44939797727E+02 0.42967404349E+02
 0.39266381745E+02 0.24307233711E+02 0.19745673048E+02 0.15327296043E+02 0.11442023405E+02
 0.83573833735E+01 0.61824018414E+01 0.48533228352E+01 0.41494325430E+01 0.37478745512E+01
 0.34538750742E+01 0.32567194919E+01 0.31459964601E+01 0.31105978525E+01 0.31459965208E+01
 0.32567195492E+01 0.34538750197E+01 0.37478742765E+01 0.41494319794E+01 0.48533219966E+01
 0.61824008353E+01 0.83573823815E+01 0.11442022645E+02 0.15327295681E+02 0.19745673159E+02
 0.24307234232E+02 0.28550888155E+02 0.32007111808E+02 0.34267939706E+02 0.35054608425E+02
 0.34267939281E+02 0.32007111103E+02 0.28550887414E+02 0.16427397400E+02 0.13091530990E+02
 0.10073020778E+02 0.76186355965E+01 0.58485956811E+01 0.47374618972E+01 0.41213588410E+01
 0.37418908880E+01 0.34538750742E+01 0.32528041675E+01 0.31294077070E+01 0.30716302460E+01
 0.30716302191E+01 0.31294076618E+01 0.32528041917E+01 0.34538752136E+01 0.37418910928E+01
 0.41213589491E+01 0.47374617175E+01 0.58485951095E+01 0.76186346910E+01 0.10073019787E+02
 0.13091530230E+02 0.16427397109E+02 0.19745673159E+02 0.22674049489E+02 0.24860228301E+02
 0.26028902017E+02 0.26028901797E+02 0.24860227766E+02 0.22674048946E+02 0.19745672937E+02
 0.10750325643E+02 0.85702493295E+01 0.67590210937E+01 0.54283248121E+01 0.45726181719E+01
 0.40703365126E+01 0.37244811276E+01 0.34526472747E+01 0.32567194919E+01 0.31294077070E+01
 0.30593667900E+01 0.30372081907E+01 0.30593666584E+01 0.31294076123E+01 0.32567196597E+01
 0.34526478307E+01 0.37244819923E+01 0.40703374172E+01 0.45726187683E+01 0.54283248750E+01
 0.67590206023E+01 0.85702485052E+01 0.10750324819E+02 0.13091530230E+02 0.15327295681E+02
 0.17178303785E+02 0.18400485359E+02 0.18827538387E+02 0.18400485248E+02 0.17178303721E+02
 0.15327295871E+02 0.13091530782E+02 0.71285518722E+01 0.59066638735E+01 0.49940871761E+01
 0.43903518634E+01 0.40026085168E+01 0.36974201931E+01 0.34516729833E+01 0.32695305922E+01
 0.31459964601E+01 0.30716302460E+01 0.30372081907E+01 0.30372080771E+01 0.30716300041E+01
 0.31459963258E+01 0.32695308225E+01 0.34516737138E+01 0.36974213572E+01 0.40026098764E+01
 0.43903530805E+01 0.49940879816E+01 0.59066641404E+01 0.71285516413E+01 0.85702485052E+01
 0.10073019787E+02 0.11442022645E+02 0.12484845057E+02 0.13048502313E+02 0.13048502441E+02
 0.12484845427E+02 0.11442023207E+02 0.10073020434E+02 0.85702490518E+01 0.51693783554E+01
 0.46075042461E+01 0.42156158013E+01 0.39204664554E+01 0.36639896670E+01 0.34538636097E+01
 0.32942510356E+01 0.31821834706E+01 0.31105978525E+01 0.30716302191E+01 0.30593666584E+01
 0.30716300041E+01 0.31105975068E+01 0.31821831533E+01 0.32942509392E+01 0.34538639220E+01
 0.36639904781E+01 0.39204677371E+01 0.42156173512E+01 0.46075057453E+01 0.51693794863E+01
 0.59066641404E+01 0.67590206023E+01 0.76186346910E+01 0.83573823815E+01 0.88565150493E+01
 0.90328367115E+01 0.88565155010E+01 0.83573830653E+01 0.76186352560E+01 0.67590207125E+01
 0.59066636131E+01 0.42989640485E+01 0.40531051680E+01 0.38287836503E+01 0.36289754385E+01
 0.34632959100E+01 0.33352790385E+01 0.32432406010E+01 0.31821835847E+01 0.31459965208E+01
 0.31294076618E+01 0.31294076123E+01 0.31459963258E+01 0.31821831533E+01 0.32432399172E+01
 0.33352782492E+01 0.34632953376E+01 0.36289754364E+01 0.38287844315E+01 0.40531066744E+01
 0.42989658973E+01 0.46075057453E+01 0.49940879816E+01 0.54283248750E+01 0.58485951095E+01
 0.61824008353E+01 0.63672279396E+01 0.63672281393E+01 0.61824012732E+01 0.58485953822E+01
 0.54283245725E+01 0.49940869179E+01 0.46075040739E+01 0.38908045458E+01 0.37357079636E+01
 0.35980913243E+01 0.34845551088E+01 0.33974231941E+01 0.33352792725E+01 0.32942513856E+01
 0.32695308363E+01 0.32567195492E+01 0.32528041917E+01 0.32567196597E+01 0.32695308225E+01
 0.32942509392E+01 0.33352782492E+01 0.33974217498E+01 0.34845536917E+01 0.35980904716E+01
 0.37357080273E+01 0.38908055362E+01 0.40531066744E+01 0.42156173512E+01 0.43903530805E+01
 0.45726187683E+01 0.47374617175E+01 0.48533219966E+01 0.48950963045E+01 0.48533220404E+01
 0.47374615808E+01 0.45726181690E+01 0.43903518885E+01 0.42156157399E+01 0.40531051016E+01
 0.36494998327E+01 0.35768586838E+01 0.35216691767E+01 0.34845552432E+01 0.34632962961E+01
 0.34538641614E+01 0.34516734224E+01 0.34526474016E+01 0.34538750197E+01 0.34538752136E+01
 0.34526478307E+01 0.34516737138E+01 0.34538639220E+01 0.34632953376E+01 0.34845536917E+01
 0.35216674339E+01 0.35768572572E+01 0.36494990998E+01 0.37357080273E+01 0.38287844315E+01
 0.39204677371E+01 0.40026098764E+01 0.40703374172E+01 0.41213589491E+01 0.41494319794E+01
 0.41494318367E+01 0.41213585043E+01 0.40703366596E+01 0.40026088776E+01 0.39204667180E+01
 0.38287837301E+01 0.37357079621E+01 0.35692916222E+01 0.35768586922E+01 0.35980914159E+01
 0.36289757468E+01 0.36639902009E+01 0.36974207096E+01 0.37244812966E+01 0.37418906520E+01
 0.37478742765E+01 0.37418910928E+01 0.37244819923E+01 0.36974213572E+01 0.36639904781E+01
 0.36289754364E+01 0.35980904716E+01 0.35768572572E+01 0.35692900020E+01 0.35768572572E+01
 0.35980904716E+01 0.36289754364E+01 0.36639904781E+01 0.36974213572E+01 0.37244819923E+01
 0.37418910928E+01 0.37478742765E+01 0.37418906520E+01 0.37244812966E+01 0.36974207096E+01
 0.36639902009E+01 0.36289757468E+01 0.35980914159E+01 0.35768586922E+01 0.36494998327E+01
 0.37357079621E+01 0.38287837301E+01 0.39204667180E+01 0.40026088776E+01 0.40703366596E+01
 0.41213585043E+01 0.41494318367E+01 0.41494319794E+01 0.41213589491E+01 0.40703374172E+01
 0.40026098764E+01 0.39204677371E+01 0.38287844315E+01 0.37357080273E+01 0.36494990998E+01
 0.35768572572E+01 0.35216674339E+01 0.34845536917E+01 0.34632953376E+01 0.34538639220E+01
 0.34516737138E+01 0.34526478307E+01 0.34538752136E+01 0.34538750197E+01 0.34526474016E+01
 0.34516734224E+01 0.34538641614E+01 0.34632962961E+01 0.34845552432E+01 0.35216691767E+01
 0.35768586838E+01 0.38908045458E+01 0.40531051016E+01 0.42156157399E+01 0.43903518885E+01
 0.45726181690E+01 0.47374615808E+01 0.48533220404E+01 0.48950963045E+01 0.48533219966E+01
 0.47374617175E+01 0.45726187683E+01 0.43903530805E+01 0.42156173512E+01 0.40531066744E+01
 0.38908055362E+01 0.37357080273E+01 0.35980904716E+01 0.34845536917E+01 0.33974217498E+01
 0.33352782492E+01 0.32942509392E+01 0.32695308225E+01 0.32567196597E+01 0.32528041917E+01
 0.32567195492E+01 0.32695308363E+01 0.32942513856E+01 0.33352792725E+01 0.33974231941E+01
 0.34845551088E+01 0.35980913243E+01 0.37357079636E+01 0.42989640485E+01 0.46075040739E+01
 0.49940869179E+01 0.54283245725E+01 0.58485953822E+01 0.61824012732E+01 0.63672281393E+01
 0.63672279396E+01 0.61824008353E+01 0.58485951095E+01 0.54283248750E+01 0.49940879816E+01
 0.46075057453E+01 0.42989658973E+01 0.40531066744E+01 0.38287844315E+01 0.36289754364E+01
 0.34632953376E+01 0.33352782492E+01 0.32432399172E+01 0.31821831533E+01 0.31459963258E+01
 0.31294076123E+01 0.31294076618E+01 0.31459965208E+01 0.31821835847E+01 0.32432406010E+01
 0.33352790385E+01 0.34632959100E+01 0.36289754385E+01 0.38287836503E+01 0.40531051680E+01
 0.51693783554E+01 0.59066636131E+01 0.67590207125E+01 0.76186352560E+01 0.83573830653E+01
 0.88565155010E+01 0.90328367115E+01 0.88565150493E+01 0.83573823815E+01 0.76186346910E+01
 0.67590206023E+01 0.59066641404E+01 0.51693794863E+01 0.46075057453E+01 0.42156173512E+01
 0.39204677371E+01 0.36639904781E+01 0.34538639220E+01 0.32942509392E+01 0.31821831533E+01
 0.31105975068E+01 0.30716300041E+01 0.30593666584E+01 0.30716302191E+01 0.31105978525E+01
 0.31821834706E+01 0.32942510356E+01 0.34538636097E+01 0.36639896670E+01 0.39204664554E+01
 0.42156158013E+01 0.46075042461E+01 0.71285518722E+01 0.85702490518E+01 0.10073020434E+02
 0.11442023207E+02 0.12484845427E+02 0.13048502441E+02 0.13048502313E+02 0.12484845057E+02
 0.11442022645E+02 0.10073019787E+02 0.85702485052E+01 0.71285516413E+01 0.59066641404E+01
 0.49940879816E+01 0.43903530805E+01 0.40026098764E+01 0.36974213572E+01 0.34516737138E+01
 0.32695308225E+01 0.31459963258E+01 0.30716300041E+01 0.30372080771E+01 0.30372081907E+01
 0.30716302460E+01 0.31459964601E+01 0.32695305922E+01 0.34516729833E+01 0.36974201931E+01
 0.40026085168E+01 0.43903518634E+01 0.49940871761E+01 0.59066638735E+01 0.10750325643E+02
 0.13091530782E+02 0.15327295871E+02 0.17178303721E+02 0.18400485248E+02 0.18827538387E+02
 0.18400485359E+02 0.17178303785E+02 0.15327295681E+02 0.13091530230E+02 0.10750324819E+02
 0.85702485052E+01 0.67590206023E+01 0.54283248750E+01 0.45726187683E+01 0.40703374172E+01
 0.37244819923E+01 0.34526478307E+01 0.32567196597E+01 0.31294076123E+01 0.30593666584E+01
 0.30372081907E+01 0.30593667900E+01 0.31294077070E+01 0.32567194919E+01 0.34526472747E+01
 0.37244811276E+01 0.40703365126E+01 0.45726181719E+01 0.54283248121E+01 0.67590210937E+01
 0.85702493295E+01 0.16427397400E+02 0.19745672937E+02 0.22674048946E+02 0.24860227766E+02
 0.26028901797E+02 0.26028902017E+02 0.24860228301E+02 0.22674049489E+02 0.19745673159E+02
 0.16427397109E+02 0.13091530230E+02 0.10073019787E+02 0.76186346910E+01 0.58485951095E+01
 0.47374617175E+01 0.41213589491E+01 0.37418910928E+01 0.34538752136E+01 0.32528041917E+01
 0.31294076618E+01 0.30716302191E+01 0.30716302460E+01 0.31294077070E+01 0.32528041675E+01
 0.34538750742E+01 0.37418908880E+01 0.41213588410E+01 0.47374618972E+01 0.58485956811E+01
 0.76186355965E+01 0.10073020778E+02 0.13091530990E+02 0.24307233711E+02 0.28550887414E+02
 0.32007111103E+02 0.34267939281E+02 0.35054608425E+02 0.34267939706E+02 0.32007111808E+02
 0.28550888155E+02 0.24307234232E+02 0.19745673159E+02 0.15327295681E+02 0.11442022645E+02
 0.83573823815E+01 0.61824008353E+01 0.48533219966E+01 0.41494319794E+01 0.37478742765E+01
 0.34538750197E+01 0.32567195492E+01 0.31459965208E+01 0.31105978525E+01 0.31459964601E+01
 0.32567194919E+01 0.34538750742E+01 0.37478745512E+01 0.41494325430E+01 0.48533228352E+01
 0.61824018414E+01 0.83573833735E+01 0.11442023405E+02 0.15327296043E+02 0.19745673048E+02
 0.34275929172E+02 0.39266381745E+02 0.42967404349E+02 0.44939797727E+02 0.44939797783E+02
 0.42967404547E+02 0.39266382132E+02 0.34275929752E+02 0.28550888155E+02 0.22674049489E+02
 0.17178303785E+02 0.12484845057E+02 0.88565150493E+01 0.63672279396E+01 0.48950963045E+01
 0.41494318367E+01 0.37418906520E+01 0.34526474016E+01 0.32695308363E+01 0.31821835847E+01
 0.31821834706E+01 0.32695305922E+01 0.34526472747E+01 0.37418908880E+01 0.41494325430E+01
 0.48950973674E+01 0.63672290742E+01 0.88565159215E+01 0.12484845435E+02 0.17178303636E+02
 0.22674048961E+02 0.28550887491E+02 0.45962700406E+02 0.51396977227E+02 0.54948077454E+02
 0.56183588198E+02 0.54948077053E+02 0.51396976690E+02 0.45962700107E+02 0.39266382132E+02
 0.32007111808E+02 0.24860228301E+02 0.18400485359E+02 0.13048502313E+02 0.90328367115E+01
 0.63672281393E+01 0.48533220404E+01 0.41213585043E+01 0.37244812966E+01 0.34516734224E+01
 0.32942513856E+01 0.32432406010E+01 0.32942510356E+01 0.34516729833E+01 0.37244811276E+01
 0.41213588410E+01 0.48533228352E+01 0.63672290742E+01 0.90328373606E+01 0.13048502384E+02
 0.18400484855E+02 0.24860227513E+02 0.32007111164E+02 0.39266381943E+02 0.58738423190E+02
 0.64189343703E+02 0.67098459232E+02 0.67098458730E+02 0.64189342433E+02 0.58738421735E+02
 0.51396976690E+02 0.42967404547E+02 0.34267939706E+02 0.26028902017E+02 0.18827538387E+02
 0.13048502441E+02 0.88565155010E+01 0.61824012732E+01 0.47374615808E+01 0.40703366596E+01
 0.36974207096E+01 0.34538641614E+01 0.33352792725E+01 0.33352790385E+01 0.34538636097E+01
 0.36974201931E+01 0.40703365126E+01 0.47374618972E+01 0.61824018414E+01 0.88565159215E+01
 0.13048502384E+02 0.18827537809E+02 0.26028901229E+02 0.34267939218E+02 0.42967404776E+02
 0.51396977709E+02 0.71710402590E+02 0.76639450590E+02 0.78357383664E+02 0.76639449289E+02
 0.71710400496E+02 0.64189342433E+02 0.54948077053E+02 0.44939797783E+02 0.35054608425E+02
 0.26028901797E+02 0.18400485248E+02 0.12484845427E+02 0.83573830653E+01 0.58485953822E+01
 0.45726181690E+01 0.40026088776E+01 0.36639902009E+01 0.34632962961E+01 0.33974231941E+01
 0.34632959100E+01 0.36639896670E+01 0.40026085168E+01 0.45726181719E+01 0.58485956811E+01
 0.83573833735E+01 0.12484845435E+02 0.18400484855E+02 0.26028901229E+02 0.35054608161E+02
 0.44939798292E+02 0.54948078508E+02 0.64189344547E+02 0.83750553050E+02 0.87556105247E+02
 0.87556104529E+02 0.83750551151E+02 0.76639449289E+02 0.67098458730E+02 0.56183588198E+02
 0.44939797727E+02 0.34267939281E+02 0.24860227766E+02 0.17178303721E+02 0.11442023207E+02
 0.76186352560E+01 0.54283245725E+01 0.43903518885E+01 0.39204667180E+01 0.36289757468E+01
 0.34845552432E+01 0.34845551088E+01 0.36289754385E+01 0.39204664554E+01 0.43903518634E+01
 0.54283248121E+01 0.76186355965E+01 0.11442023405E+02 0.17178303636E+02 0.24860227513E+02
 0.34267939218E+02 0.44939798292E+02 0.56183589648E+02 0.67098460938E+02 0.76639451721E+02
 0.93603529509E+02 0.95714874767E+02 0.93603528381E+02 0.87556104529E+02 0.78357383664E+02
 0.67098459232E+02 0.54948077454E+02 0.42967404349E+02 0.32007111103E+02 0.22674048946E+02
 0.15327295871E+02 0.10073020434E+02 0.67590207125E+01 0.49940869179E+01 0.42156157399E+01
 0.38287837301E+01 0.35980914159E+01 0.35216691767E+01 0.35980913243E+01 0.38287836503E+01
 0.42156158013E+01 0.49940871761E+01 0.67590210937E+01 0.10073020778E+02 0.15327296043E+02
 0.22674048961E+02 0.32007111164E+02 0.42967404776E+02 0.54948078508E+02 0.67098460938E+02
 0.78357385731E+02 0.87556106415E+02 0.10008914102E+03 0.10008914069E+03 0.95714874767E+02
 0.87556105247E+02 0.76639450590E+02 0.64189343703E+02 0.51396977227E+02 0.39266381745E+02
 0.28550887414E+02 0.19745672937E+02 0.13091530782E+02 0.85702490518E+01 0.59066636131E+01
 0.46075040739E+01 0.40531051016E+01 0.37357079621E+01 0.35768586922E+01 0.35768586838E+01
 0.37357079636E+01 0.40531051680E+01 0.46075042461E+01 0.59066638735E+01 0.85702493295E+01
 0.13091530990E+02 0.19745673048E+02 0.28550887491E+02 0.39266381943E+02 0.51396977709E+02
 0.64189344547E+02 0.76639451721E+02 0.87556106415E+02 0.95714875652E+02 0.10008914102E+03
 0.95714875652E+02 0.87556106415E+02 0.76639451721E+02 0.64189344547E+02 0.51396977709E+02
 0.39266381943E+02 0.28550887491E+02 0.19745673048E+02 0.13091530990E+02 0.85702493295E+01
 0.59066638735E+01 0.46075042461E+01 0.40531051680E+01 0.37357079636E+01 0.35768586838E+01
 0.35768586922E+01 0.37357079621E+01 0.40531051016E+01 0.46075040739E+01 0.59066636131E+01
 0.85702490518E+01 0.13091530782E+02 0.19745672937E+02 0.28550887414E+02 0.39266381745E+02
 0.51396977227E+02 0.64189343703E+02 0.76639450590E+02 0.87556105247E+02 0.95714874767E+02
 0.10008914069E+03 0.95714875652E+02 0.89533417422E+02 0.80132909121E+02 0.68629952120E+02
 0.56218532943E+02 0.43980156699E+02 0.32779548808E+02 0.23232613266E+02 0.15704605067E+02
 0.10306217208E+02 0.68878288968E+01 0.50577241909E+01 0.42489067863E+01 0.38548650751E+01
 0.36203740433E+01 0.35426096987E+01 0.36203740546E+01 0.38548650184E+01 0.42489065683E+01
 0.50577237857E+01 0.68878283843E+01 0.10306216734E+02 0.15704604739E+02 0.23232613047E+02
 0.32779548494E+02 0.43980155986E+02 0.56218531610E+02 0.68629950173E+02 0.80132906875E+02
 0.89533415423E+02 0.95714874470E+02 0.97873288336E+02 0.87556106415E+02 0.80132909121E+02
 0.70177198946E+02 0.58791653452E+02 0.47063111983E+02 0.35924244499E+02 0.26089216579E+02
 0.18034948230E+02 0.11992689241E+02 0.79375060517E+01 0.55919861127E+01 0.44703782261E+01
 0.39746264190E+01 0.36739034581E+01 0.35244359234E+01 0.35244359574E+01 0.36739035014E+01
 0.39746263420E+01 0.44703779319E+01 0.55919856255E+01 0.79375055188E+01 0.11992688833E+02
 0.18034948000E+02 0.26089216362E+02 0.35924243954E+02 0.47063110745E+02 0.58791651365E+02
 0.70177196224E+02 0.80132906333E+02 0.87556104312E+02 0.91529894576E+02 0.91529895359E+02
 0.76639451721E+02 0.68629952120E+02 0.58791653452E+02 0.48136080076E+02 0.37602488572E+02
 0.27964307725E+02 0.19786561291E+02 0.13405559997E+02 0.89122174755E+01 0.61452324065E+01
 0.47165729855E+01 0.40855815808E+01 0.37313869135E+01 0.35203437367E+01 0.34508742371E+01
 0.35203438553E+01 0.37313870255E+01 0.40855815311E+01 0.47165727122E+01 0.61452320044E+01
 0.89122171433E+01 0.13405559887E+02 0.19786561365E+02 0.27964307696E+02 0.37602488022E+02
 0.48136078667E+02 0.58791651164E+02 0.68629949357E+02 0.76639449203E+02 0.81890621230E+02
 0.83721269341E+02 0.81890622736E+02 0.64189344547E+02 0.56218532943E+02 0.47063111983E+02
 0.37602488572E+02 0.28617802959E+02 0.20726505599E+02 0.14345373149E+02 0.96643303884E+01
 0.66304552467E+01 0.49585308787E+01 0.41854741472E+01 0.37861267683E+01 0.35262678312E+01
 0.33990665313E+01 0.33990666206E+01 0.35262680215E+01 0.37861268841E+01 0.41854740492E+01
 0.49585305808E+01 0.66304549308E+01 0.96643302975E+01 0.14345373408E+02 0.20726506087E+02
 0.28617803314E+02 0.37602488360E+02 0.47063110937E+02 0.56218531154E+02 0.64189342493E+02
 0.70108169543E+02 0.73267646360E+02 0.73267646986E+02 0.70108171183E+02 0.51396977709E+02
 0.43980156699E+02 0.35924244499E+02 0.27964307725E+02 0.20726505599E+02 0.14674927733E+02
 0.10073878287E+02 0.69626850706E+01 0.51539871976E+01 0.42709510424E+01 0.38321218174E+01
 0.35372699247E+01 0.33657513496E+01 0.33099559629E+01 0.33657514882E+01 0.35372700567E+01
 0.38321217593E+01 0.42709507169E+01 0.51539867204E+01 0.69626847079E+01 0.10073878312E+02
 0.14674928243E+02 0.20726506435E+02 0.27964308514E+02 0.35924244845E+02 0.43980156395E+02
 0.51396976869E+02 0.57410801162E+02 0.61339514504E+02 0.62706336683E+02 0.61339515161E+02
 0.57410802150E+02 0.39266381943E+02 0.32779548808E+02 0.26089216579E+02 0.19786561291E+02
 0.14345373149E+02 0.10073878287E+02 0.70808148064E+01 0.52634448749E+01 0.43301845984E+01
 0.38649425453E+01 0.35487005397E+01 0.33463820815E+01 0.32492884538E+01 0.32492885015E+01
 0.33463821521E+01 0.35487004674E+01 0.38649421924E+01 0.43301839706E+01 0.52634441605E+01
 0.70808142983E+01 0.10073878245E+02 0.14345373653E+02 0.19786562198E+02 0.26089217591E+02
 0.32779549613E+02 0.39266382368E+02 0.44905003696E+02 0.49080367474E+02 0.51303974931E+02
 0.51303974990E+02 0.49080367565E+02 0.44905003621E+02 0.28550887491E+02 0.23232613266E+02
 0.18034948230E+02 0.13405559997E+02 0.96643303884E+01 0.69626850706E+01 0.52634448749E+01
 0.43515004663E+01 0.38819347688E+01 0.35569921280E+01 0.33364360516E+01 0.32116139949E+01
 0.31715549814E+01 0.32116140101E+01 0.33364359939E+01 0.35569918774E+01 0.38819342580E+01
 0.43514997371E+01 0.52634440902E+01 0.69626844477E+01 0.96643301222E+01 0.13405560173E+02
 0.18034948798E+02 0.23232614075E+02 0.28550888349E+02 0.33468888490E+02 0.37459159673E+02
 0.40063655584E+02 0.40969021396E+02 0.40063655323E+02 0.37459159151E+02 0.33468887750E+02
 0.19745673048E+02 0.15704605067E+02 0.11992689241E+02 0.89122174755E+01 0.66304552467E+01
 0.51539871976E+01 0.43301845984E+01 0.38819347688E+01 0.35599920127E+01 0.33324067142E+01
 0.31915772619E+01 0.31253158378E+01 0.31253158268E+01 0.31915772199E+01 0.33324066206E+01
 0.35599918316E+01 0.38819344701E+01 0.43301841626E+01 0.51539866494E+01 0.66304546496E+01
 0.89122169369E+01 0.11992688884E+02 0.15704604974E+02 0.19745673240E+02 0.23722582819E+02
 0.27206512280E+02 0.29795238952E+02 0.31175518041E+02 0.31175517897E+02 0.29795238572E+02
 0.27206511800E+02 0.23722582413E+02 0.13091530990E+02 0.10306217208E+02 0.79375060517E+01
 0.61452324065E+01 0.49585308787E+01 0.42709510424E+01 0.38649425453E+01 0.35569921280E+01
 0.33324067142E+01 0.31853574025E+01 0.31040808920E+01 0.30783097859E+01 0.31040808329E+01
 0.31853573475E+01 0.33324067475E+01 0.35569922825E+01 0.38649427723E+01 0.42709512065E+01
 0.49585308324E+01 0.61452320579E+01 0.79375054107E+01 0.10306216408E+02 0.13091530207E+02
 0.16031023852E+02 0.18803132978E+02 0.21078564093E+02 0.22573001438E+02 0.23093859651E+02
 0.22573001496E+02 0.21078564275E+02 0.18803133363E+02 0.16031024468E+02 0.85702493295E+01
 0.68878288968E+01 0.55919861127E+01 0.47165729855E+01 0.41854741472E+01 0.38321218174E+01
 0.35487005397E+01 0.33364360516E+01 0.31915772619E+01 0.31040808920E+01 0.30635173667E+01
 0.30635173003E+01 0.31040807576E+01 0.31915772031E+01 0.33364362297E+01 0.35487010225E+01
 0.38321225483E+01 0.41854749334E+01 0.47165735722E+01 0.55919862853E+01 0.68878285330E+01
 0.85702484655E+01 0.10503910158E+02 0.12479623394E+02 0.14253822667E+02 0.15592408694E+02
 0.16311976231E+02 0.16311976506E+02 0.15592409470E+02 0.14253823808E+02 0.12479624689E+02
 0.10503911359E+02 0.59066638735E+01 0.50577241909E+01 0.44703782261E+01 0.40855815808E+01
 0.37861267683E+01 0.35372699247E+01 0.33463820815E+01 0.32116139949E+01 0.31253158378E+01
 0.30783097859E+01 0.30635173003E+01 0.30783096152E+01 0.31253155849E+01 0.32116138119E+01
 0.33463821467E+01 0.35372703766E+01 0.37861276379E+01 0.40855827600E+01 0.44703794360E+01
 0.50577250980E+01 0.59066641570E+01 0.69913487259E+01 0.82107335202E+01 0.94133459865E+01
 0.10430461701E+02 0.11110702959E+02 0.11349817328E+02 0.11110703827E+02 0.10430463149E+02
 0.94133475516E+01 0.82107347199E+01 0.69913492274E+01 0.46075042461E+01 0.42489067863E+01
 0.39746264190E+01 0.37313869135E+01 0.35262678312E+01 0.33657513496E+01 0.32492884538E+01
 0.31715549814E+01 0.31253158268E+01 0.31040808329E+01 0.31040807576E+01 0.31253155849E+01
 0.31715545659E+01 0.32492879337E+01 0.33657509184E+01 0.35262677726E+01 0.37313874595E+01
 0.39746276301E+01 0.42489084181E+01 0.46075058191E+01 0.51011463580E+01 0.57190447388E+01
 0.63972321225E+01 0.70388809456E+01 0.75400335968E+01 0.78147575117E+01 0.78147579648E+01
 0.75400347399E+01 0.70388822319E+01 0.63972329280E+01 0.57190446555E+01 0.51011453581E+01
 0.40531051680E+01 0.38548650751E+01 0.36739034581E+01 0.35203437367E+01 0.33990665313E+01
 0.33099559629E+01 0.32492885015E+01 0.32116140101E+01 0.31915772199E+01 0.31853573475E+01
 0.31915772031E+01 0.32116138119E+01 0.32492879337E+01 0.33099550014E+01 0.33990654155E+01
 0.35203429224E+01 0.36739033798E+01 0.38548659244E+01 0.40531067586E+01 0.42638049425E+01
 0.45160925328E+01 0.48160087161E+01 0.51335670863E+01 0.54178581229E+01 0.56152382373E+01
 0.56859010799E+01 0.56152387222E+01 0.54178587235E+01 0.51335672767E+01 0.48160081208E+01
 0.45160911438E+01 0.42638031478E+01 0.37357079636E+01 0.36203740433E+01 0.35244359234E+01
 0.34508742371E+01 0.33990666206E+01 0.33657514882E+01 0.33463821521E+01 0.33364359939E+01
 0.33324066206E+01 0.33324067475E+01 0.33364362297E+01 0.33463821467E+01 0.33657509184E+01
 0.33990654155E+01 0.34508726610E+01 0.35244344895E+01 0.36203732632E+01 0.37357080902E+01
 0.38637224684E+01 0.39948884087E+01 0.41203675375E+01 0.42442703390E+01 0.43630397115E+01
 0.44594668768E+01 0.45139251204E+01 0.45139251290E+01 0.44594667998E+01 0.43630393255E+01
 0.42442694763E+01 0.41203662571E+01 0.39948870542E+01 0.38637215325E+01 0.35768586838E+01
 0.35426096987E+01 0.35244359574E+01 0.35203438553E+01 0.35262680215E+01 0.35372700567E+01
 0.35487004674E+01 0.35569918774E+01 0.35599918316E+01 0.35569922825E+01 0.35487010225E+01
 0.35372703766E+01 0.35262677726E+01 0.35203429224E+01 0.35244344895E+01 0.35426080597E+01
 0.35768573016E+01 0.36262905460E+01 0.36870326156E+01 0.37529425465E+01 0.38169514065E+01
 0.38725573275E+01 0.39149196765E+01 0.39414516742E+01 0.39506075901E+01 0.39414512993E+01
 0.39149189934E+01 0.38725564807E+01 0.38169506258E+01 0.37529421099E+01 0.36870327527E+01
 0.36262913562E+01 0.35768586922E+01 0.36203740546E+01 0.36739035014E+01 0.37313870255E+01
 0.37861268841E+01 0.38321217593E+01 0.38649421924E+01 0.38819342580E+01 0.38819344701E+01
 0.38649427723E+01 0.38321225483E+01 0.37861276379E+01 0.37313874595E+01 0.36739033798E+01
 0.36203732632E+01 0.35768573016E+01 0.35474568773E+01 0.35334771869E+01 0.35333428120E+01
 0.35432593293E+01 0.35583603761E+01 0.35739210930E+01 0.35862310650E+01 0.35929312122E+01
 0.35929309681E+01 0.35862304696E+01 0.35739204869E+01 0.35583601571E+01 0.35432597712E+01
 0.35333439478E+01 0.35334788029E+01 0.35474585859E+01 0.37357079621E+01 0.38548650184E+01
 0.39746263420E+01 0.40855815311E+01 0.41854740492E+01 0.42709507169E+01 0.43301839706E+01
 0.43514997371E+01 0.43301841626E+01 0.42709512065E+01 0.41854749334E+01 0.40855827600E+01
 0.39746276301E+01 0.38548659244E+01 0.37357080902E+01 0.36262905460E+01 0.35334771869E+01
 0.34608233934E+01 0.34084770787E+01 0.33739103041E+01 0.33531204527E+01 0.33418683816E+01
 0.33366287285E+01 0.33351392458E+01 0.33366284370E+01 0.33418680977E+01 0.33531206001E+01
 0.33739111696E+01 0.34084786225E+01 0.34608252341E+01 0.35334787546E+01 0.36262913562E+01
 0.40531051016E+01 0.42489065683E+01 0.44703779319E+01 0.47165727122E+01 0.49585305808E+01
 0.51539867204E+01 0.52634441605E+01 0.52634440902E+01 0.51539866494E+01 0.49585308324E+01
 0.47165735722E+01 0.44703794360E+01 0.42489084181E+01 0.40531067586E+01 0.38637224684E+01
 0.36870326156E+01 0.35333428120E+01 0.34084770787E+01 0.33136427034E+01 0.32464110967E+01
 0.32022851204E+01 0.31763214241E+01 0.31644664950E+01 0.31644664597E+01 0.31763214264E+01
 0.32022854094E+01 0.32464118601E+01 0.33136438945E+01 0.34084783601E+01 0.35333436750E+01