PROCAR lm decomposed
# of k-points:   60         # of bands:   12         # of ions:    1

 k-point     1 :    0.06250000 0.06250000 0.06250000     weight = 0.00390625

band     1 # energy    1.54176766 # occ.  1.00000000
 
ion      s     py     pz     px    dxy    dyz    dz2    dxz  x2-y2    tot
    1  0.718  0.004  0.004  0.004  0.000  0.000  0.000  0.000  0.000  0.729
 
band     2 # energy    7.66327988 # occ.  1.00000000
 
ion      s     py     pz     px    dxy    dyz    dz2    dxz  x2-y2    tot
    1  0.000  0.000  0.000  0.000  0.323  0.323  0.000  0.323  0.000  0.971
 
band     3 # energy    7.74498542 # occ.  1.00000000
 
ion      s     py     pz     px    dxy    dyz    dz2    dxz  x2-y2    tot
    1  0.000  0.000  0.000  0.000  0.007  0.538  0.000  0.426  0.001  0.973
 
band     4 # energy    7.74498542 # occ.  1.00000000
 
ion      s     py     pz     px    dxy    dyz    dz2    dxz  x2-y2    tot
    1  0.000  0.000  0.000  0.000  0.641  0.109  0.001  0.221  0.000  0.973
 
band     5 # energy    8.77915543 # occ.  1.00000000
 
ion      s     py     pz     px    dxy    dyz    dz2    dxz  x2-y2    tot
    1  0.000  0.000  0.000  0.000  0.001  0.001  0.624  0.000  0.359  0.985
 
band     6 # energy    8.77915543 # occ.  1.00000000
 
ion      s     py     pz     px    dxy    dyz    dz2    dxz  x2-y2    tot
    1  0.000  0.000  0.000  0.000  0.000  0.000  0.359  0.001  0.624  0.985
 
band     7 # energy   33.16066026 # occ.  0.00000000
 
ion      s     py     pz     px    dxy    dyz    dz2    dxz  x2-y2    tot
    1  0.001  0.006  0.006  0.006  0.048  0.048  0.000  0.048  0.000  0.163
 
band     8 # energy   36.13305597 # occ.  0.00000000
 
ion      s     py     pz     px    dxy    dyz    dz2    dxz  x2-y2    tot
    1  0.020  0.085  0.085  0.085  0.041  0.041  0.000  0.041  0.000  0.398
 
band     9 # energy   37.62571855 # occ.  0.00000000
 
ion      s     py     pz     px    dxy    dyz    dz2    dxz  x2-y2    tot
    1  0.000  0.116  0.172  0.006  0.085  0.003  0.015  0.058  0.002  0.457
 
band    10 # energy   37.62571855 # occ.  0.00000000
 
ion      s     py     pz     px    dxy    dyz    dz2    dxz  x2-y2    tot
    1  0.000  0.080  0.024  0.190  0.012  0.094  0.002  0.040  0.015  0.457
 
band    11 # energy   41.54249979 # occ.  0.00000000
 
ion      s     py     pz     px    dxy    dyz    dz2    dxz  x2-y2    tot
    1  0.000  0.002  0.004  0.000  0.702  0.061  0.006  0.396  0.001  1.172
 
band    12 # energy   41.54253532 # occ.  0.00000000
 
ion      s     py     pz     px    dxy    dyz    dz2    dxz  x2-y2    tot
    1  0.000  0.002  0.000  0.004  0.069  0.715  0.001  0.375  0.005  1.172
 

 k-point     2 :    0.18750000 0.06250000 0.06250000     weight = 0.01171875

band     1 # energy    2.34475381 # occ.  1.00000000
 
ion      s     py     pz     px    dxy    dyz    dz2    dxz  x2-y2    tot
    1  0.661  0.030  0.030  0.003  0.001  0.005  0.000  0.001  0.001  0.731
 
band     2 # energy    7.44877891 # occ.  1.00000000
 
ion      s     py     pz     px    dxy    dyz    dz2    dxz  x2-y2    tot
    1  0.001  0.001  0.001  0.007  0.459  0.034  0.000  0.459  0.000  0.961
 
band     3 # energy    7.90437157 # occ.  1.00000000
 
ion      s     py     pz     px    dxy    dyz    dz2    dxz  x2-y2    tot
    1  0.000  0.002  0.002  0.000  0.017  0.844  0.022  0.017  0.066  0.971
 
band     4 # energy    7.90947838 # occ.  1.00000000
 
ion      s     py     pz     px    dxy    dyz    dz2    dxz  x2-y2    tot
    1  0.000  0.000  0.000  0.000  0.475  0.000  0.016  0.475  0.005  0.973
 
band     5 # energy    8.62281925 # occ.  1.00000000
 
ion      s     py     pz     px    dxy    dyz    dz2    dxz  x2-y2    tot
    1  0.000  0.000  0.000  0.000  0.011  0.000  0.718  0.011  0.239  0.979
 
band     6 # energy    8.86942227 # occ.  1.00000000
 
ion      s     py     pz     px    dxy    dyz    dz2    dxz  x2-y2    tot
    1  0.001  0.000  0.000  0.000  0.002  0.084  0.223  0.002  0.670  0.983
 
band     7 # energy   30.35541852 # occ.  0.00000000
 
ion      s     py     pz     px    dxy    dyz    dz2    dxz  x2-y2    tot
    1  0.025  0.045  0.045  0.116  0.176  0.084  0.001  0.176  0.002  0.669
 
band     8 # energy   32.99672942 # occ.  0.00000000
 
ion      s     py     pz     px    dxy    dyz    dz2    dxz  x2-y2    tot
    1  0.039  0.078  0.078  0.029  0.058  0.135  0.006  0.058  0.019  0.500
 
band     9 # energy   36.51882608 # occ.  0.00000000
 
ion      s     py     pz     px    dxy    dyz    dz2    dxz  x2-y2    tot
    1  0.001  0.007  0.007  0.222  0.012  0.069  0.001  0.012  0.003  0.335
 
band    10 # energy   38.64705408 # occ.  0.00000000
 
ion      s     py     pz     px    dxy    dyz    dz2    dxz  x2-y2    tot
    1  0.000  0.104  0.104  0.000  0.093  0.000  0.127  0.093  0.042  0.564
 
band    11 # energy   40.41146200 # occ.  0.00000000
 
ion      s     py     pz     px    dxy    dyz    dz2    dxz  x2-y2    tot
    1  0.000  0.061  0.061  0.011  0.000  0.284  0.012  0.000  0.037  0.467
 
band    12 # energy   41.66663677 # occ.  0.00000000
 
ion      s     py     pz     px    dxy    dyz    dz2    dxz  x2-y2    tot
    1  0.000  0.002  0.002  0.000  0.470  0.000  0.085  0.470  0.028  1.059
 

 k-point     3 :    0.31250000 0.06250000 0.06250000     weight = 0.01171875

band     1 # energy    4.02817083 # occ.  1.00000000
 
ion      s     py     pz     px    dxy    dyz    dz2    dxz  x2-y2    tot
    1  0.501  0.059  0.059  0.017  0.031  0.056  0.001  0.031  0.003  0.758
 
band     2 # energy    7.33674452 # occ.  1.00000000
 
ion      s     py     pz     px    dxy    dyz    dz2    dxz  x2-y2    tot
    1  0.023  0.022  0.022  0.032  0.381  0.058  0.001  0.381  0.002  0.922
 
band     3 # energy    7.84909186 # occ.  1.00000000
 
ion      s     py     pz     px    dxy    dyz    dz2    dxz  x2-y2    tot
    1  0.000  0.003  0.003  0.000  0.034  0.475  0.104  0.034  0.313  0.966
 
band     4 # energy    7.92390203 # occ.  1.00000000
 
ion      s     py     pz     px    dxy    dyz    dz2    dxz  x2-y2    tot
    1  0.000  0.000  0.000  0.000  0.269  0.000  0.324  0.269  0.108  0.970
 
band     5 # energy    8.83739944 # occ.  1.00000000
 
ion      s     py     pz     px    dxy    dyz    dz2    dxz  x2-y2    tot
    1  0.000  0.001  0.001  0.000  0.218  0.000  0.406  0.218  0.135  0.978
 
band     6 # energy    9.27484732 # occ.  1.00000000
 
ion      s     py     pz     px    dxy    dyz    dz2    dxz  x2-y2    tot
    1  0.009  0.005  0.005  0.000  0.017  0.372  0.139  0.017  0.416  0.980
 
band     7 # energy   24.25993558 # occ.  0.00000000
 
ion      s     py     pz     px    dxy    dyz    dz2    dxz  x2-y2    tot
    1  0.122  0.078  0.078  0.134  0.137  0.108  0.001  0.137  0.003  0.799
 
band     8 # energy   31.89802695 # occ.  0.00000000
 
ion      s     py     pz     px    dxy    dyz    dz2    dxz  x2-y2    tot
    1  0.027  0.028  0.028  0.113  0.102  0.062  0.016  0.102  0.049  0.527
 
band     9 # energy   35.46663924 # occ.  0.00000000
 
ion      s     py     pz     px    dxy    dyz    dz2    dxz  x2-y2    tot
    1  0.000  0.066  0.066  0.131  0.004  0.133  0.001  0.004  0.002  0.407
 
band    10 # energy   38.21811084 # occ.  0.00000000
 
ion      s     py     pz     px    dxy    dyz    dz2    dxz  x2-y2    tot
    1  0.000  0.145  0.145  0.000  0.239  0.000  0.087  0.239  0.029  0.883
 
band    11 # energy   39.39895160 # occ.  0.00000000
 
ion      s     py     pz     px    dxy    dyz    dz2    dxz  x2-y2    tot
    1  0.000  0.095  0.095  0.000  0.000  0.000  0.470  0.000  0.157  0.816
 
band    12 # energy   40.39489997 # occ.  0.00000000
 
ion      s     py     pz     px    dxy    dyz    dz2    dxz  x2-y2    tot
    1  0.065  0.056  0.056  0.011  0.010  0.017  0.066  0.010  0.197  0.489
 

 k-point     4 :    0.43750000 0.06250000 0.06250000     weight = 0.01171875

band     1 # energy    5.16077111 # occ.  1.00000000
 
ion      s     py     pz     px    dxy    dyz    dz2    dxz  x2-y2    tot
    1  0.229  0.021  0.021  0.002  0.191  0.210  0.000  0.191  0.001  0.866
 
band     2 # energy    7.61705885 # occ.  1.00000000
 
ion      s     py     pz     px    dxy    dyz    dz2    dxz  x2-y2    tot
    1  0.000  0.002  0.002  0.000  0.046  0.286  0.145  0.046  0.434  0.961
 
band     3 # energy    7.71648946 # occ.  1.00000000
 
ion      s     py     pz     px    dxy    dyz    dz2    dxz  x2-y2    tot
    1  0.000  0.000  0.000  0.000  0.185  0.000  0.446  0.185  0.149  0.966
 
band     4 # energy    8.40797764 # occ.  1.00000000
 
ion      s     py     pz     px    dxy    dyz    dz2    dxz  x2-y2    tot
    1  0.059  0.098  0.098  0.098  0.189  0.024  0.020  0.189  0.060  0.835
 
band     5 # energy    9.39605949 # occ.  1.00000000
 
ion      s     py     pz     px    dxy    dyz    dz2    dxz  x2-y2    tot
    1  0.000  0.001  0.001  0.000  0.305  0.000  0.281  0.305  0.094  0.986
 
band     6 # energy   10.07002170 # occ.  1.00000000
 
ion      s     py     pz     px    dxy    dyz    dz2    dxz  x2-y2    tot
    1  0.042  0.049  0.049  0.030  0.009  0.426  0.078  0.009  0.235  0.929
 
band     7 # energy   18.89688976 # occ.  0.00000000
 
ion      s     py     pz     px    dxy    dyz    dz2    dxz  x2-y2    tot
    1  0.289  0.046  0.046  0.096  0.135  0.108  0.001  0.135  0.002  0.858
 
band     8 # energy   31.39732989 # occ.  0.00000000
 
ion      s     py     pz     px    dxy    dyz    dz2    dxz  x2-y2    tot
    1  0.013  0.005  0.005  0.115  0.054  0.035  0.026  0.054  0.078  0.385
 
band     9 # energy   34.22892508 # occ.  0.00000000
 
ion      s     py     pz     px    dxy    dyz    dz2    dxz  x2-y2    tot
    1  0.015  0.103  0.103  0.185  0.014  0.028  0.003  0.014  0.009  0.474
 
band    10 # energy   36.06291804 # occ.  0.00000000
 
ion      s     py     pz     px    dxy    dyz    dz2    dxz  x2-y2    tot
    1  0.000  0.258  0.258  0.000  0.001  0.000  0.136  0.001  0.045  0.700
 
band    11 # energy   38.54639354 # occ.  0.00000000
 
ion      s     py     pz     px    dxy    dyz    dz2    dxz  x2-y2    tot
    1  0.000  0.028  0.028  0.000  0.207  0.000  0.427  0.207  0.142  1.040
 
band    12 # energy   40.12333799 # occ.  0.00000000
 
ion      s     py     pz     px    dxy    dyz    dz2    dxz  x2-y2    tot
    1  0.055  0.016  0.016  0.013  0.000  0.218  0.136  0.000  0.407  0.861
 

 k-point     5 :   -0.43750000 0.06250000 0.06250000     weight = 0.01171875

band     1 # energy    5.28405924 # occ.  1.00000000
 
ion      s     py     pz     px    dxy    dyz    dz2    dxz  x2-y2    tot
    1  0.163  0.000  0.000  0.007  0.235  0.255  0.000  0.235  0.000  0.896
 
band     2 # energy    7.52053435 # occ.  1.00000000
 
ion      s     py     pz     px    dxy    dyz    dz2    dxz  x2-y2    tot
    1  0.000  0.002  0.002  0.000  0.063  0.199  0.157  0.063  0.472  0.958
 
band     3 # energy    7.66289236 # occ.  1.00000000
 
ion      s     py     pz     px    dxy    dyz    dz2    dxz  x2-y2    tot
    1  0.000  0.000  0.000  0.000  0.183  0.000  0.449  0.183  0.150  0.965
 
band     4 # energy    8.98480834 # occ.  1.00000000
 
ion      s     py     pz     px    dxy    dyz    dz2    dxz  x2-y2    tot
    1  0.003  0.074  0.074  0.072  0.063  0.356  0.046  0.063  0.137  0.887
 
band     5 # energy    9.68026352 # occ.  1.00000000
 
ion      s     py     pz     px    dxy    dyz    dz2    dxz  x2-y2    tot
    1  0.000  0.000  0.000  0.000  0.309  0.000  0.280  0.309  0.093  0.991
 
band     6 # energy   10.86388479 # occ.  0.00000000
 
ion      s     py     pz     px    dxy    dyz    dz2    dxz  x2-y2    tot
    1  0.007  0.142  0.142  0.160  0.053  0.085  0.040  0.053  0.120  0.803
 
band     7 # energy   16.73620080 # occ.  0.00000000
 
ion      s     py     pz     px    dxy    dyz    dz2    dxz  x2-y2    tot
    1  0.436  0.011  0.011  0.000  0.145  0.158  0.000  0.145  0.000  0.906
 
band     8 # energy   31.49850919 # occ.  0.00000000
 
ion      s     py     pz     px    dxy    dyz    dz2    dxz  x2-y2    tot
    1  0.001  0.001  0.001  0.049  0.009  0.041  0.027  0.009  0.082  0.220
 
band     9 # energy   34.19930857 # occ.  0.00000000
 
ion      s     py     pz     px    dxy    dyz    dz2    dxz  x2-y2    tot
    1  0.000  0.250  0.250  0.000  0.036  0.000  0.115  0.036  0.038  0.726
 
band    10 # energy   34.37166973 # occ.  0.00000000
 
ion      s     py     pz     px    dxy    dyz    dz2    dxz  x2-y2    tot
    1  0.037  0.091  0.091  0.307  0.014  0.005  0.014  0.014  0.042  0.614
 
band    11 # energy   39.37330402 # occ.  0.00000000
 
ion      s     py     pz     px    dxy    dyz    dz2    dxz  x2-y2    tot
    1  0.000  0.051  0.051  0.000  0.145  0.000  0.437  0.145  0.146  0.976
 
band    12 # energy   39.40394474 # occ.  0.00000000
 
ion      s     py     pz     px    dxy    dyz    dz2    dxz  x2-y2    tot
    1  0.012  0.003  0.003  0.028  0.027  0.272  0.145  0.027  0.434  0.952
 

 k-point     6 :   -0.31250000 0.06250000 0.06250000     weight = 0.01171875

band     1 # energy    4.94682363 # occ.  1.00000000
 
ion      s     py     pz     px    dxy    dyz    dz2    dxz  x2-y2    tot
    1  0.308  0.016  0.016  0.052  0.144  0.144  0.002  0.144  0.005  0.830
 
band     2 # energy    7.65472429 # occ.  1.00000000
 
ion      s     py     pz     px    dxy    dyz    dz2    dxz  x2-y2    tot
    1  0.002  0.006  0.006  0.004  0.115  0.086  0.154  0.115  0.463  0.954
 
band     3 # energy    7.80639476 # occ.  1.00000000
 
ion      s     py     pz     px    dxy    dyz    dz2    dxz  x2-y2    tot
    1  0.000  0.001  0.001  0.000  0.225  0.000  0.386  0.225  0.129  0.968
 
band     4 # energy    7.87683764 # occ.  1.00000000
 
ion      s     py     pz     px    dxy    dyz    dz2    dxz  x2-y2    tot
    1  0.066  0.070  0.070  0.072  0.011  0.559  0.001  0.011  0.002  0.863
 
band     5 # energy    9.47237165 # occ.  1.00000000
 
ion      s     py     pz     px    dxy    dyz    dz2    dxz  x2-y2    tot
    1  0.000  0.001  0.001  0.000  0.263  0.000  0.346  0.263  0.115  0.988
 
band     6 # energy    9.53248737 # occ.  1.00000000
 
ion      s     py     pz     px    dxy    dyz    dz2    dxz  x2-y2    tot
    1  0.031  0.015  0.015  0.034  0.188  0.141  0.085  0.188  0.256  0.953
 
band     7 # energy   20.52152201 # occ.  0.00000000
 
ion      s     py     pz     px    dxy    dyz    dz2    dxz  x2-y2    tot
    1  0.223  0.098  0.098  0.050  0.112  0.142  0.001  0.112  0.002  0.837
 
band     8 # energy   32.22365848 # occ.  0.00000000
 
ion      s     py     pz     px    dxy    dyz    dz2    dxz  x2-y2    tot
    1  0.006  0.007  0.007  0.003  0.000  0.101  0.022  0.000  0.066  0.212
 
band     9 # energy   33.66218951 # occ.  0.00000000
 
ion      s     py     pz     px    dxy    dyz    dz2    dxz  x2-y2    tot
    1  0.000  0.226  0.226  0.000  0.121  0.000  0.076  0.121  0.025  0.797
 
band    10 # energy   36.08982829 # occ.  0.00000000
 
ion      s     py     pz     px    dxy    dyz    dz2    dxz  x2-y2    tot
    1  0.048  0.044  0.044  0.385  0.000  0.085  0.027  0.000  0.082  0.717
 
band    11 # energy   39.22151463 # occ.  0.00000000
 
ion      s     py     pz     px    dxy    dyz    dz2    dxz  x2-y2    tot
    1  0.000  0.003  0.003  0.016  0.068  0.179  0.136  0.068  0.407  0.879
 
band    12 # energy   41.09324011 # occ.  0.00000000
 
ion      s     py     pz     px    dxy    dyz    dz2    dxz  x2-y2    tot
    1  0.000  0.061  0.061  0.000  0.044  0.000  0.453  0.044  0.151  0.815
 

 k-point     7 :   -0.18750000 0.06250000 0.06250000     weight = 0.01171875

band     1 # energy    3.42424593 # occ.  1.00000000
 
ion      s     py     pz     px    dxy    dyz    dz2    dxz  x2-y2    tot
    1  0.569  0.024  0.024  0.072  0.019  0.010  0.001  0.019  0.004  0.742
 
band     2 # energy    7.28861103 # occ.  1.00000000
 
ion      s     py     pz     px    dxy    dyz    dz2    dxz  x2-y2    tot
    1  0.009  0.014  0.014  0.009  0.136  0.624  0.000  0.136  0.001  0.942
 
band     3 # energy    7.91346844 # occ.  1.00000000
 
ion      s     py     pz     px    dxy    dyz    dz2    dxz  x2-y2    tot
    1  0.000  0.001  0.001  0.001  0.196  0.214  0.090  0.196  0.270  0.969
 
band     4 # energy    7.97250982 # occ.  1.00000000
 
ion      s     py     pz     px    dxy    dyz    dz2    dxz  x2-y2    tot
    1  0.000  0.002  0.002  0.000  0.356  0.000  0.192  0.356  0.064  0.971
 
band     5 # energy    8.76639899 # occ.  1.00000000
 
ion      s     py     pz     px    dxy    dyz    dz2    dxz  x2-y2    tot
    1  0.006  0.001  0.001  0.006  0.125  0.105  0.152  0.125  0.456  0.975
 
band     6 # energy    9.02890867 # occ.  1.00000000
 
ion      s     py     pz     px    dxy    dyz    dz2    dxz  x2-y2    tot
    1  0.000  0.001  0.001  0.000  0.129  0.000  0.543  0.129  0.181  0.984
 
band     7 # energy   26.27205669 # occ.  0.00000000
 
ion      s     py     pz     px    dxy    dyz    dz2    dxz  x2-y2    tot
    1  0.085  0.112  0.112  0.061  0.123  0.156  0.001  0.123  0.003  0.774
 
band     8 # energy   33.30336954 # occ.  0.00000000
 
ion      s     py     pz     px    dxy    dyz    dz2    dxz  x2-y2    tot
    1  0.026  0.001  0.001  0.013  0.001  0.175  0.014  0.001  0.042  0.271
 
band     9 # energy   34.21323286 # occ.  0.00000000
 
ion      s     py     pz     px    dxy    dyz    dz2    dxz  x2-y2    tot
    1  0.000  0.194  0.194  0.000  0.189  0.000  0.039  0.189  0.013  0.820
 
band    10 # energy   38.73825853 # occ.  0.00000000
 
ion      s     py     pz     px    dxy    dyz    dz2    dxz  x2-y2    tot
    1  0.031  0.000  0.000  0.243  0.018  0.118  0.063  0.018  0.188  0.678
 
band    11 # energy   39.03094519 # occ.  0.00000000
 
ion      s     py     pz     px    dxy    dyz    dz2    dxz  x2-y2    tot
    1  0.000  0.045  0.045  0.101  0.055  0.129  0.045  0.055  0.135  0.610
 
band    12 # energy   43.34622294 # occ.  0.00000000
 
ion      s     py     pz     px    dxy    dyz    dz2    dxz  x2-y2    tot
    1  0.000  0.037  0.036  0.000  0.013  0.000  0.352  0.013  0.118  0.569
 

 k-point     8 :   -0.06250000 0.06250000 0.06250000     weight = 0.01171875

band     1 # energy    1.95004458 # occ.  1.00000000
 
ion      s     py     pz     px    dxy    dyz    dz2    dxz  x2-y2    tot
    1  0.690  0.003  0.003  0.031  0.001  0.000  0.000  0.001  0.001  0.730
 
band     2 # energy    7.51904680 # occ.  1.00000000
 
ion      s     py     pz     px    dxy    dyz    dz2    dxz  x2-y2    tot
    1  0.000  0.001  0.001  0.000  0.058  0.848  0.000  0.058  0.000  0.966
 
band     3 # energy    7.85564267 # occ.  1.00000000
 
ion      s     py     pz     px    dxy    dyz    dz2    dxz  x2-y2    tot
    1  0.000  0.001  0.001  0.001  0.422  0.117  0.002  0.422  0.007  0.972
 
band     4 # energy    7.86000233 # occ.  1.00000000
 
ion      s     py     pz     px    dxy    dyz    dz2    dxz  x2-y2    tot
    1  0.000  0.001  0.001  0.000  0.479  0.000  0.009  0.479  0.003  0.972
 
band     5 # energy    8.64273151 # occ.  1.00000000
 
ion      s     py     pz     px    dxy    dyz    dz2    dxz  x2-y2    tot
    1  0.001  0.000  0.000  0.000  0.004  0.001  0.243  0.004  0.728  0.980
 
band     6 # energy    8.84632033 # occ.  1.00000000
 
ion      s     py     pz     px    dxy    dyz    dz2    dxz  x2-y2    tot
    1  0.000  0.000  0.000  0.000  0.006  0.000  0.730  0.006  0.243  0.985
 
band     7 # energy   32.13948044 # occ.  0.00000000
 
ion      s     py     pz     px    dxy    dyz    dz2    dxz  x2-y2    tot
    1  0.007  0.044  0.044  0.013  0.074  0.225  0.000  0.074  0.001  0.483
 
band     8 # energy   34.57194319 # occ.  0.00000000
 
ion      s     py     pz     px    dxy    dyz    dz2    dxz  x2-y2    tot
    1  0.034  0.047  0.047  0.071  0.044  0.034  0.006  0.044  0.017  0.343
 
band     9 # energy   35.60683237 # occ.  0.00000000
 
ion      s     py     pz     px    dxy    dyz    dz2    dxz  x2-y2    tot
    1  0.000  0.167  0.167  0.000  0.188  0.000  0.007  0.188  0.002  0.719
 
band    10 # energy   37.47055131 # occ.  0.00000000
 
ion      s     py     pz     px    dxy    dyz    dz2    dxz  x2-y2    tot
    1  0.009  0.079  0.079  0.054  0.031  0.003  0.024  0.031  0.073  0.382
 
band    11 # energy   41.47900762 # occ.  0.00000000
 
ion      s     py     pz     px    dxy    dyz    dz2    dxz  x2-y2    tot
    1  0.000  0.001  0.001  0.067  0.235  0.428  0.001  0.235  0.003  0.971
 
band    12 # energy   43.31263574 # occ.  0.00000000
 
ion      s     py     pz     px    dxy    dyz    dz2    dxz  x2-y2    tot
    1  0.000  0.001  0.001  0.003  0.348  0.016  0.023  0.299  0.008  0.699
 

 k-point     9 :    0.18750000 0.18750000 0.06250000     weight = 0.01171875

band     1 # energy    2.72813815 # occ.  1.00000000
 
ion      s     py     pz     px    dxy    dyz    dz2    dxz  x2-y2    tot
    1  0.630  0.003  0.082  0.003  0.000  0.002  0.011  0.002  0.000  0.732
 
band     2 # energy    7.24041242 # occ.  1.00000000
 
ion      s     py     pz     px    dxy    dyz    dz2    dxz  x2-y2    tot
    1  0.000  0.001  0.000  0.001  0.918  0.019  0.000  0.019  0.000  0.959
 
band     3 # energy    8.05259882 # occ.  1.00000000
 
ion      s     py     pz     px    dxy    dyz    dz2    dxz  x2-y2    tot
    1  0.000  0.003  0.000  0.003  0.035  0.396  0.138  0.396  0.000  0.971
 
band     4 # energy    8.08334790 # occ.  1.00000000
 
ion      s     py     pz     px    dxy    dyz    dz2    dxz  x2-y2    tot
    1  0.000  0.003  0.000  0.003  0.000  0.466  0.000  0.466  0.035  0.972
 
band     5 # energy    8.45699966 # occ.  1.00000000
 
ion      s     py     pz     px    dxy    dyz    dz2    dxz  x2-y2    tot
    1  0.007  0.000  0.004  0.000  0.005  0.066  0.824  0.066  0.000  0.972
 
band     6 # energy    8.97115876 # occ.  1.00000000
 
ion      s     py     pz     px    dxy    dyz    dz2    dxz  x2-y2    tot
    1  0.000  0.000  0.000  0.000  0.000  0.018  0.000  0.018  0.951  0.986
 
band     7 # energy   30.66335058 # occ.  0.00000000
 
ion      s     py     pz     px    dxy    dyz    dz2    dxz  x2-y2    tot
    1  0.018  0.098  0.015  0.098  0.249  0.099  0.010  0.099  0.000  0.688
 
band     8 # energy   33.14578743 # occ.  0.00000000
 
ion      s     py     pz     px    dxy    dyz    dz2    dxz  x2-y2    tot
    1  0.032  0.019  0.020  0.019  0.212  0.018  0.085  0.018  0.000  0.423
 
band     9 # energy   33.30787014 # occ.  0.00000000
 
ion      s     py     pz     px    dxy    dyz    dz2    dxz  x2-y2    tot
    1  0.000  0.200  0.000  0.200  0.000  0.188  0.000  0.188  0.007  0.782
 
band    10 # energy   35.53297304 # occ.  0.00000000
 
ion      s     py     pz     px    dxy    dyz    dz2    dxz  x2-y2    tot
    1  0.003  0.073  0.000  0.073  0.042  0.055  0.200  0.055  0.000  0.502
 
band    11 # energy   41.15846479 # occ.  0.00000000
 
ion      s     py     pz     px    dxy    dyz    dz2    dxz  x2-y2    tot
    1  0.209  0.017  0.566  0.017  0.006  0.000  0.139  0.000  0.000  0.954
 
band    12 # energy   43.82066640 # occ.  0.00000000
 
ion      s     py     pz     px    dxy    dyz    dz2    dxz  x2-y2    tot
    1  0.038  0.000  0.003  0.000  0.376  0.149  0.075  0.149  0.000  0.792
 

 k-point    10 :    0.31250000 0.18750000 0.06250000     weight = 0.02343750

band     1 # energy    4.08668937 # occ.  1.00000000
 
ion      s     py     pz     px    dxy    dyz    dz2    dxz  x2-y2    tot
    1  0.500  0.023  0.133  0.002  0.003  0.029  0.052  0.004  0.000  0.746
 
band     2 # energy    6.93654839 # occ.  1.00000000
 
ion      s     py     pz     px    dxy    dyz    dz2    dxz  x2-y2    tot
    1  0.001  0.002  0.001  0.012  0.847  0.006  0.003  0.076  0.000  0.947
 
band     3 # energy    7.83485227 # occ.  1.00000000
 
ion      s     py     pz     px    dxy    dyz    dz2    dxz  x2-y2    tot
    1  0.006  0.004  0.002  0.000  0.017  0.345  0.534  0.015  0.036  0.960
 
band     4 # energy    8.34406697 # occ.  1.00000000
 
ion      s     py     pz     px    dxy    dyz    dz2    dxz  x2-y2    tot
    1  0.002  0.002  0.002  0.004  0.043  0.122  0.049  0.563  0.185  0.972
 
band     5 # energy    8.72831844 # occ.  1.00000000
 
ion      s     py     pz     px    dxy    dyz    dz2    dxz  x2-y2    tot
    1  0.015  0.003  0.013  0.003  0.036  0.117  0.257  0.297  0.226  0.968
 
band     6 # energy    9.35439580 # occ.  1.00000000
 
ion      s     py     pz     px    dxy    dyz    dz2    dxz  x2-y2    tot
    1  0.014  0.005  0.008  0.000  0.001  0.345  0.069  0.003  0.536  0.981
 
band     7 # energy   26.82218615 # occ.  0.00000000
 
ion      s     py     pz     px    dxy    dyz    dz2    dxz  x2-y2    tot
    1  0.056  0.103  0.020  0.190  0.187  0.079  0.019  0.122  0.003  0.779
 
band     8 # energy   29.43139006 # occ.  0.00000000
 
ion      s     py     pz     px    dxy    dyz    dz2    dxz  x2-y2    tot
    1  0.039  0.143  0.011  0.133  0.110  0.114  0.054  0.076  0.019  0.699
 
band     9 # energy   33.20874790 # occ.  0.00000000
 
ion      s     py     pz     px    dxy    dyz    dz2    dxz  x2-y2    tot
    1  0.011  0.067  0.095  0.027  0.027  0.031  0.328  0.018  0.005  0.609
 
band    10 # energy   35.21251141 # occ.  0.00000000
 
ion      s     py     pz     px    dxy    dyz    dz2    dxz  x2-y2    tot
    1  0.028  0.002  0.074  0.103  0.315  0.001  0.058  0.063  0.000  0.644
 
band    11 # energy   40.02714003 # occ.  0.00000000
 
ion      s     py     pz     px    dxy    dyz    dz2    dxz  x2-y2    tot
    1  0.191  0.183  0.323  0.025  0.014  0.051  0.005  0.005  0.000  0.796
 
band    12 # energy   43.59101573 # occ.  0.00000000
 
ion      s     py     pz     px    dxy    dyz    dz2    dxz  x2-y2    tot
    1  0.041  0.022  0.021  0.001  0.061  0.009  0.185  0.029  0.156  0.525
 

 k-point    11 :    0.43750000 0.18750000 0.06250000     weight = 0.02343750

band     1 # energy    5.45876705 # occ.  1.00000000
 
ion      s     py     pz     px    dxy    dyz    dz2    dxz  x2-y2    tot
    1  0.242  0.019  0.093  0.001  0.160  0.143  0.090  0.085  0.001  0.835
 
band     2 # energy    7.05884113 # occ.  1.00000000
 
ion      s     py     pz     px    dxy    dyz    dz2    dxz  x2-y2    tot
    1  0.014  0.039  0.024  0.039  0.356  0.024  0.330  0.062  0.011  0.900
 
band     3 # energy    7.52579207 # occ.  1.00000000
 
ion      s     py     pz     px    dxy    dyz    dz2    dxz  x2-y2    tot
    1  0.025  0.001  0.022  0.007  0.314  0.275  0.254  0.006  0.042  0.947
 
band     4 # energy    8.18564854 # occ.  1.00000000
 
ion      s     py     pz     px    dxy    dyz    dz2    dxz  x2-y2    tot
    1  0.002  0.004  0.005  0.001  0.038  0.076  0.051  0.296  0.493  0.967
 
band     5 # energy    9.43988071 # occ.  1.00000000
 
ion      s     py     pz     px    dxy    dyz    dz2    dxz  x2-y2    tot
    1  0.003  0.001  0.007  0.004  0.036  0.061  0.054  0.468  0.347  0.982
 
band     6 # energy   10.55879582 # occ.  0.00000334
 
ion      s     py     pz     px    dxy    dyz    dz2    dxz  x2-y2    tot
    1  0.087  0.033  0.086  0.017  0.016  0.389  0.179  0.033  0.083  0.923
 
band     7 # energy   21.02949815 # occ.  0.00000000
 
ion      s     py     pz     px    dxy    dyz    dz2    dxz  x2-y2    tot
    1  0.184  0.102  0.020  0.172  0.161  0.073  0.015  0.094  0.004  0.824
 
band     8 # energy   28.81791801 # occ.  0.00000000
 
ion      s     py     pz     px    dxy    dyz    dz2    dxz  x2-y2    tot
    1  0.016  0.102  0.002  0.166  0.102  0.068  0.122  0.040  0.057  0.675
 
band     9 # energy   30.81599069 # occ.  0.00000000
 
ion      s     py     pz     px    dxy    dyz    dz2    dxz  x2-y2    tot
    1  0.072  0.023  0.222  0.079  0.000  0.001  0.246  0.038  0.022  0.702
 
band    10 # energy   34.85890586 # occ.  0.00000000
 
ion      s     py     pz     px    dxy    dyz    dz2    dxz  x2-y2    tot
    1  0.063  0.141  0.107  0.026  0.235  0.020  0.005  0.014  0.006  0.616
 
band    11 # energy   41.56872449 # occ.  0.00000000
 
ion      s     py     pz     px    dxy    dyz    dz2    dxz  x2-y2    tot
    1  0.018  0.108  0.002  0.002  0.196  0.019  0.103  0.043  0.213  0.704
 
band    12 # energy   44.05009310 # occ.  0.00000000
 
ion      s     py     pz     px    dxy    dyz    dz2    dxz  x2-y2    tot
    1  0.196  0.107  0.101  0.051  0.002  0.000  0.234  0.007  0.001  0.700
 

 k-point    12 :   -0.43750000 0.18750000 0.06250000     weight = 0.02343750

band     1 # energy    5.76051015 # occ.  1.00000000
 
ion      s     py     pz     px    dxy    dyz    dz2    dxz  x2-y2    tot
    1  0.119  0.000  0.024  0.009  0.335  0.237  0.010  0.168  0.000  0.903
 
band     2 # energy    7.09356403 # occ.  1.00000000
 
ion      s     py     pz     px    dxy    dyz    dz2    dxz  x2-y2    tot
    1  0.000  0.028  0.003  0.012  0.030  0.075  0.683  0.011  0.075  0.919
 
band     3 # energy    7.96881376 # occ.  1.00000000
 
ion      s     py     pz     px    dxy    dyz    dz2    dxz  x2-y2    tot
    1  0.002  0.028  0.038  0.050  0.247  0.328  0.078  0.021  0.133  0.924
 
band     4 # energy    8.03504175 # occ.  1.00000000
 
ion      s     py     pz     px    dxy    dyz    dz2    dxz  x2-y2    tot
    1  0.001  0.018  0.030  0.005  0.182  0.004  0.015  0.238  0.454  0.948
 
band     5 # energy    9.64309602 # occ.  1.00000000
 
ion      s     py     pz     px    dxy    dyz    dz2    dxz  x2-y2    tot
    1  0.000  0.000  0.000  0.000  0.037  0.171  0.030  0.465  0.286  0.990
 
band     6 # energy   12.72717549 # occ.  0.00000000
 
ion      s     py     pz     px    dxy    dyz    dz2    dxz  x2-y2    tot
    1  0.012  0.129  0.184  0.129  0.059  0.110  0.159  0.015  0.020  0.817
 
band     7 # energy   16.92604995 # occ.  0.00000000
 
ion      s     py     pz     px    dxy    dyz    dz2    dxz  x2-y2    tot
    1  0.404  0.015  0.010  0.055  0.165  0.119  0.001  0.117  0.001  0.887
 
band     8 # energy   28.22450851 # occ.  0.00000000
 
ion      s     py     pz     px    dxy    dyz    dz2    dxz  x2-y2    tot