Pt-hcc                                  
   1.00000000000000     
     2.722037    0.000000    0.000000
    -1.361019    2.357353    0.000000
     0.000000    0.000000    4.715866
   Pt
     2
Direct
  0.000000  0.000000  0.000000
  0.333333  0.666667  0.500000
 
   40   40   72
  264.90      264.59      263.11      258.99      250.40      235.82      214.72      187.90      157.41      126.10    
  96.844      71.905      52.448      38.462      29.022      22.675      18.324      15.478      13.736      12.810    
  12.519      12.810      13.735      15.478      18.323      22.678      29.020      38.462      52.448      71.905    
  96.844      126.10      157.41      187.90      214.72      235.82      250.40      258.99      263.11      264.59    
  264.59      264.59      263.69      260.86      254.42      242.67      224.60      200.35      171.41      140.28    
  109.90      82.851      60.841      44.401      32.999      25.386      20.172      16.657      14.431      13.136    
  12.549      12.548      13.137      14.429      16.659      20.171      25.385      33.001      44.400      60.842    
  82.850      109.90      140.28      171.41      200.35      224.60      242.67      254.42      260.86      263.69    
  263.11      263.69      263.11      260.86      255.65      245.87      230.29      208.57      181.64      151.54    
  121.02      92.793      68.914      50.398      37.137      28.177      22.100      17.921      15.188      13.512    
  12.621      12.339      12.621      13.511      15.188      17.920      22.102      28.174      37.138      50.397    
  68.914      92.793      121.02      151.54      181.64      208.57      230.29      245.87      255.65      260.86    
  258.99      260.87      260.88      258.99      254.42      245.87      232.14      212.63      187.83      159.31    
  129.48      100.96      76.016      55.988      41.174      30.934      24.014      19.214      15.979      13.925    
  12.728      12.183      12.182      12.729      13.923      15.981      19.212      24.016      30.934      41.173    
  55.989      76.015      100.97      129.48      159.31      187.83      212.63      232.14      245.87      254.42    
  250.40      254.45      255.69      254.45      250.40      242.67      230.29      212.63      189.90      163.26    
  134.74      106.76      81.555      60.695      44.788      33.498      25.810      20.463      16.770      14.353    
  12.865      12.070      11.820      12.070      12.865      14.353      16.771      20.463      25.809      33.499    
  44.787      60.696      81.555      106.76      134.74      163.26      189.89      212.63      230.29      242.67    
  235.82      242.71      245.93      245.93      242.71      235.82      224.60      208.57      187.83      163.26    
  136.52      109.76      85.072      64.096      47.652      35.669      27.375      21.589      17.515      14.772    
  13.018      11.993      11.523      11.523      11.993      13.018      14.773      17.515      21.591      27.374    
  35.670      47.652      64.096      85.071      109.76      136.52      163.26      187.83      208.57      224.60    
  214.72      224.63      230.35      232.21      230.35      224.63      214.72      200.35      181.64      159.31    
  134.74      109.76      86.276      65.879      49.493      37.250      28.600      22.518      18.163      15.157    
  13.173      11.945      11.282      11.074      11.282      11.946      13.172      15.157      18.162      22.519    
  28.599      37.250      49.493      65.879      86.276      109.76      134.74      159.31      181.64      200.35    
  187.90      200.37      208.62      212.70      212.70      208.62      200.37      187.90      171.41      151.54    
  129.48      106.76      85.071      65.879      50.127      38.084      29.383      23.180      18.667      15.476    
  13.314      11.918      11.092      10.710      10.710      11.092      11.918      13.313      15.477      18.666    
  23.180      29.383      38.083      50.127      65.879      85.071      106.76      129.48      151.54      171.41    
  157.41      171.41      181.66      187.87      189.94      187.87      181.66      171.41      157.41      140.28    
  121.02      100.96      81.555      64.097      49.492      38.084      29.653      23.525      18.986      15.706    
  13.427      11.904      10.947      10.423      10.257      10.424      10.947      11.904      13.427      15.706    
  18.986      23.525      29.653      38.083      49.493      64.096      81.555      100.97      121.02      140.28    
  126.10      140.27      151.54      159.31      163.26      163.26      159.31      151.53      140.27      126.10    
  109.90      92.792      76.016      60.696      47.651      37.251      29.383      23.525      19.095      15.826    
  13.500      11.898      10.845      10.210      9.9118      9.9118      10.210      10.845      11.898      13.500    
  15.826      19.096      23.525      29.383      37.250      47.652      60.696      76.015      92.793      109.90    
  96.844      109.87      120.98      129.43      134.69      136.48      134.69      129.43      120.98      109.87    
  96.844      82.851      68.915      55.988      44.788      35.670      28.599      23.181      18.986      15.826    
  13.525      11.896      10.784      10.067      9.6670      9.5385      9.6671      10.067      10.783      11.896    
  13.526      15.826      18.986      23.180      28.599      35.670      44.787      55.989      68.914      82.850    
  71.905      82.809      92.721      100.87      106.65      109.65      109.65      106.65      100.87      92.720    
  82.809      71.905      60.841      50.396      41.175      33.498      27.374      22.519      18.666      15.706    
  13.500      11.897      10.763      9.9955      9.5203      9.2933      9.2932      9.5203      9.9955      10.763    
  11.896      13.500      15.706      18.666      22.519      27.374      33.499      41.173      50.397      60.842    
  52.448      60.794      68.825      75.893      81.410      84.913      86.114      84.914      81.411      75.894    
  68.826      60.794      52.447      44.400      37.139      30.932      25.811      21.590      18.163      15.477    
  13.426      11.899      10.783      9.9956      9.4713      9.1717      9.0736      9.1718      9.4711      9.9955    
  10.783      11.898      13.427      15.477      18.162      21.591      25.809      30.934      37.138      44.400    
  38.462      44.353      50.304      55.855      60.529      63.907      65.678      65.678      63.907      60.528    
  55.853      50.303      44.354      38.464      32.999      28.175      24.017      20.461      17.516      15.156    
  13.314      11.904      10.845      10.067      9.5204      9.1714      9.0013      9.0011      9.1718      9.5203    
  10.067      10.845      11.904      13.313      15.157      17.515      20.463      24.016      28.174      33.001    
  29.020      32.959      37.050      41.043      44.618      47.454      49.276      49.904      49.276      47.454    
  44.619      41.044      37.051      32.957      29.019      25.388      22.100      19.212      16.772      14.772    
  13.173      11.918      10.947      10.210      9.6670      9.2933      9.0738      9.0013      9.0736      9.2932    
  9.6671      10.210      10.947      11.918      13.172      14.773      16.771      19.212      22.102      25.385    
  22.678      25.350      28.099      30.819      33.345      35.483      37.040      37.861      37.861      37.040    
  35.483      33.344      30.817      28.100      25.353      22.676      20.170      17.922      15.980      14.352    
  13.019      11.945      11.092      10.424      9.9118      9.5385      9.2933      9.1714      9.1717      9.2933    
  9.5385      9.9118      10.424      11.092      11.946      13.018      14.353      15.981      17.920      20.171    
  18.323      20.142      22.042      23.920      25.677      27.211      28.412      29.180      29.445      29.180    
  28.412      27.211      25.679      23.921      22.039      20.142      18.325      16.659      15.187      13.924    
  12.866      11.993      11.282      10.710      10.257      9.9118      9.6670      9.5204      9.4713      9.5203    
  9.6670      9.9118      10.257      10.710      11.282      11.993      12.865      13.923      15.188      16.659    
  15.478      16.637      17.873      19.136      20.358      21.458      22.364      23.009      23.345      23.345    
  23.009      22.364      21.457      20.356      19.136      17.875      16.637      15.477      14.430      13.513    
  12.729      12.070      11.523      11.074      10.710      10.424      10.210      10.067      9.9956      9.9955    
  10.067      10.210      10.423      10.710      11.074      11.523      12.070      12.729      13.511      14.429    
  13.735      14.412      15.151      15.922      16.689      17.411      18.038      18.526      18.836      18.942    
  18.835      18.526      18.039      17.412      16.690      15.921      15.150      14.413      13.736      13.137    
  12.620      12.183      11.820      11.523      11.282      11.092      10.947      10.845      10.783      10.763    
  10.784      10.845      10.947      11.092      11.282      11.523      11.820      12.182      12.621      13.137    
  12.810      13.123      13.482      13.877      14.290      14.693      15.062      15.369      15.590      15.706    
  15.706      15.590      15.369      15.061      14.692      14.289      13.878      13.483      13.123      12.809    
  12.548      12.340      12.183      12.070      11.993      11.945      11.918      11.904      11.899      11.897    
  11.896      11.898      11.904      11.918      11.945      11.993      12.070      12.183      12.339      12.548    
  12.519      12.535      12.596      12.692      12.816      12.957      13.100      13.233      13.339      13.408    
  13.432      13.408      13.339      13.233      13.101      12.957      12.816      12.691      12.595      12.536    
  12.519      12.548      12.620      12.729      12.866      13.019      13.173      13.314      13.426      13.500    
  13.525      13.500      13.427      13.314      13.173      13.018      12.865      12.728      12.621      12.549    
  12.810      12.536      12.316      12.150      12.029      11.945      11.891      11.858      11.840      11.832    
  11.829      11.829      11.832      11.840      11.857      11.890      11.944      12.028      12.150      12.317    
  12.536      12.809      13.137      13.513      13.924      14.352      14.772      15.156      15.477      15.706    
  15.826      15.826      15.706      15.476      15.157      14.772      14.353      13.925      13.512      13.136    
  13.736      13.122      12.596      12.151      11.781      11.480      11.236      11.045      10.899      10.797    
  10.736      10.716      10.736      10.797      10.900      11.045      11.237      11.480      11.782      12.150    
  12.595      13.123      13.736      14.430      15.187      15.980      16.772      17.516      18.163      18.666    
  18.986      19.095      18.986      18.667      18.163      17.515      16.770      15.979      15.188      14.431    
  15.478      14.414      13.482      12.691      12.029      11.480      11.032      10.670      10.386      10.175    
  10.035      9.9644      9.9641      10.034      10.175      10.386      10.670      11.031      11.480      12.028    
  12.691      13.483      14.413      15.477      16.659      17.922      19.212      20.461      21.590      22.519    
  23.181      23.525      23.525      23.180      22.518      21.589      20.463      19.214      17.921      16.657    
  18.324      16.636      15.151      13.879      12.815      11.945      11.236      10.670      10.223      9.8831    
  9.6432      9.4997      9.4522      9.4999      9.6434      9.8832      10.223      10.670      11.237      11.944    
  12.816      13.878      15.150      16.637      18.325      20.170      22.100      24.017      25.811      27.374    
  28.599      29.383      29.653      29.383      28.600      27.375      25.810      24.014      22.100      20.172    
  22.675      20.144      17.873      15.920      14.290      12.957      11.890      11.045      10.386      9.8835    
  9.5179      9.2785      9.1594      9.1596      9.2782      9.5179      9.8832      10.386      11.045      11.890    
  12.957      14.289      15.921      17.875      20.142      22.676      25.388      28.175      30.932      33.498    
  35.670      37.251      38.084      38.084      37.250      35.669      33.498      30.934      28.177      25.386    
  29.022      25.350      22.039      19.138      16.688      14.693      13.101      11.857      10.900      10.175    
  9.6432      9.2781      9.0643      8.9935      9.0643      9.2782      9.6434      10.175      10.900      11.857    
  13.101      14.692      16.690      19.136      22.039      25.353      29.019      32.999      37.139      41.175    
  44.788      47.651      49.492      50.127      49.493      47.652      44.788      41.174      37.137      32.999    
  38.462      32.957      28.102      23.919      20.357      17.412      15.062      13.234      11.840      10.797    
  10.034      9.5002      9.1593      8.9937      8.9935      9.1596      9.4999      10.034      10.797      11.840    
  13.233      15.061      17.412      20.356      23.921      28.100      32.957      38.464      44.400      50.396    
  55.988      60.696      64.097      65.879      65.879      64.096      60.695      55.988      50.398      44.401    
  52.448      44.355      37.049      30.819      25.678      21.457      18.039      15.368      13.340      11.832    
  10.736      9.9639      9.4524      9.1593      9.0643      9.1594      9.4522      9.9641      10.736      11.832    
  13.339      15.369      18.039      21.457      25.679      30.817      37.051      44.354      52.447      60.841    
  68.915      76.016      81.555      85.071      86.276      85.072      81.555      76.016      68.914      60.841    
  71.905      60.793      50.305      41.043      33.344      27.212      22.363      18.527      15.590      13.408    
  11.829      10.716      9.9639      9.5002      9.2781      9.2785      9.4997      9.9644      10.716      11.829    
  13.408      15.590      18.526      22.364      27.211      33.344      41.044      50.303      60.794      71.905    
  82.851      92.792      100.96      106.76      109.76      109.76      106.76      100.96      92.793      82.851    
  96.844      82.810      68.825      55.854      44.619      35.482      28.412      23.009      18.836      15.706    
  13.432      11.829      10.736      10.034      9.6432      9.5179      9.6432      10.035      10.736      11.829    
  13.432      15.706      18.835      23.009      28.412      35.483      44.619      55.853      68.826      82.809    
  96.844      109.90      121.02      129.48      134.74      136.52      134.74      129.48      121.02      109.90    
  126.10      109.87      92.721      75.894      60.528      47.454      37.040      29.180      23.345      18.942    
  15.706      13.408      11.832      10.797      10.175      9.8835      9.8831      10.175      10.797      11.832    
  13.408      15.706      18.942      23.345      29.180      37.040      47.454      60.528      75.894      92.720    
  109.87      126.10      140.28      151.54      159.31      163.26      163.26      159.31      151.54      140.28    
  157.41      140.27      120.98      100.87      81.411      63.906      49.276      37.861      29.445      23.345    
  18.836      15.590      13.340      11.840      10.900      10.386      10.223      10.386      10.899      11.840    
  13.339      15.590      18.836      23.345      29.445      37.861      49.276      63.907      81.411      100.87    
  120.98      140.27      157.41      171.41      181.64      187.83      189.90      187.83      181.64      171.41    
  187.90      171.41      151.54      129.43      106.65      84.914      65.678      49.905      37.861      29.180    
  23.009      18.527      15.368      13.234      11.857      11.045      10.670      10.670      11.045      11.858    
  13.233      15.369      18.526      23.009      29.180      37.861      49.904      65.678      84.914      106.65    
  129.43      151.53      171.41      187.90      200.35      208.57      212.63      212.63      208.57      200.35    
  214.72      200.37      181.66      159.31      134.69      109.65      86.115      65.678      49.276      37.040    
  28.412      22.363      18.039      15.062      13.101      11.890      11.236      11.032      11.236      11.891    
  13.100      15.062      18.038      22.364      28.412      37.040      49.276      65.678      86.114      109.65    
  134.69      159.31      181.66      200.37      214.72      224.60      230.29      232.14      230.29      224.60    
  235.82      224.63      208.62      187.87      163.26      136.48      109.65      84.914      63.906      47.454    
  35.482      27.212      21.457      17.412      14.693      12.957      11.945      11.480      11.480      11.945    
  12.957      14.693      17.411      21.458      27.211      35.483      47.454      63.907      84.913      109.65    
  136.48      163.26      187.87      208.62      224.63      235.82      242.67      245.87      245.87      242.67    
  250.40      242.71      230.35      212.70      189.94      163.26      134.69      106.65      81.411      60.528    
  44.619      33.344      25.678      20.357      16.688      14.290      12.815      12.029      11.781      12.029    
  12.816      14.290      16.689      20.358      25.677      33.345      44.618      60.529      81.410      106.65    
  134.69      163.26      189.94      212.70      230.35      242.71      250.40      254.42      255.65      254.42    
  258.99      254.45      245.93      232.21      212.70      187.87      159.31      129.43      100.87      75.894    
  55.854      41.043      30.819      23.919      19.138      15.920      13.879      12.691      12.151      12.150    
  12.692      13.877      15.922      19.136      23.920      30.819      41.043      55.855      75.893      100.87    
  129.43      159.31      187.87      212.70      232.21      245.93      254.45      258.99      260.86      260.86    
  263.11      260.88      255.68      245.93      230.35      208.62      181.66      151.54      120.98      92.721    
  68.825      50.305      37.049      28.102      22.039      17.873      15.151      13.482      12.596      12.316    
  12.596      13.482      15.151      17.873      22.042      28.099      37.050      50.304      68.825      92.721    
  120.98      151.54      181.66      208.62      230.35      245.93      255.69      260.88      263.11      263.69    
  264.59      263.69      260.88      254.45      242.71      224.63      200.37      171.41      140.27      109.87    
  82.810      60.793      44.355      32.957      25.350      20.144      16.636      14.414      13.122      12.536    
  12.535      13.123      14.412      16.637      20.142      25.350      32.959      44.353      60.794      82.809    
  109.87      140.27      171.41      200.37      224.63      242.71      254.45      260.87      263.69      264.59    
  264.76      264.39      262.73      258.34      249.45      234.59      213.30      186.39      155.95      124.79    
  95.762      71.079      51.863      38.073      28.767      22.495      18.192      15.378      13.656      12.740    
  12.452      12.740      13.655      15.379      18.191      22.498      28.764      38.073      51.864      71.079    
  95.761      124.79      155.95      186.39      213.30      234.59      249.45      258.34      262.73      264.39    
  264.39      264.39      263.36      260.31      253.59      241.56      223.25      198.86      169.90      138.89    
  108.70      81.903      60.146      43.925      32.687      25.174      20.018      16.544      14.342      13.062    
  12.480      12.479      13.062      14.341      16.545      20.017      25.173      32.689      43.924      60.147    
  81.902      108.70      138.89      169.91      198.86      223.25      241.56      253.59      260.31      263.36    
  262.73      263.37      262.73      260.31      254.86      244.82      229.00      207.11      180.13      150.10    
  119.74      91.744      68.119      49.837      36.764      27.929      21.924      17.792      15.089      13.432    
  12.550      12.272      12.550      13.432      15.090      17.791      21.926      27.927      36.765      49.836    
  68.119      91.744      119.74      150.10      180.13      207.11      229.00      244.82      254.86      260.31    
  258.34      260.33      260.33      258.34      253.59      244.82      230.86      211.19      186.32      157.83    
  128.14      99.840      75.138      55.352      40.741      30.648      23.816      19.069      15.871      13.839    
  12.655      12.117      12.116      12.656      13.838      15.872      19.067      23.817      30.648      40.741    
  55.353      75.138      99.840      128.14      157.83      186.32      211.19      230.86      244.82      253.59    
  249.45      253.62      254.90      253.62      249.45      241.56      229.00      211.19      188.39      161.77    
  133.37      105.58      80.617      59.997      44.302      33.175      25.590      20.303      16.652      14.261    
  12.790      12.003      11.755      12.003      12.790      14.261      16.653      20.303      25.589      33.176    
  44.301      59.999      80.616      105.58      133.37      161.77      188.38      211.19      229.00      241.56    
  234.59      241.60      244.88      244.88      241.60      234.59      223.25      207.11      186.32      161.77    
  135.15      108.56      84.096      63.355      47.126      35.313      27.135      21.416      17.388      14.675    
  12.940      11.926      11.460      11.460      11.926      12.940      14.675      17.387      21.418      27.133    
  35.314      47.125      63.356      84.095      108.56      135.15      161.77      186.32      207.11      223.25    
  213.30      223.29      229.06      230.94      229.06      223.29      213.30      198.86      180.13      157.83    
  133.37      108.56      85.287      65.116      48.940      36.871      28.343      22.334      18.027      15.054    
  13.092      11.878      11.220      11.015      11.220      11.878      13.092      15.055      18.026      22.335    
  28.342      36.871      48.940      65.116      85.288      108.56      133.37      157.83      180.13      198.86    
  186.39      198.89      207.17      211.27      211.27      207.17      198.89      186.39      169.91      150.10    
  128.14      105.58      84.095      65.116      49.566      37.692      29.115      22.988      18.525      15.370    
  13.231      11.849      11.032      10.653      10.653      11.031      11.849      13.230      15.371      18.524    
  22.988      29.115      37.691      49.566      65.116      84.096      105.58      128.14      150.10      169.91    
  155.95      169.92      180.16      186.37      188.45      186.37      180.16      169.92      155.95      138.89    
  119.74      99.840      80.616      63.356      48.940      37.692      29.381      23.329      18.840      15.597    
  13.342      11.835      10.887      10.368      10.204      10.368      10.887      11.835      13.342      15.597    
  18.840      23.329      29.381      37.691      48.940      63.356      80.616      99.840      119.74      138.89    
  124.79      138.88      150.10      157.85      161.79      161.79      157.85      150.10      138.88      124.79    
  108.70      91.743      75.138      59.998      47.125      36.871      29.115      23.329      18.948      15.715    
  13.414      11.829      10.785      10.156      9.8604      9.8605      10.156      10.785      11.829      13.414    
  15.715      18.948      23.329      29.115      36.871      47.125      59.998      75.138      91.744      108.70    
  95.762      108.68      119.71      128.10      133.34      135.11      133.34      128.10      119.71      108.68    
  95.761      81.903      68.120      55.351      44.302      35.314      28.342      22.989      18.840      15.715    
  13.439      11.827      10.724      10.014      9.6173      9.4897      9.6173      10.014      10.724      11.827    
  13.439      15.715      18.840      22.988      28.342      35.314      44.301      55.353      68.119      81.903    
  71.079      81.866      91.681      99.762      105.50      108.47      108.47      105.50      99.761      91.680    
  81.866      71.079      60.146      49.836      40.742      33.174      27.134      22.334      18.524      15.597    
  13.414      11.827      10.704      9.9430      9.4715      9.2462      9.2461      9.4716      9.9431      10.704    
  11.827      13.414      15.597      18.524      22.334      27.134      33.176      40.741      49.837      60.146    
  51.864      60.103      68.039      75.029      80.488      83.956      85.145      83.956      80.489      75.030    
  68.040      60.103      51.863      43.924      36.765      30.646      25.591      21.416      18.027      15.370    
  13.342      11.829      10.724      9.9431      9.4228      9.1253      9.0280      9.1254      9.4226      9.9431    
  10.724      11.829      13.342      15.371      18.026      21.417      25.589      30.648      36.765      43.924    
  38.073      43.882      49.752      55.231      59.847      63.184      64.935      64.935      63.184      59.846    
  55.229      49.751      43.882      38.075      32.687      27.928      23.818      20.301      17.388      15.054    
  13.231      11.835      10.785      10.014      9.4717      9.1250      8.9561      8.9559      9.1255      9.4714    
  10.014      10.785      11.835      13.230      15.055      17.387      20.303      23.817      27.927      32.689    
  28.764      32.650      36.685      40.621      44.147      46.944      48.742      49.363      48.742      46.944    
  44.148      40.623      36.685      32.648      28.764      25.176      21.924      19.067      16.653      14.675    
  13.092      11.849      10.887      10.156      9.6173      9.2461      9.0281      8.9561      9.0279      9.2461    
  9.6173      10.156      10.887      11.849      13.092      14.675      16.653      19.067      21.926      25.174    
  22.498      25.142      27.859      30.543      33.035      35.143      36.678      37.488      37.488      36.679    
  35.143      33.033      30.541      27.859      25.144      22.496      20.016      17.793      15.871      14.260    
  12.940      11.877      11.031      10.368      9.8605      9.4898      9.2461      9.1251      9.1254      9.2462    
  9.4898      9.8603      10.368      11.031      11.878      12.940      14.261      15.872      17.791      20.017    
  18.191      19.991      21.871      23.731      25.468      26.985      28.171      28.930      29.191      28.930    
  28.171      26.986      25.471      23.732      21.869      19.991      18.193      16.545      15.088      13.838    
  12.790      11.926      11.221      10.653      10.204      9.8604      9.6173      9.4716      9.4227      9.4715    
  9.6172      9.8606      10.204      10.653      11.221      11.926      12.790      13.838      15.089      16.545    
  15.379      16.526      17.749      18.999      20.208      21.298      22.195      22.834      23.166      23.166    
  22.834      22.195      21.297      20.206      18.999      17.751      16.526      15.378      14.341      13.433    
  12.656      12.003      11.460      11.014      10.653      10.368      10.156      10.014      9.9432      9.9429    
  10.014      10.156      10.368      10.653      11.015      11.460      12.003      12.657      13.432      14.340    
  13.655      14.326      15.057      15.821      16.580      17.295      17.916      18.399      18.706      18.811    
  18.706      18.399      17.917      17.296      16.581      15.820      15.056      14.326      13.656      13.062    
  12.549      12.116      11.756      11.460      11.221      11.031      10.887      10.785      10.724      10.704    
  10.724      10.785      10.887      11.032      11.221      11.460      11.755      12.115      12.550      13.063    
  12.740      13.051      13.407      13.799      14.207      14.607      14.973      15.277      15.496      15.611    
  15.611      15.496      15.277      14.972      14.606      14.206      13.799      13.408      13.051      12.739    
  12.480      12.273      12.116      12.003      11.926      11.877      11.849      11.835      11.829      11.827    
  11.827      11.829      11.835      11.849      11.877      11.926      12.003      12.117      12.272      12.479    
  12.452      12.469      12.530      12.626      12.749      12.889      13.032      13.163      13.269      13.337    
  13.361      13.337      13.269      13.164      13.033      12.890      12.749      12.625      12.529      12.470    
  12.452      12.480      12.549      12.656      12.790      12.940      13.092      13.231      13.342      13.414    
  13.439      13.414      13.342      13.231      13.092      12.940      12.790      12.655      12.550      12.480    
  12.740      12.470      12.253      12.089      11.970      11.887      11.834      11.802      11.785      11.777    