Pt-hcc                                  
   1.00000000000000     
     2.722037    0.000000    0.000000
    -1.361019    2.357353    0.000000
     0.000000    0.000000    4.715866
   Pt
     2
Direct
  0.000000  0.000000  0.000000
  0.333333  0.666667  0.500000
 
   40   40   72
 0.26489783364E+03 0.26458858959E+03 0.26310819726E+03 0.25899080546E+03 0.25039794403E+03
 0.23581797721E+03 0.21472025660E+03 0.18789837480E+03 0.15741302782E+03 0.12609603973E+03
 0.96844140681E+02 0.71905099504E+02 0.52447850607E+02 0.38462377287E+02 0.29022059989E+02
 0.22675180196E+02 0.18324132919E+02 0.15477613908E+02 0.13735706088E+02 0.12809927690E+02
 0.12518529424E+02 0.12810069840E+02 0.13735384165E+02 0.15478235530E+02 0.18322929386E+02
 0.22677826600E+02 0.29019973666E+02 0.38462317452E+02 0.52448327409E+02 0.71904940239E+02
 0.96844115715E+02 0.12609604549E+03 0.15741299747E+03 0.18789834845E+03 0.21472021488E+03
 0.23581813835E+03 0.25039782335E+03 0.25899101746E+03 0.26310818735E+03 0.26458835482E+03
 0.26458835482E+03 0.26458868235E+03 0.26368722707E+03 0.26085731597E+03 0.25441848107E+03
 0.24267486811E+03 0.22459865570E+03 0.20034957473E+03 0.17140521058E+03 0.14028092013E+03
 0.10989556130E+03 0.82851032628E+02 0.60840821802E+02 0.44400843272E+02 0.32998957700E+02
 0.25385592972E+02 0.20171906763E+02 0.16657346814E+02 0.14430614378E+02 0.13136157614E+02
 0.12548543686E+02 0.12547544625E+02 0.13137193656E+02 0.14429459415E+02 0.16658626395E+02
 0.20170532726E+02 0.25385132869E+02 0.33001001403E+02 0.44399523476E+02 0.60841515996E+02
 0.82850473148E+02 0.10989613676E+03 0.14028039840E+03 0.17140581923E+03 0.20034904461E+03
 0.22459927882E+03 0.24267454291E+03 0.25441876770E+03 0.26085724530E+03 0.26368744514E+03
 0.26310818735E+03 0.26369431875E+03 0.26310771767E+03 0.26085712636E+03 0.25564532643E+03
 0.24587406299E+03 0.23028991063E+03 0.20857247720E+03 0.18163703442E+03 0.15154453641E+03
 0.12102262525E+03 0.92793109497E+02 0.68913679062E+02 0.50397676071E+02 0.37136764047E+02
 0.28176731926E+02 0.22100012837E+02 0.17921190122E+02 0.15187566529E+02 0.13511746553E+02
 0.12620560213E+02 0.12339416089E+02 0.12620649579E+02 0.13511493397E+02 0.15188031725E+02
 0.17920240977E+02 0.22102460111E+02 0.28174136767E+02 0.37138035101E+02 0.50397001499E+02
 0.68914088555E+02 0.92792877195E+02 0.12102266559E+03 0.15154435899E+03 0.18163711874E+03
 0.20857246376E+03 0.23028971500E+03 0.24587447697E+03 0.25564514194E+03 0.26085724530E+03
 0.25899101746E+03 0.26087470316E+03 0.26087518160E+03 0.25899109707E+03 0.25441869814E+03
 0.24587396193E+03 0.23213709632E+03 0.21263218716E+03 0.18782745088E+03 0.15930914084E+03
 0.12947516478E+03 0.10096473862E+03 0.76015988584E+02 0.55988185142E+02 0.41173788571E+02
 0.30934102404E+02 0.24014306843E+02 0.19214262584E+02 0.15979096037E+02 0.13924645081E+02
 0.12728081195E+02 0.12183498193E+02 0.12182425932E+02 0.12729196404E+02 0.13923326645E+02
 0.15980629301E+02 0.19212088828E+02 0.24015773828E+02 0.30934005869E+02 0.41173490213E+02
 0.55988811637E+02 0.76015364803E+02 0.10096510608E+03 0.12947502841E+03 0.15930925000E+03
 0.18782744011E+03 0.21263260096E+03 0.23213696177E+03 0.24587447697E+03 0.25441876770E+03
 0.25039782335E+03 0.25444758613E+03 0.25568507942E+03 0.25444722779E+03 0.25039765348E+03
 0.24267440594E+03 0.23029034589E+03 0.21263207253E+03 0.18989503307E+03 0.16325719731E+03
 0.13473928151E+03 0.10675664548E+03 0.81555280506E+02 0.60695252464E+02 0.44787939320E+02
 0.33498060125E+02 0.25809817203E+02 0.20462997121E+02 0.16770435347E+02 0.14352914367E+02
 0.12864897998E+02 0.12070427175E+02 0.11819676950E+02 0.12070292210E+02 0.12865138726E+02
 0.14352549778E+02 0.16770983491E+02 0.20463281097E+02 0.25808640128E+02 0.33499454511E+02
 0.44786620850E+02 0.60696159291E+02 0.81554726457E+02 0.10675695356E+03 0.13473886631E+03
 0.16325740600E+03 0.18989443028E+03 0.21263260096E+03 0.23028971500E+03 0.24267454291E+03
 0.23581813835E+03 0.24270937890E+03 0.24593111991E+03 0.24593094318E+03 0.24270962164E+03
 0.23581822362E+03 0.22459908730E+03 0.20857195977E+03 0.18782781089E+03 0.16325700507E+03
 0.13652431987E+03 0.10975526522E+03 0.85071680990E+02 0.64095948627E+02 0.47652249320E+02
 0.35668997266E+02 0.27375268175E+02 0.21589370280E+02 0.17515454446E+02 0.14772497572E+02
 0.13018218019E+02 0.11993394886E+02 0.11522778532E+02 0.11522814854E+02 0.11993355057E+02
 0.13018148607E+02 0.14772574606E+02 0.17514620800E+02 0.21590830734E+02 0.27373886295E+02
 0.35670091618E+02 0.47651663235E+02 0.64096310973E+02 0.85071426052E+02 0.10975536795E+03
 0.13652433180E+03 0.16325740600E+03 0.18782744011E+03 0.20857246376E+03 0.22459927882E+03
 0.21472021488E+03 0.22463250424E+03 0.23035160520E+03 0.23220968401E+03 0.23035184896E+03
 0.22463249007E+03 0.21472024127E+03 0.20034934827E+03 0.18163765338E+03 0.15930901595E+03
 0.13473924581E+03 0.10975571930E+03 0.86275843170E+02 0.65879065423E+02 0.49492515479E+02
 0.37250252572E+02 0.28599642930E+02 0.22517756349E+02 0.18163289240E+02 0.15156599737E+02
 0.13172661361E+02 0.11945465574E+02 0.11282016554E+02 0.11074060663E+02 0.11281945249E+02
 0.11945656450E+02 0.13172411034E+02 0.15157392041E+02 0.18162171057E+02 0.22518616347E+02
 0.28599211395E+02 0.37250362962E+02 0.49492584821E+02 0.65878801104E+02 0.86276204299E+02
 0.10975536795E+03 0.13473886631E+03 0.15930925000E+03 0.18163711874E+03 0.20034904461E+03
 0.18789834845E+03 0.20037280325E+03 0.20862305352E+03 0.21270066934E+03 0.21270043911E+03
 0.20862280384E+03 0.20037271776E+03 0.18789866002E+03 0.17140552576E+03 0.15154403071E+03
 0.12947532443E+03 0.10675662585E+03 0.85071168691E+02 0.65879231058E+02 0.50126944594E+02
 0.38083605179E+02 0.29383087660E+02 0.23179958425E+02 0.18666860002E+02 0.15475960350E+02
 0.13314130322E+02 0.11917504634E+02 0.11092225271E+02 0.10709800957E+02 0.10710181697E+02
 0.11091798260E+02 0.11917920451E+02 0.13313367285E+02 0.15476857721E+02 0.18666288239E+02
 0.23180155368E+02 0.29383114790E+02 0.38083335266E+02 0.50127433174E+02 0.65878801104E+02
 0.85071426052E+02 0.10675695356E+03 0.12947502841E+03 0.15154435899E+03 0.17140581923E+03
 0.15741299747E+03 0.17141298649E+03 0.18166203455E+03 0.18786934059E+03 0.18994353528E+03
 0.18786982583E+03 0.18166265929E+03 0.17141311613E+03 0.15741290726E+03 0.14028079663E+03
 0.12102319456E+03 0.10096472990E+03 0.81554952071E+02 0.64096627404E+02 0.49492040973E+02
 0.38084028419E+02 0.29652555221E+02 0.23525249799E+02 0.18985977774E+02 0.15705848070E+02
 0.13427066266E+02 0.11903868746E+02 0.10947138484E+02 0.10423434742E+02 0.10257311488E+02
 0.10423503997E+02 0.10947102970E+02 0.11904192801E+02 0.13426667665E+02 0.15705913789E+02
 0.18986174655E+02 0.23524819405E+02 0.29653206078E+02 0.38083335266E+02 0.49492584821E+02
 0.64096310973E+02 0.81554726457E+02 0.10096510608E+03 0.12102266559E+03 0.14028039840E+03
 0.12609604549E+03 0.14026886167E+03 0.15153528782E+03 0.15930911144E+03 0.16326426713E+03
 0.16326397926E+03 0.15930849484E+03 0.15153478909E+03 0.14026886579E+03 0.12609630551E+03
 0.10989573406E+03 0.92792246056E+02 0.76016100804E+02 0.60695645997E+02 0.47651321172E+02
 0.37250817448E+02 0.29382513873E+02 0.23525488553E+02 0.19095247433E+02 0.15826140631E+02
 0.13500120237E+02 0.11898185386E+02 0.10844732424E+02 0.10209606020E+02 0.99118343082E+01
 0.99117536907E+01 0.10209657698E+02 0.10844520212E+02 0.11898456860E+02 0.13500173414E+02
 0.15825823230E+02 0.19095692559E+02 0.23524819405E+02 0.29383114790E+02 0.37250362962E+02
 0.47651663235E+02 0.60696159291E+02 0.76015364803E+02 0.92792877195E+02 0.10989613676E+03
 0.96844115715E+02 0.10986731567E+03 0.12097858527E+03 0.12942622023E+03 0.13469058452E+03
 0.13647687467E+03 0.13469110040E+03 0.12942690341E+03 0.12097925753E+03 0.10986720786E+03
 0.96843896802E+02 0.82850818344E+02 0.68914636018E+02 0.55987557304E+02 0.44787572528E+02
 0.35670111709E+02 0.28598797982E+02 0.23180768777E+02 0.18985523146E+02 0.15826359089E+02
 0.13525262062E+02 0.11896499417E+02 0.10783548279E+02 0.10066912460E+02 0.96670402098E+01
 0.95384506540E+01 0.96670949749E+01 0.10067016024E+02 0.10783445949E+02 0.11896309267E+02
 0.13525649569E+02 0.15825823230E+02 0.18986174655E+02 0.23180155368E+02 0.28599211395E+02
 0.35670091618E+02 0.44786620850E+02 0.55988811637E+02 0.68914088555E+02 0.82850473148E+02
 0.71904940239E+02 0.82809319925E+02 0.92720670273E+02 0.10087314319E+03 0.10665447668E+03
 0.10964867935E+03 0.10964863588E+03 0.10665384193E+03 0.10087234091E+03 0.92719893565E+02
 0.82809414987E+02 0.71905190476E+02 0.60841109362E+02 0.50396391675E+02 0.41174897455E+02
 0.33497889351E+02 0.27374416914E+02 0.22518614455E+02 0.18665940252E+02 0.15706453245E+02
 0.13499735316E+02 0.11896689538E+02 0.10763056103E+02 0.99954884142E+01 0.95202691994E+01
 0.92933417439E+01 0.92931964375E+01 0.95203131819E+01 0.99955261367E+01 0.10763318354E+02
 0.11896309267E+02 0.13500173414E+02 0.15705913789E+02 0.18666288239E+02 0.22518616347E+02
 0.27373886295E+02 0.33499454511E+02 0.41173490213E+02 0.50397001499E+02 0.60841515996E+02
 0.52448327409E+02 0.60794144584E+02 0.68825467695E+02 0.75893398531E+02 0.81410267231E+02
 0.84913472358E+02 0.86114398393E+02 0.84913533715E+02 0.81410898245E+02 0.75894338866E+02
 0.68826208939E+02 0.60793858689E+02 0.52447487524E+02 0.44400147382E+02 0.37138535333E+02
 0.30932318260E+02 0.25810644080E+02 0.21589745042E+02 0.18162752425E+02 0.15476784852E+02
 0.13426477823E+02 0.11898621269E+02 0.10783263907E+02 0.99956168270E+01 0.94712660996E+01
 0.91716800573E+01 0.90736008560E+01 0.91717615365E+01 0.94711140938E+01 0.99955261367E+01
 0.10783445949E+02 0.11898456860E+02 0.13426667665E+02 0.15476857721E+02 0.18162171057E+02
 0.21590830734E+02 0.25808640128E+02 0.30934005869E+02 0.37138035101E+02 0.44399523476E+02
 0.38462317452E+02 0.44353334561E+02 0.50303860119E+02 0.55854648203E+02 0.60528925087E+02
 0.63907094897E+02 0.65678136007E+02 0.65678361300E+02 0.63906771673E+02 0.60528313201E+02
 0.55853044680E+02 0.50303272869E+02 0.44353799490E+02 0.38463947946E+02 0.32998828310E+02
 0.28174883559E+02 0.24016926312E+02 0.20461298678E+02 0.17515967916E+02 0.15156411384E+02
 0.13313834745E+02 0.11904038654E+02 0.10844647533E+02 0.10066935046E+02 0.95203985348E+01
 0.91714214844E+01 0.90012961075E+01 0.90010911207E+01 0.91717615365E+01 0.95203131819E+01
 0.10067016024E+02 0.10844520212E+02 0.11904192801E+02 0.13313367285E+02 0.15157392041E+02
 0.17514620800E+02 0.20463281097E+02 0.24015773828E+02 0.28174136767E+02 0.33001001403E+02
 0.29019973666E+02 0.32958934589E+02 0.37050321366E+02 0.41042669350E+02 0.44617640843E+02
 0.47453541723E+02 0.49275805262E+02 0.49904475406E+02 0.49275723074E+02 0.47453594161E+02
 0.44618814556E+02 0.41044284123E+02 0.37050882284E+02 0.32956915328E+02 0.29019488248E+02
 0.25387929315E+02 0.22100134687E+02 0.19212499335E+02 0.16771991239E+02 0.14771888106E+02
 0.13173069793E+02 0.11917644908E+02 0.10947091237E+02 0.10209643836E+02 0.96670498771E+01
 0.92932580369E+01 0.90738209470E+01 0.90012961075E+01 0.90736008560E+01 0.92931964375E+01
 0.96670949749E+01 0.10209657698E+02 0.10947102970E+02 0.11917920451E+02 0.13172411034E+02
 0.14772574606E+02 0.16770983491E+02 0.19212088828E+02 0.22102460111E+02 0.25385132869E+02
 0.22677826600E+02 0.25349921114E+02 0.28099315087E+02 0.30818946285E+02 0.33345230697E+02
 0.35483313135E+02 0.37039990509E+02 0.37860930772E+02 0.37861008488E+02 0.37040161250E+02
 0.35482954994E+02 0.33343607411E+02 0.30817114197E+02 0.28100033945E+02 0.25352622850E+02
 0.22676123170E+02 0.20169574849E+02 0.17922244600E+02 0.15979955472E+02 0.14351945838E+02
 0.13018511841E+02 0.11945126544E+02 0.11092013830E+02 0.10423536816E+02 0.99117817312E+01
 0.95385052124E+01 0.92932580369E+01 0.91714214844E+01 0.91716800573E+01 0.92933417439E+01
 0.95384506540E+01 0.99117536907E+01 0.10423503997E+02 0.11091798260E+02 0.11945656450E+02
 0.13018148607E+02 0.14352549778E+02 0.15980629301E+02 0.17920240977E+02 0.20170532726E+02
 0.18322929386E+02 0.20142481437E+02 0.22041725692E+02 0.23920107024E+02 0.25676588863E+02
 0.27210675515E+02 0.28411743585E+02 0.29180140956E+02 0.29444502492E+02 0.29179883928E+02
 0.28411723244E+02 0.27211451110E+02 0.25678705299E+02 0.23921406920E+02 0.22039447906E+02
 0.20141588589E+02 0.18324773800E+02 0.16658706161E+02 0.15186677245E+02 0.13923925197E+02
 0.12865707631E+02 0.11993136817E+02 0.11282429572E+02 0.10709966868E+02 0.10257294828E+02
 0.99117817312E+01 0.96670498771E+01 0.95203985348E+01 0.94712660996E+01 0.95202691994E+01
 0.96670402098E+01 0.99118343082E+01 0.10257311488E+02 0.10710181697E+02 0.11281945249E+02
 0.11993355057E+02 0.12865138726E+02 0.13923326645E+02 0.15188031725E+02 0.16658626395E+02
 0.15478235530E+02 0.16636874005E+02 0.17872550321E+02 0.19136062688E+02 0.20357615160E+02
 0.21458490471E+02 0.22364399185E+02 0.23009100953E+02 0.23344774148E+02 0.23344921146E+02
 0.23009394897E+02 0.22364048052E+02 0.21457271545E+02 0.20355546530E+02 0.19136361969E+02
 0.17874527908E+02 0.16636892202E+02 0.15476990849E+02 0.14429608351E+02 0.13512681621E+02
 0.12728591420E+02 0.12069777422E+02 0.11522832436E+02 0.11073651745E+02 0.10709966868E+02
 0.10423536816E+02 0.10209643836E+02 0.10066935046E+02 0.99956168270E+01 0.99954884142E+01
 0.10066912460E+02 0.10209606020E+02 0.10423434742E+02 0.10709800957E+02 0.11074060663E+02
 0.11522814854E+02 0.12070292210E+02 0.12729196404E+02 0.13511493397E+02 0.14429459415E+02
 0.13735384165E+02 0.14412387941E+02 0.15151003554E+02 0.15921576063E+02 0.16688837960E+02
 0.17410744045E+02 0.18038194267E+02 0.18526168076E+02 0.18835687981E+02 0.18941668353E+02
 0.18835458163E+02 0.18526074769E+02 0.18039078425E+02 0.17412128961E+02 0.16689980022E+02
 0.15920918534E+02 0.15149678352E+02 0.14412547139E+02 0.13736481879E+02 0.13136829881E+02
 0.12619645729E+02 0.12182923145E+02 0.11820240123E+02 0.11522832436E+02 0.11282429572E+02
 0.11092013830E+02 0.10947091237E+02 0.10844647533E+02 0.10783263907E+02 0.10763056103E+02
 0.10783548279E+02 0.10844732424E+02 0.10947138484E+02 0.11092225271E+02 0.11282016554E+02
 0.11522778532E+02 0.11819676950E+02 0.12182425932E+02 0.12620649579E+02 0.13137193656E+02
 0.12810069840E+02 0.13123333040E+02 0.13482247343E+02 0.13877484395E+02 0.14289591225E+02
 0.14692971677E+02 0.15062448657E+02 0.15369498372E+02 0.15590259907E+02 0.15705832114E+02
 0.15705920557E+02 0.15590423091E+02 0.15369150349E+02 0.15061301761E+02 0.14692169438E+02
 0.14288898027E+02 0.13878012997E+02 0.13483399470E+02 0.13122944541E+02 0.12809149294E+02
 0.12547928991E+02 0.12340339400E+02 0.12182923145E+02 0.12069777422E+02 0.11993136817E+02
 0.11945126544E+02 0.11917644908E+02 0.11904038654E+02 0.11898621269E+02 0.11896689538E+02
 0.11896499417E+02 0.11898185386E+02 0.11903868746E+02 0.11917504634E+02 0.11945465574E+02
 0.11993394886E+02 0.12070427175E+02 0.12183498193E+02 0.12339416089E+02 0.12547544625E+02
 0.12518529424E+02 0.12535240646E+02 0.12595925850E+02 0.12692033927E+02 0.12815599493E+02
 0.12956965394E+02 0.13100390263E+02 0.13232713990E+02 0.13339084141E+02 0.13408000634E+02
 0.13431836085E+02 0.13407899611E+02 0.13339273229E+02 0.13233266669E+02 0.13101279710E+02
 0.12957330507E+02 0.12816261936E+02 0.12691409982E+02 0.12594951138E+02 0.12535616728E+02
 0.12519353842E+02 0.12547928991E+02 0.12619645729E+02 0.12728591420E+02 0.12865707631E+02
 0.13018511841E+02 0.13173069793E+02 0.13313834745E+02 0.13426477823E+02 0.13499735316E+02
 0.13525262062E+02 0.13500120237E+02 0.13427066266E+02 0.13314130322E+02 0.13172661361E+02
 0.13018218019E+02 0.12864897998E+02 0.12728081195E+02 0.12620560213E+02 0.12548543686E+02
 0.12809927690E+02 0.12536217377E+02 0.12316250231E+02 0.12149582012E+02 0.12028974745E+02
 0.11944506271E+02 0.11890585345E+02 0.11857796738E+02 0.11840245413E+02 0.11832084375E+02
 0.11829101018E+02 0.11829164414E+02 0.11831887413E+02 0.11839920059E+02 0.11857347756E+02
 0.11889917620E+02 0.11944223072E+02 0.12028394306E+02 0.12150062724E+02 0.12317160786E+02
 0.12535616728E+02 0.12809149294E+02 0.13136829881E+02 0.13512681621E+02 0.13923925197E+02
 0.14351945838E+02 0.14771888106E+02 0.15156411384E+02 0.15476784852E+02 0.15706453245E+02
 0.15826359089E+02 0.15826140631E+02 0.15705848070E+02 0.15475960350E+02 0.15156599737E+02
 0.14772497572E+02 0.14352914367E+02 0.13924645081E+02 0.13511746553E+02 0.13136157614E+02
 0.13735706088E+02 0.13122294615E+02 0.12595813355E+02 0.12150661035E+02 0.11780850037E+02
 0.11479979070E+02 0.11236341657E+02 0.11044857030E+02 0.10899364916E+02 0.10796919726E+02
 0.10735956665E+02 0.10715631814E+02 0.10736158977E+02 0.10797178119E+02 0.10899668606E+02
 0.11045123655E+02 0.11237026699E+02 0.11479974899E+02 0.11781514991E+02 0.12150062724E+02
 0.12594951138E+02 0.13122944541E+02 0.13736481879E+02 0.14429608351E+02 0.15186677245E+02
 0.15979955472E+02 0.16771991239E+02 0.17515967916E+02 0.18162752425E+02 0.18665940252E+02
 0.18985523146E+02 0.19095247433E+02 0.18985977774E+02 0.18666860002E+02 0.18163289240E+02
 0.17515454446E+02 0.16770435347E+02 0.15979096037E+02 0.15187566529E+02 0.14430614378E+02
 0.15477613908E+02 0.14413503490E+02 0.13482462903E+02 0.12690860148E+02 0.12029082110E+02
 0.11479929225E+02 0.11032008364E+02 0.10670018176E+02 0.10386162412E+02 0.10175113688E+02
 0.10034616159E+02 0.99644039323E+01 0.99641312786E+01 0.10034463258E+02 0.10174853801E+02
 0.10386036919E+02 0.10669701187E+02 0.11031482028E+02 0.11479974899E+02 0.12028394306E+02
 0.12691409982E+02 0.13483399470E+02 0.14412547139E+02 0.15476990849E+02 0.16658706161E+02
 0.17922244600E+02 0.19212499335E+02 0.20461298678E+02 0.21589745042E+02 0.22518614455E+02
 0.23180768777E+02 0.23525488553E+02 0.23525249799E+02 0.23179958425E+02 0.22517756349E+02
 0.21589370280E+02 0.20462997121E+02 0.19214262584E+02 0.17921190122E+02 0.16657346814E+02
 0.18324132919E+02 0.16635597363E+02 0.15150513558E+02 0.13878784016E+02 0.12815336250E+02
 0.11944529875E+02 0.11236423279E+02 0.10669543513E+02 0.10222810820E+02 0.98831086016E+01
 0.96431842917E+01 0.94996537848E+01 0.94521790568E+01 0.94998570483E+01 0.96434115583E+01
 0.98832391663E+01 0.10223055866E+02 0.10669701187E+02 0.11237026699E+02 0.11944223072E+02
 0.12816261936E+02 0.13878012997E+02 0.15149678352E+02 0.16636892202E+02 0.18324773800E+02
 0.20169574849E+02 0.22100134687E+02 0.24016926312E+02 0.25810644080E+02 0.27374416914E+02
 0.28598797982E+02 0.29382513873E+02 0.29652555221E+02 0.29383087660E+02 0.28599642930E+02
 0.27375268175E+02 0.25809817203E+02 0.24014306843E+02 0.22100012837E+02 0.20171906763E+02
 0.22675180196E+02 0.20143849116E+02 0.17873478677E+02 0.15919990981E+02 0.14289903825E+02
 0.12957009232E+02 0.11890367510E+02 0.11045395634E+02 0.10386074488E+02 0.98834999241E+01
 0.95178721007E+01 0.92785122160E+01 0.91593753681E+01 0.91595593196E+01 0.92781960792E+01
 0.95178709117E+01 0.98832391663E+01 0.10386036919E+02 0.11045123655E+02 0.11889917620E+02
 0.12957330507E+02 0.14288898027E+02 0.15920918534E+02 0.17874527908E+02 0.20141588589E+02
 0.22676123170E+02 0.25387929315E+02 0.28174883559E+02 0.30932318260E+02 0.33497889351E+02
 0.35670111709E+02 0.37250817448E+02 0.38084028419E+02 0.38083605179E+02 0.37250252572E+02
 0.35668997266E+02 0.33498060125E+02 0.30934102404E+02 0.28176731926E+02 0.25385592972E+02
 0.29022059989E+02 0.25350400459E+02 0.22039289537E+02 0.19138268201E+02 0.16688320580E+02
 0.14692879679E+02 0.13100677306E+02 0.11857273156E+02 0.10899500711E+02 0.10174774035E+02
 0.96432345670E+01 0.92780590841E+01 0.90642955554E+01 0.89934758286E+01 0.90642664314E+01
 0.92781960792E+01 0.96434115583E+01 0.10174853801E+02 0.10899668606E+02 0.11857347756E+02
 0.13101279710E+02 0.14692169438E+02 0.16689980022E+02 0.19136361969E+02 0.22039447906E+02
 0.25352622850E+02 0.29019488248E+02 0.32998828310E+02 0.37138535333E+02 0.41174897455E+02
 0.44787572528E+02 0.47651321172E+02 0.49492040973E+02 0.50126944594E+02 0.49492515479E+02
 0.47652249320E+02 0.44787939320E+02 0.41173788571E+02 0.37136764047E+02 0.32998957700E+02
 0.38462377287E+02 0.32956939138E+02 0.28101926453E+02 0.23918694937E+02 0.20357264559E+02
 0.17411580409E+02 0.15061593917E+02 0.13233604151E+02 0.11839841296E+02 0.10797468687E+02
 0.10034401550E+02 0.95002134608E+01 0.91592686602E+01 0.89937444160E+01 0.89934758286E+01
 0.91595593196E+01 0.94998570483E+01 0.10034463258E+02 0.10797178119E+02 0.11839920059E+02
 0.13233266669E+02 0.15061301761E+02 0.17412128961E+02 0.20355546530E+02 0.23921406920E+02
 0.28100033945E+02 0.32956915328E+02 0.38463947946E+02 0.44400147382E+02 0.50396391675E+02
 0.55987557304E+02 0.60695645997E+02 0.64096627404E+02 0.65879231058E+02 0.65879065423E+02
 0.64095948627E+02 0.60695252464E+02 0.55988185142E+02 0.50397676071E+02 0.44400843272E+02
 0.52447850607E+02 0.44354590364E+02 0.37049116972E+02 0.30819051459E+02 0.25677850607E+02
 0.21457111092E+02 0.18039360841E+02 0.15368485887E+02 0.13339580745E+02 0.11831537920E+02
 0.10736258360E+02 0.99638527553E+01 0.94523734014E+01 0.91592686602E+01 0.90642955554E+01
 0.91593753681E+01 0.94521790568E+01 0.99641312786E+01 0.10736158977E+02 0.11831887413E+02
 0.13339273229E+02 0.15369150349E+02 0.18039078425E+02 0.21457271545E+02 0.25678705299E+02
 0.30817114197E+02 0.37050882284E+02 0.44353799490E+02 0.52447487524E+02 0.60841109362E+02
 0.68914636018E+02 0.76016100804E+02 0.81554952071E+02 0.85071168691E+02 0.86275843170E+02
 0.85071680990E+02 0.81555280506E+02 0.76015988584E+02 0.68913679062E+02 0.60840821802E+02
 0.71905099504E+02 0.60793486850E+02 0.50304617107E+02 0.41043031284E+02 0.33343857155E+02
 0.27212098612E+02 0.22363321675E+02 0.18526990892E+02 0.15589871386E+02 0.13408454525E+02
 0.11828817851E+02 0.10716219452E+02 0.99638527553E+01 0.95002134608E+01 0.92780590841E+01
 0.92785122160E+01 0.94996537848E+01 0.99644039323E+01 0.10715631814E+02 0.11829164414E+02
 0.13407899611E+02 0.15590423091E+02 0.18526074769E+02 0.22364048052E+02 0.27211451110E+02
 0.33343607411E+02 0.41044284123E+02 0.50303272869E+02 0.60793858689E+02 0.71905190476E+02
 0.82850818344E+02 0.92792246056E+02 0.10096472990E+03 0.10675662585E+03 0.10975571930E+03
 0.10975526522E+03 0.10675664548E+03 0.10096473862E+03 0.92793109497E+02 0.82851032628E+02
 0.96844140681E+02 0.82809820071E+02 0.68825075426E+02 0.55853861861E+02 0.44619092628E+02
 0.35482113048E+02 0.28412481953E+02 0.23008653922E+02 0.18835741632E+02 0.15705640081E+02
 0.13431910485E+02 0.11828817851E+02 0.10736258360E+02 0.10034401550E+02 0.96432345670E+01
 0.95178721007E+01 0.96431842917E+01 0.10034616159E+02 0.10735956665E+02 0.11829101018E+02
 0.13431836085E+02 0.15705920557E+02 0.18835458163E+02 0.23009394897E+02 0.28411723244E+02
 0.35482954994E+02 0.44618814556E+02 0.55853044680E+02 0.68826208939E+02 0.82809414987E+02
 0.96843896802E+02 0.10989573406E+03 0.12102319456E+03 0.12947532443E+03 0.13473924581E+03
 0.13652431987E+03 0.13473928151E+03 0.12947516478E+03 0.12102262525E+03 0.10989556130E+03
 0.12609603973E+03 0.10986688085E+03 0.92720712245E+02 0.75894197374E+02 0.60527948937E+02
 0.47454364931E+02 0.37039563286E+02 0.29180401121E+02 0.23344670344E+02 0.18941893488E+02
 0.15705640081E+02 0.13408454525E+02 0.11831537920E+02 0.10797468687E+02 0.10174774035E+02
 0.98834999241E+01 0.98831086016E+01 0.10175113688E+02 0.10796919726E+02 0.11832084375E+02
 0.13408000634E+02 0.15705832114E+02 0.18941668353E+02 0.23344921146E+02 0.29179883928E+02
 0.37040161250E+02 0.47453594161E+02 0.60528313201E+02 0.75894338866E+02 0.92719893565E+02
 0.10986720786E+03 0.12609630551E+03 0.14028079663E+03 0.15154403071E+03 0.15930901595E+03
 0.16325700507E+03 0.16325719731E+03 0.15930914084E+03 0.15154453641E+03 0.14028092013E+03
 0.15741302782E+03 0.14026912461E+03 0.12097860910E+03 0.10087253457E+03 0.81410990294E+02
 0.63906263208E+02 0.49276212402E+02 0.37860689661E+02 0.29444592909E+02 0.23344670344E+02
 0.18835741632E+02 0.15589871386E+02 0.13339580745E+02 0.11839841296E+02 0.10899500711E+02
 0.10386074488E+02 0.10222810820E+02 0.10386162412E+02 0.10899364916E+02 0.11840245413E+02
 0.13339084141E+02 0.15590259907E+02 0.18835687981E+02 0.23344774148E+02 0.29444502492E+02
 0.37861008488E+02 0.49275723074E+02 0.63906771673E+02 0.81410898245E+02 0.10087234091E+03
 0.12097925753E+03 0.14026886579E+03 0.15741290726E+03 0.17140552576E+03 0.18163765338E+03
 0.18782781089E+03 0.18989503307E+03 0.18782745088E+03 0.18163703442E+03 0.17140521058E+03
 0.18789837480E+03 0.17141279767E+03 0.15153515203E+03 0.12942678545E+03 0.10665357692E+03
 0.84914347645E+02 0.65677840117E+02 0.49904802587E+02 0.37860689661E+02 0.29180401121E+02
 0.23008653922E+02 0.18526990892E+02 0.15368485887E+02 0.13233604151E+02 0.11857273156E+02
 0.11045395634E+02 0.10669543513E+02 0.10670018176E+02 0.11044857030E+02 0.11857796738E+02
 0.13232713990E+02 0.15369498372E+02 0.18526168076E+02 0.23009100953E+02 0.29180140956E+02
 0.37860930772E+02 0.49904475406E+02 0.65678361300E+02 0.84913533715E+02 0.10665384193E+03
 0.12942690341E+03 0.15153478909E+03 0.17141311613E+03 0.18789866002E+03 0.20034934827E+03
 0.20857195977E+03 0.21263207253E+03 0.21263218716E+03 0.20857247720E+03 0.20034957473E+03
 0.21472025660E+03 0.20037281865E+03 0.18166224497E+03 0.15930847779E+03 0.13469135114E+03
 0.10964799448E+03 0.86114641835E+02 0.65677840117E+02 0.49276212402E+02 0.37039563286E+02
 0.28412481953E+02 0.22363321675E+02 0.18039360841E+02 0.15061593917E+02 0.13100677306E+02
 0.11890367510E+02 0.11236423279E+02 0.11032008364E+02 0.11236341657E+02 0.11890585345E+02
 0.13100390263E+02 0.15062448657E+02 0.18038194267E+02 0.22364399185E+02 0.28411743585E+02
 0.37039990509E+02 0.49275805262E+02 0.65678136007E+02 0.86114398393E+02 0.10964863588E+03
 0.13469110040E+03 0.15930849484E+03 0.18166265929E+03 0.20037271776E+03 0.21472024127E+03
 0.22459908730E+03 0.23029034589E+03 0.23213709632E+03 0.23028991063E+03 0.22459865570E+03
 0.23581797721E+03 0.22463266674E+03 0.20862286263E+03 0.18787005734E+03 0.16326342176E+03
 0.13647765130E+03 0.10964799448E+03 0.84914347645E+02 0.63906263208E+02 0.47454364931E+02
 0.35482113048E+02 0.27212098612E+02 0.21457111092E+02 0.17411580409E+02 0.14692879679E+02
 0.12957009232E+02 0.11944529875E+02 0.11479929225E+02 0.11479979070E+02 0.11944506271E+02
 0.12956965394E+02 0.14692971677E+02 0.17410744045E+02 0.21458490471E+02 0.27210675515E+02
 0.35483313135E+02 0.47453541723E+02 0.63907094897E+02 0.84913472358E+02 0.10964867935E+03
 0.13647687467E+03 0.16326397926E+03 0.18786982583E+03 0.20862280384E+03 0.22463249007E+03
 0.23581822362E+03 0.24267440594E+03 0.24587396193E+03 0.24587406299E+03 0.24267486811E+03
 0.25039794403E+03 0.24270956575E+03 0.23035172705E+03 0.21270020257E+03 0.18994409690E+03
 0.16326342176E+03 0.13469135114E+03 0.10665357692E+03 0.81410990294E+02 0.60527948937E+02
 0.44619092628E+02 0.33343857155E+02 0.25677850607E+02 0.20357264559E+02 0.16688320580E+02
 0.14289903825E+02 0.12815336250E+02 0.12029082110E+02 0.11780850037E+02 0.12028974745E+02
 0.12815599493E+02 0.14289591225E+02 0.16688837960E+02 0.20357615160E+02 0.25676588863E+02
 0.33345230697E+02 0.44617640843E+02 0.60528925087E+02 0.81410267231E+02 0.10665447668E+03
 0.13469058452E+03 0.16326426713E+03 0.18994353528E+03 0.21270043911E+03 0.23035184896E+03
 0.24270962164E+03 0.25039765348E+03 0.25441869814E+03 0.25564532643E+03 0.25441848107E+03
 0.25899080546E+03 0.25444751815E+03 0.24593112435E+03 0.23221024110E+03 0.21270020257E+03
 0.18787005734E+03 0.15930847779E+03 0.12942678545E+03 0.10087253457E+03 0.75894197374E+02
 0.55853861861E+02 0.41043031284E+02 0.30819051459E+02 0.23918694937E+02 0.19138268201E+02
 0.15919990981E+02 0.13878784016E+02 0.12690860148E+02 0.12150661035E+02 0.12149582012E+02
 0.12692033927E+02 0.13877484395E+02 0.15921576063E+02 0.19136062688E+02 0.23920107024E+02
 0.30818946285E+02 0.41042669350E+02 0.55854648203E+02 0.75893398531E+02 0.10087314319E+03
 0.12942622023E+03 0.15930911144E+03 0.18786934059E+03 0.21270066934E+03 0.23220968401E+03
 0.24593094318E+03 0.25444722779E+03 0.25899109707E+03 0.26085712636E+03 0.26085731597E+03
 0.26310819726E+03 0.26087531884E+03 0.25568495837E+03 0.24593112435E+03 0.23035172705E+03
 0.20862286263E+03 0.18166224497E+03 0.15153515203E+03 0.12097860910E+03 0.92720712245E+02
 0.68825075426E+02 0.50304617107E+02 0.37049116972E+02 0.28101926453E+02 0.22039289537E+02
 0.17873478677E+02 0.15150513558E+02 0.13482462903E+02 0.12595813355E+02 0.12316250231E+02
 0.12595925850E+02 0.13482247343E+02 0.15151003554E+02 0.17872550321E+02 0.22041725692E+02
 0.28099315087E+02 0.37050321366E+02 0.50303860119E+02 0.68825467695E+02 0.92720670273E+02
 0.12097858527E+03 0.15153528782E+03 0.18166203455E+03 0.20862305352E+03 0.23035160520E+03
 0.24593111991E+03 0.25568507942E+03 0.26087518160E+03 0.26310771767E+03 0.26368722707E+03
 0.26458858959E+03 0.26369382525E+03 0.26087531884E+03 0.25444751815E+03 0.24270956575E+03
 0.22463266674E+03 0.20037281865E+03 0.17141279767E+03 0.14026912461E+03 0.10986688085E+03
 0.82809820071E+02 0.60793486850E+02 0.44354590364E+02 0.32956939138E+02 0.25350400459E+02
 0.20143849116E+02 0.16635597363E+02 0.14413503490E+02 0.13122294615E+02 0.12536217377E+02
 0.12535240646E+02 0.13123333040E+02 0.14412387941E+02 0.16636874005E+02 0.20142481437E+02
 0.25349921114E+02 0.32958934589E+02 0.44353334561E+02 0.60794144584E+02 0.82809319925E+02
 0.10986731567E+03 0.14026886167E+03 0.17141298649E+03 0.20037280325E+03 0.22463250424E+03
 0.24270937890E+03 0.25444758613E+03 0.26087470316E+03 0.26369431875E+03 0.26458868235E+03
 0.26476286383E+03 0.26438891044E+03 0.26272618743E+03 0.25834281854E+03 0.24944969820E+03
 0.23459411444E+03 0.21329783745E+03 0.18639215589E+03 0.15594911105E+03 0.12478554789E+03
 0.95761540832E+02 0.71079118805E+02 0.51863338561E+02 0.38073012608E+02 0.28766511571E+02
 0.22495291815E+02 0.18192419929E+02 0.15378435729E+02 0.13655539615E+02 0.12740087951E+02
 0.12451559585E+02 0.12740211536E+02 0.13655259081E+02 0.15378990555E+02 0.18191325748E+02
 0.22497950939E+02 0.28764187961E+02 0.38073211767E+02 0.51863639210E+02 0.71078979602E+02