    2    2  100    1
  0.1513039E+02  0.2722037E-09  0.2722037E-09  0.4715866E-09  0.5000000E-15
  1.000000000000000E-004
  CAR 
 Pt-hcc                                  
     32     70     24
 
  0.0000000E+00  0.0000000E+00  0.0000000E+00  0.1250000E-02
      1        -40.831445   1.000000
      2        -40.601870   1.000000
      3        -40.601869   1.000000
      4        -40.555507   1.000000
      5        -40.555506   1.000000
      6        -40.441777   1.000000
      7          1.782071   1.000000
      8          4.473719   1.000000
      9          7.762577   1.000000
     10          8.298303   1.000000
     11          8.298304   1.000000
     12          8.694366   1.000000
     13          8.694367   1.000000
     14         10.030990   1.000000
     15         10.030990   1.000000
     16         11.071967   1.000000
     17         11.738421   1.000000
     18         11.738421   1.000000
     19         16.952209   0.000000
     20         26.976557   0.000000
     21         27.656161   0.000000
     22         29.219410   0.000000
     23         33.450018   0.000000
     24         33.450018   0.000000
 
  0.1000000E+00  0.0000000E+00  0.0000000E+00  0.7500000E-02
      1        -40.817753   1.000000
      2        -40.644972   1.000000
      3        -40.614593   1.000000
      4        -40.598635   1.000000
      5        -40.563929   1.000000
      6        -40.444834   1.000000
      7          2.158456   1.000000
      8          4.816002   1.000000
      9          7.689065   1.000000
     10          8.308452   1.000000
     11          8.533813   1.000000
     12          8.591232   1.000000
     13          8.973838   1.000000
     14          9.388122   1.000000
     15          9.846470   1.000000
     16          9.990239   1.000000
     17         11.807650   0.999994
     18         13.524200   0.000000
     19         16.909272   0.000000
     20         27.487045   0.000000
     21         28.205317   0.000000
     22         29.661974   0.000000
     23         31.715582   0.000000
     24         31.921817   0.000000
 
  0.2000000E+00  0.0000000E+00  0.0000000E+00  0.7500000E-02
      1        -40.778715   1.000000
      2        -40.755475   1.000000
      3        -40.709392   1.000000
      4        -40.646069   1.000000
      5        -40.586476   1.000000
      6        -40.454527   1.000000
      7          3.179849   1.000000
      8          5.562022   1.000000
      9          7.444289   1.000000
     10          7.942355   1.000000
     11          8.008554   1.000000
     12          8.973631   1.000000
     13          9.423856   1.000000
     14          9.439177   1.000000
     15          9.451229   1.000000
     16          9.760200   1.000000
     17         11.918881   0.889580
     18         15.784352   0.000000
     19         16.818869   0.000000
     20         26.322087   0.000000
     21         28.820008   0.000000
     22         29.427253   0.000000
     23         30.130265   0.000000
     24         30.309739   0.000000
 
  0.3000000E+00  0.0000000E+00  0.0000000E+00  0.7500000E-02
      1        -40.891651   1.000000
      2        -40.844743   1.000000
      3        -40.725303   1.000000
      4        -40.684498   1.000000
      5        -40.615502   1.000000
      6        -40.473934   1.000000
      7          4.411898   1.000000
      8          5.671427   1.000000
      9          6.822018   1.000000
     10          7.727616   1.000000
     11          8.113691   1.000000
     12          8.908749   1.000000
     13          9.020131   1.000000
     14         10.199778   1.000000
     15         10.623885   1.000000
     16         10.877868   1.000000
     17         11.979033   0.316660
     18         16.905625   0.000000
     19         18.069905   0.000000
     20         22.594024   0.000000
     21         26.962892   0.000000
     22         27.271757   0.000000
     23         29.371657   0.000000
     24         30.231165   0.000000
 
  0.4000000E+00 -0.2775558E-16  0.0000000E+00  0.7500000E-02
      1        -41.001477   1.000000
      2        -40.951814   1.000000
      3        -40.714836   1.000000
      4        -40.670881   1.000000
      5        -40.639477   1.000000
      6        -40.500266   1.000000
      7          5.058210   1.000000
      8          5.339557   1.000000
      9          6.126615   1.000000
     10          8.281074   1.000000
     11          8.513129   1.000000
     12          8.722963   1.000000
     13          8.962712   1.000000
     14         11.789704   0.999999
     15         11.982939   0.278416
     16         11.993038   0.191277
     17         12.182655   0.000000
     18         17.661418   0.000000
     19         18.907987   0.000000
     20         20.074363   0.000000
     21         24.822624   0.000000
     22         24.964280   0.000000
     23         25.973895   0.000000
     24         28.964109   0.000000
 
  0.5000000E+00  0.0000000E+00  0.0000000E+00  0.3750000E-02
      1        -41.043522   1.000000
      2        -40.991053   1.000000
      3        -40.725766   1.000000
      4        -40.648880   1.000000
      5        -40.642997   1.000000
      6        -40.516574   1.000000
      7          5.114936   1.000000
      8          5.229587   1.000000
      9          5.891172   1.000000
     10          8.370146   1.000000
     11          8.616897   1.000000
     12          8.839546   1.000000
     13          9.163672   1.000000
     14         11.993209   0.189967
     15         12.283395   0.000000
     16         12.503594   0.000000
     17         14.318002   0.000000
     18         15.860159   0.000000
     19         19.456240   0.000000
     20         21.024389   0.000000
     21         21.872867   0.000000
     22         24.138729   0.000000
     23         25.386623   0.000000
     24         28.357335   0.000000
 
  0.1000000E+00  0.1000000E+00  0.0000000E+00  0.7500000E-02
      1        -40.791014   1.000000
      2        -40.713951   1.000000
      3        -40.683959   1.000000
      4        -40.629324   1.000000
      5        -40.585444   1.000000
      6        -40.451089   1.000000
      7          2.866529   1.000000
      8          5.412354   1.000000
      9          7.399574   1.000000
     10          8.218426   1.000000
     11          8.368947   1.000000
     12          8.544090   1.000000
     13          9.212897   1.000000
     14          9.219927   1.000000
     15          9.600029   1.000000
     16          9.909734   1.000000
     17         11.832853   0.999873
     18         15.190721   0.000000
     19         16.844771   0.000000
     20         27.611305   0.000000
     21         28.416832   0.000000
     22         29.139833   0.000000
     23         30.195956   0.000000
     24         31.076783   0.000000
 
  0.2000000E+00  0.1000000E+00  0.0000000E+00  0.1500000E-01
      1        -40.828311   1.000000
      2        -40.798101   1.000000
      3        -40.744776   1.000000
      4        -40.673510   1.000000
      5        -40.619867   1.000000
      6        -40.466237   1.000000
      7          4.073807   1.000000
      8          6.037305   1.000000
      9          7.211859   1.000000
     10          7.257959   1.000000
     11          7.932786   1.000000
     12          8.690558   1.000000
     13          9.196866   1.000000
     14          9.518601   1.000000
     15         10.340181   1.000000
     16         10.777112   1.000000
     17         11.835927   0.999822
     18         16.864532   0.000000
     19         17.355516   0.000000
     20         24.509765   0.000000
     21         26.395270   0.000000
     22         28.294679   0.000000
     23         30.306458   0.000000
     24         31.184219   0.000000
 
  0.3000000E+00  0.1000000E+00  0.0000000E+00  0.1500000E-01
      1        -40.946721   1.000000
      2        -40.905321   1.000000
      3        -40.719455   1.000000
      4        -40.689576   1.000000
      5        -40.652641   1.000000
      6        -40.489987   1.000000
      7          5.142514   1.000000
      8          5.772233   1.000000
      9          6.435551   1.000000
     10          7.744153   1.000000
     11          8.375777   1.000000
     12          8.407351   1.000000
     13          8.996011   1.000000
     14         10.369352   1.000000
     15         11.501471   1.000000
     16         11.823243   0.999957
     17         12.294625   0.000000
     18         17.435989   0.000000
     19         19.548369   0.000000
     20         20.621110   0.000000
     21         24.220133   0.000000
     22         26.862115   0.000000
     23         27.544576   0.000000
     24         29.397391   0.000000
 
  0.4000000E+00  0.1000000E+00  0.0000000E+00  0.1500000E-01
      1        -41.020493   1.000000
      2        -40.970103   1.000000
      3        -40.747334   1.000000
      4        -40.673174   1.000000
      5        -40.643773   1.000000
      6        -40.516334   1.000000
      7          5.416569   1.000000
      8          5.521532   1.000000
      9          6.006625   1.000000
     10          8.318716   1.000000
     11          8.567591   1.000000
     12          8.576555   1.000000
     13          8.930541   1.000000
     14         11.691541   1.000000
     15         11.805459   0.999995
     16         12.101616   0.000040
     17         14.075448   0.000000
     18         17.129810   0.000000
     19         19.132601   0.000000
     20         21.237293   0.000000
     21         22.022366   0.000000
     22         24.416462   0.000000
     23         25.884996   0.000000
     24         28.282739   0.000000
 
  0.2000000E+00  0.2000000E+00  0.0000000E+00  0.7500000E-02
      1        -40.896101   1.000000
      2        -40.894014   1.000000
      3        -40.725397   1.000000
      4        -40.696119   1.000000
      5        -40.678702   1.000000
      6        -40.487008   1.000000
      7          5.318554   1.000000
      8          6.650595   1.000000
      9          6.667756   1.000000
     10          6.732659   1.000000
     11          8.164587   1.000000
     12          8.170670   1.000000
     13          9.200822   1.000000
     14          9.580812   1.000000
     15         11.483308   1.000000
     16         11.642203   1.000000
     17         12.379895   0.000000
     18         17.425793   0.000000
     19         19.435368   0.000000
     20         22.071782   0.000000
     21         22.971540   0.000000
     22         27.634622   0.000000
     23         29.164869   0.000000
     24         29.549299   0.000000
 
  0.3000000E+00  0.2000000E+00  0.0000000E+00  0.1500000E-01
      1        -40.967331   1.000000
      2        -40.932984   1.000000
      3        -40.784936   1.000000
      4        -40.728439   1.000000
      5        -40.644267   1.000000
      6        -40.515770   1.000000
      7          6.103324   1.000000
      8          6.238198   1.000000
      9          6.300394   1.000000
     10          7.520551   1.000000
     11          8.017432   1.000000
     12          8.681760   1.000000
     13          8.744239   1.000000
     14         10.427481   1.000000
     15         11.494480   1.000000
     16         11.957767   0.549509
     17         14.144251   0.000000
     18         18.431490   0.000000
     19         19.351652   0.000000
     20         20.942257   0.000000
     21         21.575909   0.000000
     22         26.106331   0.000000
     23         26.939214   0.000000
     24         28.064775   0.000000
 
  0.4000000E+00  0.2000000E+00  0.0000000E+00  0.7500000E-02
      1        -40.993103   1.000000
      2        -40.942316   1.000000
      3        -40.814104   1.000000
      4        -40.747043   1.000000
      5        -40.614929   1.000000
      6        -40.536403   1.000000
      7          6.092359   1.000000
      8          6.137876   1.000000
      9          6.218502   1.000000
     10          8.123327   1.000000
     11          8.164584   1.000000
     12          8.281090   1.000000
     13          9.027221   1.000000
     14         11.243046   1.000000
     15         11.440365   1.000000
     16         11.753322   1.000000
     17         15.755111   0.000000
     18         16.331840   0.000000
     19         19.623412   0.000000
     20         21.305666   0.000000
     21         22.798345   0.000000
     22         23.922691   0.000000
     23         26.289285   0.000000
     24         27.442027   0.000000
 
  0.3000000E+00  0.3000000E+00  0.0000000E+00  0.7500000E-02
      1        -40.950712   1.000000
      2        -40.912227   1.000000
      3        -40.857971   1.000000
      4        -40.809228   1.000000
      5        -40.598564   1.000000
      6        -40.549619   1.000000
      7          6.188327   1.000000
      8          6.668215   1.000000
      9          6.932328   1.000000
     10          7.396774   1.000000
     11          7.967840   1.000000
     12          8.254797   1.000000
     13          9.124897   1.000000
     14         10.813775   1.000000
     15         11.261468   1.000000
     16         11.580351   1.000000
     17         15.792353   0.000000
     18         17.053233   0.000000
     19         18.473610   0.000000
     20         22.204352   0.000000
     21         23.770258   0.000000
     22         25.051967   0.000000
     23         25.922261   0.000000
     24         26.242386   0.000000
 
  0.0000000E+00  0.0000000E+00  0.1250000E+00  0.2500000E-02
      1        -40.817369   1.000000
      2        -40.600066   1.000000
      3        -40.600065   1.000000
      4        -40.557229   1.000000
      5        -40.557228   1.000000
      6        -40.456635   1.000000
      7          1.922022   1.000000
      8          4.457080   1.000000
      9          7.726238   1.000000
     10          8.277271   1.000000
     11          8.277271   1.000000
     12          8.652388   1.000000
     13          8.652388   1.000000
     14         10.137245   1.000000
     15         10.137245   1.000000
     16         10.454888   1.000000
     17         11.710029   1.000000
     18         11.710029   1.000000
     19         17.818645   0.000000
     20         26.524321   0.000000
     21         28.201120   0.000000
     22         28.920031   0.000000
     23         32.754468   0.000000
     24         32.754468   0.000000
 
  0.1000000E+00  0.0000000E+00  0.1250000E+00  0.1500000E-01
      1        -40.804982   1.000000
      2        -40.642102   1.000000
      3        -40.612594   1.000000
      4        -40.601206   1.000000
      5        -40.565895   1.000000
      6        -40.458263   1.000000
      7          2.295509   1.000000
      8          4.806015   1.000000
      9          7.692082   1.000000
     10          8.214331   1.000000
     11          8.420387   1.000000
     12          8.560588   1.000000
     13          8.927097   1.000000
     14          9.333275   1.000000
     15          9.972099   1.000000
     16         10.001786   1.000000
     17         11.767137   1.000000
     18         12.997870   0.000000
     19         17.895064   0.000000
     20         27.080872   0.000000
     21         28.673246   0.000000
     22         29.384033   0.000000
     23         31.033601   0.000000
     24         31.790786   0.000000
 
  0.2000000E+00  0.0000000E+00  0.1250000E+00  0.1500000E-01
      1        -40.783591   1.000000
      2        -40.738101   1.000000
      3        -40.712852   1.000000
      4        -40.643955   1.000000
      5        -40.588979   1.000000
      6        -40.465417   1.000000
      7          3.299909   1.000000
      8          5.575656   1.000000
      9          7.477417   1.000000
     10          7.679668   1.000000
     11          8.007288   1.000000
     12          8.846848   1.000000
     13          9.246676   1.000000
     14          9.619864   1.000000
     15          9.683708   1.000000
     16          9.808487   1.000000
     17         11.854085   0.998882
     18         14.610177   0.000000
     19         18.269822   0.000000
     20         26.413044   0.000000
     21         28.630357   0.000000
     22         29.583957   0.000000
     23         29.613347   0.000000
     24         30.776231   0.000000
 
  0.3000000E+00  0.0000000E+00  0.1250000E+00  0.1500000E-01
      1        -40.894569   1.000000
      2        -40.849352   1.000000
      3        -40.710230   1.000000
      4        -40.681730   1.000000
      5        -40.617915   1.000000
      6        -40.480972   1.000000
      7          4.463125   1.000000
      8          5.703469   1.000000
      9          6.806776   1.000000
     10          7.547979   1.000000
     11          8.140493   1.000000
     12          9.027045   1.000000
     13          9.086492   1.000000
     14         10.256740   1.000000
     15         10.647018   1.000000
     16         10.825202   1.000000
     17         11.903497   0.951483
     18         15.761254   0.000000
     19         19.226516   0.000000
     20         22.880019   0.000000
     21         27.133333   0.000000
     22         27.215229   0.000000
     23         28.877083   0.000000
     24         30.738892   0.000000
 
  0.4000000E+00 -0.2775558E-16  0.1250000E+00  0.1500000E-01
      1        -41.002901   1.000000
      2        -40.956667   1.000000
      3        -40.711943   1.000000
      4        -40.660474   1.000000
      5        -40.642443   1.000000
      6        -40.503710   1.000000
      7          4.985311   1.000000
      8          5.344051   1.000000
      9          6.300030   1.000000
     10          7.600209   1.000000
     11          8.755087   1.000000
     12          8.813622   1.000000
     13          9.538731   1.000000
     14         11.706661   1.000000
     15         11.806155   0.999995
     16         12.089860   0.000152
     17         12.094399   0.000092
     18         16.772109   0.000000
     19         18.949450   0.000000
     20         20.916975   0.000000
     21         24.530036   0.000000
     22         25.258108   0.000000
     23         26.323906   0.000000
     24         29.176802   0.000000
 
  0.5000000E+00  0.0000000E+00  0.1250000E+00  0.7500000E-02
      1        -41.044831   1.000000
      2        -40.995979   1.000000
      3        -40.722915   1.000000
      4        -40.651588   1.000000
      5        -40.635364   1.000000
      6        -40.518419   1.000000
      7          5.053190   1.000000
      8          5.147357   1.000000
      9          6.138476   1.000000
     10          7.664688   1.000000
     11          8.713009   1.000000
     12          8.915043   1.000000
     13         10.008457   1.000000
     14         11.798767   0.999998
     15         12.305520   0.000000
     16         12.496601   0.000000
     17         14.057299   0.000000
     18         15.734979   0.000000
     19         19.330898   0.000000
     20         20.129424   0.000000
     21         23.024662   0.000000
     22         24.448014   0.000000
     23         25.523374   0.000000
     24         28.637648   0.000000
 
  0.1000000E+00  0.1000000E+00  0.1250000E+00  0.1500000E-01
      1        -40.784480   1.000000
      2        -40.706983   1.000000
      3        -40.685717   1.000000
      4        -40.629071   1.000000
      5        -40.587687   1.000000
      6        -40.462588   1.000000
      7          2.994624   1.000000
      8          5.418131   1.000000
      9          7.433061   1.000000
     10          7.909584   1.000000
     11          8.299375   1.000000
     12          8.535166   1.000000
     13          9.138567   1.000000
     14          9.372779   1.000000
     15          9.689451   1.000000
     16          9.989214   1.000000
     17         11.778145   1.000000
     18         14.236319   0.000000
     19         18.127377   0.000000
     20         27.532222   0.000000
     21         28.472090   0.000000
     22         29.110840   0.000000
     23         29.744154   0.000000
     24         31.333523   0.000000
 
  0.2000000E+00  0.1000000E+00  0.1250000E+00  0.3000000E-01
      1        -40.834066   1.000000
      2        -40.801842   1.000000
      3        -40.726554   1.000000
      4        -40.672305   1.000000
      5        -40.622331   1.000000
      6        -40.474270   1.000000
      7          4.166293   1.000000
      8          6.075911   1.000000
      9          7.073307   1.000000
     10          7.282734   1.000000
     11          7.895233   1.000000
     12          8.590434   1.000000
     13          9.349305   1.000000
     14          9.508395   1.000000
     15         10.458834   1.000000
     16         10.720342   1.000000
     17         11.780898   1.000000
     18         15.481853   0.000000
     19         18.894341   0.000000
     20         24.695902   0.000000
     21         26.528266   0.000000
     22         28.265569   0.000000
     23         29.776005   0.000000
     24         31.729352   0.000000
 
  0.3000000E+00  0.1000000E+00  0.1250000E+00  0.3000000E-01
      1        -40.949093   1.000000
      2        -40.909834   1.000000
      3        -40.718451   1.000000
      4        -40.677388   1.000000
      5        -40.655092   1.000000
      6        -40.494600   1.000000
      7          5.117147   1.000000
      8          5.809870   1.000000
      9          6.512030   1.000000
     10          7.443714   1.000000
     11          8.357856   1.000000
     12          8.757303   1.000000
     13          9.012109   1.000000
     14         10.386150   1.000000
     15         11.551952   1.000000
     16         11.615735   1.000000
     17         12.361852   0.000000
     18         16.599368   0.000000
     19         19.817129   0.000000
     20         21.401287   0.000000
     21         24.355830   0.000000
     22         26.545437   0.000000
     23         27.665831   0.000000
     24         29.630410   0.000000
 
  0.4000000E+00  0.1000000E+00  0.1250000E+00  0.3000000E-01
      1        -41.021587   1.000000
      2        -40.974827   1.000000
      3        -40.745507   1.000000
      4        -40.676663   1.000000
      5        -40.634677   1.000000
      6        -40.517570   1.000000
      7          5.293520   1.000000
      8          5.487700   1.000000
      9          6.291889   1.000000
     10          7.603483   1.000000
     11          8.436142   1.000000
     12          9.046129   1.000000
     13          9.460956   1.000000
     14         11.574276   1.000000
     15         11.697487   1.000000
     16         12.148113   0.000000
     17         14.022277   0.000000
     18         16.905694   0.000000
     19         18.806141   0.000000
     20         21.157311   0.000000
     21         22.504543   0.000000
     22         24.685751   0.000000
     23         26.095425   0.000000
     24         28.398284   0.000000
 
  0.2000000E+00  0.2000000E+00  0.1250000E+00  0.1500000E-01
      1        -40.898439   1.000000
      2        -40.897366   1.000000
      3        -40.725334   1.000000
      4        -40.690825   1.000000
      5        -40.673178   1.000000
      6        -40.491286   1.000000
      7          5.349503   1.000000
      8          6.482394   1.000000
      9          6.751735   1.000000
     10          6.843542   1.000000
     11          8.157529   1.000000
     12          8.173553   1.000000
     13          9.074477   1.000000
     14          9.740948   1.000000
     15         11.409303   1.000000
     16         11.603593   1.000000
     17         12.459721   0.000000
     18         16.612003   0.000000
     19         20.054614   0.000000
     20         22.545630   0.000000
     21         23.145069   0.000000
     22         27.526355   0.000000
     23         28.314349   0.000000
     24         30.229760   0.000000
 
  0.3000000E+00  0.2000000E+00  0.1250000E+00  0.3000000E-01
      1        -40.968198   1.000000
      2        -40.937170   1.000000
      3        -40.785392   1.000000
      4        -40.732359   1.000000
      5        -40.633852   1.000000
      6        -40.516454   1.000000
      7          5.914512   1.000000
      8          6.311667   1.000000
      9          6.493265   1.000000
     10          7.299467   1.000000
     11          8.172685   1.000000
     12          8.574379   1.000000
     13          8.888832   1.000000
     14         10.492359   1.000000
     15         11.274075   1.000000
     16         12.070137   0.001129
     17         14.190520   0.000000
     18         18.471926   0.000000
     19         18.650843   0.000000
     20         21.035280   0.000000
     21         22.404511   0.000000
     22         25.601858   0.000000
     23         26.952597   0.000000
     24         28.209904   0.000000
 
  0.4000000E+00  0.2000000E+00  0.1250000E+00  0.1500000E-01
      1        -40.993426   1.000000
      2        -40.947038   1.000000
      3        -40.814084   1.000000
      4        -40.750969   1.000000
      5        -40.607169   1.000000
      6        -40.535045   1.000000
      7          5.842282   1.000000
      8          6.187013   1.000000
      9          6.590384   1.000000
     10          7.531975   1.000000
     11          8.019470   1.000000
     12          8.776468   1.000000
     13          9.202256   1.000000
     14         11.211459   1.000000
     15         11.270527   1.000000
     16         11.835588   0.999828
     17         15.833522   0.000000
     18         16.364391   0.000000
     19         19.740514   0.000000
     20         20.990653   0.000000
     21         21.964530   0.000000
     22         25.013820   0.000000
     23         26.549791   0.000000
     24         26.770172   0.000000
 
  0.3000000E+00  0.3000000E+00  0.1250000E+00  0.1500000E-01
      1        -40.949634   1.000000
      2        -40.916774   1.000000
      3        -40.860555   1.000000
      4        -40.813165   1.000000
      5        -40.591439   1.000000
      6        -40.546790   1.000000
      7          6.227855   1.000000
      8          6.644230   1.000000
      9          6.963956   1.000000
     10          7.269755   1.000000
     11          8.107852   1.000000
     12          8.150732   1.000000
     13          9.133915   1.000000
     14         10.912521   1.000000
     15         11.030773   1.000000
     16         11.682973   1.000000
     17         15.892548   0.000000
     18         17.200986   0.000000
     19         18.744669   0.000000
     20         21.314336   0.000000
     21         24.006712   0.000000
     22         24.067377   0.000000
     23         25.989906   0.000000
     24         27.275032   0.000000
 
  0.0000000E+00  0.0000000E+00  0.2500000E+00  0.2500000E-02
      1        -40.775535   1.000000
      2        -40.595257   1.000000
      3        -40.595256   1.000000
      4        -40.562391   1.000000
      5        -40.562390   1.000000
      6        -40.499448   1.000000
      7          2.323641   1.000000
      8          4.369811   1.000000
      9          7.643464   1.000000
     10          8.243705   1.000000
     11          8.243705   1.000000
     12          8.544726   1.000000
     13          8.544726   1.000000
     14          9.281586   1.000000
     15         10.412064   1.000000
     16         10.412064   1.000000
     17         11.610806   1.000000
     18         11.610806   1.000000
     19         19.756585   0.000000
     20         26.033672   0.000000
     21         28.278605   0.000000
     22         28.606758   0.000000
     23         32.173987   0.000000
     24         32.173988   0.000000
 
  0.1000000E+00  0.0000000E+00  0.2500000E+00  0.1500000E-01
      1        -40.767929   1.000000
      2        -40.634217   1.000000
      3        -40.609520   1.000000
      4        -40.606916   1.000000
      5        -40.571331   1.000000
      6        -40.495437   1.000000
      7          2.689943   1.000000
      8          4.733853   1.000000
      9          7.674741   1.000000
     10          8.050403   1.000000
     11          8.129097   1.000000
     12          8.512472   1.000000
     13          8.812990   1.000000
     14          8.921566   1.000000
     15         10.282656   1.000000
     16         10.284569   1.000000
     17         11.636248   1.000000
     18         12.269661   0.000000
     19         19.901419   0.000000
     20         26.585883   0.000000
     21         28.745583   0.000000
     22         29.024683   0.000000
     23         30.751385   0.000000
     24         31.678605   0.000000
 
  0.2000000E+00  0.0000000E+00  0.2500000E+00  0.1500000E-01
      1        -40.782844   1.000000
      2        -40.726277   1.000000
      3        -40.696853   1.000000
      4        -40.637496   1.000000
      5        -40.595234   1.000000
      6        -40.495054   1.000000
      7          3.647245   1.000000
      8          5.561059   1.000000
      9          7.278686   1.000000
     10          7.594962   1.000000
     11          7.763893   1.000000
     12          8.637010   1.000000
     13          9.158943   1.000000
     14          9.544757   1.000000
     15         10.132770   1.000000
     16         10.156401   1.000000
     17         11.662925   1.000000
     18         13.341019   0.000000
     19         20.328192   0.000000
     20         26.675463   0.000000
     21         28.165171   0.000000
     22         28.973216   0.000000
     23         30.059918   0.000000
     24         30.990083   0.000000
 
  0.3000000E+00  0.0000000E+00  0.2500000E+00  0.1500000E-01
      1        -40.899339   1.000000
      2        -40.861322   1.000000
      3        -40.674265   1.000000
      4        -40.673442   1.000000
      5        -40.625650   1.000000
      6        -40.501883   1.000000
      7          4.620912   1.000000