PROCAR lm decomposed
# of k-points:   70         # of bands:   24         # of ions:    2

 k-point     1 :    0.00000000 0.00000000 0.00000000     weight = 0.00125000

band     1 # energy  -40.83144518 # occ.  2.00000000
 
ion      s     py     pz     px    dxy    dyz    dz2    dxz  x2-y2    tot
    1  0.000  0.000  0.491  0.000  0.000  0.000  0.000  0.000  0.000  0.491
    2  0.000  0.000  0.491  0.000  0.000  0.000  0.000  0.000  0.000  0.491
tot    0.000  0.000  0.982  0.000  0.000  0.000  0.000  0.000  0.000  0.982
 
band     2 # energy  -40.60186988 # occ.  2.00000000
 
ion      s     py     pz     px    dxy    dyz    dz2    dxz  x2-y2    tot
    1  0.000  0.124  0.000  0.373  0.000  0.000  0.000  0.000  0.000  0.498
    2  0.000  0.124  0.000  0.373  0.000  0.000  0.000  0.000  0.000  0.498
tot    0.000  0.249  0.000  0.747  0.000  0.000  0.000  0.000  0.000  0.996
 
band     3 # energy  -40.60186894 # occ.  2.00000000
 
ion      s     py     pz     px    dxy    dyz    dz2    dxz  x2-y2    tot
    1  0.000  0.373  0.000  0.124  0.000  0.000  0.000  0.000  0.000  0.498
    2  0.000  0.373  0.000  0.124  0.000  0.000  0.000  0.000  0.000  0.498
tot    0.000  0.747  0.000  0.249  0.000  0.000  0.000  0.000  0.000  0.996
 
band     4 # energy  -40.55550673 # occ.  2.00000000
 
ion      s     py     pz     px    dxy    dyz    dz2    dxz  x2-y2    tot
    1  0.000  0.125  0.000  0.374  0.000  0.000  0.000  0.000  0.000  0.499
    2  0.000  0.125  0.000  0.374  0.000  0.000  0.000  0.000  0.000  0.499
tot    0.000  0.249  0.000  0.748  0.000  0.000  0.000  0.000  0.000  0.997
 
band     5 # energy  -40.55550578 # occ.  2.00000000
 
ion      s     py     pz     px    dxy    dyz    dz2    dxz  x2-y2    tot
    1  0.000  0.374  0.000  0.125  0.000  0.000  0.000  0.000  0.000  0.499
    2  0.000  0.374  0.000  0.125  0.000  0.000  0.000  0.000  0.000  0.499
tot    0.000  0.748  0.000  0.249  0.000  0.000  0.000  0.000  0.000  0.997
 
band     6 # energy  -40.44177705 # occ.  2.00000000
 
ion      s     py     pz     px    dxy    dyz    dz2    dxz  x2-y2    tot
    1  0.000  0.000  0.498  0.000  0.000  0.000  0.000  0.000  0.000  0.498
    2  0.000  0.000  0.498  0.000  0.000  0.000  0.000  0.000  0.000  0.498
tot    0.000  0.000  0.996  0.000  0.000  0.000  0.000  0.000  0.000  0.996
 
band     7 # energy    1.78207062 # occ.  2.00000000
 
ion      s     py     pz     px    dxy    dyz    dz2    dxz  x2-y2    tot
    1  0.201  0.000  0.000  0.000  0.000  0.000  0.000  0.000  0.000  0.201
    2  0.201  0.000  0.000  0.000  0.000  0.000  0.000  0.000  0.000  0.201
tot    0.401  0.000  0.000  0.000  0.000  0.000  0.001  0.000  0.000  0.402
 
band     8 # energy    4.47371871 # occ.  2.00000000
 
ion      s     py     pz     px    dxy    dyz    dz2    dxz  x2-y2    tot
    1  0.084  0.000  0.000  0.000  0.000  0.000  0.235  0.000  0.000  0.318
    2  0.084  0.000  0.000  0.000  0.000  0.000  0.235  0.000  0.000  0.318
tot    0.167  0.000  0.000  0.000  0.000  0.000  0.470  0.000  0.000  0.637
 
band     9 # energy    7.76257669 # occ.  2.00000000
 
ion      s     py     pz     px    dxy    dyz    dz2    dxz  x2-y2    tot
    1  0.000  0.000  0.000  0.000  0.000  0.000  0.415  0.000  0.000  0.415
    2  0.000  0.000  0.000  0.000  0.000  0.000  0.415  0.000  0.000  0.415
tot    0.000  0.000  0.000  0.000  0.000  0.000  0.830  0.000  0.000  0.830
 
band    10 # energy    8.29830328 # occ.  2.00000000
 
ion      s     py     pz     px    dxy    dyz    dz2    dxz  x2-y2    tot
    1  0.000  0.000  0.000  0.000  0.106  0.000  0.000  0.000  0.318  0.424
    2  0.000  0.000  0.000  0.000  0.106  0.000  0.000  0.000  0.318  0.424
tot    0.000  0.000  0.000  0.000  0.212  0.000  0.000  0.000  0.636  0.848
 
band    11 # energy    8.29830397 # occ.  2.00000000
 
ion      s     py     pz     px    dxy    dyz    dz2    dxz  x2-y2    tot
    1  0.000  0.000  0.000  0.000  0.318  0.000  0.000  0.000  0.106  0.424
    2  0.000  0.000  0.000  0.000  0.318  0.000  0.000  0.000  0.106  0.424
tot    0.000  0.000  0.000  0.000  0.636  0.000  0.000  0.000  0.212  0.848
 
band    12 # energy    8.69436648 # occ.  2.00000000
 
ion      s     py     pz     px    dxy    dyz    dz2    dxz  x2-y2    tot
    1  0.000  0.000  0.000  0.000  0.108  0.000  0.000  0.000  0.325  0.434
    2  0.000  0.000  0.000  0.000  0.108  0.000  0.000  0.000  0.325  0.434
tot    0.000  0.000  0.000  0.000  0.217  0.000  0.000  0.000  0.650  0.868
 
band    13 # energy    8.69436718 # occ.  2.00000000
 
ion      s     py     pz     px    dxy    dyz    dz2    dxz  x2-y2    tot
    1  0.000  0.000  0.000  0.000  0.325  0.000  0.000  0.000  0.108  0.434
    2  0.000  0.000  0.000  0.000  0.325  0.000  0.000  0.000  0.108  0.434
tot    0.000  0.000  0.000  0.000  0.650  0.000  0.000  0.000  0.217  0.868
 
band    14 # energy   10.03098994 # occ.  2.00000000
 
ion      s     py     pz     px    dxy    dyz    dz2    dxz  x2-y2    tot
    1  0.000  0.000  0.000  0.000  0.000  0.111  0.000  0.334  0.000  0.446
    2  0.000  0.000  0.000  0.000  0.000  0.111  0.000  0.334  0.000  0.446
tot    0.000  0.000  0.000  0.000  0.000  0.223  0.000  0.668  0.000  0.891
 
band    15 # energy   10.03099012 # occ.  2.00000000
 
ion      s     py     pz     px    dxy    dyz    dz2    dxz  x2-y2    tot
    1  0.000  0.000  0.000  0.000  0.000  0.334  0.000  0.111  0.000  0.446
    2  0.000  0.000  0.000  0.000  0.000  0.334  0.000  0.111  0.000  0.446
tot    0.000  0.000  0.000  0.000  0.000  0.668  0.000  0.223  0.000  0.891
 
band    16 # energy   11.07196684 # occ.  2.00000000
 
ion      s     py     pz     px    dxy    dyz    dz2    dxz  x2-y2    tot
    1  0.000  0.000  0.090  0.000  0.000  0.000  0.000  0.000  0.000  0.090
    2  0.000  0.000  0.090  0.000  0.000  0.000  0.000  0.000  0.000  0.090
tot    0.000  0.000  0.180  0.000  0.000  0.000  0.000  0.000  0.000  0.180
 
band    17 # energy   11.73842121 # occ.  2.00000000
 
ion      s     py     pz     px    dxy    dyz    dz2    dxz  x2-y2    tot
    1  0.000  0.000  0.000  0.000  0.000  0.117  0.000  0.350  0.000  0.466
    2  0.000  0.000  0.000  0.000  0.000  0.117  0.000  0.350  0.000  0.466
tot    0.000  0.000  0.000  0.000  0.000  0.233  0.000  0.699  0.000  0.932
 
band    18 # energy   11.73842142 # occ.  2.00000000
 
ion      s     py     pz     px    dxy    dyz    dz2    dxz  x2-y2    tot
    1  0.000  0.000  0.000  0.000  0.000  0.350  0.000  0.117  0.000  0.466
    2  0.000  0.000  0.000  0.000  0.000  0.350  0.000  0.117  0.000  0.466
tot    0.000  0.000  0.000  0.000  0.000  0.699  0.000  0.233  0.000  0.932
 
band    19 # energy   16.95220937 # occ.  0.00000000
 
ion      s     py     pz     px    dxy    dyz    dz2    dxz  x2-y2    tot
    1  0.182  0.000  0.000  0.000  0.000  0.000  0.226  0.000  0.000  0.408
    2  0.182  0.000  0.000  0.000  0.000  0.000  0.226  0.000  0.000  0.408
tot    0.364  0.000  0.000  0.000  0.000  0.000  0.452  0.000  0.000  0.815
 
band    20 # energy   26.97655717 # occ.  0.00000000
 
ion      s     py     pz     px    dxy    dyz    dz2    dxz  x2-y2    tot
    1  0.003  0.000  0.000  0.000  0.000  0.000  0.002  0.000  0.000  0.005
    2  0.003  0.000  0.000  0.000  0.000  0.000  0.002  0.000  0.000  0.005
tot    0.006  0.000  0.000  0.000  0.000  0.000  0.004  0.000  0.000  0.011
 
band    21 # energy   27.65616075 # occ.  0.00000000
 
ion      s     py     pz     px    dxy    dyz    dz2    dxz  x2-y2    tot
    1  0.000  0.000  0.019  0.000  0.000  0.000  0.000  0.000  0.000  0.019
    2  0.000  0.000  0.019  0.000  0.000  0.000  0.000  0.000  0.000  0.019
tot    0.000  0.000  0.039  0.000  0.000  0.000  0.000  0.000  0.000  0.039
 
band    22 # energy   29.21940984 # occ.  0.00000000
 
ion      s     py     pz     px    dxy    dyz    dz2    dxz  x2-y2    tot
    1  0.000  0.000  0.000  0.000  0.000  0.000  0.018  0.000  0.000  0.018
    2  0.000  0.000  0.000  0.000  0.000  0.000  0.018  0.000  0.000  0.018
tot    0.000  0.000  0.000  0.000  0.000  0.000  0.035  0.000  0.000  0.035
 
band    23 # energy   33.45001787 # occ.  0.00000000
 
ion      s     py     pz     px    dxy    dyz    dz2    dxz  x2-y2    tot
    1  0.000  0.033  0.000  0.095  0.016  0.000  0.000  0.000  0.006  0.149
    2  0.000  0.033  0.000  0.095  0.016  0.000  0.000  0.000  0.006  0.149
tot    0.000  0.066  0.000  0.189  0.032  0.000  0.000  0.000  0.011  0.298
 
band    24 # energy   33.45001814 # occ.  0.00000000
 
ion      s     py     pz     px    dxy    dyz    dz2    dxz  x2-y2    tot
    1  0.000  0.095  0.000  0.033  0.006  0.000  0.000  0.000  0.016  0.149
    2  0.000  0.095  0.000  0.033  0.006  0.000  0.000  0.000  0.016  0.149
tot    0.000  0.189  0.000  0.066  0.011  0.000  0.000  0.000  0.032  0.298
 

 k-point     2 :    0.10000000 0.00000000 0.00000000     weight = 0.00750000

band     1 # energy  -40.81775332 # occ.  2.00000000
 
ion      s     py     pz     px    dxy    dyz    dz2    dxz  x2-y2    tot
    1  0.000  0.000  0.491  0.000  0.000  0.000  0.000  0.000  0.000  0.491
    2  0.000  0.000  0.491  0.000  0.000  0.000  0.000  0.000  0.000  0.491
tot    0.000  0.000  0.983  0.000  0.000  0.000  0.000  0.000  0.000  0.983
 
band     2 # energy  -40.64497216 # occ.  2.00000000
 
ion      s     py     pz     px    dxy    dyz    dz2    dxz  x2-y2    tot
    1  0.000  0.124  0.000  0.373  0.000  0.000  0.000  0.000  0.000  0.497
    2  0.000  0.124  0.000  0.373  0.000  0.000  0.000  0.000  0.000  0.497
tot    0.000  0.249  0.000  0.746  0.000  0.000  0.000  0.000  0.000  0.995
 
band     3 # energy  -40.61459253 # occ.  2.00000000
 
ion      s     py     pz     px    dxy    dyz    dz2    dxz  x2-y2    tot
    1  0.000  0.373  0.000  0.124  0.000  0.000  0.000  0.000  0.000  0.498
    2  0.000  0.373  0.000  0.124  0.000  0.000  0.000  0.000  0.000  0.498
tot    0.000  0.747  0.000  0.249  0.000  0.000  0.000  0.000  0.000  0.996
 
band     4 # energy  -40.59863459 # occ.  2.00000000
 
ion      s     py     pz     px    dxy    dyz    dz2    dxz  x2-y2    tot
    1  0.000  0.124  0.000  0.373  0.000  0.000  0.000  0.000  0.000  0.498
    2  0.000  0.124  0.000  0.373  0.000  0.000  0.000  0.000  0.000  0.498
tot    0.000  0.249  0.000  0.747  0.000  0.000  0.000  0.000  0.000  0.996
 
band     5 # energy  -40.56392914 # occ.  2.00000000
 
ion      s     py     pz     px    dxy    dyz    dz2    dxz  x2-y2    tot
    1  0.000  0.374  0.000  0.125  0.000  0.000  0.000  0.000  0.000  0.499
    2  0.000  0.374  0.000  0.125  0.000  0.000  0.000  0.000  0.000  0.498
tot    0.000  0.748  0.000  0.249  0.000  0.000  0.000  0.000  0.000  0.997
 
band     6 # energy  -40.44483445 # occ.  2.00000000
 
ion      s     py     pz     px    dxy    dyz    dz2    dxz  x2-y2    tot
    1  0.000  0.000  0.498  0.000  0.000  0.000  0.000  0.000  0.000  0.498
    2  0.000  0.000  0.498  0.000  0.000  0.000  0.000  0.000  0.000  0.498
tot    0.000  0.000  0.996  0.000  0.000  0.000  0.000  0.000  0.000  0.996
 
band     7 # energy    2.15845573 # occ.  2.00000000
 
ion      s     py     pz     px    dxy    dyz    dz2    dxz  x2-y2    tot
    1  0.196  0.001  0.000  0.002  0.000  0.000  0.000  0.000  0.000  0.199
    2  0.196  0.001  0.000  0.002  0.000  0.000  0.000  0.000  0.000  0.199
tot    0.393  0.001  0.000  0.004  0.001  0.000  0.000  0.000  0.000  0.399
 
band     8 # energy    4.81600213 # occ.  2.00000000
 
ion      s     py     pz     px    dxy    dyz    dz2    dxz  x2-y2    tot
    1  0.077  0.001  0.000  0.002  0.002  0.000  0.239  0.000  0.001  0.320
    2  0.077  0.001  0.000  0.002  0.002  0.000  0.239  0.000  0.001  0.320
tot    0.153  0.001  0.000  0.003  0.004  0.000  0.477  0.000  0.001  0.640
 
band     9 # energy    7.68906490 # occ.  2.00000000
 
ion      s     py     pz     px    dxy    dyz    dz2    dxz  x2-y2    tot
    1  0.000  0.000  0.000  0.000  0.117  0.000  0.254  0.000  0.039  0.411
    2  0.000  0.000  0.000  0.000  0.117  0.000  0.254  0.000  0.039  0.411
tot    0.000  0.000  0.000  0.001  0.233  0.000  0.509  0.000  0.078  0.821
 
band    10 # energy    8.30845175 # occ.  2.00000000
 
ion      s     py     pz     px    dxy    dyz    dz2    dxz  x2-y2    tot
    1  0.000  0.000  0.000  0.000  0.211  0.000  0.139  0.000  0.070  0.421
    2  0.000  0.000  0.000  0.000  0.211  0.000  0.139  0.000  0.070  0.421
tot    0.000  0.000  0.000  0.001  0.423  0.000  0.278  0.000  0.141  0.843
 
band    11 # energy    8.53381269 # occ.  2.00000000
 
ion      s     py     pz     px    dxy    dyz    dz2    dxz  x2-y2    tot
    1  0.002  0.000  0.000  0.000  0.300  0.000  0.024  0.000  0.100  0.426
    2  0.002  0.000  0.000  0.000  0.300  0.000  0.024  0.000  0.100  0.426
tot    0.003  0.000  0.000  0.001  0.600  0.000  0.049  0.000  0.200  0.853
 
band    12 # energy    8.59123165 # occ.  2.00000000
 
ion      s     py     pz     px    dxy    dyz    dz2    dxz  x2-y2    tot
    1  0.000  0.000  0.000  0.000  0.106  0.000  0.000  0.000  0.319  0.425
    2  0.000  0.000  0.000  0.000  0.106  0.000  0.000  0.000  0.319  0.425
tot    0.000  0.001  0.000  0.000  0.212  0.000  0.000  0.000  0.637  0.851
 
band    13 # energy    8.97383785 # occ.  2.00000000
 
ion      s     py     pz     px    dxy    dyz    dz2    dxz  x2-y2    tot
    1  0.000  0.000  0.000  0.000  0.109  0.000  0.000  0.000  0.326  0.435
    2  0.000  0.000  0.000  0.000  0.109  0.000  0.000  0.000  0.326  0.435
tot    0.000  0.001  0.000  0.000  0.217  0.000  0.000  0.000  0.652  0.871
 
band    14 # energy    9.38812237 # occ.  2.00000000
 
ion      s     py     pz     px    dxy    dyz    dz2    dxz  x2-y2    tot
    1  0.000  0.000  0.023  0.000  0.000  0.078  0.000  0.234  0.000  0.335
    2  0.000  0.000  0.023  0.000  0.000  0.078  0.000  0.234  0.000  0.335
tot    0.000  0.000  0.045  0.000  0.000  0.156  0.000  0.468  0.000  0.669
 
band    15 # energy    9.84647045 # occ.  2.00000000
 
ion      s     py     pz     px    dxy    dyz    dz2    dxz  x2-y2    tot
    1  0.000  0.000  0.000  0.000  0.000  0.331  0.000  0.110  0.000  0.441
    2  0.000  0.000  0.000  0.000  0.000  0.331  0.000  0.110  0.000  0.441
tot    0.000  0.000  0.000  0.000  0.000  0.661  0.000  0.220  0.000  0.882
 
band    16 # energy    9.99023947 # occ.  2.00000000
 
ion      s     py     pz     px    dxy    dyz    dz2    dxz  x2-y2    tot
    1  0.000  0.000  0.020  0.000  0.000  0.085  0.000  0.255  0.000  0.360
    2  0.000  0.000  0.020  0.000  0.000  0.085  0.000  0.255  0.000  0.360
tot    0.000  0.000  0.040  0.000  0.000  0.170  0.000  0.510  0.000  0.721
 
band    17 # energy   11.80764995 # occ.  1.99998760
 
ion      s     py     pz     px    dxy    dyz    dz2    dxz  x2-y2    tot
    1  0.000  0.000  0.000  0.000  0.000  0.352  0.000  0.117  0.000  0.469
    2  0.000  0.000  0.000  0.000  0.000  0.352  0.000  0.117  0.000  0.469
tot    0.000  0.000  0.000  0.000  0.000  0.703  0.000  0.234  0.000  0.938
 
band    18 # energy   13.52419972 # occ.  0.00000000
 
ion      s     py     pz     px    dxy    dyz    dz2    dxz  x2-y2    tot
    1  0.000  0.000  0.048  0.000  0.000  0.063  0.000  0.189  0.000  0.300
    2  0.000  0.000  0.048  0.000  0.000  0.063  0.000  0.189  0.000  0.300
tot    0.000  0.000  0.096  0.000  0.000  0.126  0.000  0.378  0.000  0.600
 
band    19 # energy   16.90927184 # occ.  0.00000000
 
ion      s     py     pz     px    dxy    dyz    dz2    dxz  x2-y2    tot
    1  0.183  0.000  0.000  0.001  0.002  0.000  0.217  0.000  0.001  0.403
    2  0.183  0.000  0.000  0.001  0.002  0.000  0.217  0.000  0.001  0.403
tot    0.365  0.000  0.000  0.001  0.003  0.000  0.435  0.000  0.001  0.806
 
band    20 # energy   27.48704503 # occ.  0.00000000
 
ion      s     py     pz     px    dxy    dyz    dz2    dxz  x2-y2    tot
    1  0.005  0.001  0.000  0.002  0.017  0.000  0.003  0.000  0.006  0.033
    2  0.005  0.001  0.000  0.002  0.017  0.000  0.003  0.000  0.006  0.033
tot    0.009  0.001  0.000  0.004  0.034  0.000  0.005  0.000  0.011  0.066
 
band    21 # energy   28.20531675 # occ.  0.00000000
 
ion      s     py     pz     px    dxy    dyz    dz2    dxz  x2-y2    tot
    1  0.000  0.000  0.017  0.000  0.000  0.002  0.000  0.006  0.000  0.025
    2  0.000  0.000  0.017  0.000  0.000  0.002  0.000  0.006  0.000  0.025
tot    0.000  0.000  0.034  0.000  0.000  0.004  0.000  0.011  0.000  0.049
 
band    22 # energy   29.66197369 # occ.  0.00000000
 
ion      s     py     pz     px    dxy    dyz    dz2    dxz  x2-y2    tot
    1  0.002  0.003  0.000  0.009  0.016  0.000  0.023  0.000  0.005  0.058
    2  0.002  0.003  0.000  0.009  0.016  0.000  0.023  0.000  0.005  0.058
tot    0.004  0.006  0.000  0.017  0.032  0.000  0.047  0.000  0.011  0.116
 
band    23 # energy   31.71558165 # occ.  0.00000000
 
ion      s     py     pz     px    dxy    dyz    dz2    dxz  x2-y2    tot
    1  0.007  0.025  0.000  0.075  0.013  0.000  0.002  0.000  0.004  0.127
    2  0.007  0.025  0.000  0.075  0.013  0.000  0.002  0.000  0.004  0.127
tot    0.014  0.050  0.000  0.150  0.026  0.000  0.005  0.000  0.009  0.253
 
band    24 # energy   31.92181673 # occ.  0.00000000
 
ion      s     py     pz     px    dxy    dyz    dz2    dxz  x2-y2    tot
    1  0.000  0.083  0.000  0.028  0.009  0.000  0.000  0.001  0.028  0.149
    2  0.000  0.083  0.000  0.028  0.009  0.000  0.000  0.001  0.028  0.149
tot    0.000  0.166  0.001  0.055  0.018  0.001  0.000  0.001  0.055  0.298
 

 k-point     3 :    0.20000000 0.00000000 0.00000000     weight = 0.00750000

band     1 # energy  -40.77871537 # occ.  2.00000000
 
ion      s     py     pz     px    dxy    dyz    dz2    dxz  x2-y2    tot
    1  0.000  0.000  0.492  0.000  0.000  0.000  0.000  0.000  0.000  0.492
    2  0.000  0.000  0.492  0.000  0.000  0.000  0.000  0.000  0.000  0.492
tot    0.000  0.000  0.984  0.000  0.000  0.000  0.000  0.000  0.000  0.984
 
band     2 # energy  -40.75547503 # occ.  2.00000000
 
ion      s     py     pz     px    dxy    dyz    dz2    dxz  x2-y2    tot
    1  0.000  0.124  0.000  0.372  0.000  0.000  0.000  0.000  0.000  0.496
    2  0.000  0.124  0.000  0.372  0.000  0.000  0.000  0.000  0.000  0.496
tot    0.000  0.248  0.000  0.743  0.000  0.000  0.000  0.000  0.000  0.991
 
band     3 # energy  -40.70939150 # occ.  2.00000000
 
ion      s     py     pz     px    dxy    dyz    dz2    dxz  x2-y2    tot
    1  0.000  0.124  0.000  0.372  0.000  0.000  0.000  0.000  0.000  0.496
    2  0.000  0.124  0.000  0.372  0.000  0.000  0.000  0.000  0.000  0.496
tot    0.000  0.248  0.000  0.744  0.000  0.000  0.000  0.000  0.000  0.992
 
band     4 # energy  -40.64606906 # occ.  2.00000000
 
ion      s     py     pz     px    dxy    dyz    dz2    dxz  x2-y2    tot
    1  0.000  0.373  0.000  0.124  0.000  0.000  0.000  0.000  0.000  0.497
    2  0.000  0.373  0.000  0.124  0.000  0.000  0.000  0.000  0.000  0.497
tot    0.000  0.746  0.000  0.249  0.000  0.000  0.000  0.000  0.000  0.995
 
band     5 # energy  -40.58647644 # occ.  2.00000000
 
ion      s     py     pz     px    dxy    dyz    dz2    dxz  x2-y2    tot
    1  0.000  0.374  0.000  0.125  0.000  0.000  0.000  0.000  0.000  0.498
    2  0.000  0.374  0.000  0.125  0.000  0.000  0.000  0.000  0.000  0.498
tot    0.000  0.747  0.000  0.249  0.000  0.000  0.000  0.000  0.000  0.996
 
band     6 # energy  -40.45452702 # occ.  2.00000000
 
ion      s     py     pz     px    dxy    dyz    dz2    dxz  x2-y2    tot
    1  0.000  0.000  0.498  0.000  0.000  0.000  0.000  0.000  0.000  0.498
    2  0.000  0.000  0.498  0.000  0.000  0.000  0.000  0.000  0.000  0.498
tot    0.000  0.000  0.995  0.000  0.000  0.000  0.000  0.000  0.000  0.995
 
band     7 # energy    3.17984883 # occ.  2.00000000
 
ion      s     py     pz     px    dxy    dyz    dz2    dxz  x2-y2    tot
    1  0.181  0.002  0.000  0.006  0.007  0.000  0.001  0.000  0.002  0.199
    2  0.181  0.002  0.000  0.006  0.007  0.000  0.001  0.000  0.002  0.199
tot    0.362  0.004  0.000  0.013  0.013  0.000  0.002  0.000  0.004  0.399
 
band     8 # energy    5.56202235 # occ.  2.00000000
 
ion      s     py     pz     px    dxy    dyz    dz2    dxz  x2-y2    tot
    1  0.051  0.001  0.000  0.004  0.041  0.000  0.222  0.000  0.014  0.333
    2  0.051  0.001  0.000  0.004  0.041  0.000  0.222  0.000  0.014  0.333
tot    0.103  0.003  0.000  0.008  0.081  0.000  0.444  0.000  0.027  0.666
 
band     9 # energy    7.44428919 # occ.  2.00000000
 
ion      s     py     pz     px    dxy    dyz    dz2    dxz  x2-y2    tot
    1  0.003  0.001  0.000  0.004  0.187  0.000  0.128  0.000  0.062  0.385
    2  0.003  0.001  0.000  0.004  0.187  0.000  0.128  0.000  0.062  0.385
tot    0.006  0.003  0.000  0.008  0.373  0.000  0.256  0.000  0.124  0.770
 
band    10 # energy    7.94235479 # occ.  2.00000000
 
ion      s     py     pz     px    dxy    dyz    dz2    dxz  x2-y2    tot
    1  0.000  0.000  0.020  0.000  0.000  0.075  0.000  0.225  0.000  0.319
    2  0.000  0.000  0.020  0.000  0.000  0.075  0.000  0.225  0.000  0.319
tot    0.000  0.000  0.039  0.000  0.000  0.150  0.000  0.449  0.000  0.638
 
band    11 # energy    8.00855381 # occ.  2.00000000
 
ion      s     py     pz     px    dxy    dyz    dz2    dxz  x2-y2    tot
    1  0.006  0.000  0.000  0.001  0.257  0.000  0.058  0.000  0.086  0.407
    2  0.006  0.000  0.000  0.001  0.257  0.000  0.058  0.000  0.086  0.407
tot    0.011  0.001  0.000  0.002  0.514  0.000  0.115  0.000  0.171  0.815
 
band    12 # energy    8.97363077 # occ.  2.00000000
 
ion      s     py     pz     px    dxy    dyz    dz2    dxz  x2-y2    tot
    1  0.004  0.001  0.000  0.002  0.110  0.000  0.269  0.000  0.037  0.422
    2  0.004  0.001  0.000  0.002  0.110  0.000  0.269  0.000  0.037  0.422
tot    0.008  0.001  0.000  0.004  0.220  0.000  0.539  0.000  0.073  0.844
 
band    13 # energy    9.42385556 # occ.  2.00000000
 
ion      s     py     pz     px    dxy    dyz    dz2    dxz  x2-y2    tot
    1  0.000  0.001  0.000  0.000  0.108  0.000  0.000  0.000  0.323  0.431
    2  0.000  0.001  0.000  0.000  0.108  0.000  0.000  0.000  0.323  0.431
tot    0.000  0.002  0.000  0.001  0.215  0.000  0.000  0.000  0.645  0.863
 
band    14 # energy    9.43917696 # occ.  2.00000000
 
ion      s     py     pz     px    dxy    dyz    dz2    dxz  x2-y2    tot
    1  0.000  0.000  0.000  0.000  0.000  0.324  0.000  0.108  0.000  0.432
    2  0.000  0.000  0.000  0.000  0.000  0.324  0.000  0.108  0.000  0.432
tot    0.000  0.000  0.000  0.000  0.000  0.648  0.000  0.216  0.000  0.864
 
band    15 # energy    9.45122860 # occ.  2.00000000
 
ion      s     py     pz     px    dxy    dyz    dz2    dxz  x2-y2    tot
    1  0.000  0.000  0.010  0.000  0.000  0.095  0.000  0.285  0.000  0.390
    2  0.000  0.000  0.010  0.000  0.000  0.095  0.000  0.285  0.000  0.390
tot    0.000  0.000  0.021  0.000  0.000  0.190  0.000  0.570  0.000  0.780
 
band    16 # energy    9.76020012 # occ.  2.00000000
 
ion      s     py     pz     px    dxy    dyz    dz2    dxz  x2-y2    tot
    1  0.000  0.001  0.000  0.000  0.110  0.000  0.000  0.000  0.330  0.441
    2  0.000  0.001  0.000  0.000  0.110  0.000  0.000  0.000  0.330  0.441
tot    0.000  0.002  0.000  0.001  0.220  0.000  0.000  0.000  0.659  0.882
 
band    17 # energy   11.91888054 # occ.  1.77916071
 
ion      s     py     pz     px    dxy    dyz    dz2    dxz  x2-y2    tot
    1  0.000  0.000  0.000  0.000  0.000  0.355  0.000  0.118  0.000  0.473
    2  0.000  0.000  0.000  0.000  0.000  0.355  0.000  0.118  0.000  0.473
tot    0.000  0.000  0.000  0.000  0.000  0.710  0.000  0.237  0.000  0.946
 
band    18 # energy   15.78435169 # occ.  0.00000000
 
ion      s     py     pz     px    dxy    dyz    dz2    dxz  x2-y2    tot
    1  0.000  0.000  0.063  0.000  0.000  0.052  0.000  0.155  0.000  0.269
    2  0.000  0.000  0.063  0.000  0.000  0.052  0.000  0.155  0.000  0.269
tot    0.000  0.000  0.126  0.000  0.000  0.103  0.000  0.309  0.000  0.538
 
band    19 # energy   16.81886927 # occ.  0.00000000
 
ion      s     py     pz     px    dxy    dyz    dz2    dxz  x2-y2    tot
    1  0.186  0.001  0.000  0.003  0.005  0.000  0.188  0.000  0.002  0.385
    2  0.186  0.001  0.000  0.003  0.005  0.000  0.188  0.000  0.002  0.385
tot    0.371  0.002  0.000  0.006  0.011  0.000  0.376  0.000  0.004  0.771
 
band    20 # energy   26.32208667 # occ.  0.00000000
 
ion      s     py     pz     px    dxy    dyz    dz2    dxz  x2-y2    tot
    1  0.026  0.016  0.000  0.049  0.055  0.000  0.026  0.000  0.018  0.189
    2  0.026  0.016  0.000  0.049  0.055  0.000  0.026  0.000  0.018  0.189
tot    0.051  0.033  0.000  0.098  0.109  0.000  0.051  0.000  0.036  0.379
 
band    21 # energy   28.82000787 # occ.  0.00000000
 
ion      s     py     pz     px    dxy    dyz    dz2    dxz  x2-y2    tot
    1  0.000  0.000  0.010  0.000  0.000  0.003  0.000  0.008  0.000  0.021
    2  0.000  0.000  0.010  0.000  0.000  0.003  0.000  0.008  0.000  0.021
tot    0.000  0.000  0.020  0.000  0.000  0.005  0.000  0.016  0.000  0.041
 
band    22 # energy   29.42725317 # occ.  0.00000000
 
ion      s     py     pz     px    dxy    dyz    dz2    dxz  x2-y2    tot
    1  0.000  0.082  0.000  0.027  0.011  0.000  0.000  0.000  0.034  0.155
    2  0.000  0.082  0.000  0.027  0.011  0.000  0.000  0.000  0.034  0.155
tot    0.000  0.165  0.000  0.055  0.023  0.000  0.000  0.000  0.068  0.310
 
band    23 # energy   30.13026503 # occ.  0.00000000
 
ion      s     py     pz     px    dxy    dyz    dz2    dxz  x2-y2    tot
    1  0.005  0.005  0.000  0.014  0.033  0.000  0.018  0.000  0.011  0.085
    2  0.005  0.005  0.000  0.014  0.033  0.000  0.018  0.000  0.011  0.085
tot    0.009  0.009  0.000  0.027  0.066  0.000  0.036  0.000  0.022  0.170
 
band    24 # energy   30.30973877 # occ.  0.00000000
 
ion      s     py     pz     px    dxy    dyz    dz2    dxz  x2-y2    tot
    1  0.000  0.000  0.004  0.000  0.000  0.016  0.000  0.047  0.000  0.067
    2  0.000  0.000  0.004  0.000  0.000  0.016  0.000  0.047  0.000  0.067
tot    0.000  0.000  0.008  0.000  0.000  0.032  0.000  0.095  0.000  0.134
 

 k-point     4 :    0.30000000 0.00000000 0.00000000     weight = 0.00750000

band     1 # energy  -40.89165088 # occ.  2.00000000
 
ion      s     py     pz     px    dxy    dyz    dz2    dxz  x2-y2    tot
    1  0.000  0.123  0.000  0.370  0.000  0.000  0.000  0.000  0.000  0.493
    2  0.000  0.123  0.000  0.370  0.000  0.000  0.000  0.000  0.000  0.493
tot    0.000  0.247  0.000  0.740  0.000  0.000  0.000  0.000  0.000  0.987
 
band     2 # energy  -40.84474268 # occ.  2.00000000
 
ion      s     py     pz     px    dxy    dyz    dz2    dxz  x2-y2    tot
    1  0.000  0.124  0.000  0.371  0.000  0.000  0.000  0.000  0.000  0.494
    2  0.000  0.124  0.000  0.371  0.000  0.000  0.000  0.000  0.000  0.494
tot    0.000  0.247  0.000  0.741  0.000  0.000  0.000  0.000  0.000  0.988
 
band     3 # energy  -40.72530259 # occ.  2.00000000
 
ion      s     py     pz     px    dxy    dyz    dz2    dxz  x2-y2    tot
    1  0.000  0.000  0.493  0.000  0.000  0.000  0.000  0.000  0.000  0.493
    2  0.000  0.000  0.493  0.000  0.000  0.000  0.000  0.000  0.000  0.493
tot    0.000  0.000  0.986  0.000  0.000  0.000  0.000  0.000  0.000  0.986
 
band     4 # energy  -40.68449837 # occ.  2.00000000
 
ion      s     py     pz     px    dxy    dyz    dz2    dxz  x2-y2    tot
    1  0.000  0.373  0.000  0.124  0.000  0.000  0.000  0.000  0.000  0.497
    2  0.000  0.373  0.000  0.124  0.000  0.000  0.000  0.000  0.000  0.497
tot    0.000  0.745  0.000  0.248  0.000  0.000  0.000  0.000  0.000  0.994
 
band     5 # energy  -40.61550245 # occ.  2.00000000
 
ion      s     py     pz     px    dxy    dyz    dz2    dxz  x2-y2    tot
    1  0.000  0.373  0.000  0.124  0.000  0.000  0.000  0.000  0.000  0.498
    2  0.000  0.373  0.000  0.124  0.000  0.000  0.000  0.000  0.000  0.498
tot    0.000  0.747  0.000  0.249  0.000  0.000  0.000  0.000  0.000  0.996
 
band     6 # energy  -40.47393373 # occ.  2.00000000
 
ion      s     py     pz     px    dxy    dyz    dz2    dxz  x2-y2    tot
    1  0.000  0.000  0.497  0.000  0.000  0.000  0.000  0.000  0.000  0.497
    2  0.000  0.000  0.497  0.000  0.000  0.000  0.000  0.000  0.000  0.497
tot    0.000  0.000  0.995  0.000  0.000  0.000  0.000  0.000  0.000  0.995
 
band     7 # energy    4.41189814 # occ.  2.00000000
 
ion      s     py     pz     px    dxy    dyz    dz2    dxz  x2-y2    tot
    1  0.142  0.003  0.000  0.009  0.051  0.000  0.006  0.000  0.017  0.227
    2  0.142  0.003  0.000  0.009  0.051  0.000  0.006  0.000  0.017  0.227
tot    0.283  0.006  0.000  0.018  0.101  0.000  0.012  0.000  0.034  0.455
 
band     8 # energy    5.67142720 # occ.  2.00000000
 
ion      s     py     pz     px    dxy    dyz    dz2    dxz  x2-y2    tot
    1  0.021  0.000  0.000  0.001  0.164  0.000  0.119  0.000  0.055  0.361
    2  0.021  0.000  0.000  0.001  0.164  0.000  0.119  0.000  0.055  0.361
tot    0.042  0.001  0.000  0.002  0.329  0.000  0.238  0.000  0.110  0.722
 
band     9 # energy    6.82201803 # occ.  2.00000000
 
ion      s     py     pz     px    dxy    dyz    dz2    dxz  x2-y2    tot
    1  0.000  0.000  0.012  0.000  0.000  0.079  0.000  0.238  0.000  0.329
    2  0.000  0.000  0.012  0.000  0.000  0.079  0.000  0.238  0.000  0.329
tot    0.000  0.000  0.023  0.000  0.000  0.159  0.000  0.476  0.000  0.658
 
band    10 # energy    7.72761645 # occ.  2.00000000
 
ion      s     py     pz     px    dxy    dyz    dz2    dxz  x2-y2    tot
    1  0.014  0.003  0.000  0.010  0.206  0.000  0.046  0.000  0.069  0.348
    2  0.014  0.003  0.000  0.010  0.206  0.000  0.046  0.000  0.069  0.348
tot    0.027  0.007  0.000  0.020  0.413  0.000  0.092  0.000  0.138  0.697
 
band    11 # energy    8.11369141 # occ.  2.00000000
 
ion      s     py     pz     px    dxy    dyz    dz2    dxz  x2-y2    tot