<?xml version="1.0" encoding="ISO-8859-1"?>
<modeling>
 <generator>
  <i name="program" type="string">vasp </i>
  <i name="version" type="string">6.3.2  </i>
  <i name="subversion" type="string">27Jun22 (build Aug 12 2022 00:53:59) complex                          parallel </i>
  <i name="platform" type="string">tv2STD </i>
  <i name="date" type="string">2024 11 30 </i>
  <i name="time" type="string">17:15:26 </i>
 </generator>
 <incar>
  <i type="string" name="SYSTEM">Pt-hcc</i>
  <i type="int" name="ISTART">     0</i>
  <i type="string" name="PREC">Accurate      normal | accurate</i>
  <i type="string" name="ALGO">Normal     Normal, Fast, Very_Fast</i>
  <i type="logical" name="ADDGRID"> F  </i>
  <i type="int" name="ICHARG">     2</i>
  <i type="int" name="INIWAV">     1</i>
  <i type="int" name="NELM">   100</i>
  <i type="int" name="IBRION">     2</i>
  <i name="EDIFF">      0.00000100</i>
  <i name="EDIFFG">     -0.02000000</i>
  <i type="int" name="NSW">   100</i>
  <i type="int" name="ISIF">     2</i>
  <i type="int" name="ISYM">     1</i>
  <i name="ENCUT">    450.00000000</i>
  <i type="logical" name="LREAL"> F  </i>
  <i type="int" name="ISMEAR">     0</i>
  <i name="SIGMA">      0.05000000</i>
  <i type="int" name="NWRITE">     2</i>
  <i type="logical" name="LWAVE"> T  </i>
  <i type="logical" name="LCHARG"> T  </i>
  <i type="int" name="LORBIT">    11</i>
 </incar>
 <primitive_cell>
  <structure name="primitive_cell" >
   <crystal>
    <varray name="basis" >
     <v>       2.72203723       0.00000000       0.00000000 </v>
     <v>      -1.36101862       2.35735339       0.00000000 </v>
     <v>       0.00000000       0.00000000       4.71586607 </v>
    </varray>
    <i name="volume">     30.26078687 </i>
    <varray name="rec_basis" >
     <v>       0.36737190       0.21210227       0.00000000 </v>
     <v>       0.00000000       0.42420453       0.00000000 </v>
     <v>       0.00000000       0.00000000       0.21205013 </v>
    </varray>
   </crystal>
   <varray name="positions" >
    <v>       0.00000000       0.00000000       0.00000000 </v>
    <v>       0.33333333       0.66666667       0.50000000 </v>
   </varray>
  </structure>
  <varray name="primitive_index" >
   <v type="int" >        1 </v>
   <v type="int" >        2 </v>
  </varray>
 </primitive_cell>
 <kpoints>
  <generation param="Gamma">
   <v type="int" name="divisions">      10       10        8 </v>
   <v name="usershift">      0.00000000       0.00000000       0.00000000 </v>
   <v name="genvec1">      0.10000000       0.00000000       0.00000000 </v>
   <v name="genvec2">      0.00000000       0.10000000       0.00000000 </v>
   <v name="genvec3">      0.00000000       0.00000000       0.12500000 </v>
   <v name="shift">      0.00000000       0.00000000       0.00000000 </v>
  </generation>
  <varray name="kpointlist" >
   <v>       0.00000000       0.00000000       0.00000000 </v>
   <v>       0.10000000       0.00000000       0.00000000 </v>
   <v>       0.20000000       0.00000000       0.00000000 </v>
   <v>       0.30000000       0.00000000       0.00000000 </v>
   <v>       0.40000000      -0.00000000       0.00000000 </v>
   <v>       0.50000000       0.00000000       0.00000000 </v>
   <v>       0.10000000       0.10000000       0.00000000 </v>
   <v>       0.20000000       0.10000000       0.00000000 </v>
   <v>       0.30000000       0.10000000       0.00000000 </v>
   <v>       0.40000000       0.10000000       0.00000000 </v>
   <v>       0.20000000       0.20000000       0.00000000 </v>
   <v>       0.30000000       0.20000000       0.00000000 </v>
   <v>       0.40000000       0.20000000       0.00000000 </v>
   <v>       0.30000000       0.30000000       0.00000000 </v>
   <v>       0.00000000       0.00000000       0.12500000 </v>
   <v>       0.10000000       0.00000000       0.12500000 </v>
   <v>       0.20000000       0.00000000       0.12500000 </v>
   <v>       0.30000000       0.00000000       0.12500000 </v>
   <v>       0.40000000      -0.00000000       0.12500000 </v>
   <v>       0.50000000       0.00000000       0.12500000 </v>
   <v>       0.10000000       0.10000000       0.12500000 </v>
   <v>       0.20000000       0.10000000       0.12500000 </v>
   <v>       0.30000000       0.10000000       0.12500000 </v>
   <v>       0.40000000       0.10000000       0.12500000 </v>
   <v>       0.20000000       0.20000000       0.12500000 </v>
   <v>       0.30000000       0.20000000       0.12500000 </v>
   <v>       0.40000000       0.20000000       0.12500000 </v>
   <v>       0.30000000       0.30000000       0.12500000 </v>
   <v>       0.00000000       0.00000000       0.25000000 </v>
   <v>       0.10000000       0.00000000       0.25000000 </v>
   <v>       0.20000000       0.00000000       0.25000000 </v>
   <v>       0.30000000       0.00000000       0.25000000 </v>
   <v>       0.40000000      -0.00000000       0.25000000 </v>
   <v>       0.50000000       0.00000000       0.25000000 </v>
   <v>       0.10000000       0.10000000       0.25000000 </v>
   <v>       0.20000000       0.10000000       0.25000000 </v>
   <v>       0.30000000       0.10000000       0.25000000 </v>
   <v>       0.40000000       0.10000000       0.25000000 </v>
   <v>       0.20000000       0.20000000       0.25000000 </v>
   <v>       0.30000000       0.20000000       0.25000000 </v>
   <v>       0.40000000       0.20000000       0.25000000 </v>
   <v>       0.30000000       0.30000000       0.25000000 </v>
   <v>       0.00000000       0.00000000       0.37500000 </v>
   <v>       0.10000000       0.00000000       0.37500000 </v>
   <v>       0.20000000       0.00000000       0.37500000 </v>
   <v>       0.30000000       0.00000000       0.37500000 </v>
   <v>       0.40000000      -0.00000000       0.37500000 </v>
   <v>       0.50000000       0.00000000       0.37500000 </v>
   <v>       0.10000000       0.10000000       0.37500000 </v>
   <v>       0.20000000       0.10000000       0.37500000 </v>
   <v>       0.30000000       0.10000000       0.37500000 </v>
   <v>       0.40000000       0.10000000       0.37500000 </v>
   <v>       0.20000000       0.20000000       0.37500000 </v>
   <v>       0.30000000       0.20000000       0.37500000 </v>
   <v>       0.40000000       0.20000000       0.37500000 </v>
   <v>       0.30000000       0.30000000       0.37500000 </v>
   <v>       0.00000000       0.00000000       0.50000000 </v>
   <v>       0.10000000       0.00000000       0.50000000 </v>
   <v>       0.20000000       0.00000000       0.50000000 </v>
   <v>       0.30000000       0.00000000       0.50000000 </v>
   <v>       0.40000000      -0.00000000       0.50000000 </v>
   <v>       0.50000000       0.00000000       0.50000000 </v>
   <v>       0.10000000       0.10000000       0.50000000 </v>
   <v>       0.20000000       0.10000000       0.50000000 </v>
   <v>       0.30000000       0.10000000       0.50000000 </v>
   <v>       0.40000000       0.10000000       0.50000000 </v>
   <v>       0.20000000       0.20000000       0.50000000 </v>
   <v>       0.30000000       0.20000000       0.50000000 </v>
   <v>       0.40000000       0.20000000       0.50000000 </v>
   <v>       0.30000000       0.30000000       0.50000000 </v>
  </varray>
  <varray name="weights" >
   <v>       0.00125000 </v>
   <v>       0.00750000 </v>
   <v>       0.00750000 </v>
   <v>       0.00750000 </v>
   <v>       0.00750000 </v>
   <v>       0.00375000 </v>
   <v>       0.00750000 </v>
   <v>       0.01500000 </v>
   <v>       0.01500000 </v>
   <v>       0.01500000 </v>
   <v>       0.00750000 </v>
   <v>       0.01500000 </v>
   <v>       0.00750000 </v>
   <v>       0.00750000 </v>
   <v>       0.00250000 </v>
   <v>       0.01500000 </v>
   <v>       0.01500000 </v>
   <v>       0.01500000 </v>
   <v>       0.01500000 </v>
   <v>       0.00750000 </v>
   <v>       0.01500000 </v>
   <v>       0.03000000 </v>
   <v>       0.03000000 </v>
   <v>       0.03000000 </v>
   <v>       0.01500000 </v>
   <v>       0.03000000 </v>
   <v>       0.01500000 </v>
   <v>       0.01500000 </v>
   <v>       0.00250000 </v>
   <v>       0.01500000 </v>
   <v>       0.01500000 </v>
   <v>       0.01500000 </v>
   <v>       0.01500000 </v>
   <v>       0.00750000 </v>
   <v>       0.01500000 </v>
   <v>       0.03000000 </v>
   <v>       0.03000000 </v>
   <v>       0.03000000 </v>
   <v>       0.01500000 </v>
   <v>       0.03000000 </v>
   <v>       0.01500000 </v>
   <v>       0.01500000 </v>
   <v>       0.00250000 </v>
   <v>       0.01500000 </v>
   <v>       0.01500000 </v>
   <v>       0.01500000 </v>
   <v>       0.01500000 </v>
   <v>       0.00750000 </v>
   <v>       0.01500000 </v>
   <v>       0.03000000 </v>
   <v>       0.03000000 </v>
   <v>       0.03000000 </v>
   <v>       0.01500000 </v>
   <v>       0.03000000 </v>
   <v>       0.01500000 </v>
   <v>       0.01500000 </v>
   <v>       0.00125000 </v>
   <v>       0.00750000 </v>
   <v>       0.00750000 </v>
   <v>       0.00750000 </v>
   <v>       0.00750000 </v>
   <v>       0.00375000 </v>
   <v>       0.00750000 </v>
   <v>       0.01500000 </v>
   <v>       0.01500000 </v>
   <v>       0.01500000 </v>
   <v>       0.00750000 </v>
   <v>       0.01500000 </v>
   <v>       0.00750000 </v>
   <v>       0.00750000 </v>
  </varray>
 </kpoints>
 <parameters>
  <separator name="general" >
   <i type="string" name="SYSTEM">Pt-hcc</i>
   <i type="logical" name="LCOMPAT"> F  </i>
  </separator>
  <separator name="electronic" >
   <i type="string" name="PREC">accura</i>
   <i name="ENMAX">    450.00000000</i>
   <i name="ENAUG">    527.01400000</i>
   <i name="EDIFF">      0.00000100</i>
   <i type="int" name="IALGO">    38</i>
   <i type="int" name="IWAVPR">    11</i>
   <i type="int" name="NBANDS">    24</i>
   <i type="int" name="NBANDSLOW">    -1</i>
   <i type="int" name="NBANDSHIGH">    -1</i>
   <i name="NELECT">     32.00000000</i>
   <i type="int" name="TURBO">     0</i>
   <i type="int" name="IRESTART">     0</i>
   <i type="int" name="NREBOOT">     0</i>
   <i type="int" name="NMIN">     0</i>
   <i name="EREF">      0.00000000</i>
   <separator name="electronic smearing" >
    <i type="int" name="ISMEAR">     0</i>
    <i name="SIGMA">      0.05000000</i>
    <i name="KSPACING">      0.50000000</i>
    <i type="logical" name="KGAMMA"> T  </i>
    <i type="logical" name="KBLOWUP"> T  </i>
   </separator>
   <separator name="electronic projectors" >
    <i type="logical" name="LREAL"> F  </i>
    <v name="ROPT">      0.00000000</v>
    <i type="int" name="LMAXPAW">  -100</i>
    <i type="int" name="LMAXMIX">     2</i>
    <i type="logical" name="NLSPLINE"> F  </i>
   </separator>
   <separator name="electronic startup" >
    <i type="int" name="ISTART">     0</i>
    <i type="int" name="ICHARG">     2</i>
    <i type="int" name="INIWAV">     1</i>
   </separator>
   <separator name="electronic spin" >
    <i type="int" name="ISPIN">     1</i>
    <i type="logical" name="LNONCOLLINEAR"> F  </i>
    <v name="MAGMOM">      1.00000000      1.00000000</v>
    <i name="NUPDOWN">     -1.00000000</i>
    <i type="logical" name="LSORBIT"> F  </i>
    <v name="SAXIS">      0.00000000      0.00000000      1.00000000</v>
    <i type="logical" name="LSPIRAL"> F  </i>
    <v name="QSPIRAL">      0.00000000      0.00000000      0.00000000</v>
    <i type="logical" name="LZEROZ"> F  </i>
   </separator>
   <separator name="electronic exchange-correlation" >
    <i type="logical" name="LASPH"> F  </i>
    <i type="logical" name="LMETAGGA"> F  </i>
   </separator>
   <separator name="electronic convergence" >
    <i type="int" name="NELM">   100</i>
    <i type="int" name="NELMDL">    -5</i>
    <i type="int" name="NELMIN">     2</i>
    <i name="ENINI">    450.00000000</i>
    <separator name="electronic convergence detail" >
     <i type="logical" name="LDIAG"> T  </i>
     <i type="logical" name="LSUBROT"> F  </i>
     <i name="WEIMIN">      0.00100000</i>
     <i name="EBREAK">      0.00000001</i>
     <i name="DEPER">      0.30000000</i>
     <i type="int" name="NRMM">     4</i>
     <i name="TIME">      0.40000000</i>
    </separator>
   </separator>
   <separator name="electronic mixer" >
    <i name="AMIX">      0.40000000</i>
    <i name="BMIX">      1.00000000</i>
    <i name="AMIN">      0.10000000</i>
    <i name="AMIX_MAG">      1.60000000</i>
    <i name="BMIX_MAG">      1.00000000</i>
    <separator name="electronic mixer details" >
     <i type="int" name="IMIX">     4</i>
     <i type="logical" name="MIXFIRST"> F  </i>
     <i type="int" name="MAXMIX">   -45</i>
     <i name="WC">    100.00000000</i>
     <i type="int" name="INIMIX">     1</i>
     <i type="int" name="MIXPRE">     1</i>
     <i type="int" name="MREMOVE">     5</i>
    </separator>
   </separator>
   <separator name="electronic dipolcorrection" >
    <i type="logical" name="LDIPOL"> F  </i>
    <i type="logical" name="LMONO"> F  </i>
    <i type="int" name="IDIPOL">     0</i>
    <i name="EPSILON">      1.00000000</i>
    <v name="DIPOL">   -100.00000000   -100.00000000   -100.00000000</v>
    <i name="EFIELD">      0.00000000</i>
   </separator>
  </separator>
  <separator name="grids" >
   <i type="int" name="NGX">    20</i>
   <i type="int" name="NGY">    20</i>
   <i type="int" name="NGZ">    36</i>
   <i type="int" name="NGXF">    40</i>
   <i type="int" name="NGYF">    40</i>
   <i type="int" name="NGZF">    72</i>
   <i type="logical" name="ADDGRID"> F  </i>
  </separator>
  <separator name="ionic" >
   <i type="int" name="NSW">   100</i>
   <i type="int" name="IBRION">     2</i>
   <i type="int" name="MDALGO">     0</i>
   <i type="int" name="ISIF">     2</i>
   <i name="PSTRESS">      0.00000000</i>
   <i name="EDIFFG">     -0.02000000</i>
   <i type="int" name="NFREE">     1</i>
   <i name="POTIM">      0.50000000</i>
   <i name="SMASS">     -3.00000000</i>
   <i name="SCALEE">      1.00000000</i>
  </separator>
  <separator name="ionic md" >
   <i name="TEBEG">      0.00010000</i>
   <i name="TEEND">      0.00010000</i>
   <i type="int" name="NBLOCK">     1</i>
   <i type="int" name="KBLOCK">   100</i>
   <i type="int" name="NPACO">   256</i>
   <i name="APACO">     10.00000000</i>
  </separator>
  <separator name="symmetry" >
   <i type="int" name="ISYM">     1</i>
   <i name="SYMPREC">      0.00001000</i>
  </separator>
  <separator name="dos" >
   <i type="int" name="LORBIT">    11</i>
   <v name="RWIGS">     -1.00000000</v>
   <i type="int" name="NEDOS">   301</i>
   <i name="EMIN">     10.00000000</i>
   <i name="EMAX">    -10.00000000</i>
   <i name="EFERMI">      0.00000000</i>
  </separator>
  <separator name="writing" >
   <i type="int" name="NWRITE">     2</i>
   <i type="logical" name="LWAVE"> T  </i>
   <i type="logical" name="LDOWNSAMPLE"> F  </i>
   <i type="logical" name="LCHARG"> T  </i>
   <i type="logical" name="LPARD"> F  </i>
   <i type="logical" name="LVTOT"> F  </i>
   <i type="logical" name="LVHAR"> F  </i>
   <i type="logical" name="LELF"> F  </i>
   <i type="logical" name="LOPTICS"> F  </i>
   <v name="STM">      0.00000000      0.00000000      0.00000000      0.00000000      0.00000000      0.00000000      0.00000000</v>
  </separator>
  <separator name="performance" >
   <i type="int" name="NPAR">    24</i>
   <i type="int" name="NSIM">     4</i>
   <i type="int" name="NBLK">    -1</i>
   <i type="logical" name="LPLANE"> T  </i>
   <i type="logical" name="LSCALAPACK"> T  </i>
   <i type="logical" name="LSCAAWARE"> F  </i>
   <i type="logical" name="LSCALU"> F  </i>
   <i type="logical" name="LASYNC"> F  </i>
   <i type="logical" name="LORBITALREAL"> F  </i>
  </separator>
  <separator name="miscellaneous" >
   <i type="int" name="IDIOT">     3</i>
   <i type="int" name="PHON_NSTRUCT">    -1</i>
   <i type="logical" name="LMUSIC"> F  </i>
   <v name="POMASS">    195.08000000</v>
   <v name="DARWINR">      0.00000000</v>
   <v name="DARWINV">      1.00000000</v>
   <i type="logical" name="LCORR"> T  </i>
  </separator>
  <i type="logical" name="GGA_COMPAT"> T  </i>
  <i type="logical" name="LBERRY"> F  </i>
  <i type="int" name="ICORELEVEL">     0</i>
  <i type="logical" name="LDAU"> F  </i>
  <i type="int" name="I_CONSTRAINED_M">     0</i>
  <separator name="electronic exchange-correlation" >
   <i type="string" name="GGA">--</i>
   <i type="int" name="VOSKOWN">     0</i>
   <i type="logical" name="LHFCALC"> F  </i>
   <i type="string" name="PRECFOCK"></i>
   <i type="logical" name="LSYMGRAD"> F  </i>
   <i type="logical" name="LHFONE"> F  </i>
   <i type="logical" name="LRHFCALC"> F  </i>
   <i type="logical" name="LTHOMAS"> F  </i>
   <i type="logical" name="LMODELHF"> F  </i>
   <i type="logical" name="LFOCKACE"> F  </i>
   <i name="ENCUT4O">     -1.00000000</i>
   <i type="int" name="EXXOEP">     0</i>
   <i type="int" name="FOURORBIT">     0</i>
   <i name="AEXX">      0.00000000</i>
   <i name="HFALPHA">      0.00000000</i>
   <i name="MCALPHA">      0.00000000</i>
   <i name="ALDAX">      1.00000000</i>
   <i name="AGGAX">      1.00000000</i>
   <i name="ALDAC">      1.00000000</i>
   <i name="AGGAC">      1.00000000</i>
   <i type="int" name="NKREDX">     1</i>
   <i type="int" name="NKREDY">     1</i>
   <i type="int" name="NKREDZ">     1</i>
   <i type="logical" name="SHIFTRED"> F  </i>
   <i type="logical" name="ODDONLY"> F  </i>
   <i type="logical" name="EVENONLY"> F  </i>
   <i type="int" name="LMAXFOCK">     0</i>
   <i type="int" name="NMAXFOCKAE">     0</i>
   <i type="logical" name="LFOCKAEDFT"> F  </i>
   <i name="HFSCREEN">      0.00000000</i>
   <i name="HFSCREENC">      0.00000000</i>
   <i type="int" name="NBANDSGWLOW">     0</i>
  </separator>
  <separator name="vdW DFT" >
   <i type="logical" name="LUSE_VDW"> F  </i>
   <i name="Zab_VDW">     -0.84910000</i>
   <i name="PARAM1">      0.12340000</i>
   <i name="PARAM2">      1.00000000</i>
   <i name="PARAM3">      0.00000000</i>
  </separator>
  <separator name="model GW" >
   <i type="int" name="MODEL_GW">     0</i>
   <i name="MODEL_EPS0">      9.07823606</i>
   <i name="MODEL_ALPHA">      1.00000000</i>
  </separator>
  <separator name="linear response parameters" >
   <i type="logical" name="LEPSILON"> F  </i>
   <i type="logical" name="LRPA"> F  </i>
   <i type="logical" name="LNABLA"> F  </i>
   <i type="logical" name="LVEL"> F  </i>
   <i name="CSHIFT">      0.10000000</i>
   <i name="OMEGAMAX">     -1.00000000</i>
   <i name="DEG_THRESHOLD">      0.00200000</i>
   <i name="RTIME">     -0.10000000</i>
   <i name="WPLASMAI">      0.00000000</i>
   <v name="DFIELD">      0.00000000      0.00000000      0.00000000</v>
   <v name="WPLASMA">      0.00000000      0.00000000      0.00000000      0.00000000      0.00000000      0.00000000      0.00000000      0.00000000      0.00000000</v>
  </separator>
  <separator name="orbital magnetization" >
   <i type="logical" name="NUCIND"> F  </i>
   <v name="MAGPOS">      0.00000000      0.00000000      0.00000000</v>
   <i type="logical" name="LNICSALL"> T  </i>
   <i type="logical" name="ORBITALMAG"> F  </i>
   <i type="logical" name="LMAGBLOCH"> F  </i>
   <i type="logical" name="LCHIMAG"> F  </i>
   <i type="logical" name="LGAUGE"> T  </i>
   <i type="int" name="MAGATOM">     0</i>
   <v name="MAGDIPOL">      0.00000000      0.00000000      0.00000000</v>
   <v name="AVECCONST">      0.00000000      0.00000000      0.00000000</v>
  </separator>
  <separator name="response functions" >
   <i type="logical" name="LFINITE_TEMPERATURE"> F  </i>
   <i type="logical" name="LADDER"> F  </i>
   <i type="logical" name="LRPAFORCE"> F  </i>
   <i type="logical" name="LFXC"> F  </i>
   <i type="logical" name="LHARTREE"> T  </i>
   <i type="int" name="IBSE">     0</i>
   <v type="int" name="KPOINT">    -1     0     0     0</v>
   <i type="logical" name="LTCTC"> F  </i>
   <i type="logical" name="LTCTE"> F  </i>
   <i type="logical" name="LTETE"> F  </i>
   <i type="logical" name="LTRIPLET"> F  </i>
   <i type="logical" name="LFXCEPS"> F  </i>
   <i type="logical" name="LFXHEG"> F  </i>
   <i type="int" name="NATURALO">     2</i>
   <i type="logical" name="LHOLEGF"> F  </i>
   <i type="logical" name="L2ORDER"> F  </i>
   <i type="logical" name="LDMP1"> F  </i>
   <i type="logical" name="LMP2LT"> F  </i>
   <i type="logical" name="LSMP2LT"> F  </i>
   <i type="logical" name="LGWLF"> F  </i>
   <i name="ENCUTGW">     -2.00000000</i>
   <i name="ENCUTGWSOFT">     -2.00000000</i>
   <i name="ENCUTLF">     -1.00000000</i>
   <i type="logical" name="LESF_SPLINES"> F  </i>
   <i type="int" name="LMAXMP2">    -1</i>
   <i name="SCISSOR">      0.00000000</i>
   <i type="int" name="NOMEGA">     0</i>
   <i type="int" name="NOMEGAR">     0</i>
   <i type="int" name="NBANDSGW">    -1</i>
   <i type="int" name="NBANDSO">    -1</i>
   <i type="int" name="NBANDSV">    -1</i>
   <i type="int" name="NELMGW">     1</i>
   <i type="int" name="NELMHF">     1</i>
   <i type="int" name="DIM">     3</i>
   <i type="int" name="IESPILON">     4</i>
   <i type="int" name="ANTIRES">     0</i>
   <i name="OMEGAMAX">    -30.00000000</i>
   <i name="OMEGAMIN">    -30.00000000</i>
   <i name="OMEGATL">   -200.00000000</i>
   <i type="int" name="OMEGAGRID">     0</i>
   <i name="CSHIFT">     -0.10000000</i>
   <i type="logical" name="LSELFENERGY"> F  </i>
   <i type="logical" name="LSPECTRAL"> F  </i>
   <i type="logical" name="LSPECTRALGW"> F  </i>
   <i type="logical" name="LSINGLES"> F  </i>
   <i type="logical" name="LFERMIGW"> F  </i>
   <i type="logical" name="ODDONLYGW"> F  </i>
   <i type="logical" name="EVENONLYGW"> F  </i>
   <i type="int" name="NKREDLFX">     1</i>
   <i type="int" name="NKREDLFY">     1</i>
   <i type="int" name="NKREDLFZ">     1</i>
   <i type="int" name="MAXMEM">  2800</i>
   <i type="int" name="TELESCOPE">     0</i>
   <i type="int" name="NTAUPAR">    -1</i>
   <i type="int" name="NOMEGAPAR">    -1</i>
   <i name="DAMP_NEWTON">      0.80000001</i>
   <i name="LAMBDA">      1.00000000</i>
  </separator>
  <separator name="External order field" >
   <i name="OFIELD_KAPPA">      0.00000000</i>
   <v name="OFIELD_K">      0.00000000      0.00000000      0.00000000</v>
   <i name="OFIELD_Q6_NEAR">      0.00000000</i>
   <i name="OFIELD_Q6_FAR">      0.00000000</i>
   <i name="OFIELD_A">      0.00000000</i>
  </separator>
  <separator name="optional k-points parameters" >
   <i type="int" name="KPOINTS_OPT_MODE">     1</i>
   <i type="logical" name="LKPOINTS_OPT"> F  </i>
  </separator>
 </parameters>
 <atominfo>
  <atoms>       2 </atoms>
  <types>       1 </types>
  <array name="atoms" >
   <dimension dim="1">ion</dimension>
   <field type="string">element</field>
   <field type="int">atomtype</field>
   <set>
    <rc><c>Pt</c><c>   1</c></rc>
    <rc><c>Pt</c><c>   1</c></rc>
   </set>
  </array>
  <array name="atomtypes" >
   <dimension dim="1">type</dimension>
   <field type="int">atomspertype</field>
   <field type="string">element</field>
   <field>mass</field>
   <field>valence</field>
   <field type="string">pseudopotential</field>
   <set>
    <rc><c>   2</c><c>Pt</c><c>    195.08000000</c><c>     16.00000000</c><c>  PAW_PBE Pt_pv 12Dec2005               </c></rc>
   </set>
  </array>
 </atominfo>
 <structure name="initialpos" >
  <crystal>
   <varray name="basis" >
    <v>       2.72203723       0.00000000       0.00000000 </v>
    <v>      -1.36101862       2.35735339       0.00000000 </v>
    <v>       0.00000000       0.00000000       4.71586607 </v>
   </varray>
   <i name="volume">     30.26078687 </i>
   <varray name="rec_basis" >
    <v>       0.36737190       0.21210227       0.00000000 </v>
    <v>       0.00000000       0.42420453       0.00000000 </v>
    <v>       0.00000000       0.00000000       0.21205013 </v>
   </varray>
  </crystal>
  <varray name="positions" >
   <v>       0.00000000       0.00000000       0.00000000 </v>
   <v>       0.33333333       0.66666667       0.50000000 </v>
  </varray>
 </structure>
 <calculation>
  <scstep>
   <time name="dav">    0.31    0.31</time>
   <time name="total">    0.32    0.32</time>
   <energy>
    <i name="alphaZ">    317.15217064 </i>
    <i name="ewald">  -4302.47563578 </i>
    <i name="hartreedc">   -790.72152601 </i>
    <i name="XCdc">    127.76117996 </i>
    <i name="pawpsdc">   4131.50523274 </i>
    <i name="pawaedc">  -4061.67189606 </i>
    <i name="eentropy">     -0.00085554 </i>
    <i name="bandstr">   -134.85141005 </i>
    <i name="atom">   4856.42966544 </i>
    <i name="e_fr_energy">    143.12692535 </i>
    <i name="e_wo_entrp">    143.12778089 </i>
    <i name="e_0_energy">    143.12735312 </i>
   </energy>
  </scstep>
  <scstep>
   <time name="dav">    0.33    0.33</time>
   <time name="total">    0.33    0.33</time>
   <energy>
    <i name="e_fr_energy">    -11.32267559 </i>
    <i name="e_wo_entrp">    -11.31944688 </i>
    <i name="e_0_energy">    -11.32106124 </i>
   </energy>
  </scstep>
  <scstep>
   <time name="dav">    0.52    0.52</time>
   <time name="total">    0.52    0.52</time>
   <energy>
    <i name="e_fr_energy">    -12.68723403 </i>
    <i name="e_wo_entrp">    -12.68323154 </i>
    <i name="e_0_energy">    -12.68523279 </i>
   </energy>
  </scstep>
  <scstep>
   <time name="dav">    0.56    0.56</time>
   <time name="total">    0.56    0.56</time>
   <energy>
    <i name="e_fr_energy">    -12.69064302 </i>
    <i name="e_wo_entrp">    -12.68662895 </i>
    <i name="e_0_energy">    -12.68863598 </i>
   </energy>
  </scstep>
  <scstep>
   <time name="dav">    0.59    0.59</time>
   <time name="total">    0.62    0.62</time>
   <energy>
    <i name="e_fr_energy">    -12.69064387 </i>
    <i name="e_wo_entrp">    -12.68662980 </i>
    <i name="e_0_energy">    -12.68863683 </i>
   </energy>
  </scstep>
  <scstep>
   <time name="dav">    0.34    0.34</time>
   <time name="total">    0.36    0.37</time>
   <energy>
    <i name="e_fr_energy">    -12.03647598 </i>
    <i name="e_wo_entrp">    -12.03230880 </i>
    <i name="e_0_energy">    -12.03439239 </i>
   </energy>
  </scstep>
  <scstep>
   <time name="dav">    0.50    0.50</time>
   <time name="total">    0.53    0.53</time>
   <energy>
    <i name="e_fr_energy">    -11.99878968 </i>
    <i name="e_wo_entrp">    -11.99442244 </i>
    <i name="e_0_energy">    -11.99660606 </i>
   </energy>
  </scstep>
  <scstep>
   <time name="dav">    0.35    0.35</time>
   <time name="total">    0.38    0.38</time>
   <energy>
    <i name="e_fr_energy">    -11.99625119 </i>
    <i name="e_wo_entrp">    -11.99185741 </i>
    <i name="e_0_energy">    -11.99405430 </i>
   </energy>
  </scstep>
  <scstep>
   <time name="dav">    0.47    0.47</time>
   <time name="total">    0.50    0.50</time>
   <energy>
    <i name="e_fr_energy">    -11.99606407 </i>
    <i name="e_wo_entrp">    -11.99168877 </i>
    <i name="e_0_energy">    -11.99387642 </i>
   </energy>
  </scstep>
  <scstep>
   <time name="dav">    0.44    0.44</time>
   <time name="total">    0.47    0.47</time>
   <energy>
    <i name="e_fr_energy">    -11.99607676 </i>
    <i name="e_wo_entrp">    -11.99170466 </i>
    <i name="e_0_energy">    -11.99389071 </i>
   </energy>
  </scstep>
  <scstep>
   <time name="dav">    0.34    0.34</time>
   <time name="total">    0.34    0.34</time>
   <energy>
    <i name="alphaZ">    317.15217064 </i>
    <i name="ewald">  -4302.47563578 </i>
    <i name="hartreedc">   -752.56956381 </i>
    <i name="XCdc">    126.07571576 </i>
    <i name="pawpsdc">   4754.00279729 </i>
    <i name="pawaedc">  -4689.53393186 </i>
    <i name="eentropy">     -0.00437270 </i>
    <i name="bandstr">   -321.07292116 </i>
    <i name="atom">   4856.42966544 </i>
    <i name="e_fr_energy">    -11.99607618 </i>
    <i name="e_wo_entrp">    -11.99170348 </i>
    <i name="e_0_energy">    -11.99388983 </i>
   </energy>
  </scstep>
  <structure>
   <crystal>
    <varray name="basis" >
     <v>       2.72203723       0.00000000       0.00000000 </v>
     <v>      -1.36101862       2.35735339       0.00000000 </v>
     <v>       0.00000000       0.00000000       4.71586607 </v>
    </varray>
    <i name="volume">     30.26078687 </i>
    <varray name="rec_basis" >
     <v>       0.36737190       0.21210227       0.00000000 </v>
     <v>       0.00000000       0.42420453       0.00000000 </v>
     <v>       0.00000000       0.00000000       0.21205013 </v>
    </varray>
   </crystal>
   <varray name="positions" >
    <v>       0.00000000       0.00000000       0.00000000 </v>
    <v>       0.33333333       0.66666667       0.50000000 </v>
   </varray>
  </structure>
  <varray name="forces" >
   <v>       0.00000000      -0.00000000       0.00000000 </v>
   <v>      -0.00000000       0.00000000       0.00000000 </v>
  </varray>
  <varray name="stress" >
   <v>      97.76711696       0.00000000       0.00000000 </v>
   <v>      -0.00000000      97.76711696       0.00000000 </v>
   <v>       0.00000000       0.00000000      84.06816360 </v>
  </varray>
  <energy>
   <i name="e_fr_energy">    -11.99607618 </i>
   <i name="e_wo_entrp">    -11.99170348 </i>
   <i name="e_0_energy">    -11.99388983 </i>
  </energy>
  <time name="totalsc">    5.28    5.41</time>
  <eigenvalues>
   <array>
    <dimension dim="1">band</dimension>
    <dimension dim="2">kpoint</dimension>
    <dimension dim="3">spin</dimension>
    <field>eigene</field>
    <field>occ</field>
    <set>
     <set comment="spin 1">
      <set comment="kpoint 1">
       <r>  -40.8314    1.0000 </r>
       <r>  -40.6019    1.0000 </r>
       <r>  -40.6019    1.0000 </r>
       <r>  -40.5555    1.0000 </r>
       <r>  -40.5555    1.0000 </r>
       <r>  -40.4418    1.0000 </r>
       <r>    1.7821    1.0000 </r>
       <r>    4.4737    1.0000 </r>
       <r>    7.7626    1.0000 </r>
       <r>    8.2983    1.0000 </r>
       <r>    8.2983    1.0000 </r>
       <r>    8.6944    1.0000 </r>
       <r>    8.6944    1.0000 </r>
       <r>   10.0310    1.0000 </r>
       <r>   10.0310    1.0000 </r>
       <r>   11.0720    1.0000 </r>
       <r>   11.7384    1.0000 </r>
       <r>   11.7384    1.0000 </r>
       <r>   16.9522    0.0000 </r>
       <r>   26.9766    0.0000 </r>
       <r>   27.6562    0.0000 </r>
       <r>   29.2194    0.0000 </r>
       <r>   33.4500    0.0000 </r>
       <r>   33.4500    0.0000 </r>
      </set>
      <set comment="kpoint 2">
       <r>  -40.8178    1.0000 </r>
       <r>  -40.6450    1.0000 </r>
       <r>  -40.6146    1.0000 </r>
       <r>  -40.5986    1.0000 </r>
       <r>  -40.5639    1.0000 </r>
       <r>  -40.4448    1.0000 </r>
       <r>    2.1585    1.0000 </r>
       <r>    4.8160    1.0000 </r>
       <r>    7.6891    1.0000 </r>
       <r>    8.3085    1.0000 </r>
       <r>    8.5338    1.0000 </r>
       <r>    8.5912    1.0000 </r>
       <r>    8.9738    1.0000 </r>
       <r>    9.3881    1.0000 </r>
       <r>    9.8465    1.0000 </r>
       <r>    9.9902    1.0000 </r>
       <r>   11.8076    1.0000 </r>
       <r>   13.5242    0.0000 </r>
       <r>   16.9093    0.0000 </r>
       <r>   27.4870    0.0000 </r>
       <r>   28.2053    0.0000 </r>
       <r>   29.6620    0.0000 </r>
       <r>   31.7156    0.0000 </r>
       <r>   31.9218    0.0000 </r>
      </set>
      <set comment="kpoint 3">
       <r>  -40.7787    1.0000 </r>
       <r>  -40.7555    1.0000 </r>
       <r>  -40.7094    1.0000 </r>
       <r>  -40.6461    1.0000 </r>
       <r>  -40.5865    1.0000 </r>
       <r>  -40.4545    1.0000 </r>
       <r>    3.1798    1.0000 </r>
       <r>    5.5620    1.0000 </r>
       <r>    7.4443    1.0000 </r>
       <r>    7.9424    1.0000 </r>
       <r>    8.0086    1.0000 </r>
       <r>    8.9736    1.0000 </r>
       <r>    9.4239    1.0000 </r>
       <r>    9.4392    1.0000 </r>
       <r>    9.4512    1.0000 </r>
       <r>    9.7602    1.0000 </r>
       <r>   11.9189    0.8896 </r>
       <r>   15.7844    0.0000 </r>
       <r>   16.8189    0.0000 </r>
       <r>   26.3221    0.0000 </r>
       <r>   28.8200    0.0000 </r>
       <r>   29.4273    0.0000 </r>
       <r>   30.1303    0.0000 </r>
       <r>   30.3097    0.0000 </r>
      </set>
      <set comment="kpoint 4">
       <r>  -40.8917    1.0000 </r>
       <r>  -40.8447    1.0000 </r>
       <r>  -40.7253    1.0000 </r>
       <r>  -40.6845    1.0000 </r>
       <r>  -40.6155    1.0000 </r>
       <r>  -40.4739    1.0000 </r>
       <r>    4.4119    1.0000 </r>
       <r>    5.6714    1.0000 </r>
       <r>    6.8220    1.0000 </r>
       <r>    7.7276    1.0000 </r>
       <r>    8.1137    1.0000 </r>
       <r>    8.9087    1.0000 </r>
       <r>    9.0201    1.0000 </r>
       <r>   10.1998    1.0000 </r>
       <r>   10.6239    1.0000 </r>
       <r>   10.8779    1.0000 </r>
       <r>   11.9790    0.3167 </r>
       <r>   16.9056    0.0000 </r>
       <r>   18.0699    0.0000 </r>
       <r>   22.5940    0.0000 </r>
       <r>   26.9629    0.0000 </r>
       <r>   27.2718    0.0000 </r>
       <r>   29.3717    0.0000 </r>
       <r>   30.2312    0.0000 </r>
      </set>
      <set comment="kpoint 5">
       <r>  -41.0015    1.0000 </r>
       <r>  -40.9518    1.0000 </r>
       <r>  -40.7148    1.0000 </r>
       <r>  -40.6709    1.0000 </r>
       <r>  -40.6395    1.0000 </r>
       <r>  -40.5003    1.0000 </r>
       <r>    5.0582    1.0000 </r>
       <r>    5.3396    1.0000 </r>
       <r>    6.1266    1.0000 </r>
       <r>    8.2811    1.0000 </r>
       <r>    8.5131    1.0000 </r>
       <r>    8.7230    1.0000 </r>
       <r>    8.9627    1.0000 </r>
       <r>   11.7897    1.0000 </r>
       <r>   11.9829    0.2784 </r>
       <r>   11.9930    0.1913 </r>
       <r>   12.1827    0.0000 </r>
       <r>   17.6614    0.0000 </r>
       <r>   18.9080    0.0000 </r>
       <r>   20.0744    0.0000 </r>
       <r>   24.8226    0.0000 </r>
       <r>   24.9643    0.0000 </r>
       <r>   25.9739    0.0000 </r>
       <r>   28.9641    0.0000 </r>
      </set>
      <set comment="kpoint 6">
       <r>  -41.0435    1.0000 </r>
       <r>  -40.9911    1.0000 </r>
       <r>  -40.7258    1.0000 </r>
       <r>  -40.6489    1.0000 </r>
       <r>  -40.6430    1.0000 </r>
       <r>  -40.5166    1.0000 </r>
       <r>    5.1149    1.0000 </r>
       <r>    5.2296    1.0000 </r>
       <r>    5.8912    1.0000 </r>
       <r>    8.3701    1.0000 </r>
       <r>    8.6169    1.0000 </r>
       <r>    8.8395    1.0000 </r>
       <r>    9.1637    1.0000 </r>
       <r>   11.9932    0.1900 </r>
       <r>   12.2834    0.0000 </r>
       <r>   12.5036    0.0000 </r>
       <r>   14.3180    0.0000 </r>
       <r>   15.8602    0.0000 </r>
       <r>   19.4562    0.0000 </r>
       <r>   21.0244    0.0000 </r>
       <r>   21.8729    0.0000 </r>
       <r>   24.1387    0.0000 </r>
       <r>   25.3866    0.0000 </r>
       <r>   28.3573    0.0000 </r>
      </set>
      <set comment="kpoint 7">
       <r>  -40.7910    1.0000 </r>
       <r>  -40.7140    1.0000 </r>
       <r>  -40.6840    1.0000 </r>
       <r>  -40.6293    1.0000 </r>
       <r>  -40.5854    1.0000 </r>
       <r>  -40.4511    1.0000 </r>
       <r>    2.8665    1.0000 </r>
       <r>    5.4124    1.0000 </r>
       <r>    7.3996    1.0000 </r>
       <r>    8.2184    1.0000 </r>
       <r>    8.3689    1.0000 </r>
       <r>    8.5441    1.0000 </r>
       <r>    9.2129    1.0000 </r>
       <r>    9.2199    1.0000 </r>
       <r>    9.6000    1.0000 </r>
       <r>    9.9097    1.0000 </r>
       <r>   11.8329    0.9999 </r>
       <r>   15.1907    0.0000 </r>
       <r>   16.8448    0.0000 </r>
       <r>   27.6113    0.0000 </r>
       <r>   28.4168    0.0000 </r>
       <r>   29.1398    0.0000 </r>
       <r>   30.1960    0.0000 </r>
       <r>   31.0768    0.0000 </r>
      </set>
      <set comment="kpoint 8">
       <r>  -40.8283    1.0000 </r>
       <r>  -40.7981    1.0000 </r>
       <r>  -40.7448    1.0000 </r>
       <r>  -40.6735    1.0000 </r>
       <r>  -40.6199    1.0000 </r>
       <r>  -40.4662    1.0000 </r>
       <r>    4.0738    1.0000 </r>
       <r>    6.0373    1.0000 </r>
       <r>    7.2119    1.0000 </r>
       <r>    7.2580    1.0000 </r>
       <r>    7.9328    1.0000 </r>
       <r>    8.6906    1.0000 </r>
       <r>    9.1969    1.0000 </r>
       <r>    9.5186    1.0000 </r>
       <r>   10.3402    1.0000 </r>
       <r>   10.7771    1.0000 </r>
       <r>   11.8359    0.9998 </r>
       <r>   16.8645    0.0000 </r>
       <r>   17.3555    0.0000 </r>
       <r>   24.5098    0.0000 </r>
       <r>   26.3953    0.0000 </r>
       <r>   28.2947    0.0000 </r>
       <r>   30.3065    0.0000 </r>
       <r>   31.1842    0.0000 </r>
      </set>
      <set comment="kpoint 9">
       <r>  -40.9467    1.0000 </r>
       <r>  -40.9053    1.0000 </r>
       <r>  -40.7195    1.0000 </r>
       <r>  -40.6896    1.0000 </r>
       <r>  -40.6526    1.0000 </r>
       <r>  -40.4900    1.0000 </r>
       <r>    5.1425    1.0000 </r>
       <r>    5.7722    1.0000 </r>
       <r>    6.4356    1.0000 </r>
       <r>    7.7442    1.0000 </r>
       <r>    8.3758    1.0000 </r>
       <r>    8.4074    1.0000 </r>
       <r>    8.9960    1.0000 </r>
       <r>   10.3694    1.0000 </r>
       <r>   11.5015    1.0000 </r>
       <r>   11.8232    1.0000 </r>
       <r>   12.2946    0.0000 </r>
       <r>   17.4360    0.0000 </r>
       <r>   19.5484    0.0000 </r>
       <r>   20.6211    0.0000 </r>
       <r>   24.2201    0.0000 </r>
       <r>   26.8621    0.0000 </r>
       <r>   27.5446    0.0000 </r>
       <r>   29.3974    0.0000 </r>
      </set>
      <set comment="kpoint 10">
       <r>  -41.0205    1.0000 </r>
       <r>  -40.9701    1.0000 </r>
       <r>  -40.7473    1.0000 </r>
       <r>  -40.6732    1.0000 </r>
       <r>  -40.6438    1.0000 </r>
       <r>  -40.5163    1.0000 </r>
       <r>    5.4166    1.0000 </r>
       <r>    5.5215    1.0000 </r>
       <r>    6.0066    1.0000 </r>
       <r>    8.3187    1.0000 </r>
       <r>    8.5676    1.0000 </r>
       <r>    8.5766    1.0000 </r>
       <r>    8.9305    1.0000 </r>
       <r>   11.6915    1.0000 </r>
       <r>   11.8055    1.0000 </r>
       <r>   12.1016    0.0000 </r>
       <r>   14.0754    0.0000 </r>
       <r>   17.1298    0.0000 </r>
       <r>   19.1326    0.0000 </r>
       <r>   21.2373    0.0000 </r>
       <r>   22.0224    0.0000 </r>
       <r>   24.4165    0.0000 </r>
       <r>   25.8850    0.0000 </r>
       <r>   28.2827    0.0000 </r>
      </set>
      <set comment="kpoint 11">
       <r>  -40.8961    1.0000 </r>
       <r>  -40.8940    1.0000 </r>
       <r>  -40.7254    1.0000 </r>
       <r>  -40.6961    1.0000 </r>
       <r>  -40.6787    1.0000 </r>
       <r>  -40.4870    1.0000 </r>
       <r>    5.3186    1.0000 </r>
       <r>    6.6506    1.0000 </r>
       <r>    6.6678    1.0000 </r>
       <r>    6.7327    1.0000 </r>
       <r>    8.1646    1.0000 </r>
       <r>    8.1707    1.0000 </r>
       <r>    9.2008    1.0000 </r>
       <r>    9.5808    1.0000 </r>
       <r>   11.4833    1.0000 </r>
       <r>   11.6422    1.0000 </r>
       <r>   12.3799    0.0000 </r>
       <r>   17.4258    0.0000 </r>
       <r>   19.4354    0.0000 </r>
       <r>   22.0718    0.0000 </r>
       <r>   22.9715    0.0000 </r>
       <r>   27.6346    0.0000 </r>
       <r>   29.1649    0.0000 </r>
       <r>   29.5493    0.0000 </r>
      </set>
      <set comment="kpoint 12">
       <r>  -40.9673    1.0000 </r>
       <r>  -40.9330    1.0000 </r>
       <r>  -40.7849    1.0000 </r>
       <r>  -40.7284    1.0000 </r>
       <r>  -40.6443    1.0000 </r>
       <r>  -40.5158    1.0000 </r>
       <r>    6.1033    1.0000 </r>
       <r>    6.2382    1.0000 </r>
       <r>    6.3004    1.0000 </r>
       <r>    7.5206    1.0000 </r>
       <r>    8.0174    1.0000 </r>
       <r>    8.6818    1.0000 </r>
       <r>    8.7442    1.0000 </r>
       <r>   10.4275    1.0000 </r>
       <r>   11.4945    1.0000 </r>
       <r>   11.9578    0.5495 </r>
       <r>   14.1443    0.0000 </r>
       <r>   18.4315    0.0000 </r>
       <r>   19.3517    0.0000 </r>
       <r>   20.9423    0.0000 </r>
       <r>   21.5759    0.0000 </r>
       <r>   26.1063    0.0000 </r>
       <r>   26.9392    0.0000 </r>
       <r>   28.0648    0.0000 </r>
      </set>
      <set comment="kpoint 13">
       <r>  -40.9931    1.0000 </r>
       <r>  -40.9423    1.0000 </r>
       <r>  -40.8141    1.0000 </r>
       <r>  -40.7470    1.0000 </r>
       <r>  -40.6149    1.0000 </r>
       <r>  -40.5364    1.0000 </r>
       <r>    6.0924    1.0000 </r>
       <r>    6.1379    1.0000 </r>
       <r>    6.2185    1.0000 </r>
       <r>    8.1233    1.0000 </r>
       <r>    8.1646    1.0000 </r>
       <r>    8.2811    1.0000 </r>
       <r>    9.0272    1.0000 </r>
       <r>   11.2430    1.0000 </r>
       <r>   11.4404    1.0000 </r>
       <r>   11.7533    1.0000 </r>
       <r>   15.7551    0.0000 </r>
       <r>   16.3318    0.0000 </r>
       <r>   19.6234    0.0000 </r>
       <r>   21.3057    0.0000 </r>
       <r>   22.7983    0.0000 </r>
       <r>   23.9227    0.0000 </r>
       <r>   26.2893    0.0000 </r>
       <r>   27.4420    0.0000 </r>
      </set>
      <set comment="kpoint 14">
       <r>  -40.9507    1.0000 </r>
       <r>  -40.9122    1.0000 </r>
       <r>  -40.8580    1.0000 </r>
       <r>  -40.8092    1.0000 </r>
       <r>  -40.5986    1.0000 </r>
       <r>  -40.5496    1.0000 </r>
       <r>    6.1883    1.0000 </r>
       <r>    6.6682    1.0000 </r>
       <r>    6.9323    1.0000 </r>
       <r>    7.3968    1.0000 </r>
       <r>    7.9678    1.0000 </r>
       <r>    8.2548    1.0000 </r>
       <r>    9.1249    1.0000 </r>
       <r>   10.8138    1.0000 </r>
       <r>   11.2615    1.0000 </r>
       <r>   11.5804    1.0000 </r>
       <r>   15.7924    0.0000 </r>
       <r>   17.0532    0.0000 </r>
       <r>   18.4736    0.0000 </r>
       <r>   22.2044    0.0000 </r>
       <r>   23.7703    0.0000 </r>
       <r>   25.0520    0.0000 </r>
       <r>   25.9223    0.0000 </r>
       <r>   26.2424    0.0000 </r>
      </set>
      <set comment="kpoint 15">
       <r>  -40.8174    1.0000 </r>
       <r>  -40.6001    1.0000 </r>
       <r>  -40.6001    1.0000 </r>
       <r>  -40.5572    1.0000 </r>
       <r>  -40.5572    1.0000 </r>
       <r>  -40.4566    1.0000 </r>
       <r>    1.9220    1.0000 </r>
       <r>    4.4571    1.0000 </r>
       <r>    7.7262    1.0000 </r>
       <r>    8.2773    1.0000 </r>
       <r>    8.2773    1.0000 </r>
       <r>    8.6524    1.0000 </r>
       <r>    8.6524    1.0000 </r>
       <r>   10.1372    1.0000 </r>
       <r>   10.1372    1.0000 </r>
       <r>   10.4549    1.0000 </r>
       <r>   11.7100    1.0000 </r>
       <r>   11.7100    1.0000 </r>
       <r>   17.8186    0.0000 </r>
       <r>   26.5243    0.0000 </r>
       <r>   28.2011    0.0000 </r>
       <r>   28.9200    0.0000 </r>
       <r>   32.7545    0.0000 </r>
       <r>   32.7545    0.0000 </r>
      </set>
      <set comment="kpoint 16">
       <r>  -40.8050    1.0000 </r>
       <r>  -40.6421    1.0000 </r>
       <r>  -40.6126    1.0000 </r>
       <r>  -40.6012    1.0000 </r>
       <r>  -40.5659    1.0000 </r>
       <r>  -40.4583    1.0000 </r>
       <r>    2.2955    1.0000 </r>
       <r>    4.8060    1.0000 </r>
       <r>    7.6921    1.0000 </r>
       <r>    8.2143    1.0000 </r>
       <r>    8.4204    1.0000 </r>
       <r>    8.5606    1.0000 </r>
       <r>    8.9271    1.0000 </r>
       <r>    9.3333    1.0000 </r>
       <r>    9.9721    1.0000 </r>
       <r>   10.0018    1.0000 </r>
       <r>   11.7671    1.0000 </r>
       <r>   12.9979    0.0000 </r>
       <r>   17.8951    0.0000 </r>
       <r>   27.0809    0.0000 </r>
       <r>   28.6732    0.0000 </r>
       <r>   29.3840    0.0000 </r>
       <r>   31.0336    0.0000 </r>
       <r>   31.7908    0.0000 </r>
      </set>
      <set comment="kpoint 17">
       <r>  -40.7836    1.0000 </r>
       <r>  -40.7381    1.0000 </r>
       <r>  -40.7129    1.0000 </r>
       <r>  -40.6440    1.0000 </r>
       <r>  -40.5890    1.0000 </r>
       <r>  -40.4654    1.0000 </r>
       <r>    3.2999    1.0000 </r>
       <r>    5.5757    1.0000 </r>
       <r>    7.4774    1.0000 </r>
       <r>    7.6797    1.0000 </r>
       <r>    8.0073    1.0000 </r>
       <r>    8.8468    1.0000 </r>
       <r>    9.2467    1.0000 </r>
       <r>    9.6199    1.0000 </r>
       <r>    9.6837    1.0000 </r>
       <r>    9.8085    1.0000 </r>
       <r>   11.8541    0.9989 </r>
       <r>   14.6102    0.0000 </r>
       <r>   18.2698    0.0000 </r>
       <r>   26.4130    0.0000 </r>
       <r>   28.6304    0.0000 </r>
       <r>   29.5840    0.0000 </r>
       <r>   29.6133    0.0000 </r>
       <r>   30.7762    0.0000 </r>
      </set>
      <set comment="kpoint 18">
       <r>  -40.8946    1.0000 </r>
       <r>  -40.8494    1.0000 </r>
       <r>  -40.7102    1.0000 </r>
       <r>  -40.6817    1.0000 </r>
       <r>  -40.6179    1.0000 </r>
       <r>  -40.4810    1.0000 </r>
       <r>    4.4631    1.0000 </r>
       <r>    5.7035    1.0000 </r>
       <r>    6.8068    1.0000 </r>
       <r>    7.5480    1.0000 </r>
       <r>    8.1405    1.0000 </r>
       <r>    9.0270    1.0000 </r>
       <r>    9.0865    1.0000 </r>
       <r>   10.2567    1.0000 </r>
       <r>   10.6470    1.0000 </r>
       <r>   10.8252    1.0000 </r>
       <r>   11.9035    0.9515 </r>
       <r>   15.7613    0.0000 </r>
       <r>   19.2265    0.0000 </r>
       <r>   22.8800    0.0000 </r>
       <r>   27.1333    0.0000 </r>
       <r>   27.2152    0.0000 </r>
       <r>   28.8771    0.0000 </r>
       <r>   30.7389    0.0000 </r>
      </set>
      <set comment="kpoint 19">
       <r>  -41.0029    1.0000 </r>
       <r>  -40.9567    1.0000 </r>
       <r>  -40.7119    1.0000 </r>
       <r>  -40.6605    1.0000 </r>
       <r>  -40.6424    1.0000 </r>
       <r>  -40.5037    1.0000 </r>
       <r>    4.9853    1.0000 </r>
       <r>    5.3441    1.0000 </r>
       <r>    6.3000    1.0000 </r>
       <r>    7.6002    1.0000 </r>
       <r>    8.7551    1.0000 </r>
       <r>    8.8136    1.0000 </r>
       <r>    9.5387    1.0000 </r>
       <r>   11.7067    1.0000 </r>
       <r>   11.8062    1.0000 </r>
       <r>   12.0899    0.0002 </r>
       <r>   12.0944    0.0001 </r>
       <r>   16.7721    0.0000 </r>
       <r>   18.9494    0.0000 </r>
       <r>   20.9170    0.0000 </r>
       <r>   24.5300    0.0000 </r>
       <r>   25.2581    0.0000 </r>
       <r>   26.3239    0.0000 </r>
       <r>   29.1768    0.0000 </r>
      </set>
      <set comment="kpoint 20">
       <r>  -41.0448    1.0000 </r>
       <r>  -40.9960    1.0000 </r>
       <r>  -40.7229    1.0000 </r>
       <r>  -40.6516    1.0000 </r>
       <r>  -40.6354    1.0000 </r>
       <r>  -40.5184    1.0000 </r>
       <r>    5.0532    1.0000 </r>
       <r>    5.1474    1.0000 </r>
       <r>    6.1385    1.0000 </r>
       <r>    7.6647    1.0000 </r>
       <r>    8.7130    1.0000 </r>
       <r>    8.9150    1.0000 </r>
       <r>   10.0085    1.0000 </r>
       <r>   11.7988    1.0000 </r>
       <r>   12.3055    0.0000 </r>
       <r>   12.4966    0.0000 </r>
       <r>   14.0573    0.0000 </r>
       <r>   15.7350    0.0000 </r>
       <r>   19.3309    0.0000 </r>
       <r>   20.1294    0.0000 </r>
       <r>   23.0247    0.0000 </r>
       <r>   24.4480    0.0000 </r>
       <r>   25.5234    0.0000 </r>
       <r>   28.6376    0.0000 </r>
      </set>
      <set comment="kpoint 21">
       <r>  -40.7845    1.0000 </r>
       <r>  -40.7070    1.0000 </r>
       <r>  -40.6857    1.0000 </r>
       <r>  -40.6291    1.0000 </r>
       <r>  -40.5877    1.0000 </r>
       <r>  -40.4626    1.0000 </r>
       <r>    2.9946    1.0000 </r>
       <r>    5.4181    1.0000 </r>
       <r>    7.4331    1.0000 </r>
       <r>    7.9096    1.0000 </r>
       <r>    8.2994    1.0000 </r>
       <r>    8.5352    1.0000 </r>
       <r>    9.1386    1.0000 </r>
       <r>    9.3728    1.0000 </r>
       <r>    9.6895    1.0000 </r>
       <r>    9.9892    1.0000 </r>
       <r>   11.7781    1.0000 </r>
       <r>   14.2363    0.0000 </r>
       <r>   18.1274    0.0000 </r>
       <r>   27.5322    0.0000 </r>
       <r>   28.4721    0.0000 </r>
       <r>   29.1108    0.0000 </r>
       <r>   29.7442    0.0000 </r>
       <r>   31.3335    0.0000 </r>
      </set>
      <set comment="kpoint 22">
       <r>  -40.8341    1.0000 </r>
       <r>  -40.8018    1.0000 </r>
       <r>  -40.7266    1.0000 </r>
       <r>  -40.6723    1.0000 </r>
       <r>  -40.6223    1.0000 </r>
       <r>  -40.4743    1.0000 </r>
       <r>    4.1663    1.0000 </r>
       <r>    6.0759    1.0000 </r>
       <r>    7.0733    1.0000 </r>
       <r>    7.2827    1.0000 </r>
       <r>    7.8952    1.0000 </r>
       <r>    8.5904    1.0000 </r>
       <r>    9.3493    1.0000 </r>
       <r>    9.5084    1.0000 </r>
       <r>   10.4588    1.0000 </r>
       <r>   10.7203    1.0000 </r>
       <r>   11.7809    1.0000 </r>
       <r>   15.4819    0.0000 </r>
       <r>   18.8943    0.0000 </r>
       <r>   24.6959    0.0000 </r>
       <r>   26.5283    0.0000 </r>
       <r>   28.2656    0.0000 </r>
       <r>   29.7760    0.0000 </r>
       <r>   31.7294    0.0000 </r>
      </set>
      <set comment="kpoint 23">
       <r>  -40.9491    1.0000 </r>
       <r>  -40.9098    1.0000 </r>
       <r>  -40.7185    1.0000 </r>
       <r>  -40.6774    1.0000 </r>
       <r>  -40.6551    1.0000 </r>
       <r>  -40.4946    1.0000 </r>
       <r>    5.1171    1.0000 </r>
       <r>    5.8099    1.0000 </r>
       <r>    6.5120    1.0000 </r>
       <r>    7.4437    1.0000 </r>
       <r>    8.3579    1.0000 </r>
       <r>    8.7573    1.0000 </r>
       <r>    9.0121    1.0000 </r>
       <r>   10.3862    1.0000 </r>
       <r>   11.5520    1.0000 </r>
       <r>   11.6157    1.0000 </r>
       <r>   12.3619    0.0000 </r>
       <r>   16.5994    0.0000 </r>
       <r>   19.8171    0.0000 </r>
       <r>   21.4013    0.0000 </r>
       <r>   24.3558    0.0000 </r>
       <r>   26.5454    0.0000 </r>
       <r>   27.6658    0.0000 </r>
       <r>   29.6304    0.0000 </r>
      </set>
      <set comment="kpoint 24">
       <r>  -41.0216    1.0000 </r>
       <r>  -40.9748    1.0000 </r>
       <r>  -40.7455    1.0000 </r>
       <r>  -40.6767    1.0000 </r>
       <r>  -40.6347    1.0000 </r>
       <r>  -40.5176    1.0000 </r>
       <r>    5.2935    1.0000 </r>
       <r>    5.4877    1.0000 </r>
       <r>    6.2919    1.0000 </r>
       <r>    7.6035    1.0000 </r>
       <r>    8.4361    1.0000 </r>
       <r>    9.0461    1.0000 </r>
       <r>    9.4610    1.0000 </r>
       <r>   11.5743    1.0000 </r>
       <r>   11.6975    1.0000 </r>
       <r>   12.1481    0.0000 </r>
       <r>   14.0223    0.0000 </r>
       <r>   16.9057    0.0000 </r>
       <r>   18.8061    0.0000 </r>
       <r>   21.1573    0.0000 </r>
       <r>   22.5045    0.0000 </r>
       <r>   24.6858    0.0000 </r>
       <r>   26.0954    0.0000 </r>
       <r>   28.3983    0.0000 </r>
      </set>
      <set comment="kpoint 25">
       <r>  -40.8984    1.0000 </r>
       <r>  -40.8974    1.0000 </r>
       <r>  -40.7253    1.0000 </r>
       <r>  -40.6908    1.0000 </r>
       <r>  -40.6732    1.0000 </r>
       <r>  -40.4913    1.0000 </r>
       <r>    5.3495    1.0000 </r>
       <r>    6.4824    1.0000 </r>
       <r>    6.7517    1.0000 </r>
       <r>    6.8435    1.0000 </r>
       <r>    8.1575    1.0000 </r>
       <r>    8.1736    1.0000 </r>
       <r>    9.0745    1.0000 </r>
       <r>    9.7409    1.0000 </r>
       <r>   11.4093    1.0000 </r>
       <r>   11.6036    1.0000 </r>
       <r>   12.4597    0.0000 </r>
       <r>   16.6120    0.0000 </r>
       <r>   20.0546    0.0000 </r>
       <r>   22.5456    0.0000 </r>
       <r>   23.1451    0.0000 </r>
       <r>   27.5264    0.0000 </r>
       <r>   28.3143    0.0000 </r>
       <r>   30.2298    0.0000 </r>
      </set>
      <set comment="kpoint 26">
       <r>  -40.9682    1.0000 </r>
       <r>  -40.9372    1.0000 </r>
       <r>  -40.7854    1.0000 </r>
       <r>  -40.7324    1.0000 </r>
       <r>  -40.6339    1.0000 </r>
       <r>  -40.5165    1.0000 </r>
       <r>    5.9145    1.0000 </r>
       <r>    6.3117    1.0000 </r>
       <r>    6.4933    1.0000 </r>
       <r>    7.2995    1.0000 </r>
       <r>    8.1727    1.0000 </r>
       <r>    8.5744    1.0000 </r>
       <r>    8.8888    1.0000 </r>
       <r>   10.4924    1.0000 </r>
       <r>   11.2741    1.0000 </r>
       <r>   12.0701    0.0011 </r>
       <r>   14.1905    0.0000 </r>
       <r>   18.4719    0.0000 </r>
       <r>   18.6508    0.0000 </r>
       <r>   21.0353    0.0000 </r>
       <r>   22.4045    0.0000 </r>
       <r>   25.6019    0.0000 </r>
       <r>   26.9526    0.0000 </r>
       <r>   28.2099    0.0000 </r>
      </set>
      <set comment="kpoint 27">
       <r>  -40.9934    1.0000 </r>
       <r>  -40.9470    1.0000 </r>
       <r>  -40.8141    1.0000 </r>
       <r>  -40.7510    1.0000 </r>
       <r>  -40.6072    1.0000 </r>
       <r>  -40.5350    1.0000 </r>
       <r>    5.8423    1.0000 </r>
       <r>    6.1870    1.0000 </r>
       <r>    6.5904    1.0000 </r>
       <r>    7.5320    1.0000 </r>
       <r>    8.0195    1.0000 </r>
       <r>    8.7765    1.0000 </r>
       <r>    9.2023    1.0000 </r>
       <r>   11.2115    1.0000 </r>
       <r>   11.2705    1.0000 </r>
       <r>   11.8356    0.9998 </r>
       <r>   15.8335    0.0000 </r>
       <r>   16.3644    0.0000 </r>
       <r>   19.7405    0.0000 </r>
       <r>   20.9907    0.0000 </r>
       <r>   21.9645    0.0000 </r>
       <r>   25.0138    0.0000 </r>
       <r>   26.5498    0.0000 </r>
       <r>   26.7702    0.0000 </r>
      </set>
      <set comment="kpoint 28">
       <r>  -40.9496    1.0000 </r>
       <r>  -40.9168    1.0000 </r>
       <r>  -40.8606    1.0000 </r>
       <r>  -40.8132    1.0000 </r>
       <r>  -40.5914    1.0000 </r>
       <r>  -40.5468    1.0000 </r>
       <r>    6.2279    1.0000 </r>
       <r>    6.6442    1.0000 </r>
       <r>    6.9640    1.0000 </r>
       <r>    7.2698    1.0000 </r>
       <r>    8.1079    1.0000 </r>
       <r>    8.1507    1.0000 </r>
       <r>    9.1339    1.0000 </r>
       <r>   10.9125    1.0000 </r>
       <r>   11.0308    1.0000 </r>
       <r>   11.6830    1.0000 </r>
       <r>   15.8925    0.0000 </r>
       <r>   17.2010    0.0000 </r>
       <r>   18.7447    0.0000 </r>
       <r>   21.3143    0.0000 </r>
       <r>   24.0067    0.0000 </r>
       <r>   24.0674    0.0000 </r>
       <r>   25.9899    0.0000 </r>
       <r>   27.2750    0.0000 </r>
      </set>
      <set comment="kpoint 29">
       <r>  -40.7755    1.0000 </r>
       <r>  -40.5953    1.0000 </r>
       <r>  -40.5953    1.0000 </r>
       <r>  -40.5624    1.0000 </r>
       <r>  -40.5624    1.0000 </r>
       <r>  -40.4994    1.0000 </r>
       <r>    2.3236    1.0000 </r>
       <r>    4.3698    1.0000 </r>
       <r>    7.6435    1.0000 </r>
       <r>    8.2437    1.0000 </r>
       <r>    8.2437    1.0000 </r>
       <r>    8.5447    1.0000 </r>
       <r>    8.5447    1.0000 </r>
       <r>    9.2816    1.0000 </r>
       <r>   10.4121    1.0000 </r>
       <r>   10.4121    1.0000 </r>
       <r>   11.6108    1.0000 </r>
       <r>   11.6108    1.0000 </r>
       <r>   19.7566    0.0000 </r>
       <r>   26.0337    0.0000 </r>
       <r>   28.2786    0.0000 </r>
       <r>   28.6068    0.0000 </r>
       <r>   32.1740    0.0000 </r>
       <r>   32.1740    0.0000 </r>
      </set>
      <set comment="kpoint 30">
       <r>  -40.7679    1.0000 </r>
       <r>  -40.6342    1.0000 </r>
       <r>  -40.6095    1.0000 </r>
       <r>  -40.6069    1.0000 </r>
       <r>  -40.5713    1.0000 </r>
       <r>  -40.4954    1.0000 </r>
       <r>    2.6899    1.0000 </r>
       <r>    4.7339    1.0000 </r>
       <r>    7.6747    1.0000 </r>
       <r>    8.0504    1.0000 </r>
       <r>    8.1291    1.0000 </r>
       <r>    8.5125    1.0000 </r>
       <r>    8.8130    1.0000 </r>
       <r>    8.9216    1.0000 </r>
       <r>   10.2827    1.0000 </r>
       <r>   10.2846    1.0000 </r>
       <r>   11.6362    1.0000 </r>
       <r>   12.2697    0.0000 </r>
       <r>   19.9014    0.0000 </r>
       <r>   26.5859    0.0000 </r>
       <r>   28.7456    0.0000 </r>
       <r>   29.0247    0.0000 </r>
       <r>   30.7514    0.0000 </r>
       <r>   31.6786    0.0000 </r>
      </set>
      <set comment="kpoint 31">
       <r>  -40.7828    1.0000 </r>
       <r>  -40.7263    1.0000 </r>
       <r>  -40.6969    1.0000 </r>
       <r>  -40.6375    1.0000 </r>
       <r>  -40.5952    1.0000 </r>
       <r>  -40.4951    1.0000 </r>
       <r>    3.6472    1.0000 </r>
       <r>    5.5611    1.0000 </r>
       <r>    7.2787    1.0000 </r>
       <r>    7.5950    1.0000 </r>
       <r>    7.7639    1.0000 </r>
       <r>    8.6370    1.0000 </r>
       <r>    9.1589    1.0000 </r>
       <r>    9.5448    1.0000 </r>
       <r>   10.1328    1.0000 </r>
       <r>   10.1564    1.0000 </r>
       <r>   11.6629    1.0000 </r>
       <r>   13.3410    0.0000 </r>
       <r>   20.3282    0.0000 </r>
       <r>   26.6755    0.0000 </r>
       <r>   28.1652    0.0000 </r>
       <r>   28.9732    0.0000 </r>
       <r>   30.0599    0.0000 </r>
       <r>   30.9901    0.0000 </r>
      </set>
      <set comment="kpoint 32">
       <r>  -40.8993    1.0000 </r>
       <r>  -40.8613    1.0000 </r>
       <r>  -40.6743    1.0000 </r>
       <r>  -40.6734    1.0000 </r>
       <r>  -40.6256    1.0000 </r>
       <r>  -40.5019    1.0000 </r>
       <r>    4.6209    1.0000 </r>
       <r>    5.7435    1.0000 </r>
       <r>    6.6956    1.0000 </r>
       <r>    7.2717    1.0000 </r>
       <r>    8.2696    1.0000 </r>
       <r>    9.1313    1.0000 </r>
       <r>    9.2773    1.0000 </r>
       <r>   10.5021    1.0000 </r>
       <r>   10.5683    1.0000 </r>
       <r>   10.8170    1.0000 </r>
       <r>   11.7059    1.0000 </r>
       <r>   14.2902    0.0000 </r>
       <r>   20.7321    0.0000 </r>
       <r>   23.7042    0.0000 </r>
       <r>   26.3957    0.0000 </r>
       <r>   27.9389    0.0000 </r>
       <r>   28.7590    0.0000 </r>
       <r>   30.1357    0.0000 </r>
      </set>
      <set comment="kpoint 33">
       <r>  -41.0055    1.0000 </r>
       <r>  -40.9690    1.0000 </r>
       <r>  -40.7037    1.0000 </r>
       <r>  -40.6504    1.0000 </r>
       <r>  -40.6339    1.0000 </r>
       <r>  -40.5155    1.0000 </r>
       <r>    4.8923    1.0000 </r>
       <r>    5.3807    1.0000 </r>
       <r>    6.5257    1.0000 </r>
       <r>    6.9432    1.0000 </r>
       <r>    9.0456    1.0000 </r>
       <r>    9.0798    1.0000 </r>
       <r>   10.4423    1.0000 </r>
       <r>   11.2380    1.0000 </r>
       <r>   11.8232    1.0000 </r>
       <r>   11.8476    0.9994 </r>
       <r>   12.0981    0.0001 </r>
       <r>   15.2650    0.0000 </r>
       <r>   19.2946    0.0000 </r>
       <r>   21.7163    0.0000 </r>
       <r>   24.4388    0.0000 </r>
       <r>   26.0774    0.0000 </r>
       <r>   26.9379    0.0000 </r>
       <r>   29.5320    0.0000 </r>
      </set>
      <set comment="kpoint 34">
       <r>  -41.0464    1.0000 </r>
       <r>  -41.0089    1.0000 </r>
       <r>  -40.7149    1.0000 </r>
       <r>  -40.6598    1.0000 </r>
       <r>  -40.6139    1.0000 </r>
       <r>  -40.5245    1.0000 </r>
       <r>    4.8704    1.0000 </r>
       <r>    5.2107    1.0000 </r>
       <r>    6.4390    1.0000 </r>
       <r>    6.8907    1.0000 </r>
       <r>    8.9960    1.0000 </r>
       <r>    9.2482    1.0000 </r>
       <r>   11.2115    1.0000 </r>
       <r>   11.3133    1.0000 </r>
       <r>   12.3374    0.0000 </r>
       <r>   12.4759    0.0000 </r>
       <r>   13.3213    0.0000 </r>
       <r>   15.3349    0.0000 </r>
       <r>   19.0559    0.0000 </r>
       <r>   19.3152    0.0000 </r>
       <r>   24.5196    0.0000 </r>
       <r>   25.2991    0.0000 </r>
       <r>   25.8726    0.0000 </r>
       <r>   29.3772    0.0000 </r>
      </set>
      <set comment="kpoint 35">
       <r>  -40.7662    1.0000 </r>
       <r>  -40.6922    1.0000 </r>
       <r>  -40.6848    1.0000 </r>
       <r>  -40.6266    1.0000 </r>
       <r>  -40.5934    1.0000 </r>
       <r>  -40.4944    1.0000 </r>
       <r>    3.3650    1.0000 </r>
       <r>    5.3824    1.0000 </r>
       <r>    7.4858    1.0000 </r>
       <r>    7.5373    1.0000 </r>
       <r>    7.8975    1.0000 </r>
       <r>    8.5242    1.0000 </r>
       <r>    9.0238    1.0000 </r>
       <r>    9.3362    1.0000 </r>
       <r>   10.1442    1.0000 </r>
       <r>   10.2245    1.0000 </r>
       <r>   11.6112    1.0000 </r>
       <r>   13.0907    0.0000 </r>
       <r>   20.2027    0.0000 </r>
       <r>   27.2849    0.0000 </r>
       <r>   28.6826    0.0000 </r>
       <r>   29.0968    0.0000 </r>
       <r>   29.1332    0.0000 </r>
       <r>   30.8583    0.0000 </r>
      </set>
      <set comment="kpoint 36">
       <r>  -40.8413    1.0000 </r>
       <r>  -40.8105    1.0000 </r>
       <r>  -40.6872    1.0000 </r>
       <r>  -40.6675    1.0000 </r>
       <r>  -40.6282    1.0000 </r>
       <r>  -40.4977    1.0000 </r>
       <r>    4.4349    1.0000 </r>
       <r>    6.1293    1.0000 </r>
       <r>    6.7723    1.0000 </r>
       <r>    7.3748    1.0000 </r>
       <r>    7.7240    1.0000 </r>
       <r>    8.4456    1.0000 </r>
       <r>    9.3097    1.0000 </r>
       <r>    9.9197    1.0000 </r>
       <r>   10.6061    1.0000 </r>
       <r>   10.6961    1.0000 </r>
       <r>   11.6292    1.0000 </r>
       <r>   14.0625    0.0000 </r>
       <r>   20.7649    0.0000 </r>
       <r>   25.2351    0.0000 </r>
       <r>   26.7754    0.0000 </r>
       <r>   28.1092    0.0000 </r>
       <r>   29.2341    0.0000 </r>
       <r>   30.0572    0.0000 </r>
      </set>
      <set comment="kpoint 37">
       <r>  -40.9524    1.0000 </r>
       <r>  -40.9211    1.0000 </r>
       <r>  -40.7133    1.0000 </r>
       <r>  -40.6671    1.0000 </r>
       <r>  -40.6422    1.0000 </r>
       <r>  -40.5085    1.0000 </r>
       <r>    5.1112    1.0000 </r>
       <r>    5.8689    1.0000 </r>
       <r>    6.5423    1.0000 </r>
       <r>    7.1505    1.0000 </r>
       <r>    8.4028    1.0000 </r>
       <r>    9.0605    1.0000 </r>
       <r>    9.2300    1.0000 </r>
       <r>   10.5067    1.0000 </r>
       <r>   11.1121    1.0000 </r>
       <r>   11.7881    1.0000 </r>
       <r>   12.3964    0.0000 </r>
       <r>   15.1499    0.0000 </r>
       <r>   20.3973    0.0000 </r>
       <r>   22.8160    0.0000 </r>
       <r>   24.4601    0.0000 </r>
       <r>   26.2725    0.0000 </r>
       <r>   27.9573    0.0000 </r>
       <r>   29.3454    0.0000 </r>
      </set>
      <set comment="kpoint 38">
       <r>  -41.0234    1.0000 </r>
       <r>  -40.9871    1.0000 </r>
       <r>  -40.7394    1.0000 </r>
       <r>  -40.6862    1.0000 </r>
       <r>  -40.6112    1.0000 </r>
       <r>  -40.5232    1.0000 </r>
       <r>    5.1203    1.0000 </r>
       <r>    5.5558    1.0000 </r>
       <r>    6.6297    1.0000 </r>
       <r>    6.9179    1.0000 </r>
       <r>    8.4376    1.0000 </r>
       <r>    9.5212    1.0000 </r>
       <r>   10.1849    1.0000 </r>
       <r>   11.0764    1.0000 </r>
       <r>   11.6423    1.0000 </r>
       <r>   12.2609    0.0000 </r>
       <r>   13.8958    0.0000 </r>
       <r>   16.1532    0.0000 </r>
       <r>   18.6260    0.0000 </r>
       <r>   20.6915    0.0000 </r>
       <r>   23.6020    0.0000 </r>
       <r>   25.4095    0.0000 </r>
       <r>   26.5815    0.0000 </r>
       <r>   28.3155    0.0000 </r>
      </set>
      <set comment="kpoint 39">
       <r>  -40.9073    1.0000 </r>
       <r>  -40.9017    1.0000 </r>
       <r>  -40.7245    1.0000 </r>
       <r>  -40.6940    1.0000 </r>
       <r>  -40.6442    1.0000 </r>
       <r>  -40.5055    1.0000 </r>
       <r>    5.4449    1.0000 </r>
       <r>    6.2940    1.0000 </r>
       <r>    6.8321    1.0000 </r>
       <r>    7.0254    1.0000 </r>
       <r>    8.0709    1.0000 </r>
       <r>    8.1250    1.0000 </r>
       <r>    8.9318    1.0000 </r>
       <r>   10.2049    1.0000 </r>
       <r>   10.9402    1.0000 </r>
       <r>   11.8481    0.9994 </r>
       <r>   12.5485    0.0000 </r>
       <r>   15.2150    0.0000 </r>
       <r>   21.0890    0.0000 </r>
       <r>   23.5849    0.0000 </r>
       <r>   23.6921    0.0000 </r>
       <r>   27.2249    0.0000 </r>
       <r>   27.2377    0.0000 </r>
       <r>   29.8547    0.0000 </r>
      </set>
      <set comment="kpoint 40">
       <r>  -40.9701    1.0000 </r>
       <r>  -40.9469    1.0000 </r>
       <r>  -40.7842    1.0000 </r>
       <r>  -40.7423    1.0000 </r>
       <r>  -40.6085    1.0000 </r>
       <r>  -40.5209    1.0000 </r>
       <r>    5.7682    1.0000 </r>
       <r>    6.4559    1.0000 </r>
       <r>    6.4826    1.0000 </r>
       <r>    7.3052    1.0000 </r>
       <r>    8.0147    1.0000 </r>
       <r>    8.6482    1.0000 </r>
       <r>    9.1113    1.0000 </r>
       <r>   10.6119    1.0000 </r>
       <r>   10.8965    1.0000 </r>
       <r>   12.2805    0.0000 </r>
       <r>   14.3031    0.0000 </r>
       <r>   17.1168    0.0000 </r>
       <r>   19.1013    0.0000 </r>
       <r>   21.4930    0.0000 </r>
       <r>   23.1797    0.0000 </r>
       <r>   25.2520    0.0000 </r>
       <r>   26.4888    0.0000 </r>
       <r>   28.6493    0.0000 </r>
      </set>
      <set comment="kpoint 41">
       <r>  -40.9938    1.0000 </r>
       <r>  -40.9592    1.0000 </r>
       <r>  -40.8115    1.0000 </r>
       <r>  -40.7614    1.0000 </r>
       <r>  -40.5875    1.0000 </r>
       <r>  -40.5334    1.0000 </r>
       <r>    5.6853    1.0000 </r>
       <r>    6.3101    1.0000 </r>
       <r>    6.9188    1.0000 </r>
       <r>    7.1020    1.0000 </r>
       <r>    7.7443    1.0000 </r>
       <r>    9.1114    1.0000 </r>
       <r>    9.5426    1.0000 </r>
       <r>   10.6751    1.0000 </r>
       <r>   11.3739    1.0000 </r>
       <r>   11.9985    0.1517 </r>
       <r>   16.0658    0.0000 </r>
       <r>   16.4623    0.0000 </r>
       <r>   19.5634    0.0000 </r>
       <r>   20.2406    0.0000 </r>
       <r>   21.6909    0.0000 </r>
       <r>   25.8083    0.0000 </r>
       <r>   26.4565    0.0000 </r>
       <r>   27.1557    0.0000 </r>
      </set>
      <set comment="kpoint 42">
       <r>  -40.9468    1.0000 </r>
       <r>  -40.9269    1.0000 </r>
       <r>  -40.8638    1.0000 </r>
       <r>  -40.8232    1.0000 </r>
       <r>  -40.5749    1.0000 </r>
       <r>  -40.5414    1.0000 </r>
       <r>    6.3028    1.0000 </r>
       <r>    6.5514    1.0000 </r>
       <r>    7.0748    1.0000 </r>
       <r>    7.1593    1.0000 </r>
       <r>    7.9547    1.0000 </r>
       <r>    8.2629    1.0000 </r>
       <r>    9.1557    1.0000 </r>
       <r>   10.4651    1.0000 </r>
       <r>   11.2016    1.0000 </r>
       <r>   11.8767    0.9922 </r>
       <r>   16.1895    0.0000 </r>
       <r>   17.6560    0.0000 </r>
       <r>   19.4298    0.0000 </r>
       <r>   19.9425    0.0000 </r>
       <r>   22.5941    0.0000 </r>
       <r>   23.5733    0.0000 </r>
       <r>   26.9771    0.0000 </r>
       <r>   28.5768    0.0000 </r>
      </set>
      <set comment="kpoint 43">
       <r>  -40.7132    1.0000 </r>
       <r>  -40.5877    1.0000 </r>
       <r>  -40.5877    1.0000 </r>
       <r>  -40.5697    1.0000 </r>
       <r>  -40.5697    1.0000 </r>
       <r>  -40.5632    1.0000 </r>
       <r>    2.9231    1.0000 </r>
       <r>    4.1043    1.0000 </r>
       <r>    7.5977    1.0000 </r>
       <r>    8.2458    1.0000 </r>
       <r>    8.2458    1.0000 </r>
       <r>    8.2849    1.0000 </r>
       <r>    8.4145    1.0000 </r>
       <r>    8.4145    1.0000 </r>
       <r>   10.7688    1.0000 </r>
       <r>   10.7688    1.0000 </r>
       <r>   11.4162    1.0000 </r>
       <r>   11.4162    1.0000 </r>
       <r>   22.0492    0.0000 </r>
       <r>   25.5182    0.0000 </r>
       <r>   27.6843    0.0000 </r>
       <r>   28.0474    0.0000 </r>
       <r>   32.0961    0.0000 </r>
       <r>   32.0961    0.0000 </r>
      </set>
      <set comment="kpoint 44">
       <r>  -40.7140    1.0000 </r>
       <r>  -40.6265    1.0000 </r>
       <r>  -40.6194    1.0000 </r>
       <r>  -40.5988    1.0000 </r>
       <r>  -40.5795    1.0000 </r>
       <r>  -40.5480    1.0000 </r>
       <r>    3.2833    1.0000 </r>
       <r>    4.4759    1.0000 </r>
       <r>    7.5726    1.0000 </r>
       <r>    7.7420    1.0000 </r>
       <r>    8.0419    1.0000 </r>
       <r>    8.4805    1.0000 </r>
       <r>    8.5072    1.0000 </r>
       <r>    8.6781    1.0000 </r>
       <r>   10.6744    1.0000 </r>
       <r>   10.7336    1.0000 </r>
       <r>   11.4002    1.0000 </r>
       <r>   11.7140    1.0000 </r>
       <r>   22.2013    0.0000 </r>
       <r>   25.9471    0.0000 </r>
       <r>   28.1763    0.0000 </r>
       <r>   28.4424    0.0000 </r>
       <r>   30.7941    0.0000 </r>
       <r>   31.8274    0.0000 </r>
      </set>
      <set comment="kpoint 45">
       <r>  -40.7730    1.0000 </r>
       <r>  -40.7407    1.0000 </r>
       <r>  -40.6479    1.0000 </r>
       <r>  -40.6273    1.0000 </r>
       <r>  -40.6048    1.0000 </r>
       <r>  -40.5398    1.0000 </r>
       <r>    4.1784    1.0000 </r>
       <r>    5.3311    1.0000 </r>
       <r>    7.0465    1.0000 </r>
       <r>    7.4256    1.0000 </r>
       <r>    7.7864    1.0000 </r>
       <r>    8.3556    1.0000 </r>
       <r>    9.1677    1.0000 </r>
       <r>    9.3968    1.0000 </r>
       <r>   10.5460    1.0000 </r>
       <r>   10.7624    1.0000 </r>
       <r>   11.3588    1.0000 </r>
       <r>   12.3204    0.0000 </r>
       <r>   22.5224    0.0000 </r>
       <r>   26.5818    0.0000 </r>
       <r>   27.4658    0.0000 </r>
       <r>   28.3840    0.0000 </r>
       <r>   30.1236    0.0000 </r>
       <r>   30.8593    0.0000 </r>
      </set>
      <set comment="kpoint 46">
       <r>  -40.8986    1.0000 </r>
       <r>  -40.8766    1.0000 </r>
       <r>  -40.6629    1.0000 </r>
       <r>  -40.6368    1.0000 </r>
       <r>  -40.6262    1.0000 </r>
       <r>  -40.5351    1.0000 </r>
       <r>    4.8882    1.0000 </r>
       <r>    5.5972    1.0000 </r>
       <r>    6.6422    1.0000 </r>
       <r>    7.0483    1.0000 </r>
       <r>    8.5192    1.0000 </r>
       <r>    9.0423    1.0000 </r>
       <r>    9.5702    1.0000 </r>
       <r>   10.2814    1.0000 </r>
       <r>   10.9751    1.0000 </r>
       <r>   11.0335    1.0000 </r>
       <r>   11.4515    1.0000 </r>
       <r>   12.9642    0.0000 </r>
       <r>   22.1808    0.0000 </r>
       <r>   24.6209    0.0000 </r>
       <r>   25.5094    0.0000 </r>
       <r>   27.9629    0.0000 </r>
       <r>   29.0477    0.0000 </r>
       <r>   30.1768    0.0000 </r>
      </set>
      <set comment="kpoint 47">
       <r>  -41.0048    1.0000 </r>
       <r>  -40.9844    1.0000 </r>
       <r>  -40.6915    1.0000 </r>
       <r>  -40.6625    1.0000 </r>
       <r>  -40.5989    1.0000 </r>
       <r>  -40.5358    1.0000 </r>
       <r>    4.9273    1.0000 </r>
       <r>    5.3197    1.0000 </r>
       <r>    6.4863    1.0000 </r>
       <r>    6.6662    1.0000 </r>
       <r>    9.5018    1.0000 </r>
       <r>    9.6460    1.0000 </r>
       <r>   10.6506    1.0000 </r>
       <r>   10.9900    1.0000 </r>
       <r>   11.7255    1.0000 </r>
       <r>   11.9101    0.9295 </r>
       <r>   12.0514    0.0058 </r>
       <r>   13.8268    0.0000 </r>
       <r>   19.8887    0.0000 </r>
       <r>   21.4140    0.0000 </r>
       <r>   25.2681    0.0000 </r>
       <r>   27.0831    0.0000 </r>
       <r>   27.2721    0.0000 </r>
       <r>   30.0770    0.0000 </r>
      </set>
      <set comment="kpoint 48">
       <r>  -41.0447    1.0000 </r>
       <r>  -41.0242    1.0000 </r>
       <r>  -40.7022    1.0000 </r>
       <r>  -40.6725    1.0000 </r>
       <r>  -40.5857    1.0000 </r>
       <r>  -40.5384    1.0000 </r>
       <r>    4.8568    1.0000 </r>
       <r>    5.1841    1.0000 </r>
       <r>    6.4556    1.0000 </r>
       <r>    6.4990    1.0000 </r>
       <r>    9.4458    1.0000 </r>
       <r>    9.9795    1.0000 </r>
       <r>   10.6806    1.0000 </r>
       <r>   12.0776    0.0005 </r>
       <r>   12.3724    0.0000 </r>
       <r>   12.4458    0.0000 </r>
       <r>   12.6160    0.0000 </r>
       <r>   14.6293    0.0000 </r>
       <r>   18.8206    0.0000 </r>
       <r>   18.8839    0.0000 </r>
       <r>   25.7313    0.0000 </r>
       <r>   26.2459    0.0000 </r>
       <r>   26.5134    0.0000 </r>
       <r>   29.2070    0.0000 </r>
      </set>
      <set comment="kpoint 49">
       <r>  -40.7437    1.0000 </r>
       <r>  -40.7046    1.0000 </r>
       <r>  -40.6467    1.0000 </r>
       <r>  -40.6211    1.0000 </r>
       <r>  -40.6014    1.0000 </r>
       <r>  -40.5408    1.0000 </r>
       <r>    3.9305    1.0000 </r>
       <r>    5.1352    1.0000 </r>
       <r>    7.2036    1.0000 </r>
       <r>    7.5167    1.0000 </r>
       <r>    7.7189    1.0000 </r>
       <r>    8.2756    1.0000 </r>
       <r>    9.0169    1.0000 </r>
       <r>    9.2092    1.0000 </r>
       <r>   10.5776    1.0000 </r>
       <r>   10.7471    1.0000 </r>
       <r>   11.3351    1.0000 </r>
       <r>   12.1813    0.0000 </r>
       <r>   22.4648    0.0000 </r>
       <r>   26.5370    0.0000 </r>
       <r>   28.6671    0.0000 </r>
       <r>   28.7089    0.0000 </r>
       <r>   29.0919    0.0000 </r>
       <r>   29.8613    0.0000 </r>
      </set>
      <set comment="kpoint 50">
       <r>  -40.8415    1.0000 </r>
       <r>  -40.8222    1.0000 </r>
       <r>  -40.6629    1.0000 </r>
       <r>  -40.6468    1.0000 </r>
       <r>  -40.6254    1.0000 </r>
       <r>  -40.5342    1.0000 </r>
       <r>    4.8516    1.0000 </r>
       <r>    5.8783    1.0000 </r>
       <r>    6.7420    1.0000 </r>
       <r>    7.3163    1.0000 </r>
       <r>    7.6654    1.0000 </r>
       <r>    8.1961    1.0000 </r>
       <r>    9.4646    1.0000 </r>
       <r>   10.0244    1.0000 </r>
       <r>   10.9001    1.0000 </r>
       <r>   10.9695    1.0000 </r>
       <r>   11.4142    1.0000 </r>
       <r>   12.8256    0.0000 </r>
       <r>   22.7065    0.0000 </r>
       <r>   26.0174    0.0000 </r>
       <r>   26.3120    0.0000 </r>
       <r>   28.1458    0.0000 </r>
       <r>   28.2580    0.0000 </r>
       <r>   29.0588    0.0000 </r>
      </set>
      <set comment="kpoint 51">
       <r>  -40.9524    1.0000 </r>
       <r>  -40.9346    1.0000 </r>
       <r>  -40.7035    1.0000 </r>
       <r>  -40.6777    1.0000 </r>
       <r>  -40.6040    1.0000 </r>
       <r>  -40.5325    1.0000 </r>
       <r>    5.2134    1.0000 </r>
       <r>    5.7372    1.0000 </r>
       <r>    6.5583    1.0000 </r>
       <r>    6.9990    1.0000 </r>
       <r>    8.6340    1.0000 </r>
       <r>    9.0837    1.0000 </r>
       <r>    9.5407    1.0000 </r>
       <r>   10.3709    1.0000 </r>
       <r>   11.1864    1.0000 </r>
       <r>   11.9983    0.1534 </r>
       <r>   12.3678    0.0000 </r>
       <r>   13.7395    0.0000 </r>
       <r>   21.2509    0.0000 </r>
       <r>   23.1986    0.0000 </r>
       <r>   24.9848    0.0000 </r>
       <r>   26.7878    0.0000 </r>
       <r>   27.8906    0.0000 </r>
       <r>   28.1986    0.0000 </r>
      </set>
      <set comment="kpoint 52">
       <r>  -41.0220    1.0000 </r>
       <r>  -41.0022    1.0000 </r>
       <r>  -40.7288    1.0000 </r>
       <r>  -40.6996    1.0000 </r>
       <r>  -40.5824    1.0000 </r>
       <r>  -40.5356    1.0000 </r>
       <r>    5.1186    1.0000 </r>
       <r>    5.5123    1.0000 </r>
       <r>    6.5221    1.0000 </r>
       <r>    6.7366    1.0000 </r>
       <r>    8.8008    1.0000 </r>
       <r>   10.0402    1.0000 </r>
       <r>   10.2186    1.0000 </r>
       <r>   10.8095    1.0000 </r>
       <r>   11.6697    1.0000 </r>
       <r>   12.2535    0.0000 </r>
       <r>   13.9242    0.0000 </r>
       <r>   15.1987    0.0000 </r>
       <r>   18.8724    0.0000 </r>
       <r>   20.0268    0.0000 </r>
       <r>   24.9104    0.0000 </r>
       <r>   26.2344    0.0000 </r>
       <r>   26.9649    0.0000 </r>
       <r>   27.5237    0.0000 </r>
      </set>
      <set comment="kpoint 53">
       <r>  -40.9127    1.0000 </r>
       <r>  -40.9077    1.0000 </r>
       <r>  -40.7203    1.0000 </r>
       <r>  -40.7029    1.0000 </r>
       <r>  -40.6041    1.0000 </r>
       <r>  -40.5303    1.0000 </r>
       <r>    5.6079    1.0000 </r>
       <r>    6.0708    1.0000 </r>
       <r>    6.9941    1.0000 </r>
       <r>    7.1747    1.0000 </r>
       <r>    7.9040    1.0000 </r>
       <r>    7.9081    1.0000 </r>
       <r>    9.1343    1.0000 </r>
       <r>   10.1696    1.0000 </r>
       <r>   11.1752    1.0000 </r>
       <r>   12.0501    0.0064 </r>
       <r>   12.5837    0.0000 </r>
       <r>   13.8284    0.0000 </r>
       <r>   22.2927    0.0000 </r>
       <r>   23.9789    0.0000 </r>
       <r>   24.9666    0.0000 </r>
       <r>   26.1383    0.0000 </r>
       <r>   26.9175    0.0000 </r>
       <r>   28.4647    0.0000 </r>
      </set>
      <set comment="kpoint 54">
       <r>  -40.9704    1.0000 </r>
       <r>  -40.9580    1.0000 </r>
       <r>  -40.7787    1.0000 </r>
       <r>  -40.7552    1.0000 </r>
       <r>  -40.5786    1.0000 </r>
       <r>  -40.5320    1.0000 </r>
       <r>    5.7594    1.0000 </r>
       <r>    6.1597    1.0000 </r>
       <r>    6.7318    1.0000 </r>
       <r>    7.3549    1.0000 </r>
       <r>    8.0333    1.0000 </r>
       <r>    8.6418    1.0000 </r>
       <r>    9.2997    1.0000 </r>
       <r>   10.0402    1.0000 </r>
       <r>   11.4097    1.0000 </r>
       <r>   12.3367    0.0000 </r>
       <r>   14.5053    0.0000 </r>
       <r>   15.8439    0.0000 </r>
       <r>   19.8752    0.0000 </r>
       <r>   21.5607    0.0000 </r>
       <r>   23.4560    0.0000 </r>
       <r>   25.0506    0.0000 </r>
       <r>   26.6531    0.0000 </r>
       <r>   28.4469    0.0000 </r>
      </set>
      <set comment="kpoint 55">
       <r>  -40.9921    1.0000 </r>
       <r>  -40.9736    1.0000 </r>
       <r>  -40.8041    1.0000 </r>
       <r>  -40.7762    1.0000 </r>
       <r>  -40.5652    1.0000 </r>
       <r>  -40.5363    1.0000 </r>
       <r>    5.6972    1.0000 </r>
       <r>    6.2200    1.0000 </r>
       <r>    6.7137    1.0000 </r>
       <r>    7.2750    1.0000 </r>
       <r>    7.8596    1.0000 </r>
       <r>    9.0402    1.0000 </r>
       <r>    9.8359    1.0000 </r>
       <r>   10.1965    1.0000 </r>
       <r>   11.5921    1.0000 </r>
       <r>   12.0469    0.0083 </r>
       <r>   16.4203    0.0000 </r>
       <r>   16.6065    0.0000 </r>
       <r>   18.9719    0.0000 </r>
       <r>   19.3941    0.0000 </r>
       <r>   22.4810    0.0000 </r>
       <r>   24.7434    0.0000 </r>
       <r>   27.5709    0.0000 </r>
       <r>   27.7638    0.0000 </r>
      </set>
      <set comment="kpoint 56">
       <r>  -40.9451    1.0000 </r>
       <r>  -40.9368    1.0000 </r>
       <r>  -40.8619    1.0000 </r>
       <r>  -40.8375    1.0000 </r>
       <r>  -40.5566    1.0000 </r>
       <r>  -40.5385    1.0000 </r>
       <r>    6.3424    1.0000 </r>
       <r>    6.4324    1.0000 </r>
       <r>    7.1771    1.0000 </r>
       <r>    7.2243    1.0000 </r>
       <r>    7.8800    1.0000 </r>
       <r>    8.2514    1.0000 </r>
       <r>    9.2227    1.0000 </r>
[...]
       </set>
       <set comment="band 12">
        <r>  0.0201  0.0142  0.0000  0.0054  0.1095  0.0000  0.4215  0.0000  0.0832 </r>
        <r>  0.0000  0.0000  0.0000  0.0000  0.0000  0.0455  0.0000  0.0418  0.0000 </r>
       </set>
       <set comment="band 13">
        <r>  0.0000  0.0000  0.0002  0.0000  0.0000  0.2085  0.0000  0.5123  0.0000 </r>
        <r>  0.0043  0.0012  0.0000  0.0005  0.0670  0.0000  0.0011  0.0000  0.0494 </r>
       </set>
       <set comment="band 14">
        <r>  0.0043  0.0012  0.0000  0.0005  0.0670  0.0000  0.0011  0.0000  0.0494 </r>
        <r>  0.0000  0.0000  0.0002  0.0000  0.0000  0.2085  0.0000  0.5123  0.0000 </r>
       </set>
       <set comment="band 15">
        <r>  0.0000  0.0000  0.0026  0.0000  0.0000  0.1985  0.0000  0.1442  0.0000 </r>
        <r>  0.0063  0.0002  0.0000  0.0001  0.1662  0.0000  0.3536  0.0000  0.0597 </r>
       </set>
       <set comment="band 16">
        <r>  0.0063  0.0002  0.0000  0.0001  0.1662  0.0000  0.3536  0.0000  0.0597 </r>
        <r>  0.0000  0.0000  0.0026  0.0000  0.0000  0.1985  0.0000  0.1442  0.0000 </r>
       </set>
       <set comment="band 17">
        <r>  0.0000  0.0000  0.0123  0.0000  0.0000  0.1242  0.0000  0.0455  0.0000 </r>
        <r>  0.0879  0.0245  0.0000  0.0083  0.3183  0.0000  0.0059  0.0000  0.1139 </r>
       </set>
       <set comment="band 18">
        <r>  0.0879  0.0245  0.0000  0.0083  0.3183  0.0000  0.0059  0.0000  0.1139 </r>
        <r>  0.0000  0.0000  0.0123  0.0000  0.0000  0.1242  0.0000  0.0455  0.0000 </r>
       </set>
       <set comment="band 19">
        <r>  0.2676  0.0525  0.0000  0.0185  0.0107  0.0000  0.0085  0.0000  0.0043 </r>
        <r>  0.0000  0.0000  0.0361  0.0000  0.0000  0.0213  0.0000  0.0495  0.0000 </r>
       </set>
       <set comment="band 20">
        <r>  0.0000  0.0000  0.0361  0.0000  0.0000  0.0213  0.0000  0.0495  0.0000 </r>
        <r>  0.2676  0.0525  0.0000  0.0185  0.0107  0.0000  0.0085  0.0000  0.0043 </r>
       </set>
       <set comment="band 21">
        <r>  0.0000  0.0000  0.0855  0.0000  0.0000  0.0089  0.0000  0.0180  0.0000 </r>
        <r>  0.0007  0.0465  0.0000  0.0684  0.0334  0.0000  0.0501  0.0000  0.0998 </r>
       </set>
       <set comment="band 22">
        <r>  0.0007  0.0465  0.0000  0.0684  0.0334  0.0000  0.0501  0.0000  0.0998 </r>
        <r>  0.0000  0.0000  0.0855  0.0000  0.0000  0.0089  0.0000  0.0180  0.0000 </r>
       </set>
       <set comment="band 23">
        <r>  0.0000  0.0000  0.0340  0.0000  0.0000  0.0733  0.0000  0.0289  0.0000 </r>
        <r>  0.0000  0.0483  0.0000  0.0369  0.0179  0.0000  0.0556  0.0000  0.0531 </r>
       </set>
       <set comment="band 24">
        <r>  0.0000  0.0483  0.0000  0.0369  0.0179  0.0000  0.0556  0.0000  0.0531 </r>
        <r>  0.0000  0.0000  0.0340  0.0000  0.0000  0.0733  0.0000  0.0289  0.0000 </r>
       </set>
      </set>
      <set comment="kpoint 68">
       <set comment="band 1">
        <r>  0.0000  0.0000  0.0488  0.0000  0.0000  0.0000  0.0000  0.0000  0.0000 </r>
        <r>  0.0000  0.4834  0.0000  0.4520  0.0000  0.0000  0.0000  0.0000  0.0000 </r>
       </set>
       <set comment="band 2">
        <r>  0.0000  0.4834  0.0000  0.4520  0.0000  0.0000  0.0000  0.0000  0.0000 </r>
        <r>  0.0000  0.0000  0.0488  0.0000  0.0000  0.0000  0.0000  0.0000  0.0000 </r>
       </set>
       <set comment="band 3">
        <r>  0.0000  0.0000  0.0351  0.0000  0.0000  0.0000  0.0000  0.0000  0.0000 </r>
        <r>  0.0000  0.4618  0.0000  0.4938  0.0000  0.0000  0.0000  0.0000  0.0001 </r>
       </set>
       <set comment="band 4">
        <r>  0.0000  0.4618  0.0000  0.4938  0.0000  0.0000  0.0000  0.0000  0.0001 </r>
        <r>  0.0000  0.0000  0.0351  0.0000  0.0000  0.0000  0.0000  0.0000  0.0000 </r>
       </set>
       <set comment="band 5">
        <r>  0.0000  0.0000  0.9071  0.0000  0.0000  0.0000  0.0000  0.0000  0.0000 </r>
        <r>  0.0000  0.0430  0.0000  0.0425  0.0000  0.0000  0.0000  0.0000  0.0000 </r>
       </set>
       <set comment="band 6">
        <r>  0.0000  0.0430  0.0000  0.0425  0.0000  0.0000  0.0000  0.0000  0.0000 </r>
        <r>  0.0000  0.0000  0.9071  0.0000  0.0000  0.0000  0.0000  0.0000  0.0000 </r>
       </set>
       <set comment="band 7">
        <r>  0.0000  0.0000  0.0026  0.0000  0.0000  0.1967  0.0000  0.1808  0.0000 </r>
        <r>  0.0665  0.0061  0.0000  0.0021  0.0928  0.0000  0.0586  0.0000  0.0384 </r>
       </set>
       <set comment="band 8">
        <r>  0.0665  0.0061  0.0000  0.0021  0.0928  0.0000  0.0586  0.0000  0.0384 </r>
        <r>  0.0000  0.0000  0.0026  0.0000  0.0000  0.1967  0.0000  0.1808  0.0000 </r>
       </set>
       <set comment="band 9">
        <r>  0.0000  0.0000  0.0030  0.0000  0.0000  0.0696  0.0000  0.0320  0.0000 </r>
        <r>  0.0083  0.0078  0.0000  0.0050  0.2700  0.0000  0.1279  0.0000  0.2130 </r>
       </set>
       <set comment="band 10">
        <r>  0.0083  0.0078  0.0000  0.0050  0.2700  0.0000  0.1279  0.0000  0.2130 </r>
        <r>  0.0000  0.0000  0.0030  0.0000  0.0000  0.0696  0.0000  0.0320  0.0000 </r>
       </set>
       <set comment="band 11">
        <r>  0.0000  0.0000  0.0046  0.0000  0.0000  0.0985  0.0000  0.1580  0.0000 </r>
        <r>  0.0167  0.0119  0.0000  0.0215  0.0587  0.0000  0.1419  0.0000  0.1678 </r>
       </set>
       <set comment="band 12">
        <r>  0.0167  0.0119  0.0000  0.0215  0.0587  0.0000  0.1419  0.0000  0.1678 </r>
        <r>  0.0000  0.0000  0.0046  0.0000  0.0000  0.0985  0.0000  0.1580  0.0000 </r>
       </set>
       <set comment="band 13">
        <r>  0.0000  0.0000  0.0004  0.0000  0.0000  0.2139  0.0000  0.2635  0.0000 </r>
        <r>  0.0148  0.0019  0.0000  0.0048  0.0755  0.0000  0.0378  0.0000  0.2153 </r>
       </set>
       <set comment="band 14">
        <r>  0.0148  0.0019  0.0000  0.0048  0.0755  0.0000  0.0378  0.0000  0.2153 </r>
        <r>  0.0000  0.0000  0.0004  0.0000  0.0000  0.2139  0.0000  0.2635  0.0000 </r>
       </set>
       <set comment="band 15">
        <r>  0.0000  0.0000  0.0024  0.0000  0.0000  0.1789  0.0000  0.1290  0.0000 </r>
        <r>  0.0039  0.0018  0.0000  0.0006  0.0893  0.0000  0.4835  0.0000  0.0375 </r>
       </set>
       <set comment="band 16">
        <r>  0.0039  0.0018  0.0000  0.0006  0.0893  0.0000  0.4835  0.0000  0.0375 </r>
        <r>  0.0000  0.0000  0.0024  0.0000  0.0000  0.1789  0.0000  0.1290  0.0000 </r>
       </set>
       <set comment="band 17">
        <r>  0.0000  0.0000  0.0201  0.0000  0.0000  0.0612  0.0000  0.0212  0.0000 </r>
        <r>  0.0983  0.0340  0.0000  0.0239  0.2728  0.0000  0.0065  0.0000  0.1288 </r>
       </set>
       <set comment="band 18">
        <r>  0.0983  0.0340  0.0000  0.0239  0.2728  0.0000  0.0065  0.0000  0.1288 </r>
        <r>  0.0000  0.0000  0.0201  0.0000  0.0000  0.0612  0.0000  0.0212  0.0000 </r>
       </set>
       <set comment="band 19">
        <r>  0.3084  0.0255  0.0000  0.0415  0.0184  0.0000  0.0249  0.0000  0.0294 </r>
        <r>  0.0000  0.0000  0.0146  0.0000  0.0000  0.0147  0.0000  0.0881  0.0000 </r>
       </set>
       <set comment="band 20">
        <r>  0.0000  0.0000  0.0146  0.0000  0.0000  0.0147  0.0000  0.0881  0.0000 </r>
        <r>  0.3084  0.0255  0.0000  0.0415  0.0184  0.0000  0.0249  0.0000  0.0294 </r>
       </set>
       <set comment="band 21">
        <r>  0.0000  0.0000  0.0469  0.0000  0.0000  0.0458  0.0000  0.0153  0.0000 </r>
        <r>  0.0239  0.0785  0.0000  0.0550  0.0513  0.0000  0.0069  0.0000  0.1089 </r>
       </set>
       <set comment="band 22">
        <r>  0.0239  0.0785  0.0000  0.0550  0.0513  0.0000  0.0069  0.0000  0.1089 </r>
        <r>  0.0000  0.0000  0.0469  0.0000  0.0000  0.0458  0.0000  0.0153  0.0000 </r>
       </set>
       <set comment="band 23">
        <r>  0.0000  0.0000  0.0859  0.0000  0.0000  0.0444  0.0000  0.0270  0.0000 </r>
        <r>  0.0055  0.0348  0.0000  0.0274  0.0119  0.0000  0.0231  0.0000  0.0179 </r>
       </set>
       <set comment="band 24">
        <r>  0.0055  0.0348  0.0000  0.0274  0.0119  0.0000  0.0231  0.0000  0.0179 </r>
        <r>  0.0000  0.0000  0.0859  0.0000  0.0000  0.0444  0.0000  0.0270  0.0000 </r>
       </set>
      </set>
      <set comment="kpoint 69">
       <set comment="band 1">
        <r>  0.0000  0.0000  0.0454  0.0000  0.0000  0.0000  0.0000  0.0000  0.0000 </r>
        <r>  0.0000  0.2360  0.0000  0.7023  0.0000  0.0000  0.0000  0.0000  0.0000 </r>
       </set>
       <set comment="band 2">
        <r>  0.0000  0.2360  0.0000  0.7023  0.0000  0.0000  0.0000  0.0000  0.0000 </r>
        <r>  0.0000  0.0000  0.0454  0.0000  0.0000  0.0000  0.0000  0.0000  0.0000 </r>
       </set>
       <set comment="band 3">
        <r>  0.0000  0.0000  0.0330  0.0000  0.0000  0.0000  0.0000  0.0000  0.0000 </r>
        <r>  0.0000  0.7133  0.0000  0.2437  0.0001  0.0000  0.0000  0.0000  0.0000 </r>
       </set>
       <set comment="band 4">
        <r>  0.0000  0.7133  0.0000  0.2437  0.0001  0.0000  0.0000  0.0000  0.0000 </r>
        <r>  0.0000  0.0000  0.0330  0.0000  0.0000  0.0000  0.0000  0.0000  0.0000 </r>
       </set>
       <set comment="band 5">
        <r>  0.0000  0.0000  0.9128  0.0000  0.0000  0.0000  0.0000  0.0000  0.0000 </r>
        <r>  0.0000  0.0398  0.0000  0.0402  0.0000  0.0000  0.0000  0.0000  0.0000 </r>
       </set>
       <set comment="band 6">
        <r>  0.0000  0.0398  0.0000  0.0402  0.0000  0.0000  0.0000  0.0000  0.0000 </r>
        <r>  0.0000  0.0000  0.9128  0.0000  0.0000  0.0000  0.0000  0.0000  0.0000 </r>
       </set>
       <set comment="band 7">
        <r>  0.0000  0.0000  0.0009  0.0000  0.0000  0.0932  0.0000  0.2704  0.0000 </r>
        <r>  0.0584  0.0053  0.0000  0.0028  0.1321  0.0000  0.0504  0.0000  0.0454 </r>
       </set>
       <set comment="band 8">
        <r>  0.0584  0.0053  0.0000  0.0028  0.1321  0.0000  0.0504  0.0000  0.0454 </r>
        <r>  0.0000  0.0000  0.0009  0.0000  0.0000  0.0932  0.0000  0.2704  0.0000 </r>
       </set>
       <set comment="band 9">
        <r>  0.0000  0.0000  0.0009  0.0000  0.0000  0.0703  0.0000  0.0792  0.0000 </r>
        <r>  0.0001  0.0084  0.0000  0.0031  0.3015  0.0000  0.1834  0.0000  0.1017 </r>
       </set>
       <set comment="band 10">
        <r>  0.0001  0.0084  0.0000  0.0031  0.3015  0.0000  0.1834  0.0000  0.1017 </r>
        <r>  0.0000  0.0000  0.0009  0.0000  0.0000  0.0703  0.0000  0.0792  0.0000 </r>
       </set>
       <set comment="band 11">
        <r>  0.0000  0.0000  0.0052  0.0000  0.0000  0.3333  0.0000  0.1531  0.0000 </r>
        <r>  0.0110  0.0062  0.0000  0.0185  0.0594  0.0000  0.0185  0.0000  0.0917 </r>
       </set>
       <set comment="band 12">
        <r>  0.0110  0.0062  0.0000  0.0185  0.0594  0.0000  0.0185  0.0000  0.0917 </r>
        <r>  0.0000  0.0000  0.0052  0.0000  0.0000  0.3333  0.0000  0.1531  0.0000 </r>
       </set>
       <set comment="band 13">
        <r>  0.0000  0.0000  0.0025  0.0000  0.0000  0.1519  0.0000  0.0759  0.0000 </r>
        <r>  0.0003  0.0065  0.0000  0.0190  0.1404  0.0000  0.0072  0.0000  0.3886 </r>
       </set>
       <set comment="band 14">
        <r>  0.0003  0.0065  0.0000  0.0190  0.1404  0.0000  0.0072  0.0000  0.3886 </r>
        <r>  0.0000  0.0000  0.0025  0.0000  0.0000  0.1519  0.0000  0.0759  0.0000 </r>
       </set>
       <set comment="band 15">
        <r>  0.0000  0.0000  0.0008  0.0000  0.0000  0.1206  0.0000  0.1558  0.0000 </r>
        <r>  0.0000  0.0007  0.0000  0.0002  0.0321  0.0000  0.5977  0.0000  0.0256 </r>
       </set>
       <set comment="band 16">
        <r>  0.0000  0.0007  0.0000  0.0002  0.0321  0.0000  0.5977  0.0000  0.0256 </r>
        <r>  0.0000  0.0000  0.0008  0.0000  0.0000  0.1206  0.0000  0.1558  0.0000 </r>
       </set>
       <set comment="band 17">
        <r>  0.0000  0.0000  0.0369  0.0000  0.0000  0.0234  0.0000  0.0122  0.0000 </r>
        <r>  0.0300  0.0261  0.0000  0.0745  0.0957  0.0000  0.0151  0.0000  0.2146 </r>
       </set>
       <set comment="band 18">
        <r>  0.0300  0.0261  0.0000  0.0745  0.0957  0.0000  0.0151  0.0000  0.2146 </r>
        <r>  0.0000  0.0000  0.0369  0.0000  0.0000  0.0234  0.0000  0.0122  0.0000 </r>
       </set>
       <set comment="band 19">
        <r>  0.4045  0.0056  0.0000  0.0150  0.0704  0.0000  0.0204  0.0000  0.0405 </r>
        <r>  0.0000  0.0000  0.0002  0.0000  0.0000  0.0467  0.0000  0.1037  0.0000 </r>
       </set>
       <set comment="band 20">
        <r>  0.0000  0.0000  0.0002  0.0000  0.0000  0.0467  0.0000  0.1037  0.0000 </r>
        <r>  0.4045  0.0056  0.0000  0.0150  0.0704  0.0000  0.0204  0.0000  0.0405 </r>
       </set>
       <set comment="band 21">
        <r>  0.0000  0.0000  0.0334  0.0000  0.0000  0.0533  0.0000  0.0216  0.0000 </r>
        <r>  0.0375  0.1035  0.0000  0.0398  0.0990  0.0000  0.0012  0.0000  0.0361 </r>
       </set>
       <set comment="band 22">
        <r>  0.0375  0.1035  0.0000  0.0398  0.0990  0.0000  0.0012  0.0000  0.0361 </r>
        <r>  0.0000  0.0000  0.0334  0.0000  0.0000  0.0533  0.0000  0.0216  0.0000 </r>
       </set>
       <set comment="band 23">
        <r>  0.0000  0.0000  0.0955  0.0000  0.0000  0.0253  0.0000  0.0295  0.0000 </r>
        <r>  0.0066  0.0179  0.0000  0.0429  0.0171  0.0000  0.0067  0.0000  0.0168 </r>
       </set>
       <set comment="band 24">
        <r>  0.0066  0.0179  0.0000  0.0429  0.0171  0.0000  0.0067  0.0000  0.0168 </r>
        <r>  0.0000  0.0000  0.0955  0.0000  0.0000  0.0253  0.0000  0.0295  0.0000 </r>
       </set>
      </set>
      <set comment="kpoint 70">
       <set comment="band 1">
        <r>  0.0000  0.0000  0.0534  0.0000  0.0000  0.0000  0.0000  0.0000  0.0000 </r>
        <r>  0.0000  0.6877  0.0000  0.2439  0.0001  0.0000  0.0000  0.0000  0.0000 </r>
       </set>
       <set comment="band 2">
        <r>  0.0000  0.6877  0.0000  0.2439  0.0001  0.0000  0.0000  0.0000  0.0000 </r>
        <r>  0.0000  0.0000  0.0534  0.0000  0.0000  0.0000  0.0000  0.0000  0.0000 </r>
       </set>
       <set comment="band 3">
        <r>  0.0000  0.0000  0.0268  0.0000  0.0000  0.0000  0.0000  0.0000  0.0000 </r>
        <r>  0.0000  0.2583  0.0000  0.7031  0.0000  0.0000  0.0000  0.0000  0.0001 </r>
       </set>
       <set comment="band 4">
        <r>  0.0000  0.2583  0.0000  0.7031  0.0000  0.0000  0.0000  0.0000  0.0001 </r>
        <r>  0.0000  0.0000  0.0268  0.0000  0.0000  0.0000  0.0000  0.0000  0.0000 </r>
       </set>
       <set comment="band 5">
        <r>  0.0000  0.0000  0.9111  0.0000  0.0000  0.0000  0.0000  0.0000  0.0000 </r>
        <r>  0.0000  0.0407  0.0000  0.0411  0.0000  0.0000  0.0000  0.0000  0.0000 </r>
       </set>
       <set comment="band 6">
        <r>  0.0000  0.0407  0.0000  0.0411  0.0000  0.0000  0.0000  0.0000  0.0000 </r>
        <r>  0.0000  0.0000  0.9111  0.0000  0.0000  0.0000  0.0000  0.0000  0.0000 </r>
       </set>
       <set comment="band 7">
        <r>  0.0000  0.0000  0.0003  0.0000  0.0000  0.3181  0.0000  0.1374  0.0000 </r>
        <r>  0.0474  0.0023  0.0000  0.0024  0.0158  0.0000  0.1475  0.0000  0.0214 </r>
       </set>
       <set comment="band 8">
        <r>  0.0474  0.0023  0.0000  0.0024  0.0158  0.0000  0.1475  0.0000  0.0214 </r>
        <r>  0.0000  0.0000  0.0003  0.0000  0.0000  0.3181  0.0000  0.1374  0.0000 </r>
       </set>
       <set comment="band 9">
        <r>  0.0000  0.0000  0.0008  0.0000  0.0000  0.0745  0.0000  0.1989  0.0000 </r>
        <r>  0.0048  0.0078  0.0000  0.0162  0.0901  0.0000  0.0488  0.0000  0.2427 </r>
       </set>
       <set comment="band 10">
        <r>  0.0048  0.0078  0.0000  0.0162  0.0901  0.0000  0.0488  0.0000  0.2427 </r>
        <r>  0.0000  0.0000  0.0008  0.0000  0.0000  0.0745  0.0000  0.1989  0.0000 </r>
       </set>
       <set comment="band 11">
        <r>  0.0000  0.0000  0.0065  0.0000  0.0000  0.0400  0.0000  0.0742  0.0000 </r>
        <r>  0.0022  0.0228  0.0000  0.0120  0.2604  0.0000  0.0289  0.0000  0.2375 </r>
       </set>
       <set comment="band 12">
        <r>  0.0022  0.0228  0.0000  0.0120  0.2604  0.0000  0.0289  0.0000  0.2375 </r>
        <r>  0.0000  0.0000  0.0065  0.0000  0.0000  0.0400  0.0000  0.0742  0.0000 </r>
       </set>
       <set comment="band 13">
        <r>  0.0000  0.0000  0.0002  0.0000  0.0000  0.1548  0.0000  0.2172  0.0000 </r>
        <r>  0.0056  0.0057  0.0000  0.0022  0.2643  0.0000  0.0134  0.0000  0.1665 </r>
       </set>
       <set comment="band 14">
        <r>  0.0056  0.0057  0.0000  0.0022  0.2643  0.0000  0.0134  0.0000  0.1665 </r>
        <r>  0.0000  0.0000  0.0002  0.0000  0.0000  0.1548  0.0000  0.2172  0.0000 </r>
       </set>
       <set comment="band 15">
        <r>  0.0000  0.0000  0.0004  0.0000  0.0000  0.1469  0.0000  0.1215  0.0000 </r>
        <r>  0.0008  0.0007  0.0000  0.0002  0.0219  0.0000  0.6324  0.0000  0.0084 </r>
       </set>
       <set comment="band 16">
        <r>  0.0008  0.0007  0.0000  0.0002  0.0219  0.0000  0.6324  0.0000  0.0084 </r>
        <r>  0.0000  0.0000  0.0004  0.0000  0.0000  0.1469  0.0000  0.1215  0.0000 </r>
       </set>
       <set comment="band 17">
        <r>  0.0000  0.0000  0.0342  0.0000  0.0000  0.0501  0.0000  0.0184  0.0000 </r>
        <r>  0.1432  0.0480  0.0000  0.0192  0.1950  0.0000  0.0074  0.0000  0.0794 </r>
       </set>
       <set comment="band 18">
        <r>  0.1432  0.0480  0.0000  0.0192  0.1950  0.0000  0.0074  0.0000  0.0794 </r>
        <r>  0.0000  0.0000  0.0342  0.0000  0.0000  0.0501  0.0000  0.0184  0.0000 </r>
       </set>
       <set comment="band 19">
        <r>  0.3438  0.0335  0.0000  0.0148  0.0223  0.0000  0.0142  0.0000  0.0168 </r>
        <r>  0.0000  0.0000  0.0175  0.0000  0.0000  0.0496  0.0000  0.0712  0.0000 </r>
       </set>
       <set comment="band 20">
        <r>  0.0000  0.0000  0.0175  0.0000  0.0000  0.0496  0.0000  0.0712  0.0000 </r>
        <r>  0.3438  0.0335  0.0000  0.0148  0.0223  0.0000  0.0142  0.0000  0.0168 </r>
       </set>
       <set comment="band 21">
        <r>  0.0000  0.0000  0.0189  0.0000  0.0000  0.0440  0.0000  0.0488  0.0000 </r>
        <r>  0.0006  0.0486  0.0000  0.0941  0.0726  0.0000  0.0014  0.0000  0.1663 </r>
       </set>
       <set comment="band 22">
        <r>  0.0006  0.0486  0.0000  0.0941  0.0726  0.0000  0.0014  0.0000  0.1663 </r>
        <r>  0.0000  0.0000  0.0189  0.0000  0.0000  0.0440  0.0000  0.0488  0.0000 </r>
       </set>
       <set comment="band 23">
        <r>  0.0000  0.0000  0.1220  0.0000  0.0000  0.0246  0.0000  0.0189  0.0000 </r>
        <r>  0.0019  0.0502  0.0000  0.0240  0.0242  0.0000  0.0035  0.0000  0.0193 </r>
       </set>
       <set comment="band 24">
        <r>  0.0019  0.0502  0.0000  0.0240  0.0242  0.0000  0.0035  0.0000  0.0193 </r>
        <r>  0.0000  0.0000  0.1220  0.0000  0.0000  0.0246  0.0000  0.0189  0.0000 </r>
       </set>
      </set>
     </set>
    </set>
   </array>
  </projected>
 </calculation>
 <structure name="finalpos" >
  <crystal>
   <varray name="basis" >
    <v>       2.72203723       0.00000000       0.00000000 </v>
    <v>      -1.36101862       2.35735339       0.00000000 </v>
    <v>       0.00000000       0.00000000       4.71586607 </v>
   </varray>
   <i name="volume">     30.26078687 </i>
   <varray name="rec_basis" >
    <v>       0.36737190       0.21210227       0.00000000 </v>
    <v>       0.00000000       0.42420453       0.00000000 </v>
    <v>       0.00000000       0.00000000       0.21205013 </v>
   </varray>
  </crystal>
  <varray name="positions" >
   <v>       0.00000000       0.00000000       0.00000000 </v>
   <v>       0.33333333       0.66666667       0.50000000 </v>
  </varray>
 </structure>
</modeling>
