Pt-fcc                                  
   1.00000000000000     
    -0.000000    2.002935    2.002935
     2.002935    0.000000    2.002935
     2.002935    2.002935   -0.000000
   Pt
     1
Direct
  0.000000  0.000000  0.000000
 
   40   40   40
  133.81      133.70      133.04      131.01      126.56      118.86      107.68      93.502      77.520      61.311    
  46.419      33.983      24.508      17.859      13.426      10.409      8.3531      7.0219      6.2139      5.7851    
  5.6514      5.7851      6.2139      7.0219      8.3531      10.409      13.426      17.859      24.508      33.983    
  46.419      61.311      77.520      93.502      107.68      118.86      126.56      131.01      133.04      133.70    
  133.70      133.31      131.95      128.66      122.50      112.93      100.08      84.837      68.621      53.023    
  39.397      28.556      20.655      15.286      11.694      9.2158      7.5685      6.5317      5.9337      5.6620    
  5.6620      5.9337      6.5317      7.5685      9.2158      11.694      15.286      20.655      28.556      39.397    
  53.023      68.621      84.837      100.08      112.93      122.50      128.66      131.95      133.31      133.70    
  133.04      131.95      129.30      124.19      115.95      104.44      90.214      74.466      58.701      44.367    
  32.494      23.505      17.219      13.013      10.124      8.1560      6.8804      6.1052      5.6932      5.5646    
  5.6932      6.1052      6.8804      8.1560      10.124      13.013      17.219      23.505      32.494      44.367    
  58.701      74.466      90.214      104.44      115.95      124.19      129.30      131.95      133.04      133.31    
  131.01      128.66      124.19      116.93      106.59      93.479      78.514      63.042      48.484      35.991    
  26.189      19.113      14.305      11.032      8.7593      7.2478      6.2941      5.7423      5.4911      5.4911    
  5.7424      6.2941      7.2478      8.7593      11.032      14.305      19.113      26.189      35.991      48.484    
  63.042      78.514      93.479      106.59      116.93      124.19      128.66      131.01      131.95      131.95    
  126.56      122.50      115.95      106.59      94.570      80.579      65.756      51.419      38.738      28.467    
  20.819      15.503      11.885      9.3460      7.6162      6.4918      5.8052      5.4386      5.3238      5.4386    
  5.8052      6.4918      7.6162      9.3460      11.885      15.503      20.819      28.467      38.738      51.419    
  65.756      80.579      94.570      106.59      115.95      122.50      126.56      128.66      129.30      128.66    
  118.86      112.93      104.44      93.479      80.579      66.679      52.944      40.490      30.122      22.179    
  16.517      12.626      9.8788      7.9642      6.6870      5.8762      5.4036      5.1871      5.1871      5.4036    
  5.8762      6.6870      7.9642      9.8788      12.626      16.517      22.179      30.122      40.490      52.944    
  66.679      80.579      93.479      104.44      112.93      118.86      122.50      124.19      124.19      122.50    
  107.68      100.08      90.214      78.514      65.756      52.944      41.092      30.993      23.057      17.257    
  13.203      10.320      8.2680      6.8665      5.9485      5.3823      5.0770      4.9809      5.0770      5.3823    
  5.9485      6.8665      8.2680      10.320      13.203      17.257      23.057      30.993      41.092      52.944    
  65.756      78.514      90.214      100.08      107.68      112.93      115.95      116.93      115.95      112.93    
  93.502      84.837      74.466      63.042      51.419      40.490      30.993      23.361      17.648      13.570    
  10.635      8.5048      7.0166      6.0150      5.3709      4.9904      4.8143      4.8143      4.9904      5.3709    
  6.0150      7.0166      8.5048      10.635      13.570      17.648      23.361      30.993      40.490      51.419    
  63.042      74.466      84.837      93.502      100.08      104.44      106.59      106.59      104.44      100.08    
  77.520      68.621      58.701      48.484      38.738      30.122      23.057      17.648      13.697      10.800    
  8.6553      7.1247      6.0686      5.3660      4.9249      4.6833      4.6065      4.6833      4.9249      5.3660    
  6.0686      7.1247      8.6553      10.800      13.697      17.648      23.057      30.122      38.738      48.484    
  58.701      68.621      77.520      84.837      90.214      93.479      94.570      93.479      90.214      84.837    
  61.311      53.023      44.367      35.991      28.467      22.179      17.257      13.570      10.800      8.7070    
  7.1814      6.1035      5.3646      4.8789      4.5858      4.4480      4.4480      4.5858      4.8789      5.3646    
  6.1035      7.1814      8.7070      10.800      13.570      17.257      22.179      28.467      35.991      44.367    
  53.023      61.311      68.621      74.466      78.514      80.579      80.579      78.514      74.466      68.621    
  46.419      39.397      32.494      26.189      20.819      16.517      13.203      10.635      8.6553      7.1814    
  6.1155      5.3645      4.8516      4.5209      4.3357      4.2761      4.3357      4.5208      4.8516      5.3645    
  6.1155      7.1814      8.6553      10.635      13.203      16.517      20.819      26.189      32.494      39.397    
  46.419      53.023      58.701      63.042      65.756      66.679      65.756      63.042      58.701      53.023    
  33.983      28.556      23.505      19.113      15.503      12.626      10.320      8.5048      7.1247      6.1035    
  5.3645      4.8425      4.4883      4.2685      4.1631      4.1631      4.2685      4.4883      4.8425      5.3645    
  6.1035      7.1247      8.5048      10.320      12.626      15.503      19.113      23.505      28.556      33.983    
  39.397      44.367      48.484      51.419      52.944      52.944      51.419      48.484      44.367      39.397    
  24.508      20.655      17.219      14.305      11.885      9.8788      8.2680      7.0166      6.0686      5.3646    
  4.8516      4.4883      4.2461      4.1069      4.0615      4.1069      4.2461      4.4883      4.8516      5.3646    
  6.0687      7.0166      8.2680      9.8788      11.885      14.305      17.219      20.655      24.508      28.556    
  32.494      35.991      38.738      40.490      41.092      40.490      38.738      35.991      32.494      28.556    
  17.859      15.286      13.013      11.032      9.3460      7.9642      6.8665      6.0150      5.3660      4.8789    
  4.5209      4.2685      4.1069      4.0279      4.0279      4.1069      4.2685      4.5208      4.8789      5.3660    
  6.0150      6.8665      7.9642      9.3460      11.032      13.013      15.286      17.859      20.655      23.505    
  26.189      28.467      30.122      30.993      30.993      30.122      28.467      26.189      23.505      20.655    
  13.426      11.694      10.124      8.7593      7.6162      6.6870      5.9485      5.3709      4.9249      4.5858    
  4.3357      4.1631      4.0615      4.0279      4.0615      4.1631      4.3357      4.5858      4.9249      5.3709    
  5.9485      6.6870      7.6162      8.7593      10.124      11.694      13.426      15.286      17.219      19.113    
  20.819      22.179      23.057      23.361      23.057      22.179      20.819      19.113      17.219      15.286    
  10.409      9.2158      8.1560      7.2478      6.4918      5.8762      5.3823      4.9904      4.6833      4.4480    
  4.2761      4.1631      4.1069      4.1069      4.1631      4.2761      4.4480      4.6833      4.9904      5.3823    
  5.8762      6.4918      7.2478      8.1560      9.2158      10.409      11.694      13.013      14.305      15.503    
  16.517      17.257      17.648      17.648      17.257      16.517      15.503      14.305      13.013      11.694    
  8.3531      7.5685      6.8804      6.2941      5.8052      5.4036      5.0770      4.8143      4.6065      4.4480    
  4.3357      4.2685      4.2461      4.2685      4.3357      4.4480      4.6065      4.8143      5.0770      5.4036    
  5.8052      6.2941      6.8804      7.5686      8.3531      9.2158      10.124      11.032      11.885      12.626    
  13.203      13.570      13.697      13.570      13.203      12.626      11.885      11.032      10.124      9.2158    
  7.0219      6.5317      6.1052      5.7423      5.4386      5.1871      4.9809      4.8143      4.6833      4.5858    
  4.5208      4.4883      4.4883      4.5208      4.5858      4.6833      4.8143      4.9809      5.1871      5.4386    
  5.7423      6.1052      6.5317      7.0219      7.5686      8.1560      8.7593      9.3460      9.8788      10.320    
  10.635      10.800      10.800      10.635      10.320      9.8788      9.3460      8.7593      8.1560      7.5685    
  6.2139      5.9337      5.6932      5.4911      5.3238      5.1871      5.0770      4.9904      4.9249      4.8789    
  4.8516      4.8425      4.8516      4.8789      4.9249      4.9904      5.0770      5.1871      5.3238      5.4911    
  5.6932      5.9337      6.2139      6.5317      6.8804      7.2478      7.6162      7.9642      8.2680      8.5048    
  8.6553      8.7070      8.6553      8.5048      8.2680      7.9642      7.6162      7.2478      6.8804      6.5317    
  5.7851      5.6620      5.5646      5.4911      5.4386      5.4036      5.3823      5.3709      5.3660      5.3646    
  5.3645      5.3645      5.3646      5.3660      5.3709      5.3823      5.4036      5.4386      5.4911      5.5646    
  5.6620      5.7851      5.9337      6.1052      6.2941      6.4918      6.6870      6.8665      7.0166      7.1247    
  7.1814      7.1814      7.1247      7.0166      6.8665      6.6870      6.4918      6.2941      6.1052      5.9337    
  5.6514      5.6620      5.6932      5.7424      5.8052      5.8762      5.9485      6.0150      6.0686      6.1035    
  6.1155      6.1035      6.0687      6.0150      5.9485      5.8762      5.8052      5.7423      5.6932      5.6620    
  5.6514      5.6620      5.6932      5.7423      5.8052      5.8762      5.9485      6.0150      6.0687      6.1035    
  6.1155      6.1035      6.0686      6.0150      5.9485      5.8762      5.8052      5.7424      5.6932      5.6620    
  5.7851      5.9337      6.1052      6.2941      6.4918      6.6870      6.8665      7.0166      7.1247      7.1814    
  7.1814      7.1247      7.0166      6.8665      6.6870      6.4918      6.2941      6.1052      5.9337      5.7851    
  5.6620      5.5646      5.4911      5.4386      5.4036      5.3823      5.3709      5.3660      5.3646      5.3645    
  5.3645      5.3646      5.3660      5.3709      5.3823      5.4036      5.4386      5.4911      5.5646      5.6620    
  6.2139      6.5317      6.8804      7.2478      7.6162      7.9642      8.2680      8.5048      8.6553      8.7070    
  8.6553      8.5048      8.2680      7.9642      7.6162      7.2478      6.8804      6.5317      6.2139      5.9337    
  5.6932      5.4911      5.3238      5.1871      5.0770      4.9904      4.9249      4.8789      4.8516      4.8425    
  4.8516      4.8789      4.9249      4.9904      5.0770      5.1871      5.3238      5.4911      5.6932      5.9337    
  7.0219      7.5685      8.1560      8.7593      9.3460      9.8788      10.320      10.635      10.800      10.800    
  10.635      10.320      9.8788      9.3460      8.7593      8.1560      7.5686      7.0219      6.5317      6.1052    
  5.7423      5.4386      5.1871      4.9809      4.8143      4.6833      4.5858      4.5208      4.4883      4.4883    
  4.5208      4.5858      4.6833      4.8143      4.9809      5.1871      5.4386      5.7423      6.1052      6.5317    
  8.3531      9.2158      10.124      11.032      11.885      12.626      13.203      13.570      13.697      13.570    
  13.203      12.626      11.885      11.032      10.124      9.2158      8.3531      7.5686      6.8804      6.2941    
  5.8052      5.4036      5.0770      4.8143      4.6065      4.4480      4.3357      4.2685      4.2461      4.2685    
  4.3357      4.4480      4.6065      4.8143      5.0770      5.4036      5.8052      6.2941      6.8804      7.5685    
  10.409      11.694      13.013      14.305      15.503      16.517      17.257      17.648      17.648      17.257    
  16.517      15.503      14.305      13.013      11.694      10.409      9.2158      8.1560      7.2478      6.4918    
  5.8762      5.3823      4.9904      4.6833      4.4480      4.2761      4.1631      4.1069      4.1069      4.1631    
  4.2761      4.4480      4.6833      4.9904      5.3823      5.8762      6.4918      7.2478      8.1560      9.2158    
  13.426      15.286      17.219      19.113      20.819      22.179      23.057      23.361      23.057      22.179    
  20.819      19.113      17.219      15.286      13.426      11.694      10.124      8.7593      7.6162      6.6870    
  5.9485      5.3709      4.9249      4.5858      4.3357      4.1631      4.0615      4.0279      4.0615      4.1631    
  4.3357      4.5858      4.9249      5.3709      5.9485      6.6870      7.6162      8.7593      10.124      11.694    
  17.859      20.655      23.505      26.189      28.467      30.122      30.993      30.993      30.122      28.467    
  26.189      23.505      20.655      17.859      15.286      13.013      11.032      9.3460      7.9642      6.8665    
  6.0150      5.3660      4.8789      4.5208      4.2685      4.1069      4.0279      4.0279      4.1069      4.2685    
  4.5209      4.8789      5.3660      6.0150      6.8665      7.9642      9.3460      11.032      13.013      15.286    
  24.508      28.556      32.494      35.991      38.738      40.490      41.092      40.490      38.738      35.991    
  32.494      28.556      24.508      20.655      17.219      14.305      11.885      9.8788      8.2680      7.0166    
  6.0687      5.3646      4.8516      4.4883      4.2461      4.1069      4.0615      4.1069      4.2461      4.4883    
  4.8516      5.3646      6.0686      7.0166      8.2680      9.8788      11.885      14.305      17.219      20.655    
  33.983      39.397      44.367      48.484      51.419      52.944      52.944      51.419      48.484      44.367    
  39.397      33.983      28.556      23.505      19.113      15.503      12.626      10.320      8.5048      7.1247    
  6.1035      5.3645      4.8425      4.4883      4.2685      4.1631      4.1631      4.2685      4.4883      4.8425    
  5.3645      6.1035      7.1247      8.5048      10.320      12.626      15.503      19.113      23.505      28.556    
  46.419      53.023      58.701      63.042      65.756      66.679      65.756      63.042      58.701      53.023    
  46.419      39.397      32.494      26.189      20.819      16.517      13.203      10.635      8.6553      7.1814    
  6.1155      5.3645      4.8516      4.5208      4.3357      4.2761      4.3357      4.5209      4.8516      5.3645    
  6.1155      7.1814      8.6553      10.635      13.203      16.517      20.819      26.189      32.494      39.397    
  61.311      68.621      74.466      78.514      80.579      80.579      78.514      74.466      68.621      61.311    
  53.023      44.367      35.991      28.467      22.179      17.257      13.570      10.800      8.7070      7.1814    
  6.1035      5.3646      4.8789      4.5858      4.4480      4.4480      4.5858      4.8789      5.3646      6.1035    
  7.1814      8.7070      10.800      13.570      17.257      22.179      28.467      35.991      44.367      53.023    
  77.520      84.837      90.214      93.479      94.570      93.479      90.214      84.837      77.520      68.621    
  58.701      48.484      38.738      30.122      23.057      17.648      13.697      10.800      8.6553      7.1247    
  6.0686      5.3660      4.9249      4.6833      4.6065      4.6833      4.9249      5.3660      6.0686      7.1247    
  8.6553      10.800      13.697      17.648      23.057      30.122      38.738      48.484      58.701      68.621    
  93.502      100.08      104.44      106.59      106.59      104.44      100.08      93.502      84.837      74.466    
  63.042      51.419      40.490      30.993      23.361      17.648      13.570      10.635      8.5048      7.0166    
  6.0150      5.3709      4.9904      4.8143      4.8143      4.9904      5.3709      6.0150      7.0166      8.5048    
  10.635      13.570      17.648      23.361      30.993      40.490      51.419      63.042      74.466      84.837    
  107.68      112.93      115.95      116.93      115.95      112.93      107.68      100.08      90.214      78.514    
  65.756      52.944      41.092      30.993      23.057      17.257      13.203      10.320      8.2680      6.8665    
  5.9485      5.3823      5.0770      4.9809      5.0770      5.3823      5.9485      6.8665      8.2680      10.320    
  13.203      17.257      23.057      30.993      41.092      52.944      65.756      78.514      90.214      100.08    
  118.86      122.50      124.19      124.19      122.50      118.86      112.93      104.44      93.479      80.579    
  66.679      52.944      40.490      30.122      22.179      16.517      12.626      9.8788      7.9642      6.6870    
  5.8762      5.4036      5.1871      5.1871      5.4036      5.8762      6.6870      7.9642      9.8788      12.626    
  16.517      22.179      30.122      40.490      52.944      66.679      80.579      93.479      104.44      112.93    
  126.56      128.66      129.30      128.66      126.56      122.50      115.95      106.59      94.570      80.579    
  65.756      51.419      38.738      28.467      20.819      15.503      11.885      9.3460      7.6162      6.4918    
  5.8052      5.4386      5.3238      5.4386      5.8052      6.4918      7.6162      9.3460      11.885      15.503    
  20.819      28.467      38.738      51.419      65.756      80.579      94.570      106.59      115.95      122.50    
  131.01      131.95      131.95      131.01      128.66      124.19      116.93      106.59      93.479      78.514    
  63.042      48.484      35.991      26.189      19.113      14.305      11.032      8.7593      7.2478      6.2941    
  5.7424      5.4911      5.4911      5.7423      6.2941      7.2478      8.7593      11.032      14.305      19.113    
  26.189      35.991      48.484      63.042      78.514      93.479      106.59      116.93      124.19      128.66    
  133.04      133.31      133.04      131.95      129.30      124.19      115.95      104.44      90.214      74.466    
  58.701      44.367      32.494      23.505      17.219      13.013      10.124      8.1560      6.8804      6.1052    
  5.6932      5.5646      5.6932      6.1052      6.8804      8.1560      10.124      13.013      17.219      23.505    
  32.494      44.367      58.701      74.466      90.214      104.44      115.95      124.19      129.30      131.95    
  133.70      133.70      133.31      131.95      128.66      122.50      112.93      100.08      84.837      68.621    
  53.023      39.397      28.556      20.655      15.286      11.694      9.2158      7.5685      6.5317      5.9337    
  5.6620      5.6620      5.9337      6.5317      7.5685      9.2158      11.694      15.286      20.655      28.556    
  39.397      53.023      68.621      84.837      100.08      112.93      122.50      128.66      131.95      133.31    
  133.70      133.31      131.95      128.66      122.50      112.93      100.08      84.837      68.621      53.023    
  39.397      28.556      20.655      15.286      11.694      9.2158      7.5685      6.5317      5.9337      5.6620    
  5.6620      5.9337      6.5317      7.5685      9.2158      11.694      15.286      20.655      28.556      39.397    
  53.023      68.621      84.837      100.08      112.93      122.50      128.66      131.95      133.31      133.70    
  133.31      132.32      129.80      124.84      116.73      105.29      91.090      75.291      59.418      44.942    
  32.919      23.796      17.407      13.137      10.212      8.2185      6.9270      6.1423      5.7256      5.5955    
  5.7256      6.1424      6.9270      8.2185      10.212      13.137      17.407      23.796      32.919      44.942    
  59.418      75.291      91.090      105.29      116.73      124.84      129.80      132.32      133.31      133.55    
  131.95      129.80      125.56      118.52      108.34      95.270      80.228      64.565      49.738      36.945    
  26.861      19.556      14.591      11.230      8.8998      7.3500      6.3729      5.8081      5.5511      5.5511    
  5.8081      6.3729      7.3500      8.8998      11.230      14.591      19.556      26.861      36.945      49.738    
  64.565      80.228      95.270      108.34      118.52      125.56      129.80      131.95      132.79      132.79    
  128.66      124.84      118.52      109.33      97.350      83.241      68.147      53.421      40.295      29.591    
  21.575      15.991      12.215      9.5790      7.7831      6.6167      5.9055      5.5263      5.4077      5.5263    
  5.9055      6.6167      7.7831      9.5790      12.215      15.991      21.575      29.591      40.295      53.421    
  68.147      83.241      97.350      109.33      118.52      124.84      128.66      130.60      131.18      130.60    
  122.50      116.73      108.34      97.350      84.252      69.979      55.732      42.691      31.741      23.289    
  17.241      13.105      10.216      8.2032      6.8618      6.0120      5.5178      5.2919      5.2919      5.5178    
  6.0120      6.8618      8.2032      10.216      13.105      17.241      23.289      31.741      42.691      55.732    
  69.979      84.252      97.350      108.34      116.73      122.50      125.98      127.58      127.58      125.98    
  112.93      105.29      95.270      83.241      69.979      56.518      43.938      33.115      24.536      18.234    
  13.844      10.769      8.5842      7.0937      6.1200      5.5214      5.1998      5.0987      5.1998      5.5214    
  6.1200      7.0937      8.5842      10.769      13.844      18.234      24.536      33.115      43.938      56.518    
  69.979      83.241      95.270      105.29      112.93      118.13      121.11      122.07      121.11      118.13    
  100.08      91.090      80.228      68.147      55.732      43.938      33.587      25.192      18.873      14.376    
  11.197      8.8992      7.2963      6.2211      5.5327      5.1279      4.9412      4.9412      5.1279      5.5327    
  6.2211      7.2963      8.8992      11.197      14.376      18.873      25.192      33.587      43.938      55.732    
  68.147      80.228      91.090      100.08      106.84      111.30      113.49      113.49      111.30      106.84    
  84.837      75.291      64.565      53.421      42.691      33.115      25.192      19.094      14.656      11.468    
  9.1244      7.4543      6.3066      5.5472      5.0734      4.8153      4.7336      4.8153      5.0734      5.5472    
  6.3066      7.4543      9.1244      11.468      14.656      19.094      25.192      33.115      42.691      53.421    
  64.565      75.291      84.837      92.631      98.328      101.77      102.92      101.77      98.328      92.631    
  68.621      59.418      49.738      40.295      31.741      24.536      18.873      14.656      11.561      9.2418    
  7.5548      6.3686      5.5611      5.0342      4.7186      4.5711      4.5711      4.7186      5.0342      5.5611    
  6.3686      7.5548      9.2418      11.561      14.656      18.873      24.536      31.741      40.295      49.738    
  59.418      68.621      76.688      83.107      87.539      89.794      89.794      87.539      83.107      76.688    
  53.023      44.942      36.945      29.591      23.289      18.234      14.376      11.468      9.2418      7.5893    
  6.4013      5.5708      5.0089      4.6499      4.4504      4.3864      4.4504      4.6498      5.0089      5.5708    
  6.4013      7.5893      9.2418      11.468      14.376      18.234      23.289      29.591      36.945      44.942    
  53.023      60.579      67.047      71.977      75.053      76.097      75.053      71.977      67.047      60.579    
  39.397      32.919      26.861      21.575      17.241      13.844      11.197      9.1244      7.5548      6.4013    
  5.5743      4.9964      4.6086      4.3701      4.2565      4.2565      4.3701      4.6086      4.9964      5.5743    
  6.4013      7.5548      9.1244      11.197      13.844      17.241      21.575      26.861      32.919      39.397    
  45.828      51.704      56.559      60.011      61.803      61.803      60.011      56.559      51.704      45.828    
  28.556      23.796      19.556      15.991      13.105      10.769      8.8992      7.4543      6.3686      5.5708    
  4.9964      4.5948      4.3299      4.1790      4.1299      4.1790      4.3299      4.5948      4.9964      5.5708    
  6.3686      7.4543      8.8992      10.769      13.105      15.991      19.556      23.796      28.556      33.543    
  38.380      42.664      46.021      48.160      48.894      48.160      46.021      42.664      38.380      33.543    
  20.655      17.407      14.591      12.215      10.216      8.5842      7.2963      6.3066      5.5611      5.0089    
  4.6086      4.3299      4.1532      4.0673      4.0673      4.1532      4.3299      4.6086      5.0089      5.5611    
  6.3066      7.2963      8.5842      10.216      12.215      14.591      17.407      20.655      24.206      27.832    
  31.244      34.137      36.237      37.341      37.341      36.237      34.137      31.244      27.832      24.206    
  15.286      13.137      11.230      9.5790      8.2032      7.0937      6.2211      5.5472      5.0342      4.6499    
  4.3701      4.1790      4.0673      4.0305      4.0673      4.1790      4.3701      4.6499      5.0342      5.5472    
  6.2211      7.0937      8.2032      9.5790      11.230      13.137      15.286      17.663      20.175      22.655    
  24.896      26.684      27.839      28.238      27.839      26.684      24.896      22.655      20.175      17.663    
  11.694      10.212      8.8998      7.7831      6.8618      6.1200      5.5327      5.0734      4.7186      4.4504    
  4.2565      4.1299      4.0673      4.0673      4.1299      4.2565      4.4504      4.7186      5.0734      5.5327    
  6.1200      6.8618      7.7831      8.8998      10.212      11.694      13.298      14.977      16.669      18.265    
  19.629      20.629      21.158      21.158      20.629      19.629      18.265      16.669      14.977      13.298    
  9.2158      8.2185      7.3500      6.6167      6.0120      5.5214      5.1279      4.8153      4.5711      4.3864    
  4.2565      4.1790      4.1532      4.1790      4.2565      4.3864      4.5711      4.8153      5.1279      5.5214    
  6.0120      6.6167      7.3500      8.2185      9.2158      10.318      11.483      12.650      13.755      14.733    
  15.508      16.007      16.180      16.007      15.508      14.733      13.755      12.650      11.483      10.318    
  7.5685      6.9270      6.3729      5.9055      5.5178      5.1998      4.9412      4.7336      4.5711      4.4504    
  4.3701      4.3299      4.3299      4.3701      4.4504      4.5711      4.7336      4.9412      5.1998      5.5178    
  5.9055      6.3729      6.9270      7.5686      8.2886      9.0660      9.8675      10.649      11.359      11.948    
  12.370      12.590      12.590      12.370      11.948      11.359      10.649      9.8675      9.0660      8.2886    
  6.5317      6.1423      5.8081      5.5263      5.2919      5.0987      4.9412      4.8153      4.7186      4.6498    
  4.6086      4.5948      4.6086      4.6499      4.7186      4.8153      4.9412      5.0987      5.2919      5.5263    
  5.8081      6.1423      6.5317      6.9739      7.4598      7.9725      8.4876      8.9747      9.4003      9.7322    
  9.9434      10.016      9.9434      9.7322      9.4003      8.9747      8.4876      7.9725      7.4598      6.9739    
  5.9337      5.7256      5.5511      5.4077      5.2919      5.1998      5.1279      5.0734      5.0342      5.0089    
  4.9964      4.9964      5.0089      5.0342      5.0734      5.1279      5.1998      5.2919      5.4077      5.5510    
  5.7256      5.9337      6.1757      6.4482      6.7437      7.0498      7.3501      7.6250      7.8542      8.0191    
  8.1053      8.1053      8.0191      7.8542      7.6250      7.3501      7.0498      6.7437      6.4482      6.1757    
  5.6620      5.5955      5.5511      5.5263      5.5178      5.5214      5.5327      5.5472      5.5611      5.5708    
  5.5743      5.5708      5.5611      5.5472      5.5327      5.5214      5.5178      5.5263      5.5510      5.5954    
  5.6620      5.7519      5.8642      5.9959      6.1413      6.2921      6.4383      6.5684      6.6712      6.7371    
  6.7599      6.7371      6.6712      6.5684      6.4383      6.2921      6.1413      5.9959      5.8642      5.7519    
  5.6620      5.7256      5.8081      5.9055      6.0120      6.1200      6.2211      6.3066      6.3686      6.4013    
  6.4013      6.3686      6.3066      6.2211      6.1200      6.0120      5.9055      5.8081      5.7256      5.6620    
  5.6197      5.5988      5.5980      5.6145      5.6443      5.6822      5.7225      5.7593      5.7874      5.8025    
  5.8025      5.7874      5.7593      5.7225      5.6822      5.6443      5.6145      5.5980      5.5988      5.6197    
  5.9337      6.1424      6.3729      6.6167      6.8618      7.0937      7.2963      7.4543      7.5548      7.5893    