Pt-fcc                                  
   1.00000000000000     
    -0.000000    1.978849    1.978849
     1.978849    0.000000    1.978849
     1.978849    1.978849   -0.000000
   Pt
     1
Direct
  0.000000  0.000000  0.000000
 
   40   40   40
 0.13562331465E+03 0.13551062617E+03 0.13484291345E+03 0.13275540629E+03 0.12818006451E+03
 0.12027374423E+03 0.10879276271E+03 0.94275767428E+02 0.77962961063E+02 0.61479648481E+02
 0.46403611400E+02 0.33875505280E+02 0.24380802747E+02 0.17750007655E+02 0.13335952515E+02
 0.10324386152E+02 0.82781972209E+01 0.69558621782E+01 0.61544016564E+01 0.57294212841E+01
 0.55968863372E+01 0.57294212841E+01 0.61544016564E+01 0.69558621782E+01 0.82781972209E+01
 0.10324386152E+02 0.13335952515E+02 0.17750007655E+02 0.24380802747E+02 0.33875505280E+02
 0.46403611400E+02 0.61479648481E+02 0.77962961063E+02 0.94275767428E+02 0.10879276271E+03
 0.12027374423E+03 0.12818006451E+03 0.13275540629E+03 0.13484291345E+03 0.13551062617E+03
 0.13551062617E+03 0.13511826677E+03 0.13372458402E+03 0.13034533763E+03 0.12401054174E+03
 0.11417563749E+03 0.10100574392E+03 0.85424417476E+02 0.68904683360E+02 0.53080088694E+02
 0.39321730890E+02 0.28430674620E+02 0.20534654065E+02 0.15188299831E+02 0.11606912676E+02
 0.91364185192E+01 0.74986149323E+01 0.64695664289E+01 0.58766327319E+01 0.56074282676E+01
 0.56074285501E+01 0.58766334406E+01 0.64695672095E+01 0.74986153743E+01 0.91364183433E+01
 0.11606911866E+02 0.15188298650E+02 0.20534652936E+02 0.28430673923E+02 0.39321730749E+02
 0.53080088852E+02 0.68904683204E+02 0.85424416225E+02 0.10100574091E+03 0.11417563247E+03
 0.12401053506E+03 0.13034533023E+03 0.13372457725E+03 0.13511826201E+03 0.13551062445E+03
 0.13484291345E+03 0.13372458402E+03 0.13100187699E+03 0.12575161500E+03 0.11728196117E+03
 0.10547000951E+03 0.90916131305E+02 0.74851898261E+02 0.58832863545E+02 0.44331602837E+02
 0.32380191080E+02 0.23379233376E+02 0.17112431741E+02 0.12924121408E+02 0.10041103254E+02
 0.80823383100E+01 0.68154996660E+01 0.60465604742E+01 0.56382115032E+01 0.55107422287E+01
 0.56382124551E+01 0.60465619045E+01 0.68155008404E+01 0.80823385676E+01 0.10041102316E+02
 0.12924119521E+02 0.17112429587E+02 0.23379231760E+02 0.32380190533E+02 0.44331603283E+02
 0.58832864200E+02 0.74851897816E+02 0.90916128370E+02 0.10547000316E+03 0.11728195141E+03
 0.12575160294E+03 0.13100186467E+03 0.13372457391E+03 0.13484290775E+03 0.13511826201E+03
 0.13275540629E+03 0.13034533763E+03 0.12575161500E+03 0.11829094348E+03 0.10767947530E+03
 0.94252814449E+02 0.78976625031E+02 0.63237471915E+02 0.48490343151E+02 0.35894041497E+02
 0.26062058039E+02 0.18998830777E+02 0.14212214739E+02 0.10946856386E+02 0.86824764252E+01
 0.71801658292E+01 0.62338020066E+01 0.56867266283E+01 0.54376732139E+01 0.54376738558E+01
 0.56867282360E+01 0.62338037684E+01 0.71801668076E+01 0.86824759905E+01 0.10946854526E+02
 0.14212212101E+02 0.18998828403E+02 0.26062056900E+02 0.35894041993E+02 0.48490344807E+02
 0.63237473412E+02 0.78976624600E+02 0.94252810503E+02 0.10767946709E+03 0.11829093156E+03
 0.12575160120E+03 0.13034532469E+03 0.13275539707E+03 0.13372457391E+03 0.13372457725E+03
 0.12818006451E+03 0.12401054174E+03 0.11728196117E+03 0.10767947530E+03 0.95369222739E+02
 0.81081442430E+02 0.65994613534E+02 0.51458506832E+02 0.38658483717E+02 0.28342642473E+02
 0.20699292703E+02 0.15404897276E+02 0.11798940162E+02 0.92666637983E+01 0.75462348476E+01
 0.64298936189E+01 0.57488675339E+01 0.53853880154E+01 0.52715701862E+01 0.53853892814E+01
 0.57488694423E+01 0.64298952018E+01 0.75462352340E+01 0.92666626266E+01 0.11798937783E+02
 0.15404894648E+02 0.20699291001E+02 0.28342642565E+02 0.38658485712E+02 0.51458509905E+02
 0.65994616112E+02 0.81081442709E+02 0.95369219361E+02 0.10767946792E+03 0.11728195076E+03
 0.12401053038E+03 0.12818005484E+03 0.13034532469E+03 0.13100186467E+03 0.13034533023E+03
 0.12027374423E+03 0.11417563749E+03 0.10547000951E+03 0.94252814449E+02 0.81081442430E+02
 0.66932140457E+02 0.53001686731E+02 0.40423485795E+02 0.30001939926E+02 0.22056315805E+02
 0.16414846142E+02 0.12539289360E+02 0.97976542838E+01 0.78922050064E+01 0.66236187066E+01
 0.58190986027E+01 0.53504282696E+01 0.51357579033E+01 0.51357585218E+01 0.53504298346E+01
 0.58191003700E+01 0.66236198070E+01 0.78922048396E+01 0.97976528115E+01 0.12539287170E+02
 0.16414844244E+02 0.22056315232E+02 0.30001941289E+02 0.40423488976E+02 0.53001690841E+02
 0.66932144098E+02 0.81081444173E+02 0.94252813369E+02 0.10547000556E+03 0.11417563160E+03
 0.12027373803E+03 0.12401053038E+03 0.12575160120E+03 0.12575160294E+03 0.12401053506E+03
 0.10879276271E+03 0.10100574392E+03 0.90916131305E+02 0.78976625031E+02 0.65994613534E+02
 0.53001686731E+02 0.41029943874E+02 0.30875438217E+02 0.22932682557E+02 0.17151248576E+02
 0.13114713157E+02 0.10237502912E+02 0.81944917258E+01 0.68018618164E+01 0.58907832993E+01
 0.53290843239E+01 0.50263307371E+01 0.49309605308E+01 0.50263316477E+01 0.53290857558E+01
 0.58907846351E+01 0.68018624699E+01 0.81944913969E+01 0.10237501735E+02 0.13114711680E+02
 0.17151247578E+02 0.22932682763E+02 0.30875440024E+02 0.41029947190E+02 0.53001690986E+02
 0.65994617867E+02 0.78976628577E+02 0.90916133486E+02 0.10100574462E+03 0.10879276230E+03
 0.11417563160E+03 0.11728195076E+03 0.11829093156E+03 0.11728195141E+03 0.11417563247E+03
 0.94275767428E+02 0.85424417476E+02 0.74851898261E+02 0.63237471915E+02 0.51458506832E+02
 0.40423485795E+02 0.30875438217E+02 0.23235693403E+02 0.17540105013E+02 0.13481353438E+02
 0.10552281184E+02 0.84302095143E+01 0.69509739781E+01 0.59567280392E+01 0.53176602263E+01
 0.49401304187E+01 0.47653517624E+01 0.47653520363E+01 0.49401311497E+01 0.53176611719E+01
 0.59567288856E+01 0.69509744453E+01 0.84302094542E+01 0.10552280641E+02 0.13481352653E+02
 0.17540104372E+02 0.23235693344E+02 0.30875439119E+02 0.40423487887E+02 0.51458510132E+02
 0.63237476223E+02 0.74851903192E+02 0.85424422528E+02 0.94275772062E+02 0.10100574462E+03
 0.10547000556E+03 0.10767946792E+03 0.10767946709E+03 0.10547000316E+03 0.10100574091E+03
 0.77962961063E+02 0.68904683360E+02 0.58832863545E+02 0.48490343151E+02 0.38658483717E+02
 0.30001939926E+02 0.22932682557E+02 0.17540105013E+02 0.13607449920E+02 0.10716499952E+02
 0.85801880446E+01 0.70584784495E+01 0.60099413365E+01 0.53127025160E+01 0.48748881546E+01
 0.46350875982E+01 0.45588307718E+01 0.46350876328E+01 0.48748882845E+01 0.53127028127E+01
 0.60099418095E+01 0.70584789922E+01 0.85801884359E+01 0.10716499927E+02 0.13607449294E+02
 0.17540103805E+02 0.22932681075E+02 0.30001938738E+02 0.38658483526E+02 0.48490344583E+02
 0.58832866917E+02 0.68904688515E+02 0.77962967328E+02 0.85424422528E+02 0.90916133486E+02
 0.94252813369E+02 0.95369219361E+02 0.94252810503E+02 0.90916128370E+02 0.85424416225E+02
 0.61479648481E+02 0.53080088694E+02 0.44331602837E+02 0.35894041497E+02 0.28342642473E+02
 0.22056315805E+02 0.17151248576E+02 0.13481353438E+02 0.10716499952E+02 0.86316721406E+01
 0.71148228332E+01 0.60445225402E+01 0.53112500968E+01 0.48291268311E+01 0.45380595219E+01
 0.44011627542E+01 0.44011624971E+01 0.45380588925E+01 0.48291261842E+01 0.53112498166E+01
 0.60445228277E+01 0.71148235630E+01 0.86316728592E+01 0.10716500034E+02 0.13481352348E+02
 0.17151246134E+02 0.22056312347E+02 0.28342638822E+02 0.35894038742E+02 0.44331601979E+02
 0.53080090280E+02 0.61479652362E+02 0.68904688515E+02 0.74851903192E+02 0.78976628577E+02
 0.81081444173E+02 0.81081442709E+02 0.78976624600E+02 0.74851897816E+02 0.68904683204E+02
 0.46403611400E+02 0.39321730890E+02 0.32380191080E+02 0.26062058039E+02 0.20699292703E+02
 0.16414846142E+02 0.13114713157E+02 0.10552281184E+02 0.85801880446E+01 0.71148228332E+01
 0.60565144729E+01 0.53111102300E+01 0.48019695636E+01 0.44734389077E+01 0.42894198854E+01
 0.42301546303E+01 0.42894190113E+01 0.44734375502E+01 0.48019683273E+01 0.53111096523E+01
 0.60565147582E+01 0.71148237163E+01 0.85801888494E+01 0.10552281065E+02 0.13114711434E+02
 0.16414842604E+02 0.20699287751E+02 0.26062052611E+02 0.32380186361E+02 0.39321727922E+02
 0.46403610715E+02 0.53080090280E+02 0.58832866917E+02 0.63237476223E+02 0.65994617867E+02
 0.66932144098E+02 0.65994616112E+02 0.63237473412E+02 0.58832864200E+02 0.53080088852E+02
 0.33875505280E+02 0.28430674620E+02 0.23379233376E+02 0.18998830777E+02 0.15404897276E+02
 0.12539289360E+02 0.10237502912E+02 0.84302095143E+01 0.70584784495E+01 0.60445225402E+01
 0.53111102300E+01 0.47929634765E+01 0.44410934053E+01 0.42224965410E+01 0.41176386001E+01
 0.41176380692E+01 0.42224951594E+01 0.44410917191E+01 0.47929621396E+01 0.53111097254E+01
 0.60445229611E+01 0.70584794271E+01 0.84302103259E+01 0.10237502732E+02 0.12539287562E+02
 0.15404893674E+02 0.18998825713E+02 0.23379227624E+02 0.28430669138E+02 0.33875500898E+02
 0.39321727922E+02 0.44331601979E+02 0.48490344583E+02 0.51458510132E+02 0.53001690986E+02
 0.53001690841E+02 0.51458509905E+02 0.48490344807E+02 0.44331603283E+02 0.39321730749E+02
 0.24380802747E+02 0.20534654065E+02 0.17112431741E+02 0.14212214739E+02 0.11798940162E+02
 0.97976542838E+01 0.81944917258E+01 0.69509739781E+01 0.60099413365E+01 0.53112500968E+01
 0.48019695636E+01 0.44410934053E+01 0.42001846620E+01 0.40616880708E+01 0.40164523174E+01
 0.40616872687E+01 0.42001833479E+01 0.44410920534E+01 0.48019686579E+01 0.53112499502E+01
 0.60099419665E+01 0.69509750831E+01 0.81944927691E+01 0.97976546556E+01 0.11798939364E+02
 0.14212212531E+02 0.17112428203E+02 0.20534649563E+02 0.24380797818E+02 0.28430669138E+02
 0.32380186361E+02 0.35894038742E+02 0.38658483526E+02 0.40423487887E+02 0.41029947190E+02
 0.40423488976E+02 0.38658485712E+02 0.35894041993E+02 0.32380190533E+02 0.28430673923E+02
 0.17750007655E+02 0.15188299831E+02 0.12924121408E+02 0.10946856386E+02 0.92666637983E+01
 0.78922050064E+01 0.68018618164E+01 0.59567280392E+01 0.53127025160E+01 0.48291268311E+01
 0.44734389077E+01 0.42224965410E+01 0.40616880708E+01 0.39829884977E+01 0.39829883324E+01
 0.40616876260E+01 0.42224959599E+01 0.44734383966E+01 0.48291266138E+01 0.53127027783E+01
 0.59567288723E+01 0.68018631727E+01 0.78922066808E+01 0.92666654454E+01 0.10946857577E+02
 0.12924121716E+02 0.15188298941E+02 0.17750005451E+02 0.20534649563E+02 0.23379227624E+02
 0.26062052611E+02 0.28342638822E+02 0.30001938738E+02 0.30875439119E+02 0.30875440024E+02
 0.30001941289E+02 0.28342642565E+02 0.26062056900E+02 0.23379231760E+02 0.20534652936E+02
 0.13335952515E+02 0.11606912676E+02 0.10041103254E+02 0.86824764252E+01 0.75462348476E+01
 0.66236187066E+01 0.58907832993E+01 0.53176602263E+01 0.48748881546E+01 0.45380595219E+01
 0.42894198854E+01 0.41176386001E+01 0.40164523174E+01 0.39829883324E+01 0.40164525721E+01
 0.41176390049E+01 0.42894202945E+01 0.45380598449E+01 0.48748884382E+01 0.53176606757E+01
 0.58907842199E+01 0.66236203785E+01 0.75462373791E+01 0.86824796456E+01 0.10041106698E+02
 0.11606915677E+02 0.13335954396E+02 0.15188298941E+02 0.17112428203E+02 0.18998825713E+02
 0.20699287751E+02 0.22056312347E+02 0.22932681075E+02 0.23235693344E+02 0.22932682763E+02
 0.22056315232E+02 0.20699291001E+02 0.18998828403E+02 0.17112429587E+02 0.15188298650E+02
 0.10324386152E+02 0.91364185192E+01 0.80823383100E+01 0.71801658292E+01 0.64298936189E+01
 0.58190986027E+01 0.53290843239E+01 0.49401304187E+01 0.46350875982E+01 0.44011627542E+01
 0.42301546303E+01 0.41176380692E+01 0.40616872687E+01 0.40616876260E+01 0.41176390049E+01
 0.42301557990E+01 0.44011637635E+01 0.46350882014E+01 0.49401306547E+01 0.53290845394E+01
 0.58190993400E+01 0.64298954042E+01 0.71801689438E+01 0.80823426316E+01 0.91364235047E+01
 0.10324390976E+02 0.11606915677E+02 0.12924121716E+02 0.14212212531E+02 0.15404893674E+02
 0.16414842604E+02 0.17151246134E+02 0.17540103805E+02 0.17540104372E+02 0.17151247578E+02
 0.16414844244E+02 0.15404894648E+02 0.14212212101E+02 0.12924119521E+02 0.11606911866E+02
 0.82781972209E+01 0.74986149323E+01 0.68154996660E+01 0.62338020066E+01 0.57488675339E+01
 0.53504282696E+01 0.50263307371E+01 0.47653517624E+01 0.45588307718E+01 0.44011624971E+01
 0.42894190113E+01 0.42224951594E+01 0.42001833479E+01 0.42224959599E+01 0.42894202945E+01
 0.44011637635E+01 0.45588315578E+01 0.47653518524E+01 0.50263302830E+01 0.53504277669E+01
 0.57488676566E+01 0.62338033615E+01 0.68155025564E+01 0.74986192224E+01 0.82782023528E+01
 0.91364235047E+01 0.10041106698E+02 0.10946857577E+02 0.11798939364E+02 0.12539287562E+02
 0.13114711434E+02 0.13481352348E+02 0.13607449294E+02 0.13481352653E+02 0.13114711680E+02
 0.12539287170E+02 0.11798937783E+02 0.10946854526E+02 0.10041102316E+02 0.91364183433E+01
 0.69558621782E+01 0.64695664289E+01 0.60465604742E+01 0.56867266283E+01 0.53853880154E+01
 0.51357579033E+01 0.49309605308E+01 0.47653520363E+01 0.46350876328E+01 0.45380588925E+01
 0.44734375502E+01 0.44410917191E+01 0.44410920534E+01 0.44734383966E+01 0.45380598449E+01
 0.46350882014E+01 0.47653518524E+01 0.49309595126E+01 0.51357563182E+01 0.53853864128E+01
 0.56867256661E+01 0.60465607007E+01 0.64695680986E+01 0.69558651670E+01 0.74986192224E+01
 0.80823426316E+01 0.86824796456E+01 0.92666654454E+01 0.97976546556E+01 0.10237502732E+02
 0.10552281065E+02 0.10716500034E+02 0.10716499927E+02 0.10552280641E+02 0.10237501735E+02
 0.97976528115E+01 0.92666626266E+01 0.86824759905E+01 0.80823385676E+01 0.74986153743E+01
 0.61544016564E+01 0.58766327319E+01 0.56382115032E+01 0.54376732139E+01 0.52715701862E+01
 0.51357585218E+01 0.50263316477E+01 0.49401311497E+01 0.48748882845E+01 0.48291261842E+01
 0.48019683273E+01 0.47929621396E+01 0.48019686579E+01 0.48291266138E+01 0.48748884382E+01
 0.49401306547E+01 0.50263302830E+01 0.51357563182E+01 0.52715674419E+01 0.54376704191E+01
 0.56382092011E+01 0.58766313633E+01 0.61544014406E+01 0.64695680986E+01 0.68155025564E+01
 0.71801689438E+01 0.75462373791E+01 0.78922066808E+01 0.81944927691E+01 0.84302103259E+01
 0.85801888494E+01 0.86316728592E+01 0.85801884359E+01 0.84302094542E+01 0.81944913969E+01
 0.78922048396E+01 0.75462352340E+01 0.71801668076E+01 0.68155008404E+01 0.64695672095E+01
 0.57294212841E+01 0.56074282676E+01 0.55107422287E+01 0.54376738558E+01 0.53853892814E+01
 0.53504298346E+01 0.53290857558E+01 0.53176611719E+01 0.53127028127E+01 0.53112498166E+01
 0.53111096523E+01 0.53111097254E+01 0.53112499502E+01 0.53127027783E+01 0.53176606757E+01
 0.53290845394E+01 0.53504277669E+01 0.53853864128E+01 0.54376704191E+01 0.55107385874E+01
 0.56074248300E+01 0.57294184090E+01 0.58766313633E+01 0.60465607007E+01 0.62338033615E+01
 0.64298954042E+01 0.66236203785E+01 0.68018631727E+01 0.69509750831E+01 0.70584794271E+01
 0.71148237163E+01 0.71148235630E+01 0.70584789922E+01 0.69509744453E+01 0.68018624699E+01
 0.66236198070E+01 0.64298952018E+01 0.62338037684E+01 0.60465619045E+01 0.58766334406E+01
 0.55968863372E+01 0.56074285501E+01 0.56382124551E+01 0.56867282360E+01 0.57488694423E+01
 0.58191003700E+01 0.58907846351E+01 0.59567288856E+01 0.60099418095E+01 0.60445228277E+01
 0.60565147582E+01 0.60445229611E+01 0.60099419665E+01 0.59567288723E+01 0.58907842199E+01
 0.58190993400E+01 0.57488676566E+01 0.56867256661E+01 0.56382092011E+01 0.56074248300E+01
 0.55968824519E+01 0.56074248300E+01 0.56382092011E+01 0.56867256661E+01 0.57488676566E+01
 0.58190993400E+01 0.58907842199E+01 0.59567288723E+01 0.60099419665E+01 0.60445229611E+01
 0.60565147582E+01 0.60445228277E+01 0.60099418095E+01 0.59567288856E+01 0.58907846351E+01
 0.58191003700E+01 0.57488694423E+01 0.56867282360E+01 0.56382124551E+01 0.56074285501E+01
 0.57294212841E+01 0.58766334406E+01 0.60465619045E+01 0.62338037684E+01 0.64298952018E+01
 0.66236198070E+01 0.68018624699E+01 0.69509744453E+01 0.70584789922E+01 0.71148235630E+01
 0.71148237163E+01 0.70584794271E+01 0.69509750831E+01 0.68018631727E+01 0.66236203785E+01
 0.64298954042E+01 0.62338033615E+01 0.60465607007E+01 0.58766313633E+01 0.57294184090E+01
 0.56074248300E+01 0.55107385874E+01 0.54376704191E+01 0.53853864128E+01 0.53504277669E+01
 0.53290845394E+01 0.53176606757E+01 0.53127027783E+01 0.53112499502E+01 0.53111097254E+01
 0.53111096523E+01 0.53112498166E+01 0.53127028127E+01 0.53176611719E+01 0.53290857558E+01
 0.53504298346E+01 0.53853892814E+01 0.54376738558E+01 0.55107422287E+01 0.56074282676E+01
 0.61544016564E+01 0.64695672095E+01 0.68155008404E+01 0.71801668076E+01 0.75462352340E+01
 0.78922048396E+01 0.81944913969E+01 0.84302094542E+01 0.85801884359E+01 0.86316728592E+01
 0.85801888494E+01 0.84302103259E+01 0.81944927691E+01 0.78922066808E+01 0.75462373791E+01
 0.71801689438E+01 0.68155025564E+01 0.64695680986E+01 0.61544014406E+01 0.58766313633E+01
 0.56382092011E+01 0.54376704191E+01 0.52715674419E+01 0.51357563182E+01 0.50263302830E+01
 0.49401306547E+01 0.48748884382E+01 0.48291266138E+01 0.48019686579E+01 0.47929621396E+01
 0.48019683273E+01 0.48291261842E+01 0.48748882845E+01 0.49401311497E+01 0.50263316477E+01
 0.51357585218E+01 0.52715701862E+01 0.54376732139E+01 0.56382115032E+01 0.58766327319E+01
 0.69558621782E+01 0.74986153743E+01 0.80823385676E+01 0.86824759905E+01 0.92666626266E+01
 0.97976528115E+01 0.10237501735E+02 0.10552280641E+02 0.10716499927E+02 0.10716500034E+02
 0.10552281065E+02 0.10237502732E+02 0.97976546556E+01 0.92666654454E+01 0.86824796456E+01
 0.80823426316E+01 0.74986192224E+01 0.69558651670E+01 0.64695680986E+01 0.60465607007E+01
 0.56867256661E+01 0.53853864128E+01 0.51357563182E+01 0.49309595126E+01 0.47653518524E+01
 0.46350882014E+01 0.45380598449E+01 0.44734383966E+01 0.44410920534E+01 0.44410917191E+01
 0.44734375502E+01 0.45380588925E+01 0.46350876328E+01 0.47653520363E+01 0.49309605308E+01
 0.51357579033E+01 0.53853880154E+01 0.56867266283E+01 0.60465604742E+01 0.64695664289E+01
 0.82781972209E+01 0.91364183433E+01 0.10041102316E+02 0.10946854526E+02 0.11798937783E+02
 0.12539287170E+02 0.13114711680E+02 0.13481352653E+02 0.13607449294E+02 0.13481352348E+02
 0.13114711434E+02 0.12539287562E+02 0.11798939364E+02 0.10946857577E+02 0.10041106698E+02
 0.91364235047E+01 0.82782023528E+01 0.74986192224E+01 0.68155025564E+01 0.62338033615E+01
 0.57488676566E+01 0.53504277669E+01 0.50263302830E+01 0.47653518524E+01 0.45588315578E+01
 0.44011637635E+01 0.42894202945E+01 0.42224959599E+01 0.42001833479E+01 0.42224951594E+01
 0.42894190113E+01 0.44011624971E+01 0.45588307718E+01 0.47653517624E+01 0.50263307371E+01
 0.53504282696E+01 0.57488675339E+01 0.62338020066E+01 0.68154996660E+01 0.74986149323E+01
 0.10324386152E+02 0.11606911866E+02 0.12924119521E+02 0.14212212101E+02 0.15404894648E+02
 0.16414844244E+02 0.17151247578E+02 0.17540104372E+02 0.17540103805E+02 0.17151246134E+02
 0.16414842604E+02 0.15404893674E+02 0.14212212531E+02 0.12924121716E+02 0.11606915677E+02
 0.10324390976E+02 0.91364235047E+01 0.80823426316E+01 0.71801689438E+01 0.64298954042E+01
 0.58190993400E+01 0.53290845394E+01 0.49401306547E+01 0.46350882014E+01 0.44011637635E+01
 0.42301557990E+01 0.41176390049E+01 0.40616876260E+01 0.40616872687E+01 0.41176380692E+01
 0.42301546303E+01 0.44011627542E+01 0.46350875982E+01 0.49401304187E+01 0.53290843239E+01
 0.58190986027E+01 0.64298936189E+01 0.71801658292E+01 0.80823383100E+01 0.91364185192E+01
 0.13335952515E+02 0.15188298650E+02 0.17112429587E+02 0.18998828403E+02 0.20699291001E+02
 0.22056315232E+02 0.22932682763E+02 0.23235693344E+02 0.22932681075E+02 0.22056312347E+02
 0.20699287751E+02 0.18998825713E+02 0.17112428203E+02 0.15188298941E+02 0.13335954396E+02
 0.11606915677E+02 0.10041106698E+02 0.86824796456E+01 0.75462373791E+01 0.66236203785E+01
 0.58907842199E+01 0.53176606757E+01 0.48748884382E+01 0.45380598449E+01 0.42894202945E+01
 0.41176390049E+01 0.40164525721E+01 0.39829883324E+01 0.40164523174E+01 0.41176386001E+01
 0.42894198854E+01 0.45380595219E+01 0.48748881546E+01 0.53176602263E+01 0.58907832993E+01
 0.66236187066E+01 0.75462348476E+01 0.86824764252E+01 0.10041103254E+02 0.11606912676E+02
 0.17750007655E+02 0.20534652936E+02 0.23379231760E+02 0.26062056900E+02 0.28342642565E+02
 0.30001941289E+02 0.30875440024E+02 0.30875439119E+02 0.30001938738E+02 0.28342638822E+02
 0.26062052611E+02 0.23379227624E+02 0.20534649563E+02 0.17750005451E+02 0.15188298941E+02
 0.12924121716E+02 0.10946857577E+02 0.92666654454E+01 0.78922066808E+01 0.68018631727E+01
 0.59567288723E+01 0.53127027783E+01 0.48291266138E+01 0.44734383966E+01 0.42224959599E+01
 0.40616876260E+01 0.39829883324E+01 0.39829884977E+01 0.40616880708E+01 0.42224965410E+01
 0.44734389077E+01 0.48291268311E+01 0.53127025160E+01 0.59567280392E+01 0.68018618164E+01
 0.78922050064E+01 0.92666637983E+01 0.10946856386E+02 0.12924121408E+02 0.15188299831E+02
 0.24380802747E+02 0.28430673923E+02 0.32380190533E+02 0.35894041993E+02 0.38658485712E+02
 0.40423488976E+02 0.41029947190E+02 0.40423487887E+02 0.38658483526E+02 0.35894038742E+02
 0.32380186361E+02 0.28430669138E+02 0.24380797818E+02 0.20534649563E+02 0.17112428203E+02
 0.14212212531E+02 0.11798939364E+02 0.97976546556E+01 0.81944927691E+01 0.69509750831E+01
 0.60099419665E+01 0.53112499502E+01 0.48019686579E+01 0.44410920534E+01 0.42001833479E+01
 0.40616872687E+01 0.40164523174E+01 0.40616880708E+01 0.42001846620E+01 0.44410934053E+01
 0.48019695636E+01 0.53112500968E+01 0.60099413365E+01 0.69509739781E+01 0.81944917258E+01
 0.97976542838E+01 0.11798940162E+02 0.14212214739E+02 0.17112431741E+02 0.20534654065E+02
 0.33875505280E+02 0.39321730749E+02 0.44331603283E+02 0.48490344807E+02 0.51458509905E+02
 0.53001690841E+02 0.53001690986E+02 0.51458510132E+02 0.48490344583E+02 0.44331601979E+02
 0.39321727922E+02 0.33875500898E+02 0.28430669138E+02 0.23379227624E+02 0.18998825713E+02
 0.15404893674E+02 0.12539287562E+02 0.10237502732E+02 0.84302103259E+01 0.70584794271E+01
 0.60445229611E+01 0.53111097254E+01 0.47929621396E+01 0.44410917191E+01 0.42224951594E+01
 0.41176380692E+01 0.41176386001E+01 0.42224965410E+01 0.44410934053E+01 0.47929634765E+01
 0.53111102300E+01 0.60445225402E+01 0.70584784495E+01 0.84302095143E+01 0.10237502912E+02
 0.12539289360E+02 0.15404897276E+02 0.18998830777E+02 0.23379233376E+02 0.28430674620E+02
 0.46403611400E+02 0.53080088852E+02 0.58832864200E+02 0.63237473412E+02 0.65994616112E+02
 0.66932144098E+02 0.65994617867E+02 0.63237476223E+02 0.58832866917E+02 0.53080090280E+02
 0.46403610715E+02 0.39321727922E+02 0.32380186361E+02 0.26062052611E+02 0.20699287751E+02
 0.16414842604E+02 0.13114711434E+02 0.10552281065E+02 0.85801888494E+01 0.71148237163E+01
 0.60565147582E+01 0.53111096523E+01 0.48019683273E+01 0.44734375502E+01 0.42894190113E+01
 0.42301546303E+01 0.42894198854E+01 0.44734389077E+01 0.48019695636E+01 0.53111102300E+01
 0.60565144729E+01 0.71148228332E+01 0.85801880446E+01 0.10552281184E+02 0.13114713157E+02
 0.16414846142E+02 0.20699292703E+02 0.26062058039E+02 0.32380191080E+02 0.39321730890E+02
 0.61479648481E+02 0.68904683204E+02 0.74851897816E+02 0.78976624600E+02 0.81081442709E+02
 0.81081444173E+02 0.78976628577E+02 0.74851903192E+02 0.68904688515E+02 0.61479652362E+02
 0.53080090280E+02 0.44331601979E+02 0.35894038742E+02 0.28342638822E+02 0.22056312347E+02
 0.17151246134E+02 0.13481352348E+02 0.10716500034E+02 0.86316728592E+01 0.71148235630E+01
 0.60445228277E+01 0.53112498166E+01 0.48291261842E+01 0.45380588925E+01 0.44011624971E+01
 0.44011627542E+01 0.45380595219E+01 0.48291268311E+01 0.53112500968E+01 0.60445225402E+01
 0.71148228332E+01 0.86316721406E+01 0.10716499952E+02 0.13481353438E+02 0.17151248576E+02
 0.22056315805E+02 0.28342642473E+02 0.35894041497E+02 0.44331602837E+02 0.53080088694E+02
 0.77962961063E+02 0.85424416225E+02 0.90916128370E+02 0.94252810503E+02 0.95369219361E+02
 0.94252813369E+02 0.90916133486E+02 0.85424422528E+02 0.77962967328E+02 0.68904688515E+02
 0.58832866917E+02 0.48490344583E+02 0.38658483526E+02 0.30001938738E+02 0.22932681075E+02
 0.17540103805E+02 0.13607449294E+02 0.10716499927E+02 0.85801884359E+01 0.70584789922E+01
 0.60099418095E+01 0.53127028127E+01 0.48748882845E+01 0.46350876328E+01 0.45588307718E+01
 0.46350875982E+01 0.48748881546E+01 0.53127025160E+01 0.60099413365E+01 0.70584784495E+01
 0.85801880446E+01 0.10716499952E+02 0.13607449920E+02 0.17540105013E+02 0.22932682557E+02
 0.30001939926E+02 0.38658483717E+02 0.48490343151E+02 0.58832863545E+02 0.68904683360E+02
 0.94275767428E+02 0.10100574091E+03 0.10547000316E+03 0.10767946709E+03 0.10767946792E+03
 0.10547000556E+03 0.10100574462E+03 0.94275772062E+02 0.85424422528E+02 0.74851903192E+02
 0.63237476223E+02 0.51458510132E+02 0.40423487887E+02 0.30875439119E+02 0.23235693344E+02
 0.17540104372E+02 0.13481352653E+02 0.10552280641E+02 0.84302094542E+01 0.69509744453E+01
 0.59567288856E+01 0.53176611719E+01 0.49401311497E+01 0.47653520363E+01 0.47653517624E+01
 0.49401304187E+01 0.53176602263E+01 0.59567280392E+01 0.69509739781E+01 0.84302095143E+01
 0.10552281184E+02 0.13481353438E+02 0.17540105013E+02 0.23235693403E+02 0.30875438217E+02
 0.40423485795E+02 0.51458506832E+02 0.63237471915E+02 0.74851898261E+02 0.85424417476E+02
 0.10879276271E+03 0.11417563247E+03 0.11728195141E+03 0.11829093156E+03 0.11728195076E+03
 0.11417563160E+03 0.10879276230E+03 0.10100574462E+03 0.90916133486E+02 0.78976628577E+02
 0.65994617867E+02 0.53001690986E+02 0.41029947190E+02 0.30875440024E+02 0.22932682763E+02
 0.17151247578E+02 0.13114711680E+02 0.10237501735E+02 0.81944913969E+01 0.68018624699E+01
 0.58907846351E+01 0.53290857558E+01 0.50263316477E+01 0.49309605308E+01 0.50263307371E+01
 0.53290843239E+01 0.58907832993E+01 0.68018618164E+01 0.81944917258E+01 0.10237502912E+02
 0.13114713157E+02 0.17151248576E+02 0.22932682557E+02 0.30875438217E+02 0.41029943874E+02
 0.53001686731E+02 0.65994613534E+02 0.78976625031E+02 0.90916131305E+02 0.10100574392E+03
 0.12027374423E+03 0.12401053506E+03 0.12575160294E+03 0.12575160120E+03 0.12401053038E+03
 0.12027373803E+03 0.11417563160E+03 0.10547000556E+03 0.94252813369E+02 0.81081444173E+02
 0.66932144098E+02 0.53001690841E+02 0.40423488976E+02 0.30001941289E+02 0.22056315232E+02
 0.16414844244E+02 0.12539287170E+02 0.97976528115E+01 0.78922048396E+01 0.66236198070E+01
 0.58191003700E+01 0.53504298346E+01 0.51357585218E+01 0.51357579033E+01 0.53504282696E+01
 0.58190986027E+01 0.66236187066E+01 0.78922050064E+01 0.97976542838E+01 0.12539289360E+02
 0.16414846142E+02 0.22056315805E+02 0.30001939926E+02 0.40423485795E+02 0.53001686731E+02
 0.66932140457E+02 0.81081442430E+02 0.94252814449E+02 0.10547000951E+03 0.11417563749E+03
 0.12818006451E+03 0.13034533023E+03 0.13100186467E+03 0.13034532469E+03 0.12818005484E+03
 0.12401053038E+03 0.11728195076E+03 0.10767946792E+03 0.95369219361E+02 0.81081442709E+02
 0.65994616112E+02 0.51458509905E+02 0.38658485712E+02 0.28342642565E+02 0.20699291001E+02
 0.15404894648E+02 0.11798937783E+02 0.92666626266E+01 0.75462352340E+01 0.64298952018E+01
 0.57488694423E+01 0.53853892814E+01 0.52715701862E+01 0.53853880154E+01 0.57488675339E+01
 0.64298936189E+01 0.75462348476E+01 0.92666637983E+01 0.11798940162E+02 0.15404897276E+02
 0.20699292703E+02 0.28342642473E+02 0.38658483717E+02 0.51458506832E+02 0.65994613534E+02
 0.81081442430E+02 0.95369222739E+02 0.10767947530E+03 0.11728196117E+03 0.12401054174E+03
 0.13275540629E+03 0.13372457725E+03 0.13372457391E+03 0.13275539707E+03 0.13034532469E+03
 0.12575160120E+03 0.11829093156E+03 0.10767946709E+03 0.94252810503E+02 0.78976624600E+02
 0.63237473412E+02 0.48490344807E+02 0.35894041993E+02 0.26062056900E+02 0.18998828403E+02
 0.14212212101E+02 0.10946854526E+02 0.86824759905E+01 0.71801668076E+01 0.62338037684E+01
 0.56867282360E+01 0.54376738558E+01 0.54376732139E+01 0.56867266283E+01 0.62338020066E+01
 0.71801658292E+01 0.86824764252E+01 0.10946856386E+02 0.14212214739E+02 0.18998830777E+02
 0.26062058039E+02 0.35894041497E+02 0.48490343151E+02 0.63237471915E+02 0.78976625031E+02
 0.94252814449E+02 0.10767947530E+03 0.11829094348E+03 0.12575161500E+03 0.13034533763E+03
 0.13484291345E+03 0.13511826201E+03 0.13484290775E+03 0.13372457391E+03 0.13100186467E+03
 0.12575160294E+03 0.11728195141E+03 0.10547000316E+03 0.90916128370E+02 0.74851897816E+02
 0.58832864200E+02 0.44331603283E+02 0.32380190533E+02 0.23379231760E+02 0.17112429587E+02
 0.12924119521E+02 0.10041102316E+02 0.80823385676E+01 0.68155008404E+01 0.60465619045E+01
 0.56382124551E+01 0.55107422287E+01 0.56382115032E+01 0.60465604742E+01 0.68154996660E+01
 0.80823383100E+01 0.10041103254E+02 0.12924121408E+02 0.17112431741E+02 0.23379233376E+02
 0.32380191080E+02 0.44331602837E+02 0.58832863545E+02 0.74851898261E+02 0.90916131305E+02
 0.10547000951E+03 0.11728196117E+03 0.12575161500E+03 0.13100187699E+03 0.13372458402E+03
 0.13551062617E+03 0.13551062445E+03 0.13511826201E+03 0.13372457725E+03 0.13034533023E+03
 0.12401053506E+03 0.11417563247E+03 0.10100574091E+03 0.85424416225E+02 0.68904683204E+02
 0.53080088852E+02 0.39321730749E+02 0.28430673923E+02 0.20534652936E+02 0.15188298650E+02
 0.11606911866E+02 0.91364183433E+01 0.74986153743E+01 0.64695672095E+01 0.58766334406E+01
 0.56074285501E+01 0.56074282676E+01 0.58766327319E+01 0.64695664289E+01 0.74986149323E+01
 0.91364185192E+01 0.11606912676E+02 0.15188299831E+02 0.20534654065E+02 0.28430674620E+02
 0.39321730890E+02 0.53080088694E+02 0.68904683360E+02 0.85424417476E+02 0.10100574392E+03
 0.11417563749E+03 0.12401054174E+03 0.13034533763E+03 0.13372458402E+03 0.13511826677E+03
 0.13551062617E+03 0.13511826677E+03 0.13372458402E+03 0.13034533763E+03 0.12401054174E+03
 0.11417563749E+03 0.10100574392E+03 0.85424417476E+02 0.68904683360E+02 0.53080088694E+02
 0.39321730890E+02 0.28430674620E+02 0.20534654065E+02 0.15188299831E+02 0.11606912676E+02
 0.91364185192E+01 0.74986149323E+01 0.64695664289E+01 0.58766327319E+01 0.56074282676E+01
 0.56074285501E+01 0.58766334406E+01 0.64695672095E+01 0.74986153743E+01 0.91364183433E+01
 0.11606911866E+02 0.15188298650E+02 0.20534652936E+02 0.28430673923E+02 0.39321730749E+02