   1   1   1   0
  0.1529075E+02  0.2786001E-09  0.2786001E-09  0.2786001E-09  0.5000000E-15
  1.000000000000000E-004
  CAR 
 Pt-fcc                                  
     68.73707768    -46.57960862  301     11.55165589      1.00000000
    -46.580  0.0000E+00  0.0000E+00
    -46.195  0.0000E+00  0.0000E+00
    -45.811  0.0000E+00  0.0000E+00
    -45.426  0.0000E+00  0.0000E+00
    -45.042  0.0000E+00  0.0000E+00
    -44.658  0.0000E+00  0.0000E+00
    -44.273  0.0000E+00  0.0000E+00
    -43.889  0.0000E+00  0.0000E+00
    -43.504  0.0000E+00  0.0000E+00
    -43.120  0.0000E+00  0.0000E+00
    -42.736  0.0000E+00  0.0000E+00
    -42.351  0.0000E+00  0.0000E+00
    -41.967  0.0000E+00  0.0000E+00
    -41.583  0.1016E-14  0.3906E-15
    -41.198  0.4036E-01  0.1551E-01
    -40.814  0.1126E+00  0.6000E-01
    -40.429  0.0000E+00  0.6000E-01
    -40.045  0.0000E+00  0.6000E-01
    -39.661  0.0000E+00  0.6000E-01
    -39.276  0.0000E+00  0.6000E-01
    -38.892  0.0000E+00  0.6000E-01
    -38.507  0.0000E+00  0.6000E-01
    -38.123  0.0000E+00  0.6000E-01
    -37.739  0.0000E+00  0.6000E-01
    -37.354  0.0000E+00  0.6000E-01
    -36.970  0.0000E+00  0.6000E-01
    -36.585  0.0000E+00  0.6000E-01
    -36.201  0.0000E+00  0.6000E-01
    -35.817  0.0000E+00  0.6000E-01
    -35.432  0.0000E+00  0.6000E-01
    -35.048  0.0000E+00  0.6000E-01
    -34.664  0.0000E+00  0.6000E-01
    -34.279  0.0000E+00  0.6000E-01
    -33.895  0.0000E+00  0.6000E-01
    -33.510  0.0000E+00  0.6000E-01
    -33.126  0.0000E+00  0.6000E-01
    -32.742  0.0000E+00  0.6000E-01
    -32.357  0.0000E+00  0.6000E-01
    -31.973  0.0000E+00  0.6000E-01
    -31.588  0.0000E+00  0.6000E-01
    -31.204  0.0000E+00  0.6000E-01
    -30.820  0.0000E+00  0.6000E-01
    -30.435  0.0000E+00  0.6000E-01
    -30.051  0.0000E+00  0.6000E-01
    -29.666  0.0000E+00  0.6000E-01
    -29.282  0.0000E+00  0.6000E-01
    -28.898  0.0000E+00  0.6000E-01
    -28.513  0.0000E+00  0.6000E-01
    -28.129  0.0000E+00  0.6000E-01
    -27.745  0.0000E+00  0.6000E-01
    -27.360  0.0000E+00  0.6000E-01
    -26.976  0.0000E+00  0.6000E-01
    -26.591  0.0000E+00  0.6000E-01
    -26.207  0.0000E+00  0.6000E-01
    -25.823  0.0000E+00  0.6000E-01
    -25.438  0.0000E+00  0.6000E-01
    -25.054  0.0000E+00  0.6000E-01
    -24.669  0.0000E+00  0.6000E-01
    -24.285  0.0000E+00  0.6000E-01
    -23.901  0.0000E+00  0.6000E-01
    -23.516  0.0000E+00  0.6000E-01
    -23.132  0.0000E+00  0.6000E-01
    -22.747  0.0000E+00  0.6000E-01
    -22.363  0.0000E+00  0.6000E-01
    -21.979  0.0000E+00  0.6000E-01
    -21.594  0.0000E+00  0.6000E-01
    -21.210  0.0000E+00  0.6000E-01
    -20.826  0.0000E+00  0.6000E-01
    -20.441  0.0000E+00  0.6000E-01
    -20.057  0.0000E+00  0.6000E-01
    -19.672  0.0000E+00  0.6000E-01
    -19.288  0.0000E+00  0.6000E-01
    -18.904  0.0000E+00  0.6000E-01
    -18.519  0.0000E+00  0.6000E-01
    -18.135  0.0000E+00  0.6000E-01
    -17.750  0.0000E+00  0.6000E-01
    -17.366  0.0000E+00  0.6000E-01
    -16.982  0.0000E+00  0.6000E-01
    -16.597  0.0000E+00  0.6000E-01
    -16.213  0.0000E+00  0.6000E-01
    -15.828  0.0000E+00  0.6000E-01
    -15.444  0.0000E+00  0.6000E-01
    -15.060  0.0000E+00  0.6000E-01
    -14.675  0.0000E+00  0.6000E-01
    -14.291  0.0000E+00  0.6000E-01
    -13.907  0.0000E+00  0.6000E-01
    -13.522  0.0000E+00  0.6000E-01
    -13.138  0.0000E+00  0.6000E-01
    -12.753  0.0000E+00  0.6000E-01
    -12.369  0.0000E+00  0.6000E-01
    -11.985  0.0000E+00  0.6000E-01
    -11.600  0.0000E+00  0.6000E-01
    -11.216  0.0000E+00  0.6000E-01
    -10.831  0.0000E+00  0.6000E-01
    -10.447  0.0000E+00  0.6000E-01
    -10.063  0.0000E+00  0.6000E-01
     -9.678  0.0000E+00  0.6000E-01
     -9.294  0.0000E+00  0.6000E-01
     -8.909  0.0000E+00  0.6000E-01
     -8.525  0.0000E+00  0.6000E-01
     -8.141  0.0000E+00  0.6000E-01
     -7.756  0.0000E+00  0.6000E-01
     -7.372  0.0000E+00  0.6000E-01
     -6.988  0.0000E+00  0.6000E-01
     -6.603  0.0000E+00  0.6000E-01
     -6.219  0.0000E+00  0.6000E-01
     -5.834  0.0000E+00  0.6000E-01
     -5.450  0.0000E+00  0.6000E-01
     -5.066  0.0000E+00  0.6000E-01
     -4.681  0.0000E+00  0.6000E-01
     -4.297  0.0000E+00  0.6000E-01
     -3.912  0.0000E+00  0.6000E-01
     -3.528  0.0000E+00  0.6000E-01
     -3.144  0.0000E+00  0.6000E-01
     -2.759  0.0000E+00  0.6000E-01
     -2.375  0.0000E+00  0.6000E-01
     -1.990  0.0000E+00  0.6000E-01
     -1.606  0.0000E+00  0.6000E-01
     -1.222  0.0000E+00  0.6000E-01
     -0.837  0.0000E+00  0.6000E-01
     -0.453  0.0000E+00  0.6000E-01
     -0.069  0.0000E+00  0.6000E-01
      0.316  0.0000E+00  0.6000E-01
      0.700  0.0000E+00  0.6000E-01
      1.085  0.0000E+00  0.6000E-01
      1.469  0.8463E-13  0.6000E-01
      1.853  0.1060E-03  0.6004E-01
      2.238  0.5914E-03  0.6027E-01
      2.622  0.4550E-03  0.6045E-01
      3.007  0.8979E-03  0.6080E-01
      3.391  0.1464E-02  0.6136E-01
      3.775  0.9124E-03  0.6175E-01
      4.160  0.1669E-02  0.6245E-01
      4.544  0.3594E-02  0.6390E-01
      4.929  0.5343E-02  0.6601E-01
      5.313  0.1077E-01  0.7016E-01
      5.697  0.1378E-01  0.7549E-01
      6.082  0.1397E-01  0.8086E-01
      6.466  0.1066E-01  0.8511E-01
      6.850  0.1232E-01  0.8988E-01
      7.235  0.1326E-01  0.9515E-01
      7.619  0.1656E-01  0.1016E+00
      8.004  0.1463E-01  0.1074E+00
      8.388  0.2466E-01  0.1169E+00
      8.772  0.1437E-01  0.1226E+00
      9.157  0.1136E-01  0.1270E+00
      9.541  0.1250E-01  0.1319E+00
      9.926  0.1455E-01  0.1376E+00
     10.310  0.1442E-01  0.1432E+00
     10.694  0.1056E-01  0.1473E+00
     11.079  0.1058E-01  0.1514E+00
     11.463  0.1801E-01  0.1584E+00
     11.848  0.1622E-01  0.1648E+00
     12.232  0.3941E-02  0.1664E+00
     12.616  0.4093E-02  0.1680E+00
     13.001  0.1774E-02  0.1688E+00
     13.385  0.2461E-02  0.1698E+00
     13.769  0.3239E-02  0.1711E+00
     14.154  0.2771E-02  0.1721E+00
     14.538  0.2728E-02  0.1732E+00
     14.923  0.2909E-02  0.1743E+00
     15.307  0.2101E-02  0.1752E+00
     15.691  0.2167E-02  0.1760E+00
     16.076  0.2223E-02  0.1769E+00
     16.460  0.2497E-02  0.1779E+00
     16.845  0.1553E-02  0.1785E+00
     17.229  0.5481E-02  0.1806E+00
     17.613  0.1264E-02  0.1811E+00
     17.998  0.5380E-02  0.1832E+00
     18.382  0.2023E-02  0.1839E+00
     18.767  0.2092E-02  0.1848E+00
     19.151  0.4652E-02  0.1866E+00
     19.535  0.2053E-02  0.1874E+00
     19.920  0.3599E-02  0.1888E+00
     20.304  0.4486E-02  0.1905E+00
     20.688  0.1294E-02  0.1910E+00
     21.073  0.2201E-02  0.1919E+00
     21.457  0.4001E-02  0.1934E+00
     21.842  0.4843E-02  0.1953E+00
     22.226  0.1729E-02  0.1960E+00
     22.610  0.4584E-02  0.1978E+00
     22.995  0.3233E-02  0.1990E+00
     23.379  0.3901E-02  0.2005E+00
     23.764  0.5866E-02  0.2028E+00
     24.148  0.4969E-02  0.2047E+00
     24.532  0.3564E-02  0.2061E+00
     24.917  0.5531E-02  0.2083E+00
     25.301  0.5181E-02  0.2103E+00
     25.686  0.4122E-02  0.2119E+00
     26.070  0.6698E-02  0.2145E+00
     26.454  0.4907E-02  0.2165E+00
     26.839  0.9314E-02  0.2200E+00
     27.223  0.8780E-02  0.2235E+00
     27.607  0.4479E-02  0.2252E+00
     27.992  0.6822E-02  0.2278E+00
     28.376  0.6145E-02  0.2302E+00
     28.761  0.8009E-02  0.2333E+00
     29.145  0.2990E-02  0.2345E+00
     29.529  0.3489E-02  0.2359E+00
     29.914  0.2945E-02  0.2371E+00
     30.298  0.6012E-02  0.2395E+00
     30.683  0.5303E-02  0.2415E+00
     31.067  0.6536E-02  0.2441E+00
     31.451  0.9571E-02  0.2478E+00
     31.836  0.6030E-02  0.2502E+00
     32.220  0.7949E-02  0.2532E+00
     32.605  0.6102E-02  0.2557E+00
     32.989  0.4253E-02  0.2573E+00
     33.373  0.4652E-02  0.2591E+00
     33.758  0.2233E-02  0.2601E+00
     34.142  0.3143E-02  0.2613E+00
     34.526  0.5466E-02  0.2635E+00
     34.911  0.4769E-02  0.2653E+00
     35.295  0.2764E-02  0.2665E+00
     35.680  0.5803E-02  0.2687E+00
     36.064  0.4269E-02  0.2704E+00
     36.448  0.8949E-02  0.2738E+00
     36.833  0.2155E-02  0.2747E+00
     37.217  0.6029E-02  0.2770E+00
     37.602  0.4734E-02  0.2789E+00
     37.986  0.9172E-02  0.2824E+00
     38.370  0.6498E-02  0.2850E+00
     38.755  0.9162E-02  0.2886E+00
     39.139  0.1207E-01  0.2933E+00
     39.524  0.1198E-01  0.2980E+00
     39.908  0.9740E-02  0.3018E+00
     40.292  0.1001E-01  0.3057E+00
     40.677  0.6469E-02  0.3083E+00
     41.061  0.5064E-02  0.3102E+00
     41.445  0.3977E-02  0.3118E+00
     41.830  0.7735E-02  0.3148E+00
     42.214  0.8130E-02  0.3179E+00
     42.599  0.1047E-01  0.3220E+00
     42.983  0.6386E-02  0.3246E+00
     43.367  0.8332E-02  0.3279E+00
     43.752  0.5223E-02  0.3300E+00
     44.136  0.8482E-02  0.3333E+00
     44.521  0.4543E-02  0.3352E+00
     44.905  0.5530E-02  0.3373E+00
     45.289  0.4756E-02  0.3392E+00
     45.674  0.7280E-02  0.3420E+00
     46.058  0.7241E-02  0.3448E+00
     46.443  0.6326E-02  0.3473E+00
     46.827  0.9204E-02  0.3510E+00
     47.211  0.1143E-01  0.3554E+00
     47.596  0.1175E-01  0.3600E+00
     47.980  0.1090E-01  0.3643E+00
     48.364  0.9207E-02  0.3678E+00
     48.749  0.9593E-02  0.3715E+00
     49.133  0.1079E-01  0.3758E+00
     49.518  0.8184E-02  0.3790E+00
     49.902  0.7976E-02  0.3822E+00
     50.286  0.6303E-02  0.3846E+00
     50.671  0.5908E-02  0.3869E+00
     51.055  0.6846E-02  0.3896E+00
     51.440  0.7209E-02  0.3925E+00
     51.824  0.9435E-02  0.3962E+00
     52.208  0.8242E-02  0.3994E+00
     52.593  0.5991E-01  0.4226E+00
     52.977  0.9595E-02  0.4263E+00
     53.362  0.7561E-02  0.4293E+00
     53.746  0.8758E-02  0.4328E+00
     54.130  0.6856E-02  0.4355E+00
     54.515  0.7602E-02  0.4385E+00
     54.899  0.8231E-02  0.4417E+00
     55.283  0.7045E-02  0.4445E+00
     55.668  0.9477E-02  0.4481E+00
     56.052  0.9231E-02  0.4517E+00
     56.437  0.9225E-02  0.4553E+00
     56.821  0.8187E-02  0.4586E+00
     57.205  0.7098E-02  0.4614E+00
     57.590  0.8423E-02  0.4648E+00
     57.974  0.7683E-02  0.4678E+00
     58.359  0.5543E-02  0.4700E+00
     58.743  0.5489E-02  0.4721E+00
     59.127  0.6040E-02  0.4744E+00
     59.512  0.3589E-02  0.4758E+00
     59.896  0.1673E-02  0.4765E+00
     60.281  0.2278E-02  0.4774E+00
     60.665  0.2427E-02  0.4783E+00
     61.049  0.1848E-02  0.4790E+00
     61.434  0.3575E-03  0.4792E+00
     61.818  0.1203E-02  0.4796E+00
     62.202  0.0000E+00  0.4796E+00
     62.587  0.5280E-03  0.4798E+00
     62.971  0.0000E+00  0.4799E+00
     63.356  0.1202E-07  0.4799E+00
     63.740  0.3122E-03  0.4800E+00
     64.124  0.0000E+00  0.4800E+00
     64.509  0.0000E+00  0.4800E+00
     64.893  0.0000E+00  0.4800E+00
     65.278  0.0000E+00  0.4800E+00
     65.662  0.0000E+00  0.4800E+00
     66.046  0.0000E+00  0.4800E+00
     66.431  0.0000E+00  0.4800E+00
     66.815  0.0000E+00  0.4800E+00
     67.200  0.0000E+00  0.4800E+00
     67.584  0.0000E+00  0.4800E+00
     67.968  0.0000E+00  0.4800E+00
     68.353  0.0000E+00  0.4800E+00
     68.737  0.0000E+00  0.4800E+00
     68.73707768    -46.57960862  301     11.55165589      1.00000000
    -46.580  0.0000E+00  0.0000E+00  0.0000E+00  0.0000E+00  0.0000E+00  0.0000E+00  0.0000E+00  0.0000E+00  0.0000E+00
    -46.195  0.0000E+00  0.0000E+00  0.0000E+00  0.0000E+00  0.0000E+00  0.0000E+00  0.0000E+00  0.0000E+00  0.0000E+00
    -45.811  0.0000E+00  0.0000E+00  0.0000E+00  0.0000E+00  0.0000E+00  0.0000E+00  0.0000E+00  0.0000E+00  0.0000E+00
    -45.426  0.0000E+00  0.0000E+00  0.0000E+00  0.0000E+00  0.0000E+00  0.0000E+00  0.0000E+00  0.0000E+00  0.0000E+00
    -45.042  0.0000E+00  0.0000E+00  0.0000E+00  0.0000E+00  0.0000E+00  0.0000E+00  0.0000E+00  0.0000E+00  0.0000E+00
    -44.658  0.0000E+00  0.0000E+00  0.0000E+00  0.0000E+00  0.0000E+00  0.0000E+00  0.0000E+00  0.0000E+00  0.0000E+00
    -44.273  0.0000E+00  0.0000E+00  0.0000E+00  0.0000E+00  0.0000E+00  0.0000E+00  0.0000E+00  0.0000E+00  0.0000E+00
    -43.889  0.0000E+00  0.0000E+00  0.0000E+00  0.0000E+00  0.0000E+00  0.0000E+00  0.0000E+00  0.0000E+00  0.0000E+00
    -43.504  0.0000E+00  0.0000E+00  0.0000E+00  0.0000E+00  0.0000E+00  0.0000E+00  0.0000E+00  0.0000E+00  0.0000E+00
    -43.120  0.0000E+00  0.0000E+00  0.0000E+00  0.0000E+00  0.0000E+00  0.0000E+00  0.0000E+00  0.0000E+00  0.0000E+00
    -42.736  0.0000E+00  0.0000E+00  0.0000E+00  0.0000E+00  0.0000E+00  0.0000E+00  0.0000E+00  0.0000E+00  0.0000E+00
    -42.351  0.0000E+00  0.0000E+00  0.0000E+00  0.0000E+00  0.0000E+00  0.0000E+00  0.0000E+00  0.0000E+00  0.0000E+00
    -41.967  0.0000E+00  0.0000E+00  0.0000E+00  0.0000E+00  0.0000E+00  0.0000E+00  0.0000E+00  0.0000E+00  0.0000E+00
    -41.583  0.2327E-18  0.3327E-13  0.3327E-13  0.3327E-13  0.1153E-18  0.1153E-18  0.8862E-19  0.1153E-18  0.8862E-19
    -41.198  0.1045E-03  0.1325E+01  0.1325E+01  0.1325E+01  0.3119E-04  0.3119E-04  0.1387E-04  0.3119E-04  0.1387E-04
    -40.814  0.1174E-03  0.3726E+01  0.3726E+01  0.3726E+01  0.9151E-04  0.9151E-04  0.5087E-04  0.9151E-04  0.5087E-04
    -40.429  0.0000E+00  0.0000E+00  0.0000E+00  0.0000E+00  0.0000E+00  0.0000E+00  0.0000E+00  0.0000E+00  0.0000E+00
    -40.045  0.0000E+00  0.0000E+00  0.0000E+00  0.0000E+00  0.0000E+00  0.0000E+00  0.0000E+00  0.0000E+00  0.0000E+00
    -39.661  0.0000E+00  0.0000E+00  0.0000E+00  0.0000E+00  0.0000E+00  0.0000E+00  0.0000E+00  0.0000E+00  0.0000E+00
    -39.276  0.0000E+00  0.0000E+00  0.0000E+00  0.0000E+00  0.0000E+00  0.0000E+00  0.0000E+00  0.0000E+00  0.0000E+00
    -38.892  0.0000E+00  0.0000E+00  0.0000E+00  0.0000E+00  0.0000E+00  0.0000E+00  0.0000E+00  0.0000E+00  0.0000E+00
    -38.507  0.0000E+00  0.0000E+00  0.0000E+00  0.0000E+00  0.0000E+00  0.0000E+00  0.0000E+00  0.0000E+00  0.0000E+00
    -38.123  0.0000E+00  0.0000E+00  0.0000E+00  0.0000E+00  0.0000E+00  0.0000E+00  0.0000E+00  0.0000E+00  0.0000E+00
    -37.739  0.0000E+00  0.0000E+00  0.0000E+00  0.0000E+00  0.0000E+00  0.0000E+00  0.0000E+00  0.0000E+00  0.0000E+00
    -37.354  0.0000E+00  0.0000E+00  0.0000E+00  0.0000E+00  0.0000E+00  0.0000E+00  0.0000E+00  0.0000E+00  0.0000E+00
    -36.970  0.0000E+00  0.0000E+00  0.0000E+00  0.0000E+00  0.0000E+00  0.0000E+00  0.0000E+00  0.0000E+00  0.0000E+00
    -36.585  0.0000E+00  0.0000E+00  0.0000E+00  0.0000E+00  0.0000E+00  0.0000E+00  0.0000E+00  0.0000E+00  0.0000E+00
    -36.201  0.0000E+00  0.0000E+00  0.0000E+00  0.0000E+00  0.0000E+00  0.0000E+00  0.0000E+00  0.0000E+00  0.0000E+00
    -35.817  0.0000E+00  0.0000E+00  0.0000E+00  0.0000E+00  0.0000E+00  0.0000E+00  0.0000E+00  0.0000E+00  0.0000E+00
    -35.432  0.0000E+00  0.0000E+00  0.0000E+00  0.0000E+00  0.0000E+00  0.0000E+00  0.0000E+00  0.0000E+00  0.0000E+00
    -35.048  0.0000E+00  0.0000E+00  0.0000E+00  0.0000E+00  0.0000E+00  0.0000E+00  0.0000E+00  0.0000E+00  0.0000E+00
    -34.664  0.0000E+00  0.0000E+00  0.0000E+00  0.0000E+00  0.0000E+00  0.0000E+00  0.0000E+00  0.0000E+00  0.0000E+00
    -34.279  0.0000E+00  0.0000E+00  0.0000E+00  0.0000E+00  0.0000E+00  0.0000E+00  0.0000E+00  0.0000E+00  0.0000E+00
    -33.895  0.0000E+00  0.0000E+00  0.0000E+00  0.0000E+00  0.0000E+00  0.0000E+00  0.0000E+00  0.0000E+00  0.0000E+00
    -33.510  0.0000E+00  0.0000E+00  0.0000E+00  0.0000E+00  0.0000E+00  0.0000E+00  0.0000E+00  0.0000E+00  0.0000E+00
    -33.126  0.0000E+00  0.0000E+00  0.0000E+00  0.0000E+00  0.0000E+00  0.0000E+00  0.0000E+00  0.0000E+00  0.0000E+00
    -32.742  0.0000E+00  0.0000E+00  0.0000E+00  0.0000E+00  0.0000E+00  0.0000E+00  0.0000E+00  0.0000E+00  0.0000E+00
    -32.357  0.0000E+00  0.0000E+00  0.0000E+00  0.0000E+00  0.0000E+00  0.0000E+00  0.0000E+00  0.0000E+00  0.0000E+00
    -31.973  0.0000E+00  0.0000E+00  0.0000E+00  0.0000E+00  0.0000E+00  0.0000E+00  0.0000E+00  0.0000E+00  0.0000E+00
    -31.588  0.0000E+00  0.0000E+00  0.0000E+00  0.0000E+00  0.0000E+00  0.0000E+00  0.0000E+00  0.0000E+00  0.0000E+00
    -31.204  0.0000E+00  0.0000E+00  0.0000E+00  0.0000E+00  0.0000E+00  0.0000E+00  0.0000E+00  0.0000E+00  0.0000E+00
    -30.820  0.0000E+00  0.0000E+00  0.0000E+00  0.0000E+00  0.0000E+00  0.0000E+00  0.0000E+00  0.0000E+00  0.0000E+00
    -30.435  0.0000E+00  0.0000E+00  0.0000E+00  0.0000E+00  0.0000E+00  0.0000E+00  0.0000E+00  0.0000E+00  0.0000E+00
    -30.051  0.0000E+00  0.0000E+00  0.0000E+00  0.0000E+00  0.0000E+00  0.0000E+00  0.0000E+00  0.0000E+00  0.0000E+00
    -29.666  0.0000E+00  0.0000E+00  0.0000E+00  0.0000E+00  0.0000E+00  0.0000E+00  0.0000E+00  0.0000E+00  0.0000E+00
    -29.282  0.0000E+00  0.0000E+00  0.0000E+00  0.0000E+00  0.0000E+00  0.0000E+00  0.0000E+00  0.0000E+00  0.0000E+00
    -28.898  0.0000E+00  0.0000E+00  0.0000E+00  0.0000E+00  0.0000E+00  0.0000E+00  0.0000E+00  0.0000E+00  0.0000E+00
    -28.513  0.0000E+00  0.0000E+00  0.0000E+00  0.0000E+00  0.0000E+00  0.0000E+00  0.0000E+00  0.0000E+00  0.0000E+00
    -28.129  0.0000E+00  0.0000E+00  0.0000E+00  0.0000E+00  0.0000E+00  0.0000E+00  0.0000E+00  0.0000E+00  0.0000E+00
    -27.745  0.0000E+00  0.0000E+00  0.0000E+00  0.0000E+00  0.0000E+00  0.0000E+00  0.0000E+00  0.0000E+00  0.0000E+00
    -27.360  0.0000E+00  0.0000E+00  0.0000E+00  0.0000E+00  0.0000E+00  0.0000E+00  0.0000E+00  0.0000E+00  0.0000E+00
    -26.976  0.0000E+00  0.0000E+00  0.0000E+00  0.0000E+00  0.0000E+00  0.0000E+00  0.0000E+00  0.0000E+00  0.0000E+00
    -26.591  0.0000E+00  0.0000E+00  0.0000E+00  0.0000E+00  0.0000E+00  0.0000E+00  0.0000E+00  0.0000E+00  0.0000E+00
    -26.207  0.0000E+00  0.0000E+00  0.0000E+00  0.0000E+00  0.0000E+00  0.0000E+00  0.0000E+00  0.0000E+00  0.0000E+00
    -25.823  0.0000E+00  0.0000E+00  0.0000E+00  0.0000E+00  0.0000E+00  0.0000E+00  0.0000E+00  0.0000E+00  0.0000E+00
    -25.438  0.0000E+00  0.0000E+00  0.0000E+00  0.0000E+00  0.0000E+00  0.0000E+00  0.0000E+00  0.0000E+00  0.0000E+00
    -25.054  0.0000E+00  0.0000E+00  0.0000E+00  0.0000E+00  0.0000E+00  0.0000E+00  0.0000E+00  0.0000E+00  0.0000E+00
    -24.669  0.0000E+00  0.0000E+00  0.0000E+00  0.0000E+00  0.0000E+00  0.0000E+00  0.0000E+00  0.0000E+00  0.0000E+00
    -24.285  0.0000E+00  0.0000E+00  0.0000E+00  0.0000E+00  0.0000E+00  0.0000E+00  0.0000E+00  0.0000E+00  0.0000E+00
    -23.901  0.0000E+00  0.0000E+00  0.0000E+00  0.0000E+00  0.0000E+00  0.0000E+00  0.0000E+00  0.0000E+00  0.0000E+00
    -23.516  0.0000E+00  0.0000E+00  0.0000E+00  0.0000E+00  0.0000E+00  0.0000E+00  0.0000E+00  0.0000E+00  0.0000E+00
    -23.132  0.0000E+00  0.0000E+00  0.0000E+00  0.0000E+00  0.0000E+00  0.0000E+00  0.0000E+00  0.0000E+00  0.0000E+00
    -22.747  0.0000E+00  0.0000E+00  0.0000E+00  0.0000E+00  0.0000E+00  0.0000E+00  0.0000E+00  0.0000E+00  0.0000E+00
    -22.363  0.0000E+00  0.0000E+00  0.0000E+00  0.0000E+00  0.0000E+00  0.0000E+00  0.0000E+00  0.0000E+00  0.0000E+00
    -21.979  0.0000E+00  0.0000E+00  0.0000E+00  0.0000E+00  0.0000E+00  0.0000E+00  0.0000E+00  0.0000E+00  0.0000E+00
    -21.594  0.0000E+00  0.0000E+00  0.0000E+00  0.0000E+00  0.0000E+00  0.0000E+00  0.0000E+00  0.0000E+00  0.0000E+00
    -21.210  0.0000E+00  0.0000E+00  0.0000E+00  0.0000E+00  0.0000E+00  0.0000E+00  0.0000E+00  0.0000E+00  0.0000E+00
    -20.826  0.0000E+00  0.0000E+00  0.0000E+00  0.0000E+00  0.0000E+00  0.0000E+00  0.0000E+00  0.0000E+00  0.0000E+00
    -20.441  0.0000E+00  0.0000E+00  0.0000E+00  0.0000E+00  0.0000E+00  0.0000E+00  0.0000E+00  0.0000E+00  0.0000E+00
    -20.057  0.0000E+00  0.0000E+00  0.0000E+00  0.0000E+00  0.0000E+00  0.0000E+00  0.0000E+00  0.0000E+00  0.0000E+00
    -19.672  0.0000E+00  0.0000E+00  0.0000E+00  0.0000E+00  0.0000E+00  0.0000E+00  0.0000E+00  0.0000E+00  0.0000E+00
    -19.288  0.0000E+00  0.0000E+00  0.0000E+00  0.0000E+00  0.0000E+00  0.0000E+00  0.0000E+00  0.0000E+00  0.0000E+00
    -18.904  0.0000E+00  0.0000E+00  0.0000E+00  0.0000E+00  0.0000E+00  0.0000E+00  0.0000E+00  0.0000E+00  0.0000E+00
    -18.519  0.0000E+00  0.0000E+00  0.0000E+00  0.0000E+00  0.0000E+00  0.0000E+00  0.0000E+00  0.0000E+00  0.0000E+00
    -18.135  0.0000E+00  0.0000E+00  0.0000E+00  0.0000E+00  0.0000E+00  0.0000E+00  0.0000E+00  0.0000E+00  0.0000E+00
    -17.750  0.0000E+00  0.0000E+00  0.0000E+00  0.0000E+00  0.0000E+00  0.0000E+00  0.0000E+00  0.0000E+00  0.0000E+00
    -17.366  0.0000E+00  0.0000E+00  0.0000E+00  0.0000E+00  0.0000E+00  0.0000E+00  0.0000E+00  0.0000E+00  0.0000E+00
    -16.982  0.0000E+00  0.0000E+00  0.0000E+00  0.0000E+00  0.0000E+00  0.0000E+00  0.0000E+00  0.0000E+00  0.0000E+00
    -16.597  0.0000E+00  0.0000E+00  0.0000E+00  0.0000E+00  0.0000E+00  0.0000E+00  0.0000E+00  0.0000E+00  0.0000E+00
    -16.213  0.0000E+00  0.0000E+00  0.0000E+00  0.0000E+00  0.0000E+00  0.0000E+00  0.0000E+00  0.0000E+00  0.0000E+00
    -15.828  0.0000E+00  0.0000E+00  0.0000E+00  0.0000E+00  0.0000E+00  0.0000E+00  0.0000E+00  0.0000E+00  0.0000E+00
    -15.444  0.0000E+00  0.0000E+00  0.0000E+00  0.0000E+00  0.0000E+00  0.0000E+00  0.0000E+00  0.0000E+00  0.0000E+00
    -15.060  0.0000E+00  0.0000E+00  0.0000E+00  0.0000E+00  0.0000E+00  0.0000E+00  0.0000E+00  0.0000E+00  0.0000E+00
    -14.675  0.0000E+00  0.0000E+00  0.0000E+00  0.0000E+00  0.0000E+00  0.0000E+00  0.0000E+00  0.0000E+00  0.0000E+00
    -14.291  0.0000E+00  0.0000E+00  0.0000E+00  0.0000E+00  0.0000E+00  0.0000E+00  0.0000E+00  0.0000E+00  0.0000E+00
    -13.907  0.0000E+00  0.0000E+00  0.0000E+00  0.0000E+00  0.0000E+00  0.0000E+00  0.0000E+00  0.0000E+00  0.0000E+00
    -13.522  0.0000E+00  0.0000E+00  0.0000E+00  0.0000E+00  0.0000E+00  0.0000E+00  0.0000E+00  0.0000E+00  0.0000E+00
    -13.138  0.0000E+00  0.0000E+00  0.0000E+00  0.0000E+00  0.0000E+00  0.0000E+00  0.0000E+00  0.0000E+00  0.0000E+00
    -12.753  0.0000E+00  0.0000E+00  0.0000E+00  0.0000E+00  0.0000E+00  0.0000E+00  0.0000E+00  0.0000E+00  0.0000E+00
    -12.369  0.0000E+00  0.0000E+00  0.0000E+00  0.0000E+00  0.0000E+00  0.0000E+00  0.0000E+00  0.0000E+00  0.0000E+00
    -11.985  0.0000E+00  0.0000E+00  0.0000E+00  0.0000E+00  0.0000E+00  0.0000E+00  0.0000E+00  0.0000E+00  0.0000E+00
    -11.600  0.0000E+00  0.0000E+00  0.0000E+00  0.0000E+00  0.0000E+00  0.0000E+00  0.0000E+00  0.0000E+00  0.0000E+00
    -11.216  0.0000E+00  0.0000E+00  0.0000E+00  0.0000E+00  0.0000E+00  0.0000E+00  0.0000E+00  0.0000E+00  0.0000E+00
    -10.831  0.0000E+00  0.0000E+00  0.0000E+00  0.0000E+00  0.0000E+00  0.0000E+00  0.0000E+00  0.0000E+00  0.0000E+00
    -10.447  0.0000E+00  0.0000E+00  0.0000E+00  0.0000E+00  0.0000E+00  0.0000E+00  0.0000E+00  0.0000E+00  0.0000E+00
    -10.063  0.0000E+00  0.0000E+00  0.0000E+00  0.0000E+00  0.0000E+00  0.0000E+00  0.0000E+00  0.0000E+00  0.0000E+00
     -9.678  0.0000E+00  0.0000E+00  0.0000E+00  0.0000E+00  0.0000E+00  0.0000E+00  0.0000E+00  0.0000E+00  0.0000E+00
     -9.294  0.0000E+00  0.0000E+00  0.0000E+00  0.0000E+00  0.0000E+00  0.0000E+00  0.0000E+00  0.0000E+00  0.0000E+00
     -8.909  0.0000E+00  0.0000E+00  0.0000E+00  0.0000E+00  0.0000E+00  0.0000E+00  0.0000E+00  0.0000E+00  0.0000E+00
     -8.525  0.0000E+00  0.0000E+00  0.0000E+00  0.0000E+00  0.0000E+00  0.0000E+00  0.0000E+00  0.0000E+00  0.0000E+00
     -8.141  0.0000E+00  0.0000E+00  0.0000E+00  0.0000E+00  0.0000E+00  0.0000E+00  0.0000E+00  0.0000E+00  0.0000E+00
     -7.756  0.0000E+00  0.0000E+00  0.0000E+00  0.0000E+00  0.0000E+00  0.0000E+00  0.0000E+00  0.0000E+00  0.0000E+00
     -7.372  0.0000E+00  0.0000E+00  0.0000E+00  0.0000E+00  0.0000E+00  0.0000E+00  0.0000E+00  0.0000E+00  0.0000E+00
     -6.988  0.0000E+00  0.0000E+00  0.0000E+00  0.0000E+00  0.0000E+00  0.0000E+00  0.0000E+00  0.0000E+00  0.0000E+00
     -6.603  0.0000E+00  0.0000E+00  0.0000E+00  0.0000E+00  0.0000E+00  0.0000E+00  0.0000E+00  0.0000E+00  0.0000E+00
     -6.219  0.0000E+00  0.0000E+00  0.0000E+00  0.0000E+00  0.0000E+00  0.0000E+00  0.0000E+00  0.0000E+00  0.0000E+00
     -5.834  0.0000E+00  0.0000E+00  0.0000E+00  0.0000E+00  0.0000E+00  0.0000E+00  0.0000E+00  0.0000E+00  0.0000E+00
     -5.450  0.0000E+00  0.0000E+00  0.0000E+00  0.0000E+00  0.0000E+00  0.0000E+00  0.0000E+00  0.0000E+00  0.0000E+00
     -5.066  0.0000E+00  0.0000E+00  0.0000E+00  0.0000E+00  0.0000E+00  0.0000E+00  0.0000E+00  0.0000E+00  0.0000E+00
     -4.681  0.0000E+00  0.0000E+00  0.0000E+00  0.0000E+00  0.0000E+00  0.0000E+00  0.0000E+00  0.0000E+00  0.0000E+00
     -4.297  0.0000E+00  0.0000E+00  0.0000E+00  0.0000E+00  0.0000E+00  0.0000E+00  0.0000E+00  0.0000E+00  0.0000E+00
     -3.912  0.0000E+00  0.0000E+00  0.0000E+00  0.0000E+00  0.0000E+00  0.0000E+00  0.0000E+00  0.0000E+00  0.0000E+00
     -3.528  0.0000E+00  0.0000E+00  0.0000E+00  0.0000E+00  0.0000E+00  0.0000E+00  0.0000E+00  0.0000E+00  0.0000E+00
     -3.144  0.0000E+00  0.0000E+00  0.0000E+00  0.0000E+00  0.0000E+00  0.0000E+00  0.0000E+00  0.0000E+00  0.0000E+00
     -2.759  0.0000E+00  0.0000E+00  0.0000E+00  0.0000E+00  0.0000E+00  0.0000E+00  0.0000E+00  0.0000E+00  0.0000E+00
     -2.375  0.0000E+00  0.0000E+00  0.0000E+00  0.0000E+00  0.0000E+00  0.0000E+00  0.0000E+00  0.0000E+00  0.0000E+00
     -1.990  0.0000E+00  0.0000E+00  0.0000E+00  0.0000E+00  0.0000E+00  0.0000E+00  0.0000E+00  0.0000E+00  0.0000E+00
     -1.606  0.0000E+00  0.0000E+00  0.0000E+00  0.0000E+00  0.0000E+00  0.0000E+00  0.0000E+00  0.0000E+00  0.0000E+00
     -1.222  0.0000E+00  0.0000E+00  0.0000E+00  0.0000E+00  0.0000E+00  0.0000E+00  0.0000E+00  0.0000E+00  0.0000E+00
     -0.837  0.0000E+00  0.0000E+00  0.0000E+00  0.0000E+00  0.0000E+00  0.0000E+00  0.0000E+00  0.0000E+00  0.0000E+00
     -0.453  0.0000E+00  0.0000E+00  0.0000E+00  0.0000E+00  0.0000E+00  0.0000E+00  0.0000E+00  0.0000E+00  0.0000E+00
     -0.069  0.0000E+00  0.0000E+00  0.0000E+00  0.0000E+00  0.0000E+00  0.0000E+00  0.0000E+00  0.0000E+00  0.0000E+00
      0.316  0.0000E+00  0.0000E+00  0.0000E+00  0.0000E+00  0.0000E+00  0.0000E+00  0.0000E+00  0.0000E+00  0.0000E+00
      0.700  0.0000E+00  0.0000E+00  0.0000E+00  0.0000E+00  0.0000E+00  0.0000E+00  0.0000E+00  0.0000E+00  0.0000E+00
      1.085  0.0000E+00  0.0000E+00  0.0000E+00  0.0000E+00  0.0000E+00  0.0000E+00  0.0000E+00  0.0000E+00  0.0000E+00
      1.469  0.3296E-11  0.3639E-14  0.3639E-14  0.3639E-14  0.2148E-15  0.2148E-15  0.2689E-31  0.2148E-15  0.2689E-31
      1.853  0.4125E-02  0.4768E-05  0.4768E-05  0.4768E-05  0.2955E-06  0.2955E-06  0.2603E-07  0.2955E-06  0.2603E-07
      2.238  0.2253E-01  0.1207E-03  0.1207E-03  0.1207E-03  0.3038E-04  0.3038E-04  0.7664E-05  0.3038E-04  0.7664E-05
      2.622  0.1686E-01  0.1693E-03  0.1693E-03  0.1693E-03  0.5094E-04  0.5094E-04  0.4897E-04  0.5094E-04  0.4897E-04
      3.007  0.3249E-01  0.4271E-03  0.4271E-03  0.4271E-03  0.3400E-03  0.3400E-03  0.7801E-04  0.3400E-03  0.7801E-04
      3.391  0.5045E-01  0.9733E-03  0.9733E-03  0.9733E-03  0.9422E-03  0.9422E-03  0.5857E-03  0.9422E-03  0.5857E-03
      3.775  0.2978E-01  0.7052E-03  0.7052E-03  0.7052E-03  0.1390E-02  0.1390E-02  0.3202E-03  0.1390E-02  0.3202E-03
      4.160  0.5029E-01  0.1370E-02  0.1370E-02  0.1370E-02  0.3759E-02  0.3759E-02  0.2151E-02  0.3759E-02  0.2151E-02
      4.544  0.8767E-01  0.2420E-02  0.2420E-02  0.2420E-02  0.2472E-01  0.2472E-01  0.2640E-02  0.2472E-01  0.2640E-02
      4.929  0.9106E-01  0.2564E-02  0.2564E-02  0.2564E-02  0.4729E-01  0.4729E-01  0.2836E-01  0.4729E-01  0.2836E-01
      5.313  0.1286E+00  0.4773E-02  0.4773E-02  0.4773E-02  0.8678E-01  0.8678E-01  0.1188E+00  0.8678E-01  0.1188E+00
      5.697  0.9923E-01  0.5000E-02  0.5000E-02  0.5000E-02  0.1776E+00  0.1776E+00  0.1239E+00  0.1776E+00  0.1239E+00
      6.082  0.5921E-01  0.5365E-02  0.5365E-02  0.5365E-02  0.2026E+00  0.2026E+00  0.1326E+00  0.2026E+00  0.1326E+00
      6.466  0.1966E-01  0.5187E-02  0.5187E-02  0.5187E-02  0.1586E+00  0.1586E+00  0.1149E+00  0.1586E+00  0.1149E+00
      6.850  0.1048E-01  0.7854E-02  0.7854E-02  0.7854E-02  0.1833E+00  0.1833E+00  0.1383E+00  0.1833E+00  0.1383E+00
      7.235  0.8533E-02  0.7219E-02  0.7219E-02  0.7219E-02  0.1772E+00  0.1772E+00  0.1961E+00  0.1772E+00  0.1961E+00
      7.619  0.1971E-01  0.9566E-02  0.9566E-02  0.9566E-02  0.2667E+00  0.2667E+00  0.1839E+00  0.2667E+00  0.1839E+00
      8.004  0.2106E-01  0.7599E-02  0.7599E-02  0.7599E-02  0.2064E+00  0.2064E+00  0.2200E+00  0.2064E+00  0.2200E+00
      8.388  0.2905E-01  0.1410E-01  0.1410E-01  0.1410E-01  0.4263E+00  0.4263E+00  0.2719E+00  0.4263E+00  0.2719E+00
      8.772  0.1408E-01  0.8669E-02  0.8669E-02  0.8669E-02  0.2254E+00  0.2254E+00  0.1998E+00  0.2254E+00  0.1998E+00
      9.157  0.1324E-01  0.6791E-02  0.6791E-02  0.6791E-02  0.1460E+00  0.1460E+00  0.2108E+00  0.1460E+00  0.2108E+00
      9.541  0.7702E-02  0.5680E-02  0.5680E-02  0.5680E-02  0.1265E+00  0.1265E+00  0.3091E+00  0.1265E+00  0.3091E+00
      9.926  0.1142E-01  0.6445E-02  0.6445E-02  0.6445E-02  0.1155E+00  0.1155E+00  0.4117E+00  0.1155E+00  0.4117E+00
     10.310  0.1277E-01  0.4908E-02  0.4908E-02  0.4908E-02  0.1630E+00  0.1630E+00  0.3574E+00  0.1630E+00  0.3574E+00
     10.694  0.2837E-02  0.3884E-02  0.3884E-02  0.3884E-02  0.1427E+00  0.1427E+00  0.2375E+00  0.1427E+00  0.2375E+00
     11.079  0.7946E-02  0.2995E-02  0.2995E-02  0.2995E-02  0.1523E+00  0.1523E+00  0.2317E+00  0.1523E+00  0.2317E+00
     11.463  0.6693E-02  0.2098E-02  0.2098E-02  0.2098E-02  0.3417E+00  0.3417E+00  0.3101E+00  0.3417E+00  0.3101E+00
     11.848  0.1483E-01  0.3304E-02  0.3304E-02  0.3304E-02  0.3647E+00  0.3647E+00  0.1860E+00  0.3647E+00  0.1860E+00
     12.232  0.4356E-02  0.7136E-03  0.7136E-03  0.7136E-03  0.1043E+00  0.1043E+00  0.2345E-01  0.1043E+00  0.2345E-01
     12.616  0.2294E-01  0.4837E-02  0.4837E-02  0.4837E-02  0.6038E-01  0.6038E-01  0.5346E-01  0.6038E-01  0.5346E-01
     13.001  0.9746E-02  0.3645E-02  0.3645E-02  0.3645E-02  0.2303E-01  0.2303E-01  0.1719E-01  0.2303E-01  0.1719E-01
     13.385  0.1900E-01  0.3772E-02  0.3772E-02  0.3772E-02  0.3342E-01  0.3342E-01  0.2750E-01  0.3342E-01  0.2750E-01