       N       E                     dE             d eps       ncg     rms          rms(c)
DAV:   1     0.163411869265E+02    0.16341E+02   -0.11711E+04  5976   0.590E+02
DAV:   2    -0.639596442714E+01   -0.22737E+02   -0.22443E+02  6888   0.895E+01
DAV:   3    -0.642927797631E+01   -0.33314E-01   -0.33313E-01  6960   0.387E+00
DAV:   4    -0.642930283403E+01   -0.24858E-04   -0.24858E-04  8232   0.750E-02
DAV:   5    -0.642930283406E+01   -0.25011E-10   -0.58624E-09  6840   0.302E-04    0.149E+01
DAV:   6    -0.609533481986E+01    0.33397E+00   -0.12333E+00  5928   0.499E+00    0.480E+00
DAV:   7    -0.607674382349E+01    0.18591E-01   -0.76654E-02  8040   0.104E+00    0.149E+00
DAV:   8    -0.607520158766E+01    0.15422E-02   -0.41467E-03  5808   0.490E-01    0.144E-01
DAV:   9    -0.607513262314E+01    0.68965E-04   -0.55625E-05  7416   0.556E-02    0.161E-02
DAV:  10    -0.607513816799E+01   -0.55449E-05   -0.50499E-06  7344   0.126E-02    0.557E-03
DAV:  11    -0.607513810461E+01    0.63383E-07   -0.37059E-09  3768   0.405E-04
   1 F= -.60751381E+01 E0= -.60739119E+01  d E =-.607514E+01
       N       E                     dE             d eps       ncg     rms          rms(c)
DAV:   1    -0.692114938554E+01   -0.84601E+00   -0.20848E+01  5280   0.301E+01    0.759E+00
DAV:   2    -0.605729892673E+01    0.86385E+00   -0.39957E+00  5400   0.920E+00    0.116E+00
DAV:   3    -0.605422306599E+01    0.30759E-02   -0.86291E-02  7800   0.146E+00    0.793E-01
DAV:   4    -0.606037567616E+01   -0.61526E-02   -0.33519E-03  5928   0.250E-01    0.243E-01
DAV:   5    -0.606113314030E+01   -0.75746E-03   -0.53417E-04  7536   0.967E-02    0.235E-02
DAV:   6    -0.606114141068E+01   -0.82704E-05   -0.30817E-06  6096   0.797E-03    0.846E-04
DAV:   7    -0.606114125548E+01    0.15520E-06   -0.14093E-08  5832   0.616E-04
   2 F= -.60611413E+01 E0= -.60597998E+01  d E =0.139968E-01
       N       E                     dE             d eps       ncg     rms          rms(c)
DAV:   1    -0.652873879341E+01   -0.46760E+00   -0.10901E+01  5280   0.214E+01    0.826E+00
DAV:   2    -0.607927826324E+01    0.44946E+00   -0.18690E+00  5400   0.667E+00    0.121E+00
DAV:   3    -0.607357716611E+01    0.57011E-02   -0.58849E-02  7584   0.122E+00    0.132E+00
DAV:   4    -0.607720261154E+01   -0.36254E-02   -0.27616E-03  5880   0.246E-01    0.242E-01
DAV:   5    -0.607740712736E+01   -0.20452E-03   -0.11862E-04  8040   0.525E-02    0.286E-02
DAV:   6    -0.607741546780E+01   -0.83404E-05   -0.16863E-06  5616   0.634E-03    0.456E-04
DAV:   7    -0.607741555046E+01   -0.82653E-07   -0.81542E-09  3528   0.525E-04
   3 F= -.60774156E+01 E0= -.60761633E+01  d E =-.227745E-02
