<?xml version="1.0" encoding="ISO-8859-1"?>
<modeling>
 <generator>
  <i name="program" type="string">vasp </i>
  <i name="version" type="string">6.3.2  </i>
  <i name="subversion" type="string">27Jun22 (build Aug 12 2022 00:53:59) complex                          parallel </i>
  <i name="platform" type="string">tv2STD </i>
  <i name="date" type="string">2024 11 30 </i>
  <i name="time" type="string">16:00:35 </i>
 </generator>
 <incar>
  <i type="string" name="SYSTEM">Pt-fcc</i>
  <i type="int" name="ISTART">     0</i>
  <i type="string" name="PREC">accurate      normal | accurate</i>
  <i type="string" name="ALGO">Normal     Normal, Fast, Very_Fast</i>
  <i type="logical" name="ADDGRID"> F  </i>
  <i type="int" name="ICHARG">     2</i>
  <i type="int" name="INIWAV">     1</i>
  <i type="int" name="NELM">   100</i>
  <i type="int" name="IBRION">     2</i>
  <i name="EDIFF">      0.00000100</i>
  <i name="EDIFFG">     -0.02000000</i>
  <i type="int" name="NSW">   100</i>
  <i type="int" name="ISIF">     3</i>
  <i type="int" name="ISYM">     1</i>
  <i name="ENCUT">    425.00000000</i>
  <i type="logical" name="LREAL"> F  </i>
  <i type="int" name="ISMEAR">     0</i>
  <i name="SIGMA">      0.05000000</i>
  <i type="int" name="NWRITE">     2</i>
  <i type="logical" name="LWAVE"> T  </i>
  <i type="logical" name="LCHARG"> T  </i>
  <i type="int" name="LORBIT">    11</i>
 </incar>
 <primitive_cell>
  <structure name="primitive_cell" >
   <crystal>
    <varray name="basis" >
     <v>       0.00000000       1.97000000       1.97000000 </v>
     <v>       1.97000000       0.00000000       1.97000000 </v>
     <v>       1.97000000       1.97000000       0.00000000 </v>
    </varray>
    <i name="volume">     15.29074600 </i>
    <varray name="rec_basis" >
     <v>      -0.25380711       0.25380711       0.25380711 </v>
     <v>       0.25380711      -0.25380711       0.25380711 </v>
     <v>       0.25380711       0.25380711      -0.25380711 </v>
    </varray>
   </crystal>
   <varray name="positions" >
    <v>       0.00000000       0.00000000       0.00000000 </v>
   </varray>
  </structure>
  <varray name="primitive_index" >
   <v type="int" >        1 </v>
  </varray>
 </primitive_cell>
 <kpoints>
  <generation param="Monkhorst-Pack">
   <v type="int" name="divisions">      10       10       10 </v>
   <v name="usershift">      0.00000000       0.00000000       0.00000000 </v>
   <v name="genvec1">      0.10000000       0.00000000       0.00000000 </v>
   <v name="genvec2">      0.00000000       0.10000000       0.00000000 </v>
   <v name="genvec3">      0.00000000       0.00000000       0.10000000 </v>
   <v name="shift">      0.50000000       0.50000000       0.50000000 </v>
  </generation>
  <varray name="kpointlist" >
   <v>       0.05000000       0.05000000       0.05000000 </v>
   <v>       0.15000000       0.05000000       0.05000000 </v>
   <v>       0.25000000       0.05000000       0.05000000 </v>
   <v>       0.35000000       0.05000000       0.05000000 </v>
   <v>       0.45000000       0.05000000       0.05000000 </v>
   <v>      -0.45000000       0.05000000       0.05000000 </v>
   <v>      -0.35000000       0.05000000       0.05000000 </v>
   <v>      -0.25000000       0.05000000       0.05000000 </v>
   <v>      -0.15000000       0.05000000       0.05000000 </v>
   <v>      -0.05000000       0.05000000       0.05000000 </v>
   <v>       0.15000000       0.15000000       0.05000000 </v>
   <v>       0.25000000       0.15000000       0.05000000 </v>
   <v>       0.35000000       0.15000000       0.05000000 </v>
   <v>       0.45000000       0.15000000       0.05000000 </v>
   <v>      -0.45000000       0.15000000       0.05000000 </v>
   <v>      -0.35000000       0.15000000       0.05000000 </v>
   <v>      -0.25000000       0.15000000       0.05000000 </v>
   <v>      -0.15000000       0.15000000       0.05000000 </v>
   <v>      -0.05000000       0.15000000       0.05000000 </v>
   <v>       0.25000000       0.25000000       0.05000000 </v>
   <v>       0.35000000       0.25000000       0.05000000 </v>
   <v>       0.45000000       0.25000000       0.05000000 </v>
   <v>      -0.45000000       0.25000000       0.05000000 </v>
   <v>      -0.35000000       0.25000000       0.05000000 </v>
   <v>      -0.25000000       0.25000000       0.05000000 </v>
   <v>      -0.15000000       0.25000000       0.05000000 </v>
   <v>      -0.05000000       0.25000000       0.05000000 </v>
   <v>       0.35000000       0.35000000       0.05000000 </v>
   <v>       0.45000000       0.35000000       0.05000000 </v>
   <v>      -0.45000000       0.35000000       0.05000000 </v>
   <v>      -0.35000000       0.35000000       0.05000000 </v>
   <v>      -0.25000000       0.35000000       0.05000000 </v>
   <v>      -0.15000000       0.35000000       0.05000000 </v>
   <v>      -0.05000000       0.35000000       0.05000000 </v>
   <v>       0.45000000       0.45000000       0.05000000 </v>
   <v>      -0.45000000       0.45000000       0.05000000 </v>
   <v>      -0.35000000       0.45000000       0.05000000 </v>
   <v>      -0.25000000       0.45000000       0.05000000 </v>
   <v>      -0.15000000       0.45000000       0.05000000 </v>
   <v>      -0.05000000       0.45000000       0.05000000 </v>
   <v>      -0.45000000      -0.45000000       0.05000000 </v>
   <v>      -0.35000000      -0.45000000       0.05000000 </v>
   <v>      -0.25000000      -0.45000000       0.05000000 </v>
   <v>      -0.15000000      -0.45000000       0.05000000 </v>
   <v>      -0.35000000      -0.35000000       0.05000000 </v>
   <v>      -0.25000000      -0.35000000       0.05000000 </v>
   <v>      -0.15000000      -0.35000000       0.05000000 </v>
   <v>      -0.25000000      -0.25000000       0.05000000 </v>
   <v>      -0.15000000      -0.25000000       0.05000000 </v>
   <v>      -0.15000000      -0.15000000       0.05000000 </v>
   <v>       0.15000000       0.15000000       0.15000000 </v>
   <v>       0.25000000       0.15000000       0.15000000 </v>
   <v>       0.35000000       0.15000000       0.15000000 </v>
   <v>       0.45000000       0.15000000       0.15000000 </v>
   <v>      -0.45000000       0.15000000       0.15000000 </v>
   <v>      -0.35000000       0.15000000       0.15000000 </v>
   <v>      -0.25000000       0.15000000       0.15000000 </v>
   <v>      -0.15000000       0.15000000       0.15000000 </v>
   <v>       0.25000000       0.25000000       0.15000000 </v>
   <v>       0.35000000       0.25000000       0.15000000 </v>
   <v>       0.45000000       0.25000000       0.15000000 </v>
   <v>      -0.45000000       0.25000000       0.15000000 </v>
   <v>      -0.35000000       0.25000000       0.15000000 </v>
   <v>      -0.25000000       0.25000000       0.15000000 </v>
   <v>      -0.15000000       0.25000000       0.15000000 </v>
   <v>       0.35000000       0.35000000       0.15000000 </v>
   <v>       0.45000000       0.35000000       0.15000000 </v>
   <v>      -0.45000000       0.35000000       0.15000000 </v>
   <v>      -0.35000000       0.35000000       0.15000000 </v>
   <v>      -0.25000000       0.35000000       0.15000000 </v>
   <v>      -0.15000000       0.35000000       0.15000000 </v>
   <v>       0.45000000       0.45000000       0.15000000 </v>
   <v>      -0.45000000       0.45000000       0.15000000 </v>
   <v>      -0.35000000       0.45000000       0.15000000 </v>
   <v>      -0.25000000       0.45000000       0.15000000 </v>
   <v>      -0.15000000       0.45000000       0.15000000 </v>
   <v>      -0.45000000      -0.45000000       0.15000000 </v>
   <v>      -0.35000000      -0.45000000       0.15000000 </v>
   <v>      -0.25000000      -0.45000000       0.15000000 </v>
   <v>      -0.35000000      -0.35000000       0.15000000 </v>
   <v>      -0.25000000      -0.35000000       0.15000000 </v>
   <v>      -0.25000000      -0.25000000       0.15000000 </v>
   <v>       0.25000000       0.25000000       0.25000000 </v>
   <v>       0.35000000       0.25000000       0.25000000 </v>
   <v>       0.45000000       0.25000000       0.25000000 </v>
   <v>      -0.45000000       0.25000000       0.25000000 </v>
   <v>      -0.35000000       0.25000000       0.25000000 </v>
   <v>      -0.25000000       0.25000000       0.25000000 </v>
   <v>       0.35000000       0.35000000       0.25000000 </v>
   <v>       0.45000000       0.35000000       0.25000000 </v>
   <v>      -0.45000000       0.35000000       0.25000000 </v>
   <v>      -0.35000000       0.35000000       0.25000000 </v>
   <v>      -0.25000000       0.35000000       0.25000000 </v>
   <v>       0.45000000       0.45000000       0.25000000 </v>
   <v>      -0.45000000       0.45000000       0.25000000 </v>
   <v>      -0.35000000       0.45000000       0.25000000 </v>
   <v>      -0.25000000       0.45000000       0.25000000 </v>
   <v>      -0.45000000      -0.45000000       0.25000000 </v>
   <v>      -0.35000000      -0.45000000       0.25000000 </v>
   <v>      -0.35000000      -0.35000000       0.25000000 </v>
   <v>       0.35000000       0.35000000       0.35000000 </v>
   <v>       0.45000000       0.35000000       0.35000000 </v>
   <v>      -0.45000000       0.35000000       0.35000000 </v>
   <v>      -0.35000000       0.35000000       0.35000000 </v>
   <v>       0.45000000       0.45000000       0.35000000 </v>
   <v>      -0.45000000       0.45000000       0.35000000 </v>
   <v>      -0.35000000       0.45000000       0.35000000 </v>
   <v>      -0.45000000      -0.45000000       0.35000000 </v>
   <v>       0.45000000       0.45000000       0.45000000 </v>
   <v>      -0.45000000       0.45000000       0.45000000 </v>
  </varray>
  <varray name="weights" >
   <v>       0.00200000 </v>
   <v>       0.00600000 </v>
   <v>       0.00600000 </v>
   <v>       0.00600000 </v>
   <v>       0.00600000 </v>
   <v>       0.00600000 </v>
   <v>       0.00600000 </v>
   <v>       0.00600000 </v>
   <v>       0.00600000 </v>
   <v>       0.00600000 </v>
   <v>       0.00600000 </v>
   <v>       0.01200000 </v>
   <v>       0.01200000 </v>
   <v>       0.01200000 </v>
   <v>       0.01200000 </v>
   <v>       0.01200000 </v>
   <v>       0.01200000 </v>
   <v>       0.01200000 </v>
   <v>       0.01200000 </v>
   <v>       0.00600000 </v>
   <v>       0.01200000 </v>
   <v>       0.01200000 </v>
   <v>       0.01200000 </v>
   <v>       0.01200000 </v>
   <v>       0.01200000 </v>
   <v>       0.01200000 </v>
   <v>       0.01200000 </v>
   <v>       0.00600000 </v>
   <v>       0.01200000 </v>
   <v>       0.01200000 </v>
   <v>       0.01200000 </v>
   <v>       0.01200000 </v>
   <v>       0.01200000 </v>
   <v>       0.01200000 </v>
   <v>       0.00600000 </v>
   <v>       0.01200000 </v>
   <v>       0.01200000 </v>
   <v>       0.01200000 </v>
   <v>       0.01200000 </v>
   <v>       0.01200000 </v>
   <v>       0.00600000 </v>
   <v>       0.01200000 </v>
   <v>       0.01200000 </v>
   <v>       0.01200000 </v>
   <v>       0.00600000 </v>
   <v>       0.01200000 </v>
   <v>       0.01200000 </v>
   <v>       0.00600000 </v>
   <v>       0.01200000 </v>
   <v>       0.00600000 </v>
   <v>       0.00200000 </v>
   <v>       0.00600000 </v>
   <v>       0.00600000 </v>
   <v>       0.00600000 </v>
   <v>       0.00600000 </v>
   <v>       0.00600000 </v>
   <v>       0.00600000 </v>
   <v>       0.00600000 </v>
   <v>       0.00600000 </v>
   <v>       0.01200000 </v>
   <v>       0.01200000 </v>
   <v>       0.01200000 </v>
   <v>       0.01200000 </v>
   <v>       0.01200000 </v>
   <v>       0.01200000 </v>
   <v>       0.00600000 </v>
   <v>       0.01200000 </v>
   <v>       0.01200000 </v>
   <v>       0.01200000 </v>
   <v>       0.01200000 </v>
   <v>       0.01200000 </v>
   <v>       0.00600000 </v>
   <v>       0.01200000 </v>
   <v>       0.01200000 </v>
   <v>       0.01200000 </v>
   <v>       0.01200000 </v>
   <v>       0.00600000 </v>
   <v>       0.01200000 </v>
   <v>       0.01200000 </v>
   <v>       0.00600000 </v>
   <v>       0.01200000 </v>
   <v>       0.00600000 </v>
   <v>       0.00200000 </v>
   <v>       0.00600000 </v>
   <v>       0.00600000 </v>
   <v>       0.00600000 </v>
   <v>       0.00600000 </v>
   <v>       0.00600000 </v>
   <v>       0.00600000 </v>
   <v>       0.01200000 </v>
   <v>       0.01200000 </v>
   <v>       0.01200000 </v>
   <v>       0.01200000 </v>
   <v>       0.00600000 </v>
   <v>       0.01200000 </v>
   <v>       0.01200000 </v>
   <v>       0.01200000 </v>
   <v>       0.00600000 </v>
   <v>       0.01200000 </v>
   <v>       0.00600000 </v>
   <v>       0.00200000 </v>
   <v>       0.00600000 </v>
   <v>       0.00600000 </v>
   <v>       0.00600000 </v>
   <v>       0.00600000 </v>
   <v>       0.01200000 </v>
   <v>       0.01200000 </v>
   <v>       0.00600000 </v>
   <v>       0.00200000 </v>
   <v>       0.00600000 </v>
  </varray>
 </kpoints>
 <parameters>
  <separator name="general" >
   <i type="string" name="SYSTEM">Pt-fcc</i>
   <i type="logical" name="LCOMPAT"> F  </i>
  </separator>
  <separator name="electronic" >
   <i type="string" name="PREC">accura</i>
   <i name="ENMAX">    425.00000000</i>
   <i name="ENAUG">    527.01400000</i>
   <i name="EDIFF">      0.00000100</i>
   <i type="int" name="IALGO">    38</i>
   <i type="int" name="IWAVPR">    11</i>
   <i type="int" name="NBANDS">    24</i>
   <i type="int" name="NBANDSLOW">    -1</i>
   <i type="int" name="NBANDSHIGH">    -1</i>
   <i name="NELECT">     16.00000000</i>
   <i type="int" name="TURBO">     0</i>
   <i type="int" name="IRESTART">     0</i>
   <i type="int" name="NREBOOT">     0</i>
   <i type="int" name="NMIN">     0</i>
   <i name="EREF">      0.00000000</i>
   <separator name="electronic smearing" >
    <i type="int" name="ISMEAR">     0</i>
    <i name="SIGMA">      0.05000000</i>
    <i name="KSPACING">      0.50000000</i>
    <i type="logical" name="KGAMMA"> T  </i>
    <i type="logical" name="KBLOWUP"> T  </i>
   </separator>
   <separator name="electronic projectors" >
    <i type="logical" name="LREAL"> F  </i>
    <v name="ROPT">      0.00000000</v>
    <i type="int" name="LMAXPAW">  -100</i>
    <i type="int" name="LMAXMIX">     2</i>
    <i type="logical" name="NLSPLINE"> F  </i>
   </separator>
   <separator name="electronic startup" >
    <i type="int" name="ISTART">     0</i>
    <i type="int" name="ICHARG">     2</i>
    <i type="int" name="INIWAV">     1</i>
   </separator>
   <separator name="electronic spin" >
    <i type="int" name="ISPIN">     1</i>
    <i type="logical" name="LNONCOLLINEAR"> F  </i>
    <v name="MAGMOM">      1.00000000</v>
    <i name="NUPDOWN">     -1.00000000</i>
    <i type="logical" name="LSORBIT"> F  </i>
    <v name="SAXIS">      0.00000000      0.00000000      1.00000000</v>
    <i type="logical" name="LSPIRAL"> F  </i>
    <v name="QSPIRAL">      0.00000000      0.00000000      0.00000000</v>
    <i type="logical" name="LZEROZ"> F  </i>
   </separator>
   <separator name="electronic exchange-correlation" >
    <i type="logical" name="LASPH"> F  </i>
    <i type="logical" name="LMETAGGA"> F  </i>
   </separator>
   <separator name="electronic convergence" >
    <i type="int" name="NELM">   100</i>
    <i type="int" name="NELMDL">    -5</i>
    <i type="int" name="NELMIN">     2</i>
    <i name="ENINI">    425.00000000</i>
    <separator name="electronic convergence detail" >
     <i type="logical" name="LDIAG"> T  </i>
     <i type="logical" name="LSUBROT"> F  </i>
     <i name="WEIMIN">      0.00100000</i>
     <i name="EBREAK">      0.00000001</i>
     <i name="DEPER">      0.30000000</i>
     <i type="int" name="NRMM">     4</i>
     <i name="TIME">      0.40000000</i>
    </separator>
   </separator>
   <separator name="electronic mixer" >
    <i name="AMIX">      0.40000000</i>
    <i name="BMIX">      1.00000000</i>
    <i name="AMIN">      0.10000000</i>
    <i name="AMIX_MAG">      1.60000000</i>
    <i name="BMIX_MAG">      1.00000000</i>
    <separator name="electronic mixer details" >
     <i type="int" name="IMIX">     4</i>
     <i type="logical" name="MIXFIRST"> F  </i>
     <i type="int" name="MAXMIX">   -45</i>
     <i name="WC">    100.00000000</i>
     <i type="int" name="INIMIX">     1</i>
     <i type="int" name="MIXPRE">     1</i>
     <i type="int" name="MREMOVE">     5</i>
    </separator>
   </separator>
   <separator name="electronic dipolcorrection" >
    <i type="logical" name="LDIPOL"> F  </i>
    <i type="logical" name="LMONO"> F  </i>
    <i type="int" name="IDIPOL">     0</i>
    <i name="EPSILON">      1.00000000</i>
    <v name="DIPOL">   -100.00000000   -100.00000000   -100.00000000</v>
    <i name="EFIELD">      0.00000000</i>
   </separator>
  </separator>
  <separator name="grids" >
   <i type="int" name="NGX">    20</i>
   <i type="int" name="NGY">    20</i>
   <i type="int" name="NGZ">    20</i>
   <i type="int" name="NGXF">    40</i>
   <i type="int" name="NGYF">    40</i>
   <i type="int" name="NGZF">    40</i>
   <i type="logical" name="ADDGRID"> F  </i>
  </separator>
  <separator name="ionic" >
   <i type="int" name="NSW">   100</i>
   <i type="int" name="IBRION">     2</i>
   <i type="int" name="MDALGO">     0</i>
   <i type="int" name="ISIF">     3</i>
   <i name="PSTRESS">      0.00000000</i>
   <i name="EDIFFG">     -0.02000000</i>
   <i type="int" name="NFREE">     1</i>
   <i name="POTIM">      0.50000000</i>
   <i name="SMASS">     -3.00000000</i>
   <i name="SCALEE">      1.00000000</i>
  </separator>
  <separator name="ionic md" >
   <i name="TEBEG">      0.00010000</i>
   <i name="TEEND">      0.00010000</i>
   <i type="int" name="NBLOCK">     1</i>
   <i type="int" name="KBLOCK">   100</i>
   <i type="int" name="NPACO">   256</i>
   <i name="APACO">     10.00000000</i>
  </separator>
  <separator name="symmetry" >
   <i type="int" name="ISYM">     1</i>
   <i name="SYMPREC">      0.00001000</i>
  </separator>
  <separator name="dos" >
   <i type="int" name="LORBIT">    11</i>
   <v name="RWIGS">     -1.00000000</v>
   <i type="int" name="NEDOS">   301</i>
   <i name="EMIN">     10.00000000</i>
   <i name="EMAX">    -10.00000000</i>
   <i name="EFERMI">      0.00000000</i>
  </separator>
  <separator name="writing" >
   <i type="int" name="NWRITE">     2</i>
   <i type="logical" name="LWAVE"> T  </i>
   <i type="logical" name="LDOWNSAMPLE"> F  </i>
   <i type="logical" name="LCHARG"> T  </i>
   <i type="logical" name="LPARD"> F  </i>
   <i type="logical" name="LVTOT"> F  </i>
   <i type="logical" name="LVHAR"> F  </i>
   <i type="logical" name="LELF"> F  </i>
   <i type="logical" name="LOPTICS"> F  </i>
   <v name="STM">      0.00000000      0.00000000      0.00000000      0.00000000      0.00000000      0.00000000      0.00000000</v>
  </separator>
  <separator name="performance" >
   <i type="int" name="NPAR">    24</i>
   <i type="int" name="NSIM">     4</i>
   <i type="int" name="NBLK">    -1</i>
   <i type="logical" name="LPLANE"> T  </i>
   <i type="logical" name="LSCALAPACK"> T  </i>
   <i type="logical" name="LSCAAWARE"> T  </i>
   <i type="logical" name="LSCALU"> F  </i>
   <i type="logical" name="LASYNC"> F  </i>
   <i type="logical" name="LORBITALREAL"> F  </i>
  </separator>
  <separator name="miscellaneous" >
   <i type="int" name="IDIOT">     3</i>
   <i type="int" name="PHON_NSTRUCT">    -1</i>
   <i type="logical" name="LMUSIC"> F  </i>
   <v name="POMASS">    195.08000000</v>
   <v name="DARWINR">      0.00000000</v>
   <v name="DARWINV">      1.00000000</v>
   <i type="logical" name="LCORR"> T  </i>
  </separator>
  <i type="logical" name="GGA_COMPAT"> T  </i>
  <i type="logical" name="LBERRY"> F  </i>
  <i type="int" name="ICORELEVEL">     0</i>
  <i type="logical" name="LDAU"> F  </i>
  <i type="int" name="I_CONSTRAINED_M">     0</i>
  <separator name="electronic exchange-correlation" >
   <i type="string" name="GGA">--</i>
   <i type="int" name="VOSKOWN">     0</i>
   <i type="logical" name="LHFCALC"> F  </i>
   <i type="string" name="PRECFOCK"></i>
   <i type="logical" name="LSYMGRAD"> F  </i>
   <i type="logical" name="LHFONE"> F  </i>
   <i type="logical" name="LRHFCALC"> F  </i>
   <i type="logical" name="LTHOMAS"> F  </i>
   <i type="logical" name="LMODELHF"> F  </i>
   <i type="logical" name="LFOCKACE"> F  </i>
   <i name="ENCUT4O">     -1.00000000</i>
   <i type="int" name="EXXOEP">     0</i>
   <i type="int" name="FOURORBIT">     0</i>
   <i name="AEXX">      0.00000000</i>
   <i name="HFALPHA">      0.00000000</i>
   <i name="MCALPHA">      0.00000000</i>
   <i name="ALDAX">      1.00000000</i>
   <i name="AGGAX">      1.00000000</i>
   <i name="ALDAC">      1.00000000</i>
   <i name="AGGAC">      1.00000000</i>
   <i type="int" name="NKREDX">     1</i>
   <i type="int" name="NKREDY">     1</i>
   <i type="int" name="NKREDZ">     1</i>
   <i type="logical" name="SHIFTRED"> F  </i>
   <i type="logical" name="ODDONLY"> F  </i>
   <i type="logical" name="EVENONLY"> F  </i>
   <i type="int" name="LMAXFOCK">     0</i>
   <i type="int" name="NMAXFOCKAE">     0</i>
   <i type="logical" name="LFOCKAEDFT"> F  </i>
   <i name="HFSCREEN">      0.00000000</i>
   <i name="HFSCREENC">      0.00000000</i>
   <i type="int" name="NBANDSGWLOW">     0</i>
  </separator>
  <separator name="vdW DFT" >
   <i type="logical" name="LUSE_VDW"> F  </i>
   <i name="Zab_VDW">     -0.84910000</i>
   <i name="PARAM1">      0.12340000</i>
   <i name="PARAM2">      1.00000000</i>
   <i name="PARAM3">      0.00000000</i>
  </separator>
  <separator name="model GW" >
   <i type="int" name="MODEL_GW">     0</i>
   <i name="MODEL_EPS0">      9.17444760</i>
   <i name="MODEL_ALPHA">      1.00000000</i>
  </separator>
  <separator name="linear response parameters" >
   <i type="logical" name="LEPSILON"> F  </i>
   <i type="logical" name="LRPA"> F  </i>
   <i type="logical" name="LNABLA"> F  </i>
   <i type="logical" name="LVEL"> F  </i>
   <i name="CSHIFT">      0.10000000</i>
   <i name="OMEGAMAX">     -1.00000000</i>
   <i name="DEG_THRESHOLD">      0.00200000</i>
   <i name="RTIME">     -0.10000000</i>
   <i name="WPLASMAI">      0.00000000</i>
   <v name="DFIELD">      0.00000000      0.00000000      0.00000000</v>
   <v name="WPLASMA">      0.00000000      0.00000000      0.00000000      0.00000000      0.00000000      0.00000000      0.00000000      0.00000000      0.00000000</v>
  </separator>
  <separator name="orbital magnetization" >
   <i type="logical" name="NUCIND"> F  </i>
   <v name="MAGPOS">      0.00000000      0.00000000      0.00000000</v>
   <i type="logical" name="LNICSALL"> T  </i>
   <i type="logical" name="ORBITALMAG"> F  </i>
   <i type="logical" name="LMAGBLOCH"> F  </i>
   <i type="logical" name="LCHIMAG"> F  </i>
   <i type="logical" name="LGAUGE"> T  </i>
   <i type="int" name="MAGATOM">     0</i>
   <v name="MAGDIPOL">      0.00000000      0.00000000      0.00000000</v>
   <v name="AVECCONST">      0.00000000      0.00000000      0.00000000</v>
  </separator>
  <separator name="response functions" >
   <i type="logical" name="LFINITE_TEMPERATURE"> F  </i>
   <i type="logical" name="LADDER"> F  </i>
   <i type="logical" name="LRPAFORCE"> F  </i>
   <i type="logical" name="LFXC"> F  </i>
   <i type="logical" name="LHARTREE"> T  </i>
   <i type="int" name="IBSE">     0</i>
   <v type="int" name="KPOINT">    -1     0     0     0</v>
   <i type="logical" name="LTCTC"> F  </i>
   <i type="logical" name="LTCTE"> F  </i>
   <i type="logical" name="LTETE"> F  </i>
   <i type="logical" name="LTRIPLET"> F  </i>
   <i type="logical" name="LFXCEPS"> F  </i>
   <i type="logical" name="LFXHEG"> F  </i>
   <i type="int" name="NATURALO">     2</i>
   <i type="logical" name="LHOLEGF"> F  </i>
   <i type="logical" name="L2ORDER"> F  </i>
   <i type="logical" name="LDMP1"> F  </i>
   <i type="logical" name="LMP2LT"> F  </i>
   <i type="logical" name="LSMP2LT"> F  </i>
   <i type="logical" name="LGWLF"> F  </i>
   <i name="ENCUTGW">     -2.00000000</i>
   <i name="ENCUTGWSOFT">     -2.00000000</i>
   <i name="ENCUTLF">     -1.00000000</i>
   <i type="logical" name="LESF_SPLINES"> F  </i>
   <i type="int" name="LMAXMP2">    -1</i>
   <i name="SCISSOR">      0.00000000</i>
   <i type="int" name="NOMEGA">     0</i>
   <i type="int" name="NOMEGAR">     0</i>
   <i type="int" name="NBANDSGW">    -1</i>
   <i type="int" name="NBANDSO">    -1</i>
   <i type="int" name="NBANDSV">    -1</i>
   <i type="int" name="NELMGW">     1</i>
   <i type="int" name="NELMHF">     1</i>
   <i type="int" name="DIM">     3</i>
   <i type="int" name="IESPILON">     4</i>
   <i type="int" name="ANTIRES">     0</i>
   <i name="OMEGAMAX">    -30.00000000</i>
   <i name="OMEGAMIN">    -30.00000000</i>
   <i name="OMEGATL">   -200.00000000</i>
   <i type="int" name="OMEGAGRID">     0</i>
   <i name="CSHIFT">     -0.10000000</i>
   <i type="logical" name="LSELFENERGY"> F  </i>
   <i type="logical" name="LSPECTRAL"> F  </i>
   <i type="logical" name="LSPECTRALGW"> F  </i>
   <i type="logical" name="LSINGLES"> F  </i>
   <i type="logical" name="LFERMIGW"> F  </i>
   <i type="logical" name="ODDONLYGW"> F  </i>
   <i type="logical" name="EVENONLYGW"> F  </i>
   <i type="int" name="NKREDLFX">     1</i>
   <i type="int" name="NKREDLFY">     1</i>
   <i type="int" name="NKREDLFZ">     1</i>
   <i type="int" name="MAXMEM">  2800</i>
   <i type="int" name="TELESCOPE">     0</i>
   <i type="int" name="NTAUPAR">    -1</i>
   <i type="int" name="NOMEGAPAR">    -1</i>
   <i name="DAMP_NEWTON">      0.80000001</i>
   <i name="LAMBDA">      1.00000000</i>
  </separator>
  <separator name="External order field" >
   <i name="OFIELD_KAPPA">      0.00000000</i>
   <v name="OFIELD_K">      0.00000000      0.00000000      0.00000000</v>
   <i name="OFIELD_Q6_NEAR">      0.00000000</i>
   <i name="OFIELD_Q6_FAR">      0.00000000</i>
   <i name="OFIELD_A">      0.00000000</i>
  </separator>
  <separator name="optional k-points parameters" >
   <i type="int" name="KPOINTS_OPT_MODE">     1</i>
   <i type="logical" name="LKPOINTS_OPT"> F  </i>
  </separator>
 </parameters>
 <atominfo>
  <atoms>       1 </atoms>
  <types>       1 </types>
  <array name="atoms" >
   <dimension dim="1">ion</dimension>
   <field type="string">element</field>
   <field type="int">atomtype</field>
   <set>
    <rc><c>Pt</c><c>   1</c></rc>
   </set>
  </array>
  <array name="atomtypes" >
   <dimension dim="1">type</dimension>
   <field type="int">atomspertype</field>
   <field type="string">element</field>
   <field>mass</field>
   <field>valence</field>
   <field type="string">pseudopotential</field>
   <set>
    <rc><c>   1</c><c>Pt</c><c>    195.08000000</c><c>     16.00000000</c><c>  PAW_PBE Pt_pv 12Dec2005               </c></rc>
   </set>
  </array>
 </atominfo>
 <structure name="initialpos" >
  <crystal>
   <varray name="basis" >
    <v>       0.00000000       1.97000000       1.97000000 </v>
    <v>       1.97000000       0.00000000       1.97000000 </v>
    <v>       1.97000000       1.97000000       0.00000000 </v>
   </varray>
   <i name="volume">     15.29074600 </i>
   <varray name="rec_basis" >
    <v>      -0.25380711       0.25380711       0.25380711 </v>
    <v>       0.25380711      -0.25380711       0.25380711 </v>
    <v>       0.25380711       0.25380711      -0.25380711 </v>
   </varray>
  </crystal>
  <varray name="positions" >
   <v>       0.00000000       0.00000000       0.00000000 </v>
  </varray>
 </structure>
 <calculation>
  <scstep>
   <time name="dav">    0.51    0.52</time>
   <time name="total">    0.52    0.52</time>
   <energy>
    <i name="alphaZ">    156.91311333 </i>
    <i name="ewald">  -2144.84590610 </i>
    <i name="hartreedc">   -397.82488157 </i>
    <i name="XCdc">     63.81680431 </i>
    <i name="pawpsdc">   2065.75261637 </i>
    <i name="pawaedc">  -2030.83594803 </i>
    <i name="eentropy">     -0.00049425 </i>
    <i name="bandstr">   -124.82912779 </i>
    <i name="atom">   2428.19501064 </i>
    <i name="e_fr_energy">     16.34118693 </i>
    <i name="e_wo_entrp">     16.34168118 </i>
    <i name="e_0_energy">     16.34143405 </i>
   </energy>
  </scstep>
  <scstep>
   <time name="dav">    0.64    0.65</time>
   <time name="total">    0.64    0.65</time>
   <energy>
    <i name="e_fr_energy">     -6.39596443 </i>
    <i name="e_wo_entrp">     -6.39424076 </i>
    <i name="e_0_energy">     -6.39510259 </i>
   </energy>
  </scstep>
  <scstep>
   <time name="dav">    0.70    0.71</time>
   <time name="total">    0.70    0.71</time>
   <energy>
    <i name="e_fr_energy">     -6.42927798 </i>
    <i name="e_wo_entrp">     -6.42753794 </i>
    <i name="e_0_energy">     -6.42840796 </i>
   </energy>
  </scstep>
  <scstep>
   <time name="dav">    0.91    0.91</time>
   <time name="total">    0.91    0.91</time>
   <energy>
    <i name="e_fr_energy">     -6.42930283 </i>
    <i name="e_wo_entrp">     -6.42756279 </i>
    <i name="e_0_energy">     -6.42843281 </i>
   </energy>
  </scstep>
  <scstep>
   <time name="dav">    0.68    0.68</time>
   <time name="total">    0.70    0.70</time>
   <energy>
    <i name="e_fr_energy">     -6.42930283 </i>
    <i name="e_wo_entrp">     -6.42756279 </i>
    <i name="e_0_energy">     -6.42843281 </i>
   </energy>
  </scstep>
  <scstep>
   <time name="dav">    0.51    0.52</time>
   <time name="total">    0.54    0.54</time>
   <energy>
    <i name="e_fr_energy">     -6.09533482 </i>
    <i name="e_wo_entrp">     -6.09294349 </i>
    <i name="e_0_energy">     -6.09413916 </i>
   </energy>
  </scstep>
  <scstep>
   <time name="dav">    0.84    0.84</time>
   <time name="total">    0.86    0.87</time>
   <energy>
    <i name="e_fr_energy">     -6.07674382 </i>
    <i name="e_wo_entrp">     -6.07431139 </i>
    <i name="e_0_energy">     -6.07552761 </i>
   </energy>
  </scstep>
  <scstep>
   <time name="dav">    0.49    0.50</time>
   <time name="total">    0.52    0.52</time>
   <energy>
    <i name="e_fr_energy">     -6.07520159 </i>
    <i name="e_wo_entrp">     -6.07274434 </i>
    <i name="e_0_energy">     -6.07397297 </i>
   </energy>
  </scstep>
  <scstep>
   <time name="dav">    0.77    0.77</time>
   <time name="total">    0.79    0.80</time>
   <energy>
    <i name="e_fr_energy">     -6.07513262 </i>
    <i name="e_wo_entrp">     -6.07267913 </i>
    <i name="e_0_energy">     -6.07390587 </i>
   </energy>
  </scstep>
  <scstep>
   <time name="dav">    0.74    0.74</time>
   <time name="total">    0.76    0.77</time>
   <energy>
    <i name="e_fr_energy">     -6.07513817 </i>
    <i name="e_wo_entrp">     -6.07268583 </i>
    <i name="e_0_energy">     -6.07391200 </i>
   </energy>
  </scstep>
  <scstep>
   <time name="dav">    0.32    0.32</time>
   <time name="total">    0.33    0.33</time>
   <energy>
    <i name="alphaZ">    156.91311333 </i>
    <i name="ewald">  -2144.84590610 </i>
    <i name="hartreedc">   -378.53191457 </i>
    <i name="XCdc">     62.96276660 </i>
    <i name="pawpsdc">   2351.99111183 </i>
    <i name="pawaedc">  -2319.71725491 </i>
    <i name="eentropy">     -0.00245234 </i>
    <i name="bandstr">   -163.03961258 </i>
    <i name="atom">   2428.19501064 </i>
    <i name="e_fr_energy">     -6.07513810 </i>
    <i name="e_wo_entrp">     -6.07268576 </i>
    <i name="e_0_energy">     -6.07391193 </i>
   </energy>
  </scstep>
  <structure>
   <crystal>
    <varray name="basis" >
     <v>       0.00000000       1.97000000       1.97000000 </v>
     <v>       1.97000000       0.00000000       1.97000000 </v>
     <v>       1.97000000       1.97000000       0.00000000 </v>
    </varray>
    <i name="volume">     15.29074600 </i>
    <varray name="rec_basis" >
     <v>      -0.25380711       0.25380711       0.25380711 </v>
     <v>       0.25380711      -0.25380711       0.25380711 </v>
     <v>       0.25380711       0.25380711      -0.25380711 </v>
    </varray>
   </crystal>
   <varray name="positions" >
    <v>       0.00000000       0.00000000       0.00000000 </v>
   </varray>
  </structure>
  <varray name="forces" >
   <v>       0.00000000       0.00000000       0.00000000 </v>
  </varray>
  <varray name="stress" >
   <v>      36.31113926       0.00000000      -0.00000000 </v>
   <v>      -0.00000000      36.31113926       0.00000000 </v>
   <v>       0.00000000      -0.00000000      36.31113926 </v>
  </varray>
  <energy>
   <i name="e_fr_energy">     -6.07513810 </i>
   <i name="e_wo_entrp">     -6.07268576 </i>
   <i name="e_0_energy">     -6.07391193 </i>
  </energy>
  <time name="totalsc">    7.52    7.60</time>
 </calculation>
 <calculation>
  <scstep>
   <time name="dav">    0.41    0.42</time>
   <time name="total">    0.44    0.44</time>
   <energy>
    <i name="alphaZ">    149.29919412 </i>
    <i name="ewald">  -2109.57759492 </i>
    <i name="hartreedc">   -372.30609100 </i>
    <i name="XCdc">     61.81463306 </i>
    <i name="pawpsdc">   2351.78096798 </i>
    <i name="pawaedc">  -2319.50760199 </i>
    <i name="eentropy">     -0.00291237 </i>
    <i name="bandstr">   -196.61675491 </i>
    <i name="atom">   2428.19501064 </i>
    <i name="e_fr_energy">     -6.92114939 </i>
    <i name="e_wo_entrp">     -6.91823702 </i>
    <i name="e_0_energy">     -6.91969320 </i>
   </energy>
  </scstep>
  <scstep>
   <time name="dav">    0.43    0.44</time>
   <time name="total">    0.46    0.46</time>
   <energy>
    <i name="e_fr_energy">     -6.05729893 </i>
    <i name="e_wo_entrp">     -6.05456216 </i>
    <i name="e_0_energy">     -6.05593054 </i>
   </energy>
  </scstep>
  <scstep>
   <time name="dav">    0.81    0.81</time>
   <time name="total">    0.83    0.84</time>
   <energy>
    <i name="e_fr_energy">     -6.05422307 </i>
    <i name="e_wo_entrp">     -6.05155082 </i>
    <i name="e_0_energy">     -6.05288694 </i>
   </energy>
  </scstep>
  <scstep>
   <time name="dav">    0.52    0.52</time>
   <time name="total">    0.54    0.54</time>
   <energy>
    <i name="e_fr_energy">     -6.06037568 </i>
    <i name="e_wo_entrp">     -6.05769537 </i>
    <i name="e_0_energy">     -6.05903552 </i>
   </energy>
  </scstep>
  <scstep>
   <time name="dav">    0.75    0.75</time>
   <time name="total">    0.77    0.78</time>
   <energy>
    <i name="e_fr_energy">     -6.06113314 </i>
    <i name="e_wo_entrp">     -6.05844990 </i>
    <i name="e_0_energy">     -6.05979152 </i>
   </energy>
  </scstep>
  <scstep>
   <time name="dav">    0.54    0.54</time>
   <time name="total">    0.56    0.56</time>
   <energy>
    <i name="e_fr_energy">     -6.06114141 </i>
    <i name="e_wo_entrp">     -6.05845856 </i>
    <i name="e_0_energy">     -6.05979998 </i>
   </energy>
  </scstep>
  <scstep>
   <time name="dav">    0.62    0.62</time>
   <time name="total">    0.62    0.62</time>
   <energy>
    <i name="alphaZ">    149.29919412 </i>
    <i name="ewald">  -2109.57759492 </i>
    <i name="hartreedc">   -394.82341573 </i>
    <i name="XCdc">     62.71236352 </i>
    <i name="pawpsdc">   2283.59314816 </i>
    <i name="pawaedc">  -2251.10129207 </i>
    <i name="eentropy">     -0.00268282 </i>
    <i name="bandstr">   -174.35587218 </i>
    <i name="atom">   2428.19501064 </i>
    <i name="e_fr_energy">     -6.06114126 </i>
    <i name="e_wo_entrp">     -6.05845843 </i>
    <i name="e_0_energy">     -6.05979985 </i>
   </energy>
  </scstep>
  <structure>
   <crystal>
    <varray name="basis" >
     <v>      -0.00000000       2.00293483       2.00293483 </v>
     <v>       2.00293483       0.00000000       2.00293483 </v>
     <v>       2.00293483       2.00293483      -0.00000000 </v>
    </varray>
    <i name="volume">     16.07053926 </i>
    <varray name="rec_basis" >
     <v>      -0.24963368       0.24963368       0.24963368 </v>
     <v>       0.24963368      -0.24963368       0.24963368 </v>
     <v>       0.24963368       0.24963368      -0.24963368 </v>
    </varray>
   </crystal>
   <varray name="positions" >
    <v>       0.00000000       0.00000000       0.00000000 </v>
   </varray>
  </structure>
  <varray name="forces" >
   <v>       0.00000000       0.00000000       0.00000000 </v>
  </varray>
  <varray name="stress" >
   <v>     -86.97093636      -0.00000000      -0.00000000 </v>
   <v>       0.00000000     -86.97093636      -0.00000000 </v>
   <v>      -0.00000000       0.00000000     -86.97093636 </v>
  </varray>
  <energy>
   <i name="e_fr_energy">     -6.06114126 </i>
   <i name="e_wo_entrp">     -6.05845843 </i>
   <i name="e_0_energy">     -6.05979985 </i>
  </energy>
  <time name="totalsc">    4.42    4.44</time>
 </calculation>
 <calculation>
  <scstep>
   <time name="dav">    0.41    0.42</time>
   <time name="total">    0.44    0.44</time>
   <energy>
    <i name="alphaZ">    154.81755146 </i>
    <i name="ewald">  -2135.25500241 </i>
    <i name="hartreedc">   -399.63054735 </i>
    <i name="XCdc">     63.56223096 </i>
    <i name="pawpsdc">   2283.53852885 </i>
    <i name="pawaedc">  -2251.04532933 </i>
    <i name="eentropy">     -0.00198698 </i>
    <i name="bandstr">   -150.70919464 </i>
    <i name="atom">   2428.19501064 </i>
    <i name="e_fr_energy">     -6.52873879 </i>
    <i name="e_wo_entrp">     -6.52675181 </i>
    <i name="e_0_energy">     -6.52774530 </i>
   </energy>
  </scstep>
  <scstep>
   <time name="dav">    0.43    0.44</time>
   <time name="total">    0.46    0.46</time>
   <energy>
    <i name="e_fr_energy">     -6.07927826 </i>
    <i name="e_wo_entrp">     -6.07676273 </i>
    <i name="e_0_energy">     -6.07802049 </i>
   </energy>
  </scstep>
  <scstep>
   <time name="dav">    0.77    0.77</time>
   <time name="total">    0.79    0.79</time>
   <energy>
    <i name="e_fr_energy">     -6.07357717 </i>
    <i name="e_wo_entrp">     -6.07106285 </i>
    <i name="e_0_energy">     -6.07232001 </i>
   </energy>
  </scstep>
  <scstep>
   <time name="dav">    0.51    0.51</time>
   <time name="total">    0.53    0.53</time>
   <energy>
    <i name="e_fr_energy">     -6.07720261 </i>
    <i name="e_wo_entrp">     -6.07469703 </i>
    <i name="e_0_energy">     -6.07594982 </i>
   </energy>
  </scstep>
  <scstep>
   <time name="dav">    0.83    0.84</time>
   <time name="total">    0.85    0.86</time>
   <energy>
    <i name="e_fr_energy">     -6.07740713 </i>
    <i name="e_wo_entrp">     -6.07490307 </i>
    <i name="e_0_energy">     -6.07615510 </i>
   </energy>
  </scstep>
  <scstep>
   <time name="dav">    0.46    0.47</time>
   <time name="total">    0.49    0.49</time>
   <energy>
    <i name="e_fr_energy">     -6.07741547 </i>
    <i name="e_wo_entrp">     -6.07491104 </i>
    <i name="e_0_energy">     -6.07616325 </i>
   </energy>
  </scstep>
  <scstep>
   <time name="dav">    0.31    0.31</time>
   <time name="total">    0.31    0.31</time>
   <energy>
    <i name="alphaZ">    154.81755146 </i>
    <i name="ewald">  -2135.25500241 </i>
    <i name="hartreedc">   -382.90569242 </i>
    <i name="XCdc">     62.89291251 </i>
    <i name="pawpsdc">   2332.20077017 </i>
    <i name="pawaedc">  -2299.86671420 </i>
    <i name="eentropy">     -0.00250446 </i>
    <i name="bandstr">   -166.15374685 </i>
    <i name="atom">   2428.19501064 </i>
    <i name="e_fr_energy">     -6.07741555 </i>
    <i name="e_wo_entrp">     -6.07491109 </i>
    <i name="e_0_energy">     -6.07616332 </i>
   </energy>
  </scstep>
  <structure>
   <crystal>
    <varray name="basis" >
     <v>      -0.00000000       1.97884863       1.97884863 </v>
     <v>       1.97884863       0.00000000       1.97884863 </v>
     <v>       1.97884863       1.97884863      -0.00000000 </v>
    </varray>
    <i name="volume">     15.49771675 </i>
    <varray name="rec_basis" >
     <v>      -0.25267218       0.25267218       0.25267218 </v>
     <v>       0.25267218      -0.25267218       0.25267218 </v>
     <v>       0.25267218       0.25267218      -0.25267218 </v>
    </varray>
   </crystal>
   <varray name="positions" >
    <v>       0.00000000       0.00000000       0.00000000 </v>
   </varray>
  </structure>
  <varray name="forces" >
   <v>       0.00000000      -0.00000000       0.00000000 </v>
  </varray>
  <varray name="stress" >
   <v>      -0.38173501      -0.00000000      -0.00000000 </v>
   <v>       0.00000000      -0.38173501       0.00000000 </v>
   <v>       0.00000000       0.00000000      -0.38173501 </v>
  </varray>
  <energy>
   <i name="e_fr_energy">     -6.07741555 </i>
   <i name="e_wo_entrp">     -6.07491109 </i>
   <i name="e_0_energy">     -6.07616332 </i>
  </energy>
  <time name="totalsc">    4.06    4.17</time>
  <eigenvalues>
   <array>
    <dimension dim="1">band</dimension>
    <dimension dim="2">kpoint</dimension>
    <dimension dim="3">spin</dimension>
    <field>eigene</field>
    <field>occ</field>
    <set>
     <set comment="spin 1">
      <set comment="kpoint 1">
       <r>  -40.9288    1.0000 </r>
       <r>  -40.9203    1.0000 </r>
       <r>  -40.9203    1.0000 </r>
       <r>    1.6822    1.0000 </r>
       <r>    7.8546    1.0000 </r>
       <r>    7.9367    1.0000 </r>
       <r>    7.9367    1.0000 </r>
       <r>    9.9493    1.0000 </r>
       <r>    9.9493    1.0000 </r>
       <r>   26.3615    0.0000 </r>
       <r>   30.4731    0.0000 </r>
       <r>   31.1715    0.0000 </r>
       <r>   31.1715    0.0000 </r>
       <r>   36.8847    0.0000 </r>
       <r>   41.5306    0.0000 </r>
       <r>   42.2660    0.0000 </r>
       <r>   42.2660    0.0000 </r>
       <r>   45.4105    0.0000 </r>
       <r>   45.4105    0.0000 </r>
       <r>   46.3246    0.0000 </r>
       <r>   52.2008    0.0000 </r>
       <r>   52.2008    0.0000 </r>
       <r>   52.3018    0.0000 </r>
       <r>   59.1566    0.0000 </r>
      </set>
      <set comment="kpoint 2">
       <r>  -40.9788    1.0000 </r>
       <r>  -40.9347    1.0000 </r>
       <r>  -40.9244    1.0000 </r>
       <r>    2.1924    1.0000 </r>
       <r>    7.6325    1.0000 </r>
       <r>    8.1121    1.0000 </r>
       <r>    8.1503    1.0000 </r>
       <r>    9.7338    1.0000 </r>
       <r>   10.0053    1.0000 </r>
       <r>   27.0799    0.0000 </r>
       <r>   28.7646    0.0000 </r>
       <r>   31.2626    0.0000 </r>
       <r>   32.2661    0.0000 </r>
       <r>   37.3196    0.0000 </r>
       <r>   39.7143    0.0000 </r>
       <r>   40.2217    0.0000 </r>
       <r>   41.3428    0.0000 </r>
       <r>   43.7906    0.0000 </r>
       <r>   46.8263    0.0000 </r>
       <r>   49.0507    0.0000 </r>
       <r>   51.0697    0.0000 </r>
       <r>   52.3040    0.0000 </r>
       <r>   53.3711    0.0000 </r>
       <r>   60.2694    0.0000 </r>
      </set>
      <set comment="kpoint 3">
       <r>  -41.0908    1.0000 </r>
       <r>  -40.9543    1.0000 </r>
       <r>  -40.9390    1.0000 </r>
       <r>    3.2872    1.0000 </r>
       <r>    7.4182    1.0000 </r>
       <r>    8.2961    1.0000 </r>
       <r>    8.3338    1.0000 </r>
       <r>    9.7208    1.0000 </r>
       <r>   10.2629    1.0000 </r>
       <r>   25.8296    0.0000 </r>
       <r>   27.9907    0.0000 </r>
       <r>   32.2759    0.0000 </r>
       <r>   34.1893    0.0000 </r>
       <r>   34.2898    0.0000 </r>
       <r>   37.4774    0.0000 </r>
       <r>   37.5266    0.0000 </r>
       <r>   44.0954    0.0000 </r>
       <r>   44.2433    0.0000 </r>
       <r>   47.4721    0.0000 </r>
       <r>   49.5587    0.0000 </r>
       <r>   52.1754    0.0000 </r>
       <r>   52.3106    0.0000 </r>
       <r>   54.0436    0.0000 </r>
       <r>   60.5716    0.0000 </r>
      </set>
      <set comment="kpoint 4">
       <r>  -41.2180    1.0000 </r>
       <r>  -40.9737    1.0000 </r>
       <r>  -40.9583    1.0000 </r>
       <r>    4.2745    1.0000 </r>
       <r>    7.9699    1.0000 </r>
       <r>    8.1512    1.0000 </r>
       <r>    8.1812    1.0000 </r>
       <r>   10.3596    1.0000 </r>
       <r>   10.9839    1.0000 </r>
       <r>   22.3074    0.0000 </r>
       <r>   27.2259    0.0000 </r>
       <r>   31.6111    0.0000 </r>
       <r>   33.8202    0.0000 </r>
       <r>   35.1153    0.0000 </r>
       <r>   36.8727    0.0000 </r>
       <r>   37.5037    0.0000 </r>
       <r>   44.6997    0.0000 </r>
       <r>   46.8574    0.0000 </r>
       <r>   49.0290    0.0000 </r>
       <r>   50.3463    0.0000 </r>
       <r>   52.3131    0.0000 </r>
       <r>   52.9402    0.0000 </r>
       <r>   54.7548    0.0000 </r>
       <r>   59.5376    0.0000 </r>
      </set>
      <set comment="kpoint 5">
       <r>  -41.3121    1.0000 </r>
       <r>  -40.9861    1.0000 </r>
       <r>  -40.9748    1.0000 </r>
       <r>    4.5369    1.0000 </r>
       <r>    7.8667    1.0000 </r>
       <r>    7.9625    1.0000 </r>
       <r>    9.7054    1.0000 </r>
       <r>   11.1755    1.0000 </r>
       <r>   11.8435    0.0000 </r>
       <r>   18.6996    0.0000 </r>
       <r>   26.1986    0.0000 </r>
       <r>   30.2068    0.0000 </r>
       <r>   31.2360    0.0000 </r>
       <r>   37.9312    0.0000 </r>
       <r>   38.9159    0.0000 </r>
       <r>   39.5660    0.0000 </r>
       <r>   45.3983    0.0000 </r>
       <r>   46.7199    0.0000 </r>
       <r>   48.1021    0.0000 </r>
       <r>   52.3185    0.0000 </r>
       <r>   52.5798    0.0000 </r>
       <r>   55.3509    0.0000 </r>
       <r>   55.5722    0.0000 </r>
       <r>   56.6500    0.0000 </r>
      </set>
      <set comment="kpoint 6">
       <r>  -41.3379    1.0000 </r>
       <r>  -40.9867    1.0000 </r>
       <r>  -40.9824    1.0000 </r>
       <r>    4.5450    1.0000 </r>
       <r>    7.7794    1.0000 </r>
       <r>    7.9116    1.0000 </r>
       <r>   10.4120    1.0000 </r>
       <r>   11.5757    0.2484 </r>
       <r>   12.2927    0.0000 </r>
       <r>   17.2005    0.0000 </r>
       <r>   25.9225    0.0000 </r>
       <r>   30.1140    0.0000 </r>
       <r>   30.1678    0.0000 </r>
       <r>   39.1382    0.0000 </r>
       <r>   39.3470    0.0000 </r>
       <r>   40.8330    0.0000 </r>
       <r>   45.6801    0.0000 </r>
       <r>   46.6673    0.0000 </r>
       <r>   46.7227    0.0000 </r>
       <r>   52.3222    0.0000 </r>
       <r>   53.6882    0.0000 </r>
       <r>   54.3107    0.0000 </r>
       <r>   56.1538    0.0000 </r>
       <r>   57.0732    0.0000 </r>
      </set>
      <set comment="kpoint 7">
       <r>  -41.2870    1.0000 </r>
       <r>  -40.9781    1.0000 </r>
       <r>  -40.9750    1.0000 </r>
       <r>    4.5038    1.0000 </r>
       <r>    7.9061    1.0000 </r>
       <r>    8.0548    1.0000 </r>
       <r>    9.0615    1.0000 </r>
       <r>   11.2391    1.0000 </r>
       <r>   11.2934    1.0000 </r>
       <r>   19.8217    0.0000 </r>
       <r>   26.4741    0.0000 </r>
       <r>   30.8067    0.0000 </r>
       <r>   31.6383    0.0000 </r>
       <r>   37.6833    0.0000 </r>
       <r>   37.8520    0.0000 </r>
       <r>   38.7449    0.0000 </r>
       <r>   44.6320    0.0000 </r>
       <r>   47.7166    0.0000 </r>
       <r>   48.4151    0.0000 </r>
       <r>   52.3187    0.0000 </r>
       <r>   52.4382    0.0000 </r>
       <r>   53.7271    0.0000 </r>
       <r>   55.4870    0.0000 </r>
       <r>   57.3049    0.0000 </r>
      </set>
      <set comment="kpoint 8">
       <r>  -41.1768    1.0000 </r>
       <r>  -40.9634    1.0000 </r>
       <r>  -40.9560    1.0000 </r>
       <r>    4.0205    1.0000 </r>
       <r>    7.6379    1.0000 </r>
       <r>    8.1832    1.0000 </r>
       <r>    8.2806    1.0000 </r>
       <r>   10.2136    1.0000 </r>
       <r>   10.6099    1.0000 </r>
       <r>   23.5427    0.0000 </r>
       <r>   27.6421    0.0000 </r>
       <r>   32.3133    0.0000 </r>
       <r>   33.7451    0.0000 </r>
       <r>   35.3341    0.0000 </r>
       <r>   36.2346    0.0000 </r>
       <r>   36.8779    0.0000 </r>
       <r>   44.2132    0.0000 </r>
       <r>   47.3779    0.0000 </r>
       <r>   47.8700    0.0000 </r>
       <r>   50.2520    0.0000 </r>
       <r>   51.7134    0.0000 </r>
       <r>   52.3144    0.0000 </r>
       <r>   55.0599    0.0000 </r>
       <r>   60.4882    0.0000 </r>
      </set>
      <set comment="kpoint 9">
       <r>  -41.0491    1.0000 </r>
       <r>  -40.9438    1.0000 </r>
       <r>  -40.9368    1.0000 </r>
       <r>    2.8859    1.0000 </r>
       <r>    7.4327    1.0000 </r>
       <r>    8.2894    1.0000 </r>
       <r>    8.3109    1.0000 </r>
       <r>    9.6652    1.0000 </r>
       <r>   10.1128    1.0000 </r>
       <r>   26.8877    0.0000 </r>
       <r>   27.8378    0.0000 </r>
       <r>   32.0887    0.0000 </r>
       <r>   33.0572    0.0000 </r>
       <r>   35.5346    0.0000 </r>
       <r>   37.5903    0.0000 </r>
       <r>   38.9834    0.0000 </r>
       <r>   42.6736    0.0000 </r>
       <r>   44.0337    0.0000 </r>
       <r>   47.7865    0.0000 </r>
       <r>   49.4617    0.0000 </r>
       <r>   51.0758    0.0000 </r>
       <r>   52.3092    0.0000 </r>
       <r>   54.1691    0.0000 </r>
       <r>   60.5063    0.0000 </r>
      </set>
      <set comment="kpoint 10">
       <r>  -40.9513    1.0000 </r>
       <r>  -40.9275    1.0000 </r>
       <r>  -40.9251    1.0000 </r>
       <r>    1.9421    1.0000 </r>
       <r>    7.7037    1.0000 </r>
       <r>    8.0562    1.0000 </r>
       <r>    8.0638    1.0000 </r>
       <r>    9.7704    1.0000 </r>
       <r>   10.0238    1.0000 </r>
       <r>   26.7480    0.0000 </r>
       <r>   29.7090    0.0000 </r>
       <r>   31.1922    0.0000 </r>
       <r>   31.4506    0.0000 </r>
       <r>   38.0354    0.0000 </r>
       <r>   40.0738    0.0000 </r>
       <r>   40.3392    0.0000 </r>
       <r>   42.3124    0.0000 </r>
       <r>   43.4650    0.0000 </r>
       <r>   47.3704    0.0000 </r>
       <r>   47.8332    0.0000 </r>
       <r>   50.9599    0.0000 </r>
       <r>   52.3059    0.0000 </r>
       <r>   53.2128    0.0000 </r>
       <r>   60.1865    0.0000 </r>
      </set>
      <set comment="kpoint 11">
       <r>  -40.9898    1.0000 </r>
       <r>  -40.9419    1.0000 </r>
       <r>  -40.9390    1.0000 </r>
       <r>    2.4449    1.0000 </r>
       <r>    7.4087    1.0000 </r>
       <r>    8.3076    1.0000 </r>
       <r>    8.3142    1.0000 </r>
       <r>    9.4564    1.0000 </r>
       <r>   10.1677    1.0000 </r>
       <r>   27.4738    0.0000 </r>
       <r>   28.9931    0.0000 </r>
       <r>   31.0648    0.0000 </r>
       <r>   31.4479    0.0000 </r>
       <r>   37.7778    0.0000 </r>
       <r>   38.6558    0.0000 </r>
       <r>   40.3620    0.0000 </r>
       <r>   40.8462    0.0000 </r>
       <r>   42.9606    0.0000 </r>
       <r>   48.7059    0.0000 </r>
       <r>   49.4592    0.0000 </r>
       <r>   49.7435    0.0000 </r>
       <r>   52.3084    0.0000 </r>
       <r>   53.9833    0.0000 </r>
       <r>   61.2293    0.0000 </r>
      </set>
      <set comment="kpoint 12">
       <r>  -41.0679    1.0000 </r>
       <r>  -40.9702    1.0000 </r>
       <r>  -40.9503    1.0000 </r>
       <r>    3.3549    1.0000 </r>
       <r>    7.0666    1.0000 </r>
       <r>    8.4192    1.0000 </r>
       <r>    8.6673    1.0000 </r>
       <r>    9.3524    1.0000 </r>
       <r>   10.4433    1.0000 </r>
       <r>   27.1814    0.0000 </r>
       <r>   28.4175    0.0000 </r>
       <r>   30.6425    0.0000 </r>
       <r>   31.9248    0.0000 </r>
       <r>   35.5023    0.0000 </r>
       <r>   37.8225    0.0000 </r>
       <r>   38.7586    0.0000 </r>
       <r>   42.3952    0.0000 </r>
       <r>   44.2274    0.0000 </r>
       <r>   47.7843    0.0000 </r>
       <r>   48.9487    0.0000 </r>
       <r>   52.2919    0.0000 </r>
       <r>   52.3224    0.0000 </r>
       <r>   55.3473    0.0000 </r>
       <r>   60.9521    0.0000 </r>
      </set>
      <set comment="kpoint 13">
       <r>  -41.1793    1.0000 </r>
       <r>  -40.9957    1.0000 </r>
       <r>  -40.9688    1.0000 </r>
       <r>    4.4797    1.0000 </r>
       <r>    7.1029    1.0000 </r>
       <r>    8.0105    1.0000 </r>
       <r>    8.6775    1.0000 </r>
       <r>   10.1742    1.0000 </r>
       <r>   11.1514    1.0000 </r>
       <r>   23.7963    0.0000 </r>
       <r>   28.0569    0.0000 </r>
       <r>   29.9265    0.0000 </r>
       <r>   32.1004    0.0000 </r>
       <r>   36.0623    0.0000 </r>
       <r>   36.9824    0.0000 </r>
       <r>   38.9452    0.0000 </r>
       <r>   41.7468    0.0000 </r>
       <r>   47.4243    0.0000 </r>
       <r>   48.8135    0.0000 </r>
       <r>   49.4568    0.0000 </r>
       <r>   52.3159    0.0000 </r>
       <r>   52.5816    0.0000 </r>
       <r>   56.9614    0.0000 </r>
       <r>   58.8883    0.0000 </r>
      </set>
      <set comment="kpoint 14">
       <r>  -41.2757    1.0000 </r>
       <r>  -41.0147    1.0000 </r>
       <r>  -40.9880    1.0000 </r>
       <r>    4.9469    1.0000 </r>
       <r>    7.6038    1.0000 </r>
       <r>    8.1373    1.0000 </r>
       <r>    8.4715    1.0000 </r>
       <r>   11.2228    1.0000 </r>
       <r>   12.3370    0.0000 </r>
       <r>   19.9211    0.0000 </r>
       <r>   27.0208    0.0000 </r>
       <r>   28.8957    0.0000 </r>
       <r>   31.0778    0.0000 </r>
       <r>   37.0919    0.0000 </r>
       <r>   39.1986    0.0000 </r>
       <r>   40.2263    0.0000 </r>
       <r>   42.0332    0.0000 </r>
       <r>   48.5826    0.0000 </r>
       <r>   49.0316    0.0000 </r>
       <r>   50.4334    0.0000 </r>
       <r>   52.3169    0.0000 </r>
       <r>   54.3383    0.0000 </r>
       <r>   55.7222    0.0000 </r>
       <r>   57.3442    0.0000 </r>
      </set>
      <set comment="kpoint 15">
       <r>  -41.3191    1.0000 </r>
       <r>  -41.0266    1.0000 </r>
       <r>  -40.9945    1.0000 </r>
       <r>    4.9841    1.0000 </r>
       <r>    7.4405    1.0000 </r>
       <r>    8.2882    1.0000 </r>
       <r>    9.1756    1.0000 </r>
       <r>   11.5039    0.9117 </r>
       <r>   13.9613    0.0000 </r>
       <r>   17.0719    0.0000 </r>
       <r>   26.5149    0.0000 </r>
       <r>   28.5776    0.0000 </r>
       <r>   29.8314    0.0000 </r>
       <r>   38.5392    0.0000 </r>
       <r>   39.3450    0.0000 </r>
       <r>   42.0452    0.0000 </r>
       <r>   44.2881    0.0000 </r>
       <r>   46.6218    0.0000 </r>
       <r>   48.2132    0.0000 </r>
       <r>   51.4015    0.0000 </r>
       <r>   52.3205    0.0000 </r>
       <r>   52.7766    0.0000 </r>
       <r>   56.5226    0.0000 </r>
       <r>   58.2941    0.0000 </r>
      </set>
      <set comment="kpoint 16">
       <r>  -41.2955    1.0000 </r>
       <r>  -41.0286    1.0000 </r>
       <r>  -40.9839    1.0000 </r>
       <r>    4.9988    1.0000 </r>
       <r>    7.5508    1.0000 </r>
       <r>    8.3160    1.0000 </r>
       <r>    8.7314    1.0000 </r>
       <r>   11.0440    1.0000 </r>
       <r>   13.0763    0.0000 </r>
       <r>   18.8261    0.0000 </r>
       <r>   26.6854    0.0000 </r>
       <r>   28.4101    0.0000 </r>
       <r>   31.1070    0.0000 </r>
       <r>   36.9990    0.0000 </r>
       <r>   39.2980    0.0000 </r>
       <r>   41.3574    0.0000 </r>
       <r>   43.7702    0.0000 </r>
       <r>   47.4678    0.0000 </r>
       <r>   48.8160    0.0000 </r>
       <r>   49.8881    0.0000 </r>
       <r>   52.3172    0.0000 </r>
       <r>   54.3672    0.0000 </r>
       <r>   56.5403    0.0000 </r>
       <r>   57.3981    0.0000 </r>
      </set>
      <set comment="kpoint 17">
       <r>  -41.2137    1.0000 </r>
       <r>  -41.0149    1.0000 </r>
       <r>  -40.9639    1.0000 </r>
       <r>    4.7627    1.0000 </r>
       <r>    7.4327    1.0000 </r>
       <r>    7.9058    1.0000 </r>
       <r>    8.5622    1.0000 </r>
       <r>   10.0982    1.0000 </r>
       <r>   11.7804    0.0000 </r>
       <r>   22.5252    0.0000 </r>
       <r>   27.4274    0.0000 </r>
       <r>   29.3265    0.0000 </r>
       <r>   33.0385    0.0000 </r>
       <r>   34.9476    0.0000 </r>
       <r>   38.1991    0.0000 </r>
       <r>   40.0141    0.0000 </r>
       <r>   41.8628    0.0000 </r>
       <r>   47.1002    0.0000 </r>
       <r>   47.8443    0.0000 </r>
       <r>   51.4800    0.0000 </r>
       <r>   52.3146    0.0000 </r>
       <r>   53.4047    0.0000 </r>
       <r>   56.6290    0.0000 </r>
       <r>   57.8704    0.0000 </r>
      </set>
      <set comment="kpoint 18">
       <r>  -41.1062    1.0000 </r>
       <r>  -40.9869    1.0000 </r>
       <r>  -40.9444    1.0000 </r>
       <r>    3.7498    1.0000 </r>
       <r>    7.1076    1.0000 </r>
       <r>    8.2704    1.0000 </r>
       <r>    8.6989    1.0000 </r>
       <r>    9.3566    1.0000 </r>
       <r>   10.7558    1.0000 </r>
       <r>   25.9682    0.0000 </r>
       <r>   28.1670    0.0000 </r>
       <r>   30.8555    0.0000 </r>
       <r>   31.9200    0.0000 </r>
       <r>   35.5779    0.0000 </r>
       <r>   38.0735    0.0000 </r>
       <r>   39.1846    0.0000 </r>
       <r>   41.3986    0.0000 </r>
       <r>   45.1512    0.0000 </r>
       <r>   47.1294    0.0000 </r>
       <r>   49.0785    0.0000 </r>
       <r>   52.3091    0.0000 </r>
       <r>   54.1275    0.0000 </r>
       <r>   55.6735    0.0000 </r>
       <r>   59.8522    0.0000 </r>
      </set>
      <set comment="kpoint 19">
       <r>  -41.0193    1.0000 </r>
       <r>  -40.9495    1.0000 </r>
       <r>  -40.9329    1.0000 </r>
       <r>    2.6766    1.0000 </r>
       <r>    7.4033    1.0000 </r>
       <r>    8.3070    1.0000 </r>
       <r>    8.3261    1.0000 </r>
       <r>    9.5098    1.0000 </r>
       <r>   10.1683    1.0000 </r>
       <r>   27.6587    0.0000 </r>
       <r>   27.9317    0.0000 </r>
       <r>   31.1237    0.0000 </r>
       <r>   32.7271    0.0000 </r>
       <r>   35.9117    0.0000 </r>
       <r>   38.6750    0.0000 </r>
       <r>   40.4719    0.0000 </r>
       <r>   41.8264    0.0000 </r>
       <r>   42.5255    0.0000 </r>
       <r>   47.7474    0.0000 </r>
       <r>   49.4834    0.0000 </r>
       <r>   51.0376    0.0000 </r>
       <r>   52.3055    0.0000 </r>
       <r>   54.3808    0.0000 </r>
       <r>   60.7296    0.0000 </r>
      </set>
      <set comment="kpoint 20">
       <r>  -41.0988    1.0000 </r>
       <r>  -40.9860    1.0000 </r>
       <r>  -40.9854    1.0000 </r>
       <r>    3.9580    1.0000 </r>
       <r>    6.6072    1.0000 </r>
       <r>    8.5713    1.0000 </r>
       <r>    9.1539    1.0000 </r>
       <r>    9.3773    1.0000 </r>
       <r>   10.6171    1.0000 </r>
       <r>   27.8870    0.0000 </r>
       <r>   29.2611    0.0000 </r>
       <r>   29.3973    0.0000 </r>
       <r>   30.1821    0.0000 </r>
       <r>   33.7145    0.0000 </r>
       <r>   37.9038    0.0000 </r>
       <r>   38.1013    0.0000 </r>
       <r>   43.9458    0.0000 </r>
       <r>   45.3312    0.0000 </r>
       <r>   46.4094    0.0000 </r>
       <r>   51.5598    0.0000 </r>
       <r>   52.2670    0.0000 </r>
       <r>   52.3104    0.0000 </r>
       <r>   54.0905    0.0000 </r>
       <r>   63.4954    0.0000 </r>
      </set>
      <set comment="kpoint 21">
       <r>  -41.1743    1.0000 </r>
       <r>  -41.0214    1.0000 </r>
       <r>  -41.0019    1.0000 </r>
       <r>    4.8492    1.0000 </r>
       <r>    6.3097    1.0000 </r>
       <r>    8.1910    1.0000 </r>
       <r>    9.5995    1.0000 </r>
       <r>   10.1905    1.0000 </r>
       <r>   11.1917    1.0000 </r>
       <r>   25.4433    0.0000 </r>
       <r>   27.4280    0.0000 </r>
       <r>   28.6613    0.0000 </r>
       <r>   31.2091    0.0000 </r>
       <r>   33.2280    0.0000 </r>
       <r>   38.1501    0.0000 </r>
       <r>   39.3860    0.0000 </r>
       <r>   43.8748    0.0000 </r>
       <r>   44.6150    0.0000 </r>
       <r>   48.7854    0.0000 </r>
       <r>   51.6968    0.0000 </r>
       <r>   52.3113    0.0000 </r>
       <r>   53.5244    0.0000 </r>
       <r>   54.8418    0.0000 </r>
       <r>   61.6004    0.0000 </r>
      </set>
      <set comment="kpoint 22">
       <r>  -41.2458    1.0000 </r>
       <r>  -41.0559    1.0000 </r>
       <r>  -41.0190    1.0000 </r>
       <r>    5.4301    1.0000 </r>
       <r>    6.5777    1.0000 </r>
       <r>    7.8445    1.0000 </r>
       <r>    9.4252    1.0000 </r>
       <r>   11.3523    1.0000 </r>
       <r>   12.6356    0.0000 </r>
       <r>   21.3537    0.0000 </r>
       <r>   26.7288    0.0000 </r>
       <r>   27.0572    0.0000 </r>
       <r>   30.9105    0.0000 </r>
       <r>   35.9253    0.0000 </r>
       <r>   38.6199    0.0000 </r>
       <r>   40.5327    0.0000 </r>
       <r>   43.3760    0.0000 </r>
       <r>   46.0450    0.0000 </r>
       <r>   48.9942    0.0000 </r>
       <r>   51.6820    0.0000 </r>
       <r>   52.3147    0.0000 </r>
       <r>   55.0754    0.0000 </r>
       <r>   55.6135    0.0000 </r>
       <r>   59.2229    0.0000 </r>
      </set>
      <set comment="kpoint 23">
       <r>  -41.2802    1.0000 </r>
       <r>  -41.0915    1.0000 </r>
       <r>  -41.0216    1.0000 </r>
       <r>    5.6043    1.0000 </r>
       <r>    6.9109    1.0000 </r>
       <r>    8.0617    1.0000 </r>
       <r>    9.1634    1.0000 </r>
       <r>   11.5467    0.5556 </r>
       <r>   15.1828    0.0000 </r>
       <r>   17.7257    0.0000 </r>
       <r>   25.5461    0.0000 </r>
       <r>   27.1316    0.0000 </r>
       <r>   30.0314    0.0000 </r>
       <r>   37.9163    0.0000 </r>
       <r>   39.7970    0.0000 </r>
       <r>   40.6670    0.0000 </r>
       <r>   43.9953    0.0000 </r>
       <r>   47.5212    0.0000 </r>
       <r>   48.7701    0.0000 </r>
       <r>   50.7410    0.0000 </r>
       <r>   52.3177    0.0000 </r>
       <r>   53.8229    0.0000 </r>
       <r>   56.3250    0.0000 </r>
       <r>   58.9260    0.0000 </r>
      </set>
      <set comment="kpoint 24">
       <r>  -41.2696    1.0000 </r>
       <r>  -41.1115    1.0000 </r>
       <r>  -41.0074    1.0000 </r>
       <r>    5.8148    1.0000 </r>
       <r>    7.0088    1.0000 </r>
       <r>    8.0592    1.0000 </r>
       <r>    9.0299    1.0000 </r>
       <r>   10.9869    1.0000 </r>
       <r>   14.9813    0.0000 </r>
       <r>   18.4784    0.0000 </r>
       <r>   24.4793    0.0000 </r>
       <r>   28.1525    0.0000 </r>
       <r>   30.2669    0.0000 </r>
       <r>   36.9187    0.0000 </r>
       <r>   39.0972    0.0000 </r>
       <r>   42.1960    0.0000 </r>
       <r>   45.5111    0.0000 </r>
       <r>   47.0716    0.0000 </r>
       <r>   48.8823    0.0000 </r>
       <r>   50.2928    0.0000 </r>
       <r>   52.1674    0.0000 </r>
       <r>   52.3206    0.0000 </r>
       <r>   56.0378    0.0000 </r>
       <r>   58.1724    0.0000 </r>
      </set>
      <set comment="kpoint 25">
       <r>  -41.2303    1.0000 </r>
       <r>  -41.0947    1.0000 </r>
       <r>  -40.9840    1.0000 </r>
       <r>    5.8632    1.0000 </r>
       <r>    7.1229    1.0000 </r>
       <r>    7.3992    1.0000 </r>
       <r>    9.1274    1.0000 </r>
       <r>   10.0538    1.0000 </r>
       <r>   13.3367    0.0000 </r>
       <r>   21.7427    0.0000 </r>
       <r>   24.5968    0.0000 </r>
       <r>   28.7534    0.0000 </r>
       <r>   32.5308    0.0000 </r>
       <r>   34.1927    0.0000 </r>
       <r>   39.1791    0.0000 </r>
       <r>   42.4064    0.0000 </r>
       <r>   43.5652    0.0000 </r>
       <r>   45.5786    0.0000 </r>
       <r>   47.8005    0.0000 </r>
       <r>   51.8944    0.0000 </r>
       <r>   52.3134    0.0000 </r>
       <r>   55.1670    0.0000 </r>
       <r>   56.0134    0.0000 </r>
       <r>   56.7759    0.0000 </r>
      </set>
      <set comment="kpoint 26">
       <r>  -41.1842    1.0000 </r>
       <r>  -41.0366    1.0000 </r>
       <r>  -40.9614    1.0000 </r>
       <r>    4.9272    1.0000 </r>
       <r>    6.9816    1.0000 </r>
       <r>    7.8795    1.0000 </r>
       <r>    8.9834    1.0000 </r>
       <r>    9.5256    1.0000 </r>
       <r>   11.9021    0.0000 </r>
       <r>   23.8166    0.0000 </r>
       <r>   26.7901    0.0000 </r>
       <r>   29.4935    0.0000 </r>
       <r>   32.2902    0.0000 </r>
       <r>   35.1132    0.0000 </r>
       <r>   38.8294    0.0000 </r>
       <r>   40.1389    0.0000 </r>
       <r>   41.5721    0.0000 </r>
       <r>   45.6585    0.0000 </r>
       <r>   47.1385    0.0000 </r>
       <r>   51.5564    0.0000 </r>
       <r>   52.3126    0.0000 </r>
       <r>   55.0340    0.0000 </r>
       <r>   56.8922    0.0000 </r>
       <r>   57.8193    0.0000 </r>
      </set>
      <set comment="kpoint 27">
       <r>  -41.1361    1.0000 </r>
       <r>  -40.9728    1.0000 </r>
       <r>  -40.9491    1.0000 </r>
       <r>    3.8421    1.0000 </r>
       <r>    7.2981    1.0000 </r>
       <r>    8.2421    1.0000 </r>
       <r>    8.4543    1.0000 </r>
       <r>    9.7767    1.0000 </r>
       <r>   10.6650    1.0000 </r>
       <r>   24.8312    0.0000 </r>
       <r>   28.0932    0.0000 </r>
       <r>   31.4656    0.0000 </r>
       <r>   32.9517    0.0000 </r>
       <r>   35.7151    0.0000 </r>
       <r>   36.4761    0.0000 </r>
       <r>   38.1267    0.0000 </r>
       <r>   42.7875    0.0000 </r>
       <r>   46.0894    0.0000 </r>
       <r>   48.2223    0.0000 </r>
       <r>   49.1482    0.0000 </r>
       <r>   52.3027    0.0000 </r>
       <r>   52.4019    0.0000 </r>
       <r>   55.6908    0.0000 </r>
       <r>   60.2324    0.0000 </r>
      </set>
      <set comment="kpoint 28">
       <r>  -41.2168    1.0000 </r>
       <r>  -41.0374    1.0000 </r>
       <r>  -41.0349    1.0000 </r>
       <r>    5.0177    1.0000 </r>
       <r>    5.8338    1.0000 </r>
       <r>    9.1012    1.0000 </r>
       <r>   10.3056    1.0000 </r>
       <r>   10.7181    1.0000 </r>
       <r>   11.1669    1.0000 </r>
       <r>   25.3595    0.0000 </r>
       <r>   26.1282    0.0000 </r>
       <r>   26.9311    0.0000 </r>
       <r>   30.6162    0.0000 </r>
       <r>   32.2521    0.0000 </r>
       <r>   40.0767    0.0000 </r>
       <r>   40.4770    0.0000 </r>
       <r>   42.6036    0.0000 </r>
       <r>   45.7899    0.0000 </r>
       <r>   48.6989    0.0000 </r>
       <r>   52.3054    0.0000 </r>
       <r>   53.9769    0.0000 </r>
       <r>   54.0513    0.0000 </r>
       <r>   54.8094    0.0000 </r>
       <r>   59.9395    0.0000 </r>
      </set>
      <set comment="kpoint 29">
       <r>  -41.2623    1.0000 </r>
       <r>  -41.0698    1.0000 </r>
       <r>  -41.0513    1.0000 </r>
       <r>    5.2032    1.0000 </r>
       <r>    5.6930    1.0000 </r>
       <r>    9.2335    1.0000 </r>
       <r>   10.6890    1.0000 </r>
       <r>   11.3686    1.0000 </r>
       <r>   12.5895    0.0000 </r>
       <r>   22.5159    0.0000 </r>
       <r>   24.5493    0.0000 </r>
       <r>   25.3161    0.0000 </r>
       <r>   31.6639    0.0000 </r>
       <r>   33.5139    0.0000 </r>
       <r>   39.7150    0.0000 </r>
       <r>   42.3047    0.0000 </r>
       <r>   43.7312    0.0000 </r>
       <r>   46.6357    0.0000 </r>
       <r>   47.7912    0.0000 </r>
       <r>   52.3061    0.0000 </r>
       <r>   52.5681    0.0000 </r>
       <r>   54.9689    0.0000 </r>
       <r>   56.6347    0.0000 </r>
       <r>   57.5913    0.0000 </r>
      </set>
      <set comment="kpoint 30">
       <r>  -41.2713    1.0000 </r>
       <r>  -41.1206    1.0000 </r>
       <r>  -41.0530    1.0000 </r>
       <r>    5.4342    1.0000 </r>
       <r>    6.0562    1.0000 </r>
       <r>    8.8252    1.0000 </r>
       <r>   10.2963    1.0000 </r>
       <r>   11.6783    0.0002 </r>
       <r>   15.4017    0.0000 </r>
       <r>   19.0563    0.0000 </r>
       <r>   23.3100    0.0000 </r>
       <r>   25.1367    0.0000 </r>
       <r>   31.7149    0.0000 </r>
       <r>   36.1518    0.0000 </r>
       <r>   38.8933    0.0000 </r>
       <r>   41.8549    0.0000 </r>
       <r>   45.8988    0.0000 </r>
       <r>   47.2886    0.0000 </r>
       <r>   48.0599    0.0000 </r>
       <r>   51.8248    0.0000 </r>
       <r>   52.3182    0.0000 </r>
       <r>   53.5859    0.0000 </r>
       <r>   56.0549    0.0000 </r>
       <r>   57.2576    0.0000 </r>
      </set>
      <set comment="kpoint 31">
       <r>  -41.2325    1.0000 </r>
       <r>  -41.1815    1.0000 </r>
       <r>  -41.0365    1.0000 </r>
       <r>    5.8137    1.0000 </r>
       <r>    6.6535    1.0000 </r>
       <r>    8.1700    1.0000 </r>
       <r>    9.8569    1.0000 </r>
       <r>   11.2215    1.0000 </r>
       <r>   16.4538    0.0000 </r>
       <r>   18.8565    0.0000 </r>
       <r>   21.6182    0.0000 </r>
       <r>   26.7032    0.0000 </r>
       <r>   31.0684    0.0000 </r>
       <r>   37.7666    0.0000 </r>
       <r>   39.3865    0.0000 </r>
       <r>   39.7847    0.0000 </r>
       <r>   46.5047    0.0000 </r>
       <r>   47.6293    0.0000 </r>
       <r>   50.4214    0.0000 </r>
       <r>   51.5910    0.0000 </r>
       <r>   51.9226    0.0000 </r>
       <r>   52.3270    0.0000 </r>
       <r>   54.9905    0.0000 </r>
       <r>   57.5490    0.0000 </r>
      </set>
      <set comment="kpoint 32">
       <r>  -41.2349    1.0000 </r>
       <r>  -41.1542    1.0000 </r>
       <r>  -41.0103    1.0000 </r>
       <r>    6.1647    1.0000 </r>
       <r>    7.0084    1.0000 </r>
       <r>    7.5434    1.0000 </r>
       <r>    9.3821    1.0000 </r>
       <r>   10.6577    1.0000 </r>
       <r>   14.8437    0.0000 </r>
       <r>   20.3357    0.0000 </r>
       <r>   22.5100    0.0000 </r>
       <r>   28.3970    0.0000 </r>
       <r>   30.7549    0.0000 </r>
       <r>   36.1164    0.0000 </r>
       <r>   39.0007    0.0000 </r>
       <r>   42.0406    0.0000 </r>
       <r>   45.3158    0.0000 </r>
       <r>   48.4301    0.0000 </r>
       <r>   49.2578    0.0000 </r>
       <r>   49.7179    0.0000 </r>
       <r>   52.3206    0.0000 </r>
       <r>   52.7822    0.0000 </r>
       <r>   54.3449    0.0000 </r>
       <r>   58.2672    0.0000 </r>
      </set>
      <set comment="kpoint 33">
       <r>  -41.2604    1.0000 </r>
       <r>  -41.0640    1.0000 </r>
       <r>  -40.9842    1.0000 </r>
       <r>    5.4198    1.0000 </r>
       <r>    7.4077    1.0000 </r>
       <r>    7.8542    1.0000 </r>
       <r>    8.7296    1.0000 </r>
       <r>   10.5360    1.0000 </r>
       <r>   13.2641    0.0000 </r>
       <r>   20.2671    0.0000 </r>
       <r>   26.0302    0.0000 </r>
       <r>   28.2621    0.0000 </r>
       <r>   31.8499    0.0000 </r>
       <r>   35.4331    0.0000 </r>
       <r>   39.2296    0.0000 </r>
       <r>   42.3009    0.0000 </r>
       <r>   42.9653    0.0000 </r>
       <r>   46.9686    0.0000 </r>
       <r>   48.2621    0.0000 </r>
       <r>   50.4775    0.0000 </r>
       <r>   52.3154    0.0000 </r>
       <r>   54.7138    0.0000 </r>
       <r>   56.1562    0.0000 </r>
       <r>   57.8108    0.0000 </r>
      </set>
      <set comment="kpoint 34">
       <r>  -41.2522    1.0000 </r>
       <r>  -40.9909    1.0000 </r>
       <r>  -40.9689    1.0000 </r>
       <r>    4.5904    1.0000 </r>
       <r>    7.9015    1.0000 </r>
       <r>    8.1718    1.0000 </r>
       <r>    8.2798    1.0000 </r>
       <r>   10.6915    1.0000 </r>
       <r>   11.5505    0.5127 </r>
       <r>   21.1099    0.0000 </r>
       <r>   27.0204    0.0000 </r>
       <r>   30.2110    0.0000 </r>
       <r>   32.5286    0.0000 </r>
       <r>   36.0786    0.0000 </r>
       <r>   38.0024    0.0000 </r>
       <r>   38.9046    0.0000 </r>
       <r>   43.3288    0.0000 </r>
       <r>   47.6465    0.0000 </r>
       <r>   49.4893    0.0000 </r>
       <r>   50.9151    0.0000 </r>
       <r>   52.3206    0.0000 </r>
       <r>   52.8781    0.0000 </r>
       <r>   56.1510    0.0000 </r>
       <r>   57.5902    0.0000 </r>
      </set>
      <set comment="kpoint 35">
       <r>  -41.2982    1.0000 </r>
       <r>  -41.0750    1.0000 </r>
       <r>  -41.0697    1.0000 </r>
       <r>    4.8883    1.0000 </r>
       <r>    5.3353    1.0000 </r>
       <r>   10.9890    1.0000 </r>
       <r>   11.2732    1.0000 </r>
       <r>   11.7212    0.0000 </r>
       <r>   12.6948    0.0000 </r>
       <r>   21.6559    0.0000 </r>
       <r>   23.4937    0.0000 </r>
       <r>   23.6508    0.0000 </r>
       <r>   31.2083    0.0000 </r>
       <r>   33.9701    0.0000 </r>
       <r>   40.1296    0.0000 </r>
       <r>   44.2013    0.0000 </r>
       <r>   44.7265    0.0000 </r>
       <r>   46.5896    0.0000 </r>
       <r>   48.3995    0.0000 </r>
       <r>   52.3057    0.0000 </r>
       <r>   53.6626    0.0000 </r>
       <r>   53.6943    0.0000 </r>
       <r>   54.5594    0.0000 </r>
       <r>   55.0878    0.0000 </r>
      </set>
      <set comment="kpoint 36">
       <r>  -41.3041    1.0000 </r>
       <r>  -41.0961    1.0000 </r>
       <r>  -41.0757    1.0000 </r>
       <r>    4.9793    1.0000 </r>
       <r>    5.3968    1.0000 </r>
       <r>   10.4924    1.0000 </r>
       <r>   11.1944    1.0000 </r>
       <r>   11.9216    0.0000 </r>
       <r>   14.8253    0.0000 </r>
       <r>   19.6881    0.0000 </r>
       <r>   22.5441    0.0000 </r>
       <r>   23.3664    0.0000 </r>
       <r>   32.2318    0.0000 </r>
       <r>   34.4146    0.0000 </r>
       <r>   39.4522    0.0000 </r>
       <r>   44.1837    0.0000 </r>
       <r>   46.8180    0.0000 </r>
       <r>   47.0673    0.0000 </r>
       <r>   48.8519    0.0000 </r>
       <r>   51.9888    0.0000 </r>
       <r>   52.3132    0.0000 </r>
       <r>   52.9706    0.0000 </r>
       <r>   53.3367    0.0000 </r>
       <r>   54.5299    0.0000 </r>
      </set>
      <set comment="kpoint 37">
       <r>  -41.2730    1.0000 </r>
       <r>  -41.1389    1.0000 </r>
       <r>  -41.0599    1.0000 </r>
       <r>    5.3660    1.0000 </r>
       <r>    5.9482    1.0000 </r>
       <r>    9.2018    1.0000 </r>
       <r>   10.5353    1.0000 </r>
       <r>   11.6667    0.0006 </r>
       <r>   16.7588    0.0000 </r>
       <r>   18.2757    0.0000 </r>
       <r>   21.9185    0.0000 </r>
       <r>   24.7507    0.0000 </r>
       <r>   32.1172    0.0000 </r>
       <r>   36.2724    0.0000 </r>
       <r>   38.7371    0.0000 </r>
       <r>   41.8498    0.0000 </r>
       <r>   47.0363    0.0000 </r>
       <r>   47.3679    0.0000 </r>
       <r>   49.4465    0.0000 </r>
       <r>   50.7168    0.0000 </r>
       <r>   52.3214    0.0000 </r>
       <r>   53.6358    0.0000 </r>
       <r>   54.5036    0.0000 </r>
       <r>   56.9182    0.0000 </r>
      </set>
      <set comment="kpoint 38">
       <r>  -41.2615    1.0000 </r>
       <r>  -41.1379    1.0000 </r>
       <r>  -41.0315    1.0000 </r>
       <r>    5.7711    1.0000 </r>
       <r>    6.7170    1.0000 </r>
       <r>    8.1094    1.0000 </r>
       <r>    9.5635    1.0000 </r>
       <r>   11.3981    1.0000 </r>
       <r>   16.9025    0.0000 </r>
       <r>   17.0163    0.0000 </r>
       <r>   23.5822    0.0000 </r>
       <r>   26.8412    0.0000 </r>
       <r>   30.5802    0.0000 </r>
       <r>   37.8501    0.0000 </r>
       <r>   39.5656    0.0000 </r>
       <r>   40.2386    0.0000 </r>
       <r>   45.7630    0.0000 </r>
       <r>   47.0286    0.0000 </r>
       <r>   49.4904    0.0000 </r>
       <r>   51.3094    0.0000 </r>
       <r>   52.3222    0.0000 </r>
       <r>   52.9800    0.0000 </r>
       <r>   55.8583    0.0000 </r>
       <r>   58.2848    0.0000 </r>
      </set>
      <set comment="kpoint 39">
       <r>  -41.3004    1.0000 </r>
       <r>  -41.0656    1.0000 </r>
       <r>  -41.0021    1.0000 </r>
       <r>    5.3725    1.0000 </r>
       <r>    7.1882    1.0000 </r>
       <r>    8.6215    1.0000 </r>
       <r>    8.6363    1.0000 </r>
       <r>   11.3222    1.0000 </r>
       <r>   14.9230    0.0000 </r>
       <r>   17.1328    0.0000 </r>
       <r>   26.1419    0.0000 </r>
       <r>   27.9004    0.0000 </r>
       <r>   29.8322    0.0000 </r>
       <r>   37.9334    0.0000 </r>
       <r>   39.2112    0.0000 </r>
       <r>   42.4092    0.0000 </r>
       <r>   45.2293    0.0000 </r>
       <r>   45.9684    0.0000 </r>
       <r>   48.6904    0.0000 </r>
       <r>   51.1178    0.0000 </r>
       <r>   51.7926    0.0000 </r>
       <r>   52.3206    0.0000 </r>
       <r>   56.8444    0.0000 </r>
       <r>   58.2462    0.0000 </r>
      </set>
      <set comment="kpoint 40">
       <r>  -41.3232    1.0000 </r>
       <r>  -41.0005    1.0000 </r>
       <r>  -40.9838    1.0000 </r>
       <r>    4.6989    1.0000 </r>
       <r>    7.6877    1.0000 </r>
       <r>    8.0585    1.0000 </r>
       <r>    9.6238    1.0000 </r>
       <r>   11.4344    0.9995 </r>
       <r>   12.7164    0.0000 </r>
       <r>   17.7538    0.0000 </r>
       <r>   26.2554    0.0000 </r>
       <r>   29.4595    0.0000 </r>
       <r>   30.4855    0.0000 </r>
       <r>   38.4038    0.0000 </r>
       <r>   39.3542    0.0000 </r>
       <r>   40.8432    0.0000 </r>
       <r>   44.6887    0.0000 </r>
       <r>   47.3408    0.0000 </r>
       <r>   47.4782    0.0000 </r>
       <r>   51.9056    0.0000 </r>
       <r>   52.3187    0.0000 </r>
       <r>   54.3027    0.0000 </r>
       <r>   56.4057    0.0000 </r>
       <r>   57.1854    0.0000 </r>
      </set>
      <set comment="kpoint 41">
       <r>  -41.3149    1.0000 </r>
       <r>  -41.0827    1.0000 </r>
       <r>  -41.0768    1.0000 </r>
       <r>    4.7972    1.0000 </r>
       <r>    5.2304    1.0000 </r>
       <r>   11.4494    0.9981 </r>
       <r>   11.4838    0.9724 </r>
       <r>   11.9406    0.0000 </r>
       <r>   13.6997    0.0000 </r>
       <r>   20.1800    0.0000 </r>
       <r>   22.8042    0.0000 </r>
       <r>   23.0629    0.0000 </r>
       <r>   31.4796    0.0000 </r>
       <r>   34.3502    0.0000 </r>
       <r>   39.8049    0.0000 </r>
       <r>   45.2280    0.0000 </r>
       <r>   46.7335    0.0000 </r>
       <r>   46.8304    0.0000 </r>
       <r>   49.2435    0.0000 </r>
       <r>   51.1790    0.0000 </r>
       <r>   51.6996    0.0000 </r>
       <r>   52.3182    0.0000 </r>
       <r>   54.3216    0.0000 </r>
       <r>   55.2246    0.0000 </r>
      </set>
      <set comment="kpoint 42">
       <r>  -41.2901    1.0000 </r>
       <r>  -41.0871    1.0000 </r>
       <r>  -41.0674    1.0000 </r>
       <r>    5.0736    1.0000 </r>
       <r>    5.4973    1.0000 </r>
       <r>    9.9882    1.0000 </r>
       <r>   11.0725    1.0000 </r>
       <r>   11.7039    0.0000 </r>
       <r>   13.7632    0.0000 </r>
       <r>   20.9501    0.0000 </r>
       <r>   23.3100    0.0000 </r>
       <r>   23.9996    0.0000 </r>
       <r>   31.9763    0.0000 </r>
       <r>   34.0984    0.0000 </r>
       <r>   39.6348    0.0000 </r>
       <r>   43.6781    0.0000 </r>
       <r>   44.9714    0.0000 </r>
       <r>   47.0084    0.0000 </r>
       <r>   48.2506    0.0000 </r>
       <r>   52.3051    0.0000 </r>
       <r>   52.5265    0.0000 </r>
       <r>   53.6137    0.0000 </r>
       <r>   55.0251    0.0000 </r>
       <r>   55.5949    0.0000 </r>
      </set>
      <set comment="kpoint 43">
       <r>  -41.2633    1.0000 </r>
       <r>  -41.0903    1.0000 </r>
       <r>  -41.0391    1.0000 </r>
       <r>    5.5022    1.0000 </r>
       <r>    6.2761    1.0000 </r>
       <r>    8.2832    1.0000 </r>
       <r>    9.8848    1.0000 </r>
       <r>   11.6109    0.0469 </r>
       <r>   13.9182    0.0000 </r>
       <r>   20.1139    0.0000 </r>
       <r>   25.1311    0.0000 </r>
       <r>   25.9073    0.0000 </r>
       <r>   31.1810    0.0000 </r>
       <r>   36.0096    0.0000 </r>
       <r>   38.9350    0.0000 </r>
       <r>   41.4046    0.0000 </r>
       <r>   44.6703    0.0000 </r>
       <r>   46.5466    0.0000 </r>
       <r>   48.0427    0.0000 </r>
       <r>   51.7308    0.0000 </r>
       <r>   52.3173    0.0000 </r>
       <r>   54.5981    0.0000 </r>
       <r>   56.7368    0.0000 </r>
       <r>   58.9818    0.0000 </r>
      </set>
      <set comment="kpoint 44">
       <r>  -41.2854    1.0000 </r>
[...]
       </set>
       <set comment="band 3">
        <r>  0.0000  0.4971  0.0000  0.4971  0.0000  0.0000  0.0000  0.0000  0.0000 </r>
       </set>
       <set comment="band 4">
        <r>  0.1405  0.0000  0.0060  0.0000  0.1870  0.1386  0.0046  0.1386  0.0000 </r>
       </set>
       <set comment="band 5">
        <r>  0.0001  0.0011  0.0000  0.0011  0.1253  0.0735  0.5293  0.0735  0.0000 </r>
       </set>
       <set comment="band 6">
        <r>  0.0000  0.0006  0.0000  0.0006  0.0000  0.1821  0.0000  0.1821  0.4700 </r>
       </set>
       <set comment="band 7">
        <r>  0.0336  0.0232  0.0234  0.0232  0.3698  0.0074  0.0758  0.0074  0.0000 </r>
       </set>
       <set comment="band 8">
        <r>  0.0000  0.0001  0.0000  0.0001  0.0000  0.2688  0.0000  0.2688  0.4097 </r>
       </set>
       <set comment="band 9">
        <r>  0.0394  0.0142  0.0274  0.0142  0.0799  0.1520  0.2358  0.1520  0.0000 </r>
       </set>
       <set comment="band 10">
        <r>  0.2834  0.0216  0.0140  0.0216  0.1128  0.0897  0.0038  0.0897  0.0000 </r>
       </set>
       <set comment="band 11">
        <r>  0.0013  0.0021  0.0105  0.0021  0.0189  0.0001  0.0243  0.0001  0.0000 </r>
       </set>
       <set comment="band 12">
        <r>  0.0000  0.1148  0.0000  0.1148  0.0000  0.0132  0.0000  0.0132  0.0147 </r>
       </set>
       <set comment="band 13">
        <r>  0.0209  0.0327  0.1352  0.0327  0.0433  0.0062  0.0333  0.0062  0.0000 </r>
       </set>
       <set comment="band 14">
        <r>  0.0000  0.0015  0.0000  0.0015  0.0000  0.0286  0.0000  0.0286  0.1665 </r>
       </set>
       <set comment="band 15">
        <r>  0.0004  0.0112  0.0023  0.0112  0.0447  0.0186  0.1902  0.0186  0.0000 </r>
       </set>
       <set comment="band 16">
        <r>  0.0530  0.0267  0.0020  0.0267  0.0801  0.0152  0.0407  0.0152  0.0000 </r>
       </set>
       <set comment="band 17">
        <r>  0.1029  0.0387  0.1024  0.0387  0.0128  0.0310  0.0001  0.0310  0.0000 </r>
       </set>
       <set comment="band 18">
        <r>  0.0376  0.0017  0.0885  0.0017  0.0150  0.0341  0.0006  0.0341  0.0000 </r>
       </set>
       <set comment="band 19">
        <r>  0.0000  0.1221  0.0000  0.1221  0.0000  0.0378  0.0000  0.0378  0.0877 </r>
       </set>
       <set comment="band 20">
        <r>  0.0000  0.0896  0.0000  0.0896  0.0000  0.0240  0.0000  0.0240  0.0007 </r>
       </set>
       <set comment="band 21">
        <r>  6.2977  0.0000  0.0000  0.0000  0.0000  0.0000  0.0000  0.0000  0.0000 </r>
       </set>
       <set comment="band 22">
        <r>  0.0025  0.0093  0.0754  0.0093  0.0244  0.0026  0.0431  0.0026  0.0000 </r>
       </set>
       <set comment="band 23">
        <r>  0.0222  0.0037  0.0314  0.0037  0.1685  0.0083  0.0000  0.0083  0.0000 </r>
       </set>
       <set comment="band 24">
        <r>  0.0941  0.0018  0.0002  0.0018  0.0280  0.0016  0.0003  0.0016  0.0000 </r>
       </set>
      </set>
      <set comment="kpoint 106">
       <set comment="band 1">
        <r>  0.0000  0.2961  0.4044  0.2831  0.0000  0.0000  0.0000  0.0000  0.0000 </r>
       </set>
       <set comment="band 2">
        <r>  0.0000  0.0044  0.3646  0.6230  0.0000  0.0000  0.0000  0.0000  0.0000 </r>
       </set>
       <set comment="band 3">
        <r>  0.0000  0.6903  0.2199  0.0836  0.0000  0.0000  0.0000  0.0000  0.0000 </r>
       </set>
       <set comment="band 4">
        <r>  0.1064  0.0004  0.0072  0.0031  0.2199  0.1886  0.0065  0.1054  0.0011 </r>
       </set>
       <set comment="band 5">
        <r>  0.0000  0.0055  0.0001  0.0002  0.0634  0.1294  0.4407  0.0012  0.1199 </r>
       </set>
       <set comment="band 6">
        <r>  0.0079  0.0116  0.0103  0.0193  0.1754  0.1747  0.1514  0.0768  0.0542 </r>
       </set>
       <set comment="band 7">
        <r>  0.0038  0.0055  0.0118  0.0015  0.1744  0.0032  0.0311  0.1681  0.3781 </r>
       </set>
       <set comment="band 8">
        <r>  0.0007  0.0002  0.0012  0.0005  0.0833  0.0852  0.0679  0.4459  0.2447 </r>
       </set>
       <set comment="band 9">
        <r>  0.0707  0.0209  0.0395  0.0198  0.0200  0.2715  0.1299  0.0167  0.0547 </r>
       </set>
       <set comment="band 10">
        <r>  0.2998  0.0144  0.0087  0.0263  0.1300  0.0469  0.0076  0.0954  0.0174 </r>
       </set>
       <set comment="band 11">
        <r>  0.0038  0.0149  0.0008  0.0620  0.0435  0.0101  0.0441  0.0117  0.0341 </r>
       </set>
       <set comment="band 12">
        <r>  0.0381  0.0021  0.0931  0.0777  0.0119  0.0189  0.0370  0.0273  0.0135 </r>
       </set>
       <set comment="band 13">
        <r>  0.0032  0.1383  0.0480  0.0068  0.0132  0.0007  0.0270  0.0000  0.0002 </r>
       </set>
       <set comment="band 14">
        <r>  0.0000  0.0028  0.0043  0.0134  0.0360  0.0494  0.0048  0.0117  0.0928 </r>
       </set>
       <set comment="band 15">
        <r>  0.0000  0.0000  0.0024  0.0027  0.0755  0.0079  0.1222  0.0130  0.0010 </r>
       </set>
       <set comment="band 16">
        <r>  0.1662  0.0044  0.0034  0.0011  0.0231  0.0134  0.0110  0.0507  0.0003 </r>
       </set>
       <set comment="band 17">
        <r>  0.0378  0.1020  0.0506  0.0308  0.0124  0.0283  0.0205  0.0023  0.0420 </r>
       </set>
       <set comment="band 18">
        <r>  0.0051  0.0989  0.0514  0.0377  0.0026  0.0202  0.0000  0.0227  0.0439 </r>
       </set>
       <set comment="band 19">
        <r>  0.0214  0.0723  0.0489  0.0642  0.0000  0.0397  0.0466  0.0003  0.0339 </r>
       </set>
       <set comment="band 20">
        <r>  0.0000  0.0022  0.0013  0.0176  0.0005  0.0558  0.0058  0.0053  0.0004 </r>
       </set>
       <set comment="band 21">
        <r>  6.2950  0.0000  0.0000  0.0000  0.0000  0.0000  0.0000  0.0000  0.0000 </r>
       </set>
       <set comment="band 22">
        <r>  0.0023  0.0005  0.0160  0.0055  0.0594  0.0009  0.0094  0.0001  0.0118 </r>
       </set>
       <set comment="band 23">
        <r>  0.0201  0.0145  0.0369  0.0050  0.0269  0.0003  0.0033  0.0291  0.0354 </r>
       </set>
       <set comment="band 24">
        <r>  0.0097  0.0032  0.0663  0.0319  0.0282  0.0523  0.0011  0.0073  0.0150 </r>
       </set>
      </set>
      <set comment="kpoint 107">
       <set comment="band 1">
        <r>  0.0000  0.2460  0.3562  0.3827  0.0000  0.0000  0.0000  0.0000  0.0000 </r>
       </set>
       <set comment="band 2">
        <r>  0.0000  0.0518  0.3591  0.5785  0.0000  0.0000  0.0000  0.0000  0.0000 </r>
       </set>
       <set comment="band 3">
        <r>  0.0000  0.6930  0.2735  0.0266  0.0000  0.0000  0.0000  0.0000  0.0000 </r>
       </set>
       <set comment="band 4">
        <r>  0.0571  0.0000  0.0066  0.0053  0.0918  0.4009  0.0217  0.0397  0.0614 </r>
       </set>
       <set comment="band 5">
        <r>  0.0045  0.0126  0.0055  0.0008  0.0960  0.0019  0.3489  0.0158  0.1972 </r>
       </set>
       <set comment="band 6">
        <r>  0.0001  0.0072  0.0102  0.0229  0.3721  0.2085  0.0141  0.0315  0.0137 </r>
       </set>
       <set comment="band 7">
        <r>  0.0016  0.0002  0.0036  0.0018  0.0073  0.0005  0.2865  0.1403  0.4031 </r>
       </set>
       <set comment="band 8">
        <r>  0.0050  0.0000  0.0000  0.0004  0.1492  0.0295  0.0601  0.6012  0.0817 </r>
       </set>
       <set comment="band 9">
        <r>  0.2314  0.0162  0.0402  0.0090  0.0000  0.2147  0.0597  0.0193  0.0075 </r>
       </set>
       <set comment="band 10">
        <r>  0.1649  0.0160  0.0160  0.0644  0.1528  0.0002  0.0297  0.0688  0.0715 </r>
       </set>
       <set comment="band 11">
        <r>  0.0746  0.0153  0.0389  0.1106  0.0591  0.0069  0.0106  0.0382  0.0966 </r>
       </set>
       <set comment="band 12">
        <r>  0.0115  0.0494  0.0969  0.0000  0.0018  0.0439  0.1425  0.0023  0.0036 </r>
       </set>
       <set comment="band 13">
        <r>  0.0017  0.1011  0.0076  0.0048  0.0043  0.0460  0.0030  0.0000  0.0087 </r>
       </set>
       <set comment="band 14">
        <r>  0.0004  0.0000  0.0023  0.0103  0.0736  0.0441  0.0043  0.0069  0.0279 </r>
       </set>
       <set comment="band 15">
        <r>  0.0000  0.0003  0.0007  0.0097  0.0277  0.0156  0.0297  0.0126  0.0036 </r>
       </set>
       <set comment="band 16">
        <r>  0.1522  0.0635  0.0081  0.0012  0.0182  0.0117  0.0001  0.0042  0.0372 </r>
       </set>
       <set comment="band 17">
        <r>  0.0895  0.1346  0.0028  0.0013  0.0011  0.0691  0.0293  0.0023  0.0309 </r>
       </set>
       <set comment="band 18">
        <r>  0.0027  0.0006  0.0379  0.0238  0.0016  0.0053  0.0007  0.0282  0.0596 </r>
       </set>
       <set comment="band 19">
        <r>  0.0085  0.0501  0.1007  0.0011  0.0016  0.0504  0.1165  0.0019  0.0006 </r>
       </set>
       <set comment="band 20">
        <r>  0.0028  0.0164  0.0018  0.0365  0.0316  0.0100  0.0037  0.0051  0.0328 </r>
       </set>
       <set comment="band 21">
        <r>  0.0004  0.0052  0.0037  0.0021  0.0015  0.0143  0.0050  0.0010  0.0011 </r>
       </set>
       <set comment="band 22">
        <r>  6.2929  0.0000  0.0000  0.0000  0.0000  0.0000  0.0000  0.0000  0.0000 </r>
       </set>
       <set comment="band 23">
        <r>  0.0071  0.0001  0.0397  0.0575  0.0236  0.0249  0.0006  0.0197  0.0129 </r>
       </set>
       <set comment="band 24">
        <r>  0.0083  0.0054  0.0386  0.0052  0.0041  0.0013  0.0148  0.0158  0.0275 </r>
       </set>
      </set>
      <set comment="kpoint 108">
       <set comment="band 1">
        <r>  0.0000  0.2824  0.4189  0.2824  0.0000  0.0000  0.0000  0.0000  0.0000 </r>
       </set>
       <set comment="band 2">
        <r>  0.0000  0.2110  0.5692  0.2110  0.0000  0.0000  0.0000  0.0000  0.0000 </r>
       </set>
       <set comment="band 3">
        <r>  0.0000  0.4968  0.0000  0.4968  0.0000  0.0000  0.0000  0.0000  0.0000 </r>
       </set>
       <set comment="band 4">
        <r>  0.0872  0.0013  0.0066  0.0013  0.3345  0.0962  0.0357  0.0962  0.0000 </r>
       </set>
       <set comment="band 5">
        <r>  0.0011  0.0066  0.0003  0.0066  0.0081  0.0629  0.5731  0.0629  0.0000 </r>
       </set>
       <set comment="band 6">
        <r>  0.0067  0.0125  0.0247  0.0125  0.3115  0.1251  0.0364  0.1251  0.0000 </r>
       </set>
       <set comment="band 7">
        <r>  0.0000  0.0014  0.0000  0.0014  0.0000  0.1410  0.0000  0.1410  0.5587 </r>
       </set>
       <set comment="band 8">
        <r>  0.0000  0.0001  0.0000  0.0001  0.0000  0.3167  0.0000  0.3167  0.3087 </r>
       </set>
       <set comment="band 9">
        <r>  0.0016  0.0357  0.0602  0.0357  0.0881  0.0614  0.1729  0.0614  0.0000 </r>
       </set>
       <set comment="band 10">
        <r>  0.3865  0.0045  0.0006  0.0045  0.1166  0.1029  0.0011  0.1029  0.0000 </r>
       </set>
       <set comment="band 11">
        <r>  0.0358  0.0133  0.0980  0.0133  0.0000  0.0324  0.1244  0.0324  0.0000 </r>
       </set>
       <set comment="band 12">
        <r>  0.0000  0.1157  0.0000  0.1157  0.0000  0.0030  0.0000  0.0030  0.0710 </r>
       </set>
       <set comment="band 13">
        <r>  0.0237  0.0276  0.0282  0.0276  0.0849  0.0023  0.0020  0.0023  0.0000 </r>
       </set>
       <set comment="band 14">
        <r>  0.0000  0.0007  0.0000  0.0007  0.0000  0.0473  0.0000  0.0473  0.0876 </r>
       </set>
       <set comment="band 15">
        <r>  0.0003  0.0016  0.0223  0.0016  0.0976  0.0001  0.0806  0.0001  0.0000 </r>
       </set>
       <set comment="band 16">
        <r>  0.1723  0.0285  0.0106  0.0285  0.0011  0.0166  0.0462  0.0166  0.0000 </r>
       </set>
       <set comment="band 17">
        <r>  0.0289  0.0403  0.0138  0.0403  0.0202  0.0257  0.0151  0.0257  0.0000 </r>
       </set>
       <set comment="band 18">
        <r>  0.0219  0.0054  0.0511  0.0054  0.0722  0.0092  0.0628  0.0092  0.0000 </r>
       </set>
       <set comment="band 19">
        <r>  0.0000  0.1705  0.0000  0.1705  0.0000  0.0006  0.0000  0.0006  0.1195 </r>
       </set>
       <set comment="band 20">
        <r>  0.0000  0.0089  0.0000  0.0089  0.0000  0.0189  0.0000  0.0189  0.0051 </r>
       </set>
       <set comment="band 21">
        <r>  6.2950  0.0000  0.0000  0.0000  0.0000  0.0000  0.0000  0.0000  0.0000 </r>
       </set>
       <set comment="band 22">
        <r>  0.0022  0.0030  0.0279  0.0030  0.0551  0.0033  0.0062  0.0033  0.0000 </r>
       </set>
       <set comment="band 23">
        <r>  0.0420  0.0075  0.0239  0.0075  0.0786  0.0201  0.0002  0.0201  0.0000 </r>
       </set>
       <set comment="band 24">
        <r>  0.0000  0.0353  0.0000  0.0353  0.0000  0.0127  0.0000  0.0127  0.0420 </r>
       </set>
      </set>
      <set comment="kpoint 109">
       <set comment="band 1">
        <r>  0.0000  0.3275  0.3275  0.3275  0.0000  0.0000  0.0000  0.0000  0.0000 </r>
       </set>
       <set comment="band 2">
        <r>  0.0000  0.0398  0.6134  0.3413  0.0000  0.0000  0.0000  0.0000  0.0000 </r>
       </set>
       <set comment="band 3">
        <r>  0.0000  0.6232  0.0496  0.3217  0.0000  0.0000  0.0000  0.0000  0.0000 </r>
       </set>
       <set comment="band 4">
        <r>  0.1408  0.0003  0.0003  0.0003  0.1613  0.1613  0.0000  0.1613  0.0000 </r>
       </set>
       <set comment="band 5">
        <r>  0.0000  0.0000  0.0000  0.0000  0.2314  0.0577  0.4836  0.0580  0.0000 </r>
       </set>
       <set comment="band 6">
        <r>  0.0000  0.0000  0.0000  0.0000  0.0000  0.1737  0.0000  0.1734  0.4836 </r>
       </set>
       <set comment="band 7">
        <r>  0.0320  0.0529  0.0529  0.0529  0.0208  0.0208  0.0000  0.0208  0.0000 </r>
       </set>
       <set comment="band 8">
        <r>  0.0000  0.0000  0.0001  0.0000  0.3710  0.0926  0.3873  0.0929  0.0000 </r>
       </set>
       <set comment="band 9">
        <r>  0.0000  0.0001  0.0000  0.0001  0.0000  0.2784  0.0000  0.2781  0.3873 </r>
       </set>
       <set comment="band 10">
        <r>  0.3356  0.0080  0.0080  0.0080  0.1249  0.1249  0.0000  0.1249  0.0000 </r>
       </set>
       <set comment="band 11">
        <r>  0.0003  0.0038  0.0038  0.0038  0.0011  0.0011  0.0000  0.0011  0.0000 </r>
       </set>
       <set comment="band 12">
        <r>  0.0000  0.0385  0.1460  0.0345  0.0043  0.0010  0.0005  0.0011  0.0000 </r>
       </set>
       <set comment="band 13">
        <r>  0.0000  0.1075  0.0000  0.1115  0.0000  0.0033  0.0000  0.0032  0.0005 </r>
       </set>
       <set comment="band 14">
        <r>  0.0000  0.0006  0.0025  0.0006  0.0646  0.0163  0.2687  0.0160  0.0000 </r>
       </set>
       <set comment="band 15">
        <r>  0.0000  0.0019  0.0000  0.0019  0.0000  0.0483  0.0000  0.0486  0.2687 </r>
       </set>
       <set comment="band 16">
        <r>  0.1058  0.0054  0.0054  0.0054  0.0591  0.0591  0.0000  0.0591  0.0000 </r>
       </set>
       <set comment="band 17">
        <r>  0.0000  0.0167  0.1995  0.1014  0.0173  0.0088  0.0129  0.0014  0.0008 </r>
       </set>
       <set comment="band 18">
        <r>  0.0000  0.1950  0.0122  0.1103  0.0011  0.0096  0.0008  0.0170  0.0129 </r>
       </set>
       <set comment="band 19">
        <r>  0.0497  0.0258  0.0258  0.0258  0.0211  0.0211  0.0000  0.0211  0.0000 </r>
       </set>
       <set comment="band 20">
        <r>  6.3014  0.0000  0.0000  0.0000  0.0000  0.0000  0.0000  0.0000  0.0000 </r>
       </set>
       <set comment="band 21">
        <r>  0.0000  0.0034  0.0863  0.0559  0.0387  0.0251  0.0037  0.0015  0.0005 </r>
       </set>
       <set comment="band 22">
        <r>  0.0000  0.0937  0.0108  0.0412  0.0049  0.0185  0.0005  0.0420  0.0037 </r>
       </set>
       <set comment="band 23">
        <r>  0.1868  0.0003  0.0003  0.0003  0.0115  0.0115  0.0000  0.0115  0.0000 </r>
       </set>
       <set comment="band 24">
        <r>  0.0000  0.0003  0.0064  0.0041  0.1460  0.0947  0.0102  0.0058  0.0013 </r>
       </set>
      </set>
      <set comment="kpoint 110">
       <set comment="band 1">
        <r>  0.0000  0.3277  0.3277  0.3270  0.0000  0.0000  0.0000  0.0000  0.0000 </r>
       </set>
       <set comment="band 2">
        <r>  0.0000  0.1653  0.1653  0.6629  0.0000  0.0000  0.0000  0.0000  0.0000 </r>
       </set>
       <set comment="band 3">
        <r>  0.0000  0.4972  0.4972  0.0000  0.0000  0.0000  0.0000  0.0000  0.0000 </r>
       </set>
       <set comment="band 4">
        <r>  0.1241  0.0009  0.0009  0.0019  0.1567  0.1937  0.0001  0.1567  0.0003 </r>
       </set>
       <set comment="band 5">
        <r>  0.0000  0.0010  0.0010  0.0001  0.0558  0.1791  0.1276  0.0558  0.3828 </r>
       </set>
       <set comment="band 6">
        <r>  0.0000  0.0004  0.0004  0.0000  0.1612  0.0000  0.3824  0.1612  0.1275 </r>
       </set>
       <set comment="band 7">
        <r>  0.0010  0.0271  0.0271  0.0274  0.0771  0.1965  0.0320  0.0771  0.0960 </r>
       </set>
       <set comment="band 8">
        <r>  0.0000  0.0001  0.0001  0.0000  0.2926  0.0000  0.2672  0.2926  0.0891 </r>
       </set>
       <set comment="band 9">
        <r>  0.0083  0.0321  0.0321  0.0331  0.0240  0.2196  0.0550  0.0240  0.1650 </r>
       </set>
       <set comment="band 10">
        <r>  0.3706  0.0008  0.0008  0.0047  0.1384  0.1130  0.0008  0.1384  0.0024 </r>
       </set>
       <set comment="band 11">
        <r>  0.0002  0.0011  0.0011  0.0130  0.0063  0.0084  0.0056  0.0063  0.0169 </r>
       </set>
       <set comment="band 12">
        <r>  0.0166  0.0385  0.0385  0.1320  0.0147  0.0073  0.0036  0.0147  0.0107 </r>
       </set>
       <set comment="band 13">
        <r>  0.0000  0.1114  0.1114  0.0000  0.0000  0.0000  0.0225  0.0000  0.0075 </r>
       </set>
       <set comment="band 14">
        <r>  0.0022  0.0000  0.0000  0.0128  0.0010  0.0907  0.0463  0.0010  0.1389 </r>
       </set>
       <set comment="band 15">
        <r>  0.0000  0.0008  0.0008  0.0000  0.0590  0.0000  0.1640  0.0590  0.0547 </r>
       </set>
       <set comment="band 16">
        <r>  0.1347  0.0001  0.0001  0.0021  0.0731  0.0254  0.0018  0.0731  0.0055 </r>
       </set>
       <set comment="band 17">
        <r>  0.0289  0.0740  0.0740  0.1030  0.0010  0.0006  0.0107  0.0010  0.0320 </r>
       </set>
       <set comment="band 18">
        <r>  0.0000  0.1644  0.1644  0.0000  0.0003  0.0000  0.0279  0.0003  0.0093 </r>
       </set>
       <set comment="band 19">
        <r>  0.0224  0.0114  0.0114  0.0743  0.0008  0.0483  0.0066  0.0008  0.0197 </r>
       </set>
       <set comment="band 20">
        <r>  6.1082  0.0001  0.0001  0.0006  0.0002  0.0021  0.0000  0.0002  0.0000 </r>
       </set>
       <set comment="band 21">
        <r>  0.1933  0.0059  0.0059  0.0235  0.0058  0.0685  0.0000  0.0058  0.0001 </r>
       </set>
       <set comment="band 22">
        <r>  0.0000  0.0145  0.0145  0.0000  0.0412  0.0000  0.0050  0.0412  0.0017 </r>
       </set>
       <set comment="band 23">
        <r>  0.0978  0.0029  0.0029  0.0001  0.0033  0.1095  0.0010  0.0033  0.0031 </r>
       </set>
       <set comment="band 24">
        <r>  0.0000  0.0515  0.0515  0.0000  0.0502  0.0000  0.0020  0.0502  0.0007 </r>
       </set>
      </set>
     </set>
    </set>
   </array>
  </projected>
 </calculation>
 <structure name="finalpos" >
  <crystal>
   <varray name="basis" >
    <v>      -0.00000000       1.97884863       1.97884863 </v>
    <v>       1.97884863       0.00000000       1.97884863 </v>
    <v>       1.97884863       1.97884863      -0.00000000 </v>
   </varray>
   <i name="volume">     15.49771675 </i>
   <varray name="rec_basis" >
    <v>      -0.25267218       0.25267218       0.25267218 </v>
    <v>       0.25267218      -0.25267218       0.25267218 </v>
    <v>       0.25267218       0.25267218      -0.25267218 </v>
   </varray>
  </crystal>
  <varray name="positions" >
   <v>       0.00000000       0.00000000       0.00000000 </v>
  </varray>
 </structure>
</modeling>
