Pt-fcc                                  
           1
     0.000000    1.970000    1.970000
     1.970000    0.000000    1.970000
     1.970000    1.970000    0.000000
   Pt
     1
Direct configuration=     1
   0.00000000  0.00000000  0.00000000
Pt-fcc                                  
           1
    -0.000000    2.002935    2.002935
     2.002935    0.000000    2.002935
     2.002935    2.002935   -0.000000
   Pt
     1
Direct configuration=     2
   0.00000000  0.00000000  0.00000000
Pt-fcc                                  
           1
    -0.000000    1.978849    1.978849
     1.978849    0.000000    1.978849
     1.978849    1.978849   -0.000000
   Pt
     1
Direct configuration=     3
   0.00000000  0.00000000  0.00000000
