   2   2   1   0
  0.1017687E+02  0.2442430E-09  0.2442430E-09  0.3939755E-09  0.5000000E-15
  1.000000000000000E-004
  CAR 
 Co-hcc                                  
     52.98624682     -0.52676806  301     11.18763365      1.00000000
     -0.527  0.0000E+00  0.0000E+00  0.0000E+00  0.0000E+00
     -0.348  0.0000E+00  0.0000E+00  0.0000E+00  0.0000E+00
     -0.170  0.0000E+00  0.0000E+00  0.0000E+00  0.0000E+00
      0.008  0.0000E+00  0.0000E+00  0.0000E+00  0.0000E+00
      0.187  0.0000E+00  0.0000E+00  0.0000E+00  0.0000E+00
      0.365  0.0000E+00  0.0000E+00  0.0000E+00  0.0000E+00
      0.543  0.0000E+00  0.0000E+00  0.0000E+00  0.0000E+00
      0.722  0.0000E+00  0.0000E+00  0.0000E+00  0.0000E+00
      0.900  0.0000E+00  0.0000E+00  0.0000E+00  0.0000E+00
      1.079  0.0000E+00  0.0000E+00  0.0000E+00  0.0000E+00
      1.257  0.0000E+00  0.0000E+00  0.0000E+00  0.0000E+00
      1.435  0.0000E+00  0.0000E+00  0.0000E+00  0.0000E+00
      1.614  0.2701E-20  0.2701E-20  0.4819E-21  0.4819E-21
      1.792  0.3223E-07  0.2729E-07  0.5749E-08  0.4868E-08
      1.971  0.4721E-04  0.4700E-04  0.8428E-05  0.8389E-05
      2.149  0.2053E-03  0.1969E-03  0.4505E-04  0.4351E-04
      2.327  0.4977E-03  0.4821E-03  0.1338E-03  0.1295E-03
      2.506  0.2784E-03  0.3007E-03  0.1835E-03  0.1831E-03
      2.684  0.3183E-03  0.3024E-03  0.2403E-03  0.2371E-03
      2.862  0.1206E-02  0.1163E-02  0.4554E-03  0.4445E-03
      3.041  0.5550E-03  0.5372E-03  0.5544E-03  0.5403E-03
      3.219  0.3854E-03  0.4398E-03  0.6231E-03  0.6188E-03
      3.398  0.6433E-03  0.6614E-03  0.7379E-03  0.7368E-03
      3.576  0.1242E-02  0.9323E-03  0.9594E-03  0.9031E-03
      3.754  0.1429E-02  0.1364E-02  0.1214E-02  0.1146E-02
      3.933  0.2885E-03  0.6315E-03  0.1266E-02  0.1259E-02
      4.111  0.1381E-02  0.8910E-03  0.1512E-02  0.1418E-02
      4.289  0.1876E-02  0.2273E-02  0.1847E-02  0.1823E-02
      4.468  0.5073E-03  0.1491E-03  0.1937E-02  0.1850E-02
      4.646  0.8829E-03  0.1159E-02  0.2095E-02  0.2057E-02
      4.825  0.2569E-02  0.8785E-03  0.2553E-02  0.2213E-02
      5.003  0.1882E-02  0.2948E-02  0.2889E-02  0.2739E-02
      5.181  0.2829E-02  0.1439E-02  0.3393E-02  0.2996E-02
      5.360  0.1480E-02  0.1939E-02  0.3657E-02  0.3342E-02
      5.538  0.2757E-02  0.1132E-02  0.4149E-02  0.3544E-02
      5.716  0.3013E-02  0.1683E-02  0.4687E-02  0.3844E-02
      5.895  0.1145E-01  0.2325E-02  0.6729E-02  0.4259E-02
      6.073  0.9025E-02  0.2580E-02  0.8339E-02  0.4719E-02
      6.252  0.1097E-01  0.3368E-02  0.1030E-01  0.5320E-02
      6.430  0.1383E-01  0.3536E-02  0.1276E-01  0.5950E-02
      6.608  0.1868E-01  0.5308E-02  0.1609E-01  0.6897E-02
      6.787  0.1560E-01  0.4466E-02  0.1888E-01  0.7694E-02
      6.965  0.1361E-01  0.6954E-02  0.2130E-01  0.8934E-02
      7.143  0.1604E-01  0.1063E-01  0.2416E-01  0.1083E-01
      7.322  0.1471E-01  0.8944E-02  0.2679E-01  0.1243E-01
      7.500  0.1950E-01  0.9248E-02  0.3027E-01  0.1408E-01
      7.679  0.1971E-01  0.1096E-01  0.3378E-01  0.1603E-01
      7.857  0.1902E-01  0.1486E-01  0.3718E-01  0.1868E-01
      8.035  0.8149E-02  0.1247E-01  0.3863E-01  0.2091E-01
      8.214  0.1824E-01  0.1116E-01  0.4188E-01  0.2290E-01
      8.392  0.2715E-01  0.1253E-01  0.4673E-01  0.2513E-01
      8.570  0.2431E-01  0.1429E-01  0.5106E-01  0.2768E-01
      8.749  0.2807E-01  0.1671E-01  0.5607E-01  0.3066E-01
      8.927  0.2640E-01  0.2097E-01  0.6078E-01  0.3440E-01
      9.106  0.2807E-01  0.1360E-01  0.6579E-01  0.3683E-01
      9.284  0.2197E-01  0.7990E-02  0.6970E-01  0.3825E-01
      9.462  0.1566E-01  0.7505E-02  0.7250E-01  0.3959E-01
      9.641  0.1890E-01  0.1784E-01  0.7587E-01  0.4277E-01
      9.819  0.1656E-01  0.2113E-01  0.7882E-01  0.4654E-01
      9.997  0.1312E-01  0.2099E-01  0.8116E-01  0.5028E-01
     10.176  0.2156E-01  0.2352E-01  0.8501E-01  0.5448E-01
     10.354  0.2190E-01  0.2599E-01  0.8892E-01  0.5912E-01
     10.533  0.3274E-01  0.2761E-01  0.9476E-01  0.6404E-01
     10.711  0.4441E-01  0.2136E-01  0.1027E+00  0.6785E-01
     10.889  0.1001E-01  0.1410E-01  0.1045E+00  0.7037E-01
     11.068  0.1587E-02  0.1683E-01  0.1047E+00  0.7337E-01
     11.246  0.6597E-02  0.1016E-01  0.1059E+00  0.7518E-01
     11.424  0.4718E-02  0.1732E-01  0.1068E+00  0.7827E-01
     11.603  0.2102E-02  0.9539E-02  0.1071E+00  0.7997E-01
     11.781  0.1397E-02  0.1315E-01  0.1074E+00  0.8232E-01
     11.960  0.1112E-02  0.2143E-01  0.1076E+00  0.8614E-01
     12.138  0.1337E-02  0.1768E-01  0.1078E+00  0.8929E-01
     12.316  0.3129E-02  0.2811E-01  0.1084E+00  0.9431E-01
     12.495  0.5554E-02  0.4225E-01  0.1094E+00  0.1018E+00
     12.673  0.4395E-02  0.1790E-01  0.1102E+00  0.1050E+00
     12.851  0.2638E-02  0.7962E-02  0.1106E+00  0.1065E+00
     13.030  0.1451E-02  0.3497E-02  0.1109E+00  0.1071E+00
     13.208  0.1702E-02  0.3028E-02  0.1112E+00  0.1076E+00
     13.387  0.1955E-02  0.2726E-02  0.1115E+00  0.1081E+00
     13.565  0.2588E-02  0.4080E-02  0.1120E+00  0.1088E+00
     13.743  0.1562E-02  0.3223E-02  0.1123E+00  0.1094E+00
     13.922  0.3020E-02  0.4620E-02  0.1128E+00  0.1102E+00
     14.100  0.1362E-02  0.4248E-02  0.1131E+00  0.1110E+00
     14.278  0.3553E-02  0.1295E-02  0.1137E+00  0.1112E+00
     14.457  0.1804E-02  0.4151E-02  0.1140E+00  0.1120E+00
     14.635  0.8944E-03  0.1500E-02  0.1142E+00  0.1122E+00
     14.814  0.2788E-02  0.1378E-02  0.1147E+00  0.1125E+00
     14.992  0.2504E-02  0.4246E-02  0.1151E+00  0.1132E+00
     15.170  0.4206E-02  0.9376E-03  0.1159E+00  0.1134E+00
     15.349  0.1087E-02  0.3190E-02  0.1161E+00  0.1140E+00
     15.527  0.2300E-02  0.1552E-02  0.1165E+00  0.1142E+00
     15.706  0.2266E-02  0.3461E-02  0.1169E+00  0.1149E+00
     15.884  0.1119E-02  0.3719E-02  0.1171E+00  0.1155E+00
     16.062  0.1307E-02  0.2449E-02  0.1173E+00  0.1160E+00
     16.241  0.1506E-02  0.6602E-03  0.1176E+00  0.1161E+00
     16.419  0.9296E-03  0.2439E-02  0.1177E+00  0.1165E+00
     16.597  0.9117E-03  0.3049E-02  0.1179E+00  0.1171E+00
     16.776  0.1131E-02  0.1581E-02  0.1181E+00  0.1173E+00
     16.954  0.4953E-02  0.1117E-02  0.1190E+00  0.1175E+00
     17.133  0.2188E-02  0.1466E-02  0.1194E+00  0.1178E+00
     17.311  0.1065E-02  0.5464E-03  0.1196E+00  0.1179E+00
     17.489  0.5301E-03  0.1841E-02  0.1197E+00  0.1182E+00
     17.668  0.4076E-07  0.3891E-02  0.1197E+00  0.1189E+00
     17.846  0.1741E-03  0.2834E-02  0.1197E+00  0.1194E+00
     18.024  0.6226E-03  0.8706E-03  0.1198E+00  0.1196E+00
     18.203  0.9711E-03  0.4836E-03  0.1200E+00  0.1197E+00
     18.381  0.7530E-03  0.1214E-07  0.1201E+00  0.1197E+00
     18.560  0.6389E-03  0.9203E-04  0.1202E+00  0.1197E+00
     18.738  0.5918E-03  0.1331E-02  0.1203E+00  0.1199E+00
     18.916  0.1402E-02  0.2317E-03  0.1206E+00  0.1200E+00
     19.095  0.5490E-03  0.2071E-05  0.1207E+00  0.1200E+00
     19.273  0.4568E-02  0.1071E-02  0.1215E+00  0.1202E+00
     19.451  0.6486E-02  0.1155E-02  0.1227E+00  0.1204E+00
     19.630  0.4294E-02  0.1276E-02  0.1234E+00  0.1206E+00
     19.808  0.2223E-02  0.1116E-02  0.1238E+00  0.1208E+00
     19.987  0.4605E-02  0.3907E-02  0.1246E+00  0.1215E+00
     20.165  0.2616E-02  0.4541E-02  0.1251E+00  0.1223E+00
     20.343  0.4426E-02  0.5062E-02  0.1259E+00  0.1232E+00
     20.522  0.2007E-02  0.3729E-02  0.1263E+00  0.1239E+00
     20.700  0.3252E-02  0.4859E-02  0.1268E+00  0.1247E+00
     20.878  0.1835E-02  0.2352E-02  0.1272E+00  0.1252E+00
     21.057  0.3962E-02  0.4377E-02  0.1279E+00  0.1259E+00
     21.235  0.2145E-02  0.4291E-02  0.1283E+00  0.1267E+00
     21.414  0.2979E-02  0.1495E-02  0.1288E+00  0.1270E+00
     21.592  0.2136E-02  0.4483E-02  0.1292E+00  0.1278E+00
     21.770  0.5080E-02  0.1844E-02  0.1301E+00  0.1281E+00
     21.949  0.3057E-02  0.3243E-02  0.1306E+00  0.1287E+00
     22.127  0.3931E-02  0.2708E-02  0.1313E+00  0.1292E+00
     22.305  0.5540E-02  0.3191E-02  0.1323E+00  0.1297E+00
     22.484  0.1444E-02  0.4954E-02  0.1326E+00  0.1306E+00
     22.662  0.4331E-02  0.4968E-02  0.1333E+00  0.1315E+00
     22.841  0.5848E-02  0.4704E-02  0.1344E+00  0.1323E+00
     23.019  0.1968E-02  0.1442E-02  0.1347E+00  0.1326E+00
     23.197  0.3408E-02  0.5054E-02  0.1353E+00  0.1335E+00
     23.376  0.1330E-02  0.5581E-02  0.1356E+00  0.1345E+00
     23.554  0.3818E-02  0.2833E-02  0.1363E+00  0.1350E+00
     23.732  0.4638E-02  0.2678E-02  0.1371E+00  0.1355E+00
     23.911  0.3246E-02  0.2471E-02  0.1377E+00  0.1359E+00
     24.089  0.2716E-02  0.4212E-02  0.1381E+00  0.1367E+00
     24.268  0.1105E-02  0.4362E-02  0.1383E+00  0.1374E+00
     24.446  0.3024E-02  0.2170E-02  0.1389E+00  0.1378E+00
     24.624  0.3446E-02  0.2259E-02  0.1395E+00  0.1382E+00
     24.803  0.1294E-02  0.2496E-02  0.1397E+00  0.1387E+00
     24.981  0.1926E-02  0.2483E-02  0.1401E+00  0.1391E+00
     25.159  0.7013E-02  0.3054E-02  0.1413E+00  0.1397E+00
     25.338  0.1634E-02  0.1362E-02  0.1416E+00  0.1399E+00
     25.516  0.2904E-02  0.4112E-02  0.1421E+00  0.1406E+00
     25.695  0.6022E-03  0.5007E-02  0.1422E+00  0.1415E+00
     25.873  0.4960E-02  0.2129E-02  0.1431E+00  0.1419E+00
     26.051  0.5773E-02  0.1432E-02  0.1442E+00  0.1422E+00
     26.230  0.2004E-02  0.4109E-02  0.1445E+00  0.1429E+00
     26.408  0.1833E-02  0.4662E-02  0.1448E+00  0.1437E+00
     26.586  0.3030E-02  0.3690E-02  0.1454E+00  0.1444E+00
     26.765  0.3966E-02  0.1447E-02  0.1461E+00  0.1446E+00
     26.943  0.3621E-02  0.3739E-02  0.1467E+00  0.1453E+00
     27.122  0.5700E-02  0.4322E-02  0.1478E+00  0.1461E+00
     27.300  0.3937E-02  0.3240E-02  0.1485E+00  0.1467E+00
     27.478  0.6135E-02  0.6265E-02  0.1495E+00  0.1478E+00
     27.657  0.4145E-02  0.4121E-02  0.1503E+00  0.1485E+00
     27.835  0.2995E-02  0.5532E-02  0.1508E+00  0.1495E+00
     28.014  0.3167E-02  0.4293E-02  0.1514E+00  0.1503E+00
     28.192  0.2408E-02  0.3088E-02  0.1518E+00  0.1508E+00
     28.370  0.7169E-02  0.3596E-02  0.1531E+00  0.1515E+00
     28.549  0.1866E-02  0.3838E-02  0.1534E+00  0.1521E+00
     28.727  0.3137E-02  0.6641E-02  0.1540E+00  0.1533E+00
     28.905  0.7882E-02  0.9816E-03  0.1554E+00  0.1535E+00
     29.084  0.2704E-02  0.5324E-02  0.1559E+00  0.1545E+00
     29.262  0.4080E-02  0.5781E-02  0.1566E+00  0.1555E+00
     29.441  0.4767E-02  0.3246E-02  0.1575E+00  0.1561E+00
     29.619  0.4714E-02  0.4696E-02  0.1583E+00  0.1569E+00
     29.797  0.2578E-02  0.5470E-02  0.1588E+00  0.1579E+00
     29.976  0.3512E-02  0.2909E-02  0.1594E+00  0.1584E+00
     30.154  0.3291E-02  0.3799E-02  0.1600E+00  0.1591E+00
     30.332  0.3661E-02  0.3295E-02  0.1606E+00  0.1597E+00
     30.511  0.4834E-02  0.3188E-02  0.1615E+00  0.1602E+00
     30.689  0.3942E-02  0.4071E-02  0.1622E+00  0.1610E+00
     30.868  0.4488E-02  0.5834E-02  0.1630E+00  0.1620E+00
     31.046  0.4982E-02  0.3506E-02  0.1639E+00  0.1626E+00
     31.224  0.2879E-02  0.5426E-02  0.1644E+00  0.1636E+00
     31.403  0.4092E-02  0.2886E-02  0.1651E+00  0.1641E+00
     31.581  0.5449E-02  0.4105E-02  0.1661E+00  0.1648E+00
     31.759  0.2938E-02  0.5463E-02  0.1666E+00  0.1658E+00
     31.938  0.4572E-02  0.3816E-02  0.1674E+00  0.1665E+00
     32.116  0.3876E-02  0.5272E-02  0.1681E+00  0.1674E+00
     32.295  0.5289E-02  0.4485E-02  0.1691E+00  0.1682E+00
     32.473  0.3103E-02  0.4113E-02  0.1696E+00  0.1690E+00
     32.651  0.2970E-02  0.3478E-02  0.1701E+00  0.1696E+00
     32.830  0.3338E-02  0.2959E-02  0.1707E+00  0.1701E+00
     33.008  0.3789E-02  0.3539E-02  0.1714E+00  0.1707E+00
     33.186  0.3378E-02  0.3438E-02  0.1720E+00  0.1714E+00
     33.365  0.4613E-02  0.4729E-02  0.1728E+00  0.1722E+00
     33.543  0.3261E-02  0.4195E-02  0.1734E+00  0.1730E+00
     33.722  0.6611E-02  0.3566E-02  0.1746E+00  0.1736E+00
     33.900  0.4720E-02  0.4703E-02  0.1754E+00  0.1744E+00
     34.078  0.2662E-02  0.4996E-02  0.1759E+00  0.1753E+00
     34.257  0.2928E-02  0.4297E-02  0.1764E+00  0.1761E+00
     34.435  0.5234E-02  0.2720E-02  0.1774E+00  0.1766E+00
     34.613  0.5539E-02  0.5690E-02  0.1784E+00  0.1776E+00
     34.792  0.3546E-02  0.3875E-02  0.1790E+00  0.1783E+00
     34.970  0.4072E-02  0.2536E-02  0.1797E+00  0.1787E+00
     35.149  0.4438E-02  0.5282E-02  0.1805E+00  0.1797E+00
     35.327  0.1286E-02  0.4159E-02  0.1807E+00  0.1804E+00
     35.505  0.2279E-02  0.1515E-02  0.1812E+00  0.1807E+00
     35.684  0.4905E-02  0.2914E-02  0.1820E+00  0.1812E+00
     35.862  0.4209E-02  0.3208E-02  0.1828E+00  0.1818E+00
     36.040  0.3612E-02  0.5527E-02  0.1834E+00  0.1828E+00
     36.219  0.3328E-02  0.3262E-02  0.1840E+00  0.1833E+00
     36.397  0.9376E-02  0.4015E-02  0.1857E+00  0.1841E+00
     36.576  0.7816E-02  0.7219E-02  0.1871E+00  0.1853E+00
     36.754  0.4707E-02  0.7010E-02  0.1879E+00  0.1866E+00
     36.932  0.2285E-02  0.6836E-02  0.1883E+00  0.1878E+00
     37.111  0.6472E-02  0.2732E-02  0.1895E+00  0.1883E+00
     37.289  0.3327E-02  0.6043E-02  0.1901E+00  0.1894E+00
     37.467  0.5021E-02  0.3930E-02  0.1910E+00  0.1901E+00
     37.646  0.3075E-02  0.4390E-02  0.1915E+00  0.1909E+00
     37.824  0.2258E-02  0.3555E-02  0.1919E+00  0.1915E+00
     38.003  0.2886E-02  0.2384E-02  0.1924E+00  0.1919E+00
     38.181  0.2697E-02  0.4023E-02  0.1929E+00  0.1926E+00
     38.359  0.3892E-02  0.1391E-02  0.1936E+00  0.1929E+00
     38.538  0.1789E-02  0.3700E-02  0.1939E+00  0.1936E+00
     38.716  0.5797E-02  0.2710E-02  0.1950E+00  0.1940E+00
     38.894  0.3966E-02  0.4988E-02  0.1957E+00  0.1949E+00
     39.073  0.4092E-02  0.5040E-02  0.1964E+00  0.1958E+00
     39.251  0.4545E-02  0.1957E-02  0.1972E+00  0.1962E+00
     39.430  0.3339E-02  0.3991E-02  0.1978E+00  0.1969E+00
     39.608  0.4405E-02  0.5616E-02  0.1986E+00  0.1979E+00
     39.786  0.5516E-02  0.3890E-02  0.1996E+00  0.1986E+00
     39.965  0.3902E-02  0.4066E-02  0.2003E+00  0.1993E+00
     40.143  0.5013E-02  0.4257E-02  0.2012E+00  0.2001E+00
     40.321  0.3387E-02  0.2984E-02  0.2018E+00  0.2006E+00
     40.500  0.1943E-02  0.6406E-02  0.2021E+00  0.2017E+00
     40.678  0.6171E-02  0.2536E-02  0.2032E+00  0.2022E+00
     40.857  0.5772E-02  0.6646E-02  0.2043E+00  0.2034E+00
     41.035  0.4510E-02  0.3566E-02  0.2051E+00  0.2040E+00
     41.213  0.4991E-02  0.3816E-02  0.2059E+00  0.2047E+00
     41.392  0.2966E-02  0.5733E-02  0.2065E+00  0.2057E+00
     41.570  0.5791E-02  0.5646E-02  0.2075E+00  0.2067E+00
     41.749  0.7981E-03  0.4590E-02  0.2077E+00  0.2075E+00
     41.927  0.2655E-02  0.8824E-03  0.2081E+00  0.2077E+00
     42.105  0.5498E-02  0.3354E-02  0.2091E+00  0.2083E+00
     42.284  0.6498E-02  0.3822E-02  0.2103E+00  0.2090E+00
     42.462  0.5466E-02  0.4214E-02  0.2112E+00  0.2097E+00
     42.640  0.7166E-02  0.8846E-02  0.2125E+00  0.2113E+00
     42.819  0.3684E-02  0.4755E-02  0.2132E+00  0.2122E+00
     42.997  0.5704E-02  0.4675E-02  0.2142E+00  0.2130E+00
     43.176  0.3445E-02  0.6613E-02  0.2148E+00  0.2142E+00
     43.354  0.4627E-02  0.3452E-02  0.2156E+00  0.2148E+00
     43.532  0.4081E-02  0.4071E-02  0.2164E+00  0.2155E+00
     43.711  0.4813E-02  0.3058E-02  0.2172E+00  0.2161E+00
     43.889  0.3392E-02  0.5481E-02  0.2178E+00  0.2170E+00
     44.067  0.1246E-02  0.5304E-02  0.2180E+00  0.2180E+00
     44.246  0.2180E-02  0.1329E-02  0.2184E+00  0.2182E+00
     44.424  0.4514E-02  0.1314E-02  0.2192E+00  0.2185E+00
     44.603  0.5360E-02  0.3346E-02  0.2202E+00  0.2191E+00
     44.781  0.4900E-02  0.4045E-02  0.2211E+00  0.2198E+00
     44.959  0.8646E-02  0.6299E-02  0.2226E+00  0.2209E+00
     45.138  0.6408E-02  0.4155E-02  0.2238E+00  0.2216E+00
     45.316  0.6158E-02  0.8754E-02  0.2249E+00  0.2232E+00
     45.494  0.1571E-02  0.6214E-02  0.2251E+00  0.2243E+00
     45.673  0.6422E-02  0.3074E-02  0.2263E+00  0.2249E+00
     45.851  0.5562E-02  0.4449E-02  0.2273E+00  0.2256E+00
     46.030  0.4374E-02  0.5541E-02  0.2281E+00  0.2266E+00
     46.208  0.4508E-02  0.5893E-02  0.2289E+00  0.2277E+00
     46.386  0.8952E-02  0.5623E-02  0.2305E+00  0.2287E+00
     46.565  0.3458E-02  0.4273E-02  0.2311E+00  0.2295E+00
     46.743  0.2490E-02  0.6882E-02  0.2315E+00  0.2307E+00
     46.921  0.3193E-02  0.1567E-02  0.2321E+00  0.2310E+00
     47.100  0.7722E-02  0.1381E-02  0.2335E+00  0.2312E+00
     47.278  0.5362E-02  0.2666E-02  0.2344E+00  0.2317E+00
     47.457  0.5122E-02  0.3235E-02  0.2353E+00  0.2323E+00
     47.635  0.1060E-01  0.5288E-02  0.2372E+00  0.2332E+00
     47.813  0.4748E-02  0.4770E-02  0.2381E+00  0.2341E+00
     47.992  0.5378E-02  0.2377E-02  0.2390E+00  0.2345E+00
     48.170  0.3970E-02  0.1917E-02  0.2397E+00  0.2348E+00
     48.348  0.6871E-03  0.1658E-02  0.2399E+00  0.2351E+00
     48.527  0.5199E-04  0.3374E-02  0.2399E+00  0.2357E+00
     48.705  0.5399E-03  0.5204E-02  0.2400E+00  0.2366E+00
     48.884  0.9025E-07  0.2673E-02  0.2400E+00  0.2371E+00
     49.062  0.1737E-05  0.3867E-02  0.2400E+00  0.2378E+00
     49.240  0.1922E-03  0.2737E-02  0.2400E+00  0.2383E+00
     49.419  0.7240E-06  0.4457E-03  0.2400E+00  0.2384E+00
     49.597  0.0000E+00  0.2708E-02  0.2400E+00  0.2389E+00
     49.775  0.0000E+00  0.2353E-02  0.2400E+00  0.2393E+00
     49.954  0.0000E+00  0.1696E-02  0.2400E+00  0.2396E+00
     50.132  0.0000E+00  0.5926E-03  0.2400E+00  0.2397E+00
     50.311  0.0000E+00  0.5580E-03  0.2400E+00  0.2398E+00
     50.489  0.0000E+00  0.6053E-03  0.2400E+00  0.2399E+00
     50.667  0.0000E+00  0.5646E-03  0.2400E+00  0.2400E+00
     50.846  0.0000E+00  0.3867E-06  0.2400E+00  0.2400E+00
     51.024  0.0000E+00  0.0000E+00  0.2400E+00  0.2400E+00
     51.202  0.0000E+00  0.0000E+00  0.2400E+00  0.2400E+00
     51.381  0.0000E+00  0.0000E+00  0.2400E+00  0.2400E+00
     51.559  0.0000E+00  0.0000E+00  0.2400E+00  0.2400E+00
     51.738  0.0000E+00  0.0000E+00  0.2400E+00  0.2400E+00
     51.916  0.0000E+00  0.0000E+00  0.2400E+00  0.2400E+00
     52.094  0.0000E+00  0.0000E+00  0.2400E+00  0.2400E+00
     52.273  0.0000E+00  0.0000E+00  0.2400E+00  0.2400E+00
     52.451  0.0000E+00  0.0000E+00  0.2400E+00  0.2400E+00
     52.629  0.0000E+00  0.0000E+00  0.2400E+00  0.2400E+00
     52.808  0.0000E+00  0.0000E+00  0.2400E+00  0.2400E+00
     52.986  0.0000E+00  0.0000E+00  0.2400E+00  0.2400E+00
     52.98624682     -0.52676806  301     11.18763365      1.00000000
     -0.527  0.0000E+00  0.0000E+00  0.0000E+00  0.0000E+00  0.0000E+00  0.0000E+00  0.0000E+00  0.0000E+00  0.0000E+00  0.0000E+00  0.0000E+00  0.0000E+00  0.0000E+00  0.0000E+00  0.0000E+00  0.0000E+00  0.0000E+00  0.0000E+00
     -0.348  0.0000E+00  0.0000E+00  0.0000E+00  0.0000E+00  0.0000E+00  0.0000E+00  0.0000E+00  0.0000E+00  0.0000E+00  0.0000E+00  0.0000E+00  0.0000E+00  0.0000E+00  0.0000E+00  0.0000E+00  0.0000E+00  0.0000E+00  0.0000E+00
     -0.170  0.0000E+00  0.0000E+00  0.0000E+00  0.0000E+00  0.0000E+00  0.0000E+00  0.0000E+00  0.0000E+00  0.0000E+00  0.0000E+00  0.0000E+00  0.0000E+00  0.0000E+00  0.0000E+00  0.0000E+00  0.0000E+00  0.0000E+00  0.0000E+00
      0.008  0.0000E+00  0.0000E+00  0.0000E+00  0.0000E+00  0.0000E+00  0.0000E+00  0.0000E+00  0.0000E+00  0.0000E+00  0.0000E+00  0.0000E+00  0.0000E+00  0.0000E+00  0.0000E+00  0.0000E+00  0.0000E+00  0.0000E+00  0.0000E+00
      0.187  0.0000E+00  0.0000E+00  0.0000E+00  0.0000E+00  0.0000E+00  0.0000E+00  0.0000E+00  0.0000E+00  0.0000E+00  0.0000E+00  0.0000E+00  0.0000E+00  0.0000E+00  0.0000E+00  0.0000E+00  0.0000E+00  0.0000E+00  0.0000E+00
      0.365  0.0000E+00  0.0000E+00  0.0000E+00  0.0000E+00  0.0000E+00  0.0000E+00  0.0000E+00  0.0000E+00  0.0000E+00  0.0000E+00  0.0000E+00  0.0000E+00  0.0000E+00  0.0000E+00  0.0000E+00  0.0000E+00  0.0000E+00  0.0000E+00
      0.543  0.0000E+00  0.0000E+00  0.0000E+00  0.0000E+00  0.0000E+00  0.0000E+00  0.0000E+00  0.0000E+00  0.0000E+00  0.0000E+00  0.0000E+00  0.0000E+00  0.0000E+00  0.0000E+00  0.0000E+00  0.0000E+00  0.0000E+00  0.0000E+00
      0.722  0.0000E+00  0.0000E+00  0.0000E+00  0.0000E+00  0.0000E+00  0.0000E+00  0.0000E+00  0.0000E+00  0.0000E+00  0.0000E+00  0.0000E+00  0.0000E+00  0.0000E+00  0.0000E+00  0.0000E+00  0.0000E+00  0.0000E+00  0.0000E+00
      0.900  0.0000E+00  0.0000E+00  0.0000E+00  0.0000E+00  0.0000E+00  0.0000E+00  0.0000E+00  0.0000E+00  0.0000E+00  0.0000E+00  0.0000E+00  0.0000E+00  0.0000E+00  0.0000E+00  0.0000E+00  0.0000E+00  0.0000E+00  0.0000E+00
      1.079  0.0000E+00  0.0000E+00  0.0000E+00  0.0000E+00  0.0000E+00  0.0000E+00  0.0000E+00  0.0000E+00  0.0000E+00  0.0000E+00  0.0000E+00  0.0000E+00  0.0000E+00  0.0000E+00  0.0000E+00  0.0000E+00  0.0000E+00  0.0000E+00
      1.257  0.0000E+00  0.0000E+00  0.0000E+00  0.0000E+00  0.0000E+00  0.0000E+00  0.0000E+00  0.0000E+00  0.0000E+00  0.0000E+00  0.0000E+00  0.0000E+00  0.0000E+00  0.0000E+00  0.0000E+00  0.0000E+00  0.0000E+00  0.0000E+00
      1.435  0.0000E+00  0.0000E+00  0.0000E+00  0.0000E+00  0.0000E+00  0.0000E+00  0.0000E+00  0.0000E+00  0.0000E+00  0.0000E+00  0.0000E+00  0.0000E+00  0.0000E+00  0.0000E+00  0.0000E+00  0.0000E+00  0.0000E+00  0.0000E+00
      1.614  0.1054E-18  0.1056E-18  0.2032E-35  0.6096E-34  0.3066E-35  0.4362E-35  0.2032E-35  0.6096E-34  0.1450E-32  0.1232E-31  0.2953E-39  0.1847E-36  0.5871E-24  0.6882E-24  0.2953E-39  0.1847E-36  0.1450E-32  0.1232E-31
      1.792  0.1258E-05  0.1067E-05  0.2424E-22  0.6159E-21  0.7523E-19  0.4280E-19  0.2424E-22  0.6159E-21  0.1730E-19  0.1245E-18  0.3522E-26  0.1866E-23  0.7004E-11  0.6952E-11  0.3522E-26  0.1866E-23  0.1730E-19  0.1245E-18
      1.971  0.1842E-02  0.1838E-02  0.5090E-11  0.3325E-11  0.1218E-06  0.9934E-07  0.5090E-11  0.3325E-11  0.8973E-13  0.4461E-13  0.3863E-22  0.4483E-20  0.1159E-07  0.1270E-07  0.3863E-22  0.4483E-20  0.8973E-13  0.4461E-13
      2.149  0.7855E-02  0.7548E-02  0.4982E-04  0.4622E-04  0.5791E-04  0.5812E-04  0.4982E-04  0.4622E-04  0.8780E-06  0.6171E-06  0.3956E-11  0.1774E-11  0.1527E-05  0.1108E-05  0.3956E-11  0.1774E-11  0.8780E-06  0.6171E-06
      2.327  0.1877E-01  0.1823E-01  0.2276E-03  0.2217E-03  0.1873E-03  0.1740E-03  0.2276E-03  0.2217E-03  0.4092E-05  0.3001E-05  0.5940E-05  0.4222E-05  0.1510E-05  0.1278E-05  0.5940E-05  0.4222E-05  0.4092E-05  0.3001E-05
      2.506  0.1043E-01  0.1129E-01  0.1242E-03  0.1361E-03  0.1776E-03  0.1888E-03  0.1242E-03  0.1361E-03  0.2259E-05  0.1859E-05  0.5168E-05  0.4338E-05  0.1064E-05  0.5359E-06  0.5168E-05  0.4338E-05  0.2259E-05  0.1859E-05
      2.684  0.1157E-01  0.1102E-01  0.3029E-03  0.2820E-03  0.2103E-03  0.2167E-03  0.3029E-03  0.2820E-03  0.1615E-04  0.1124E-04  0.2306E-07  0.7048E-08  0.2793E-04  0.1999E-04  0.2306E-07  0.7048E-08  0.1615E-04  0.1124E-04
      2.862  0.4301E-01  0.4159E-01  0.1122E-02  0.1082E-02  0.1582E-02  0.1547E-02  0.1122E-02  0.1082E-02  0.5628E-04  0.3920E-04  0.7797E-04  0.5641E-04  0.7646E-04  0.5297E-04  0.7797E-04  0.5641E-04  0.5628E-04  0.3920E-04
      3.041  0.1947E-01  0.1896E-01  0.8989E-03  0.8500E-03  0.2219E-03  0.2317E-03  0.8989E-03  0.8500E-03  0.7688E-04  0.5030E-04  0.2741E-04  0.1689E-04  0.4270E-04  0.3131E-04  0.2741E-04  0.1689E-04  0.7688E-04  0.5030E-04
      3.219  0.1333E-01  0.1529E-01  0.6394E-03  0.7540E-03  0.2808E-03  0.2742E-03  0.6394E-03  0.7540E-03  0.5712E-04  0.4825E-04  0.4263E-04  0.3164E-04  0.2058E-04  0.1779E-04  0.4263E-04  0.3164E-04  0.5712E-04  0.4825E-04
      3.398  0.2168E-01  0.2239E-01  0.6949E-03  0.7326E-03  0.1662E-02  0.1721E-02  0.6949E-03  0.7326E-03  0.4504E-04  0.3366E-04  0.1465E-03  0.1111E-03  0.1082E-03  0.7143E-04  0.1465E-03  0.1111E-03  0.4504E-04  0.3366E-04
      3.576  0.4049E-01  0.3063E-01  0.1751E-02  0.1296E-02  0.3324E-02  0.2616E-02  0.1751E-02  0.1296E-02  0.2079E-03  0.9830E-04  0.3004E-03  0.1897E-03  0.4478E-03  0.1876E-03  0.3004E-03  0.1897E-03  0.2079E-03  0.9830E-04
      3.754  0.4574E-01  0.4424E-01  0.3644E-02  0.3149E-02  0.1148E-02  0.1787E-02  0.3644E-02  0.3149E-02  0.5932E-03  0.3423E-03  0.2130E-03  0.1223E-03  0.4661E-03  0.3786E-03  0.2130E-03  0.1223E-03  0.5932E-03  0.3423E-03
      3.933  0.9111E-02  0.2021E-01  0.7543E-03  0.1794E-02  0.2721E-03  0.3448E-03  0.7543E-03  0.1794E-02  0.1272E-03  0.2069E-03  0.6975E-04  0.8746E-04  0.8188E-04  0.1095E-03  0.6975E-04  0.8746E-04  0.1272E-03  0.2069E-03
      4.111  0.4158E-01  0.2744E-01  0.3130E-02  0.1778E-02  0.3307E-02  0.2750E-02  0.3130E-02  0.1778E-02  0.7351E-03  0.2438E-03  0.6946E-03  0.2706E-03  0.5447E-03  0.3067E-03  0.6946E-03  0.2706E-03  0.7351E-03  0.2438E-03
      4.289  0.5532E-01  0.6829E-01  0.4256E-02  0.5903E-02  0.4952E-02  0.5175E-02  0.4256E-02  0.5903E-02  0.9799E-03  0.8897E-03  0.1328E-02  0.1088E-02  0.8092E-03  0.3905E-03  0.1328E-02  0.1088E-02  0.9799E-03  0.8897E-03
      4.468  0.1399E-01  0.4415E-02  0.6381E-03  0.9846E-04  0.2538E-02  0.9243E-03  0.6381E-03  0.9846E-04  0.2218E-03  0.9881E-05  0.3178E-03  0.3772E-04  0.1352E-02  0.2620E-03  0.3178E-03  0.3772E-04  0.2218E-03  0.9881E-05
      4.646  0.2421E-01  0.3282E-01  0.2185E-02  0.2101E-02  0.2513E-02  0.5291E-02  0.2185E-02  0.2101E-02  0.7816E-03  0.4584E-03  0.6043E-03  0.5905E-03  0.1362E-02  0.1498E-02  0.6043E-03  0.5905E-03  0.7816E-03  0.4584E-03
      4.825  0.6718E-01  0.2412E-01  0.8306E-02  0.3377E-02  0.5418E-02  0.1255E-02  0.8306E-02  0.3377E-02  0.3161E-02  0.6980E-03  0.2687E-02  0.4263E-03  0.1776E-02  0.4377E-03  0.2687E-02  0.4263E-03  0.3161E-02  0.6980E-03
      5.003  0.4730E-01  0.7895E-01  0.5533E-02  0.9673E-02  0.4952E-02  0.7880E-02  0.5533E-02  0.9673E-02  0.2837E-02  0.2489E-02  0.1854E-02  0.1896E-02  0.2986E-02  0.2100E-02  0.1854E-02  0.1896E-02  0.2837E-02  0.2489E-02
      5.181  0.6520E-01  0.3701E-01  0.7919E-02  0.4387E-02  0.7740E-02  0.5041E-02  0.7919E-02  0.4387E-02  0.5135E-02  0.1200E-02  0.5822E-02  0.1379E-02  0.4069E-02  0.1269E-02  0.5822E-02  0.1379E-02  0.5135E-02  0.1200E-02
      5.360  0.3053E-01  0.4759E-01  0.3351E-02  0.6637E-02  0.3770E-02  0.5216E-02  0.3351E-02  0.6637E-02  0.4244E-02  0.2365E-02  0.1522E-02  0.2718E-02  0.8893E-02  0.1263E-02  0.1522E-02  0.2718E-02  0.4244E-02  0.2365E-02
      5.538  0.5289E-01  0.2667E-01  0.6411E-02  0.4356E-02  0.1001E-01  0.1681E-02  0.6411E-02  0.4356E-02  0.6104E-02  0.2601E-02  0.1141E-01  0.6273E-03  0.2690E-02  0.2220E-02  0.1141E-01  0.6273E-03  0.6104E-02  0.2601E-02
      5.716  0.4826E-01  0.3769E-01  0.5098E-02  0.3334E-02  0.9671E-02  0.1034E-01  0.5098E-02  0.3334E-02  0.9619E-02  0.1226E-02  0.1300E-01  0.2882E-02  0.1384E-01  0.4829E-02  0.1300E-01  0.2882E-02  0.9619E-02  0.1226E-02
      5.895  0.1357E+00  0.4909E-01  0.2036E-01  0.7422E-02  0.8633E-02  0.8102E-02  0.2036E-01  0.7422E-02  0.6468E-01  0.3957E-02  0.6068E-01  0.6527E-02  0.6396E-01  0.9245E-03  0.6068E-01  0.6527E-02  0.6468E-01  0.3957E-02
      6.073  0.8119E-01  0.5357E-01  0.1030E-01  0.9649E-02  0.1172E-01  0.8880E-02  0.1030E-01  0.9649E-02  0.5293E-01  0.4613E-02  0.7222E-01  0.3357E-02  0.3374E-01  0.6867E-02  0.7222E-01  0.3357E-02  0.5293E-01  0.4613E-02
      6.252  0.7480E-01  0.6338E-01  0.1037E-01  0.1253E-01  0.1325E-01  0.6908E-02  0.1037E-01  0.1253E-01  0.7289E-01  0.1163E-01  0.7360E-01  0.5163E-02  0.8845E-01  0.9901E-02  0.7360E-01  0.5163E-02  0.7289E-01  0.1163E-01
      6.430  0.7118E-01  0.5946E-01  0.1243E-01  0.1112E-01  0.1688E-01  0.8238E-02  0.1243E-01  0.1112E-01  0.1261E+00  0.1039E-01  0.8817E-01  0.1076E-01  0.8001E-01  0.1494E-01  0.8817E-01  0.1076E-01  0.1261E+00  0.1039E-01
      6.608  0.6633E-01  0.7607E-01  0.1905E-01  0.1207E-01  0.1919E-01  0.1587E-01  0.1905E-01  0.1207E-01  0.1268E+00  0.2259E-01  0.1642E+00  0.2552E-01  0.1404E+00  0.1129E-01  0.1642E+00  0.2552E-01  0.1268E+00  0.2259E-01
      6.787  0.3832E-01  0.5492E-01  0.1472E-01  0.6560E-02  0.1715E-01  0.1258E-01  0.1472E-01  0.6560E-02  0.1095E+00  0.1535E-01  0.1349E+00  0.2322E-01  0.1373E+00  0.3416E-01  0.1349E+00  0.2322E-01  0.1095E+00  0.1535E-01
      6.965  0.2613E-01  0.6414E-01  0.1679E-01  0.7196E-02  0.1965E-01  0.8887E-02  0.1679E-01  0.7196E-02  0.8566E-01  0.4328E-01  0.1388E+00  0.4803E-01  0.9424E-01  0.3596E-01  0.1388E+00  0.4803E-01  0.8566E-01  0.4328E-01
      7.143  0.2432E-01  0.1049E+00  0.2334E-01  0.2505E-01  0.1552E-01  0.1809E-01  0.2334E-01  0.2505E-01  0.1198E+00  0.5976E-01  0.1161E+00  0.6203E-01  0.1821E+00  0.4315E-01  0.1161E+00  0.6203E-01  0.1198E+00  0.5976E-01
      7.322  0.1111E-01  0.6321E-01  0.1566E-01  0.1379E-01  0.1427E-01  0.1323E-01  0.1566E-01  0.1379E-01  0.1209E+00  0.5460E-01  0.1026E+00  0.6014E-01  0.1819E+00  0.5939E-01  0.1026E+00  0.6014E-01  0.1209E+00  0.5460E-01
      7.500  0.1163E-01  0.4532E-01  0.2672E-01  0.1116E-01  0.1744E-01  0.1709E-01  0.2672E-01  0.1116E-01  0.2080E+00  0.8533E-01  0.1093E+00  0.5488E-01  0.1898E+00  0.4343E-01  0.1093E+00  0.5488E-01  0.2080E+00  0.8533E-01
      7.679  0.1182E-01  0.4420E-01  0.2470E-01  0.1433E-01  0.1779E-01  0.1784E-01  0.2470E-01  0.1433E-01  0.2009E+00  0.6556E-01  0.1220E+00  0.8705E-01  0.1964E+00  0.9303E-01  0.1220E+00  0.8705E-01  0.2009E+00  0.6556E-01
      7.857  0.1284E-01  0.3569E-01  0.2681E-01  0.1835E-01  0.2174E-01  0.2232E-01  0.2681E-01  0.1835E-01  0.2102E+00  0.9674E-01  0.1055E+00  0.1481E+00  0.1677E+00  0.8055E-01  0.1055E+00  0.1481E+00  0.2102E+00  0.9674E-01
      8.035  0.4682E-02  0.1904E-01  0.9604E-02  0.1596E-01  0.8312E-02  0.2248E-01  0.9604E-02  0.1596E-01  0.9965E-01  0.5804E-01  0.3285E-01  0.1496E+00  0.8549E-01  0.7274E-01  0.3285E-01  0.1496E+00  0.9965E-01  0.5804E-01
      8.214  0.5037E-02  0.1184E-01  0.1405E-01  0.2105E-01  0.2018E-01  0.1324E-01  0.1405E-01  0.2105E-01  0.1213E+00  0.9787E-01  0.1817E+00  0.6572E-01  0.2063E+00  0.1135E+00  0.1817E+00  0.6572E-01  0.1213E+00  0.9787E-01
      8.392  0.1303E-01  0.9266E-02  0.2169E-01  0.2501E-01  0.2170E-01  0.1558E-01  0.2169E-01  0.2501E-01  0.1650E+00  0.1091E+00  0.2698E+00  0.7233E-01  0.3445E+00  0.1341E+00  0.2698E+00  0.7233E-01  0.1650E+00  0.1091E+00