    2    2  100    2
  0.1017687E+02  0.2442430E-09  0.2442430E-09  0.3939755E-09  0.5000000E-15
  1.000000000000000E-004
  CAR 
 Co-hcc                                  
     18     95     24
 
  0.0000000E+00  0.0000000E+00  0.0000000E+00  0.8680556E-03
      1          1.905642        1.907321   1.000000   1.000000
      2          5.755573        6.671591   1.000000   1.000000
      3          8.501760       10.087558   1.000000   1.000000
      4          8.514636       10.088103   1.000000   1.000000
      5          8.514636       10.088103   1.000000   1.000000
      6          8.865475       10.494013   1.000000   1.000000
      7          8.865476       10.494013   1.000000   1.000000
      8          9.241565       10.940521   1.000000   1.000000
      9          9.241565       10.940522   1.000000   1.000000
     10         10.465474       11.069360   1.000000   0.999589
     11         10.465474       12.282112   1.000000   0.000000
     12         11.119017       12.282113   0.973858   0.000000
     13         18.176903       19.171143   0.000000   0.000000
     14         33.680019       33.418283   0.000000   0.000000
     15         36.882073       36.859207   0.000000   0.000000
     16         36.882076       37.187221   0.000000   0.000000
     17         37.001125       37.231386   0.000000   0.000000
     18         37.406017       37.231387   0.000000   0.000000
     19         38.168899       38.463487   0.000000   0.000000
     20         38.168902       38.463494   0.000000   0.000000
     21         42.611165       42.561396   0.000000   0.000000
     22         42.611165       42.561400   0.000000   0.000000
     23         43.888940       43.782233   0.000000   0.000000
     24         44.089455       44.141077   0.000000   0.000000
 
  0.8333333E-01  0.6938894E-17  0.0000000E+00  0.5208333E-02
      1          2.160624        2.163355   1.000000   1.000000
      2          5.909904        6.845190   1.000000   1.000000
      3          8.255517        9.787030   1.000000   1.000000
      4          8.639003       10.223846   1.000000   1.000000
      5          8.717955       10.296128   1.000000   1.000000
      6          8.814677       10.324777   1.000000   1.000000
      7          8.975327       10.427907   1.000000   1.000000
      8          9.071942       10.613867   1.000000   1.000000
      9          9.162751       10.849562   1.000000   1.000000
     10          9.596767       10.885761   1.000000   1.000000
     11         10.499609       12.322164   1.000000   0.000000
     12         12.323854       13.260982   0.000000   0.000000
     13         18.214917       19.187306   0.000000   0.000000
     14         32.028014       32.092105   0.000000   0.000000
     15         34.452373       34.536369   0.000000   0.000000
     16         34.636170       34.963419   0.000000   0.000000
     17         37.423381       37.221833   0.000000   0.000000
     18         37.990201       37.951727   0.000000   0.000000
     19         39.389122       39.275561   0.000000   0.000000
     20         40.626043       40.918174   0.000000   0.000000
     21         41.395041       41.628146   0.000000   0.000000
     22         42.146164       42.166237   0.000000   0.000000
     23         43.463185       43.740466   0.000000   0.000000
     24         43.743110       44.029602   0.000000   0.000000
 
  0.1666667E+00 -0.1387779E-16  0.0000000E+00  0.5208333E-02
      1          2.896148        2.906517   1.000000   1.000000
      2          6.289786        7.287533   1.000000   1.000000
      3          7.951259        9.343986   1.000000   1.000000
      4          8.288587        9.401527   1.000000   1.000000
      5          8.625874       10.188199   1.000000   1.000000
      6          8.968705       10.609004   1.000000   1.000000
      7          8.990182       10.627077   1.000000   1.000000
      8          9.052559       10.687374   1.000000   1.000000
      9          9.199213       10.712176   1.000000   1.000000
     10          9.283093       10.950394   1.000000   1.000000
     11         10.572293       12.406515   1.000000   0.000000
     12         14.015558       14.852575   0.000000   0.000000
     13         18.349582       19.253483   0.000000   0.000000
     14         28.229718       28.556272   0.000000   0.000000
     15         32.132685       32.439674   0.000000   0.000000
     16         33.459698       33.551149   0.000000   0.000000
     17         35.393726       35.406806   0.000000   0.000000
     18         37.536793       37.330683   0.000000   0.000000
     19         38.688671       38.790820   0.000000   0.000000
     20         41.077246       41.422415   0.000000   0.000000
     21         41.378946       41.490984   0.000000   0.000000
     22         42.329461       42.592325   0.000000   0.000000
     23         42.804115       43.065242   0.000000   0.000000
     24         44.696405       45.138381   0.000000   0.000000
 
  0.2500000E+00 -0.4163336E-16  0.0000000E+00  0.5208333E-02
      1          4.000716        4.049566   1.000000   1.000000
      2          6.587037        7.704200   1.000000   1.000000
      3          7.496875        8.582575   1.000000   1.000000
      4          7.767954        9.076036   1.000000   1.000000
      5          8.527023       10.031391   1.000000   1.000000
      6          8.736050       10.362165   1.000000   1.000000
      7          8.982953       10.481142   1.000000   1.000000
      8          9.500037       11.170701   1.000000   0.684005
      9          9.521802       11.174230   1.000000   0.647697
     10          9.726301       11.437149   1.000000   0.000000
     11         10.641149       12.485346   1.000000   0.000000
     12         15.906956       16.658742   0.000000   0.000000
     13         18.606534       19.389516   0.000000   0.000000
     14         24.454243       24.922589   0.000000   0.000000
     15         29.953455       30.223438   0.000000   0.000000
     16         31.992025       32.125817   0.000000   0.000000
     17         32.276012       32.494962   0.000000   0.000000
     18         36.538734       36.392561   0.000000   0.000000
     19         36.655591       37.110424   0.000000   0.000000
     20         40.750440       40.932835   0.000000   0.000000
     21         40.864098       41.236494   0.000000   0.000000
     22         41.534907       41.619086   0.000000   0.000000
     23         42.848298       43.034375   0.000000   0.000000
     24         45.730025       46.147150   0.000000   0.000000
 
  0.3333333E+00  0.0000000E+00  0.0000000E+00  0.5208333E-02
      1          5.183339        5.392691   1.000000   1.000000
      2          6.504545        7.706218   1.000000   1.000000
      3          6.918168        8.040397   1.000000   1.000000
      4          7.894061        8.983742   1.000000   1.000000
      5          8.526847       10.125129   1.000000   1.000000
      6          8.663050       10.146346   1.000000   1.000000
      7          8.791524       10.255033   1.000000   1.000000
      8         10.044143       11.787486   1.000000   0.000000
      9         10.207349       11.886080   1.000000   0.000000
     10         10.269765       11.968562   1.000000   0.000000
     11         10.688472       12.538842   1.000000   0.000000
     12         17.954701       18.612955   0.000000   0.000000
     13         18.589013       19.227247   0.000000   0.000000
     14         21.567769       22.164979   0.000000   0.000000
     15         28.216532       28.434021   0.000000   0.000000
     16         28.868255       29.136396   0.000000   0.000000
     17         30.067195       30.434393   0.000000   0.000000
     18         35.089468       35.250082   0.000000   0.000000
     19         35.383758       35.541813   0.000000   0.000000
     20         38.987837       39.330563   0.000000   0.000000
     21         40.320025       40.552857   0.000000   0.000000
     22         42.404654       42.573171   0.000000   0.000000
     23         44.674063       44.835665   0.000000   0.000000
     24         46.593413       47.162990   0.000000   0.000000
 
  0.4166667E+00 -0.2775558E-16  0.0000000E+00  0.5208333E-02
      1          5.925959        6.533643   1.000000   1.000000
      2          6.305548        7.473721   1.000000   1.000000
      3          6.569746        7.717952   1.000000   1.000000
      4          8.294978        9.073629   1.000000   1.000000
      5          8.384132        9.963929   1.000000   1.000000
      6          8.656737       10.092213   1.000000   1.000000
      7          8.883982       10.391556   1.000000   1.000000
      8         10.451930       12.251776   1.000000   0.000000
      9         10.605842       12.416743   1.000000   0.000000
     10         10.713669       12.566997   1.000000   0.000000
     11         11.468396       12.919375   0.000000   0.000000
     12         16.625451       17.381784   0.000000   0.000000
     13         20.059413       20.602106   0.000000   0.000000
     14         21.465432       21.964573   0.000000   0.000000
     15         26.133605       26.548273   0.000000   0.000000
     16         27.068902       27.233647   0.000000   0.000000
     17         27.449763       27.923137   0.000000   0.000000
     18         34.542871       34.436174   0.000000   0.000000
     19         34.580105       34.994084   0.000000   0.000000
     20         37.756750       38.063905   0.000000   0.000000
     21         40.074574       40.338031   0.000000   0.000000
     22         42.959075       43.212893   0.000000   0.000000
     23         46.957095       47.348665   0.000000   0.000000
     24         47.187048       47.649684   0.000000   0.000000
 
  0.5000000E+00 -0.8326673E-16  0.0000000E+00  0.2604167E-02
      1          6.129976        7.037569   1.000000   1.000000
      2          6.202311        7.276189   1.000000   1.000000
      3          6.453670        7.611236   1.000000   1.000000
      4          8.333604        9.199264   1.000000   1.000000
      5          8.561180        9.906932   1.000000   1.000000
      6          8.608014       10.032931   1.000000   1.000000
      7          8.968181       10.488776   1.000000   1.000000
      8         10.599455       12.418779   1.000000   0.000000
      9         10.721379       12.575552   1.000000   0.000000
     10         10.767402       12.603044   1.000000   0.000000
     11         12.680574       13.901191   0.000000   0.000000
     12         14.843983       15.796152   0.000000   0.000000
     13         21.429087       21.854165   0.000000   0.000000
     14         22.160984       22.543747   0.000000   0.000000
     15         24.557336       25.101050   0.000000   0.000000
     16         26.032526       26.584869   0.000000   0.000000
     17         26.663321       26.804547   0.000000   0.000000
     18         34.299130       34.149253   0.000000   0.000000
     19         34.411721       34.867251   0.000000   0.000000
     20         37.327441       37.619689   0.000000   0.000000
     21         39.994796       40.268575   0.000000   0.000000
     22         43.161511       43.453205   0.000000   0.000000
     23         47.066169       47.705470   0.000000   0.000000
     24         47.772567       49.694013   0.000000   0.000000
 
  0.8333333E-01  0.8333333E-01  0.0000000E+00  0.5208333E-02
      1          2.656890        2.663578   1.000000   1.000000
      2          6.183488        7.158265   1.000000   1.000000
      3          8.015753        9.494926   1.000000   1.000000
      4          8.557035        9.595295   1.000000   1.000000
      5          8.699096       10.276368   1.000000   1.000000
      6          8.890379       10.500898   1.000000   1.000000
      7          8.893052       10.517459   1.000000   1.000000
      8          8.938527       10.583972   1.000000   1.000000
      9          9.217963       10.872446   1.000000   1.000000
     10          9.329768       10.875656   1.000000   1.000000
     11         10.542133       12.371304   1.000000   0.000000
     12         13.543091       14.405409   0.000000   0.000000
     13         18.303464       19.230770   0.000000   0.000000
     14         29.946492       30.158604   0.000000   0.000000
     15         30.843361       31.181149   0.000000   0.000000
     16         36.069929       36.132505   0.000000   0.000000
     17         36.892664       36.795441   0.000000   0.000000
     18         37.045396       36.942716   0.000000   0.000000
     19         37.293190       37.344191   0.000000   0.000000
     20         40.669206       40.824373   0.000000   0.000000
     21         41.868323       42.292774   0.000000   0.000000
     22         42.471230       42.924130   0.000000   0.000000
     23         44.335032       44.459179   0.000000   0.000000
     24         44.830493       44.988273   0.000000   0.000000
 
  0.1666667E+00  0.8333333E-01  0.0000000E+00  0.1041667E-01
      1          3.586870        3.612401   1.000000   1.000000
      2          6.571014        7.629200   1.000000   1.000000
      3          7.715025        8.853241   1.000000   1.000000
      4          7.788889        9.103208   1.000000   1.000000
      5          8.568899       10.094862   1.000000   1.000000
      6          8.692230       10.288403   1.000000   1.000000
      7          9.163274       10.720370   1.000000   1.000000
      8          9.169546       10.820612   1.000000   1.000000
      9          9.356680       11.007026   1.000000   1.000000
     10          9.673353       11.358026   1.000000   0.000001
     11         10.594698       12.431644   1.000000   0.000000
     12         15.226490       16.012891   0.000000   0.000000
     13         18.523340       19.356526   0.000000   0.000000
     14         26.378045       26.767377   0.000000   0.000000
     15         28.676292       29.009005   0.000000   0.000000
     16         33.690900       33.722580   0.000000   0.000000
     17         34.816986       34.973475   0.000000   0.000000
     18         35.815081       35.836870   0.000000   0.000000
     19         37.614703       37.771507   0.000000   0.000000
     20         39.295639       39.749003   0.000000   0.000000
     21         40.786312       40.827425   0.000000   0.000000
     22         43.110757       43.595844   0.000000   0.000000
     23         44.439595       44.615807   0.000000   0.000000
     24         44.919402       45.134149   0.000000   0.000000
 
  0.2500000E+00  0.8333333E-01  0.0000000E+00  0.1041667E-01
      1          4.772248        4.878496   1.000000   1.000000
      2          6.688355        7.867004   1.000000   1.000000
      3          7.155936        8.264286   1.000000   1.000000
      4          7.639839        8.865055   1.000000   1.000000
      5          8.486235       10.042984   1.000000   1.000000
      6          8.584204       10.067801   1.000000   1.000000
      7          8.950521       10.476829   1.000000   1.000000
      8          9.609302       11.287300   1.000000   0.002409
      9          9.907095       11.619764   1.000000   0.000000
     10         10.291916       11.982550   1.000000   0.000000
     11         10.638973       12.482051   1.000000   0.000000
     12         17.154908       17.858959   0.000000   0.000000
     13         18.839582       19.530197   0.000000   0.000000
     14         22.866751       23.391283   0.000000   0.000000
     15         27.067910       27.388861   0.000000   0.000000
     16         30.496176       30.679197   0.000000   0.000000
     17         32.148875       32.455892   0.000000   0.000000
     18         34.517271       34.548003   0.000000   0.000000
     19         37.050108       37.367049   0.000000   0.000000
     20         37.520013       37.894432   0.000000   0.000000
     21         41.431469       41.460833   0.000000   0.000000
     22         44.349121       44.538783   0.000000   0.000000
     23         44.616946       44.815374   0.000000   0.000000
     24         45.571184       45.966512   0.000000   0.000000
 
  0.3333333E+00  0.8333333E-01  0.0000000E+00  0.1041667E-01
      1          5.784715        6.170954   1.000000   1.000000
      2          6.496257        7.695773   1.000000   1.000000
      3          6.724273        7.868797   1.000000   1.000000
      4          7.901651        8.878902   1.000000   1.000000
      5          8.353269        9.892005   1.000000   1.000000
      6          8.740195       10.221900   1.000000   1.000000
      7          8.794236       10.290559   1.000000   1.000000
      8         10.160543       11.886502   1.000000   0.000000
      9         10.378261       12.151248   1.000000   0.000000
     10         10.666523       12.513024   1.000000   0.000000
     11         11.159192       12.744891   0.789431   0.000000
     12         18.020611       18.667911   0.000000   0.000000
     13         19.238393       19.844800   0.000000   0.000000
     14         21.246034       21.811606   0.000000   0.000000
     15         25.808442       26.097974   0.000000   0.000000
     16         27.568943       27.900401   0.000000   0.000000
     17         29.160288       29.559467   0.000000   0.000000
     18         33.554507       33.564107   0.000000   0.000000
     19         36.329761       36.645052   0.000000   0.000000
     20         36.470826       36.856530   0.000000   0.000000
     21         41.533101       41.625288   0.000000   0.000000
     22         44.670090       44.894775   0.000000   0.000000
     23         46.297715       46.472545   0.000000   0.000000
     24         46.841223       47.482597   0.000000   0.000000
 
  0.4166667E+00  0.8333333E-01  0.0000000E+00  0.1041667E-01
      1          6.200580        7.016057   1.000000   1.000000
      2          6.338222        7.459113   1.000000   1.000000
      3          6.507297        7.672069   1.000000   1.000000
      4          8.300551        9.026239   1.000000   1.000000
      5          8.301537        9.850275   1.000000   1.000000
      6          8.600815       10.035513   1.000000   1.000000
      7          8.963925       10.486785   1.000000   1.000000
      8         10.555492       12.357769   1.000000   0.000000
      9         10.633992       12.442960   1.000000   0.000000
     10         10.678710       12.526549   1.000000   0.000000
     11         12.509692       13.780445   0.000000   0.000000
     12         15.633910       16.506589   0.000000   0.000000
     13         21.225344       21.704391   0.000000   0.000000
     14         22.073800       22.492512   0.000000   0.000000
     15         24.974792       25.272400   0.000000   0.000000
     16         25.166224       25.652048   0.000000   0.000000
     17         26.890912       27.336333   0.000000   0.000000
     18         33.050475       33.044109   0.000000   0.000000
     19         35.715459       36.021457   0.000000   0.000000
     20         36.157855       36.548750   0.000000   0.000000
     21         41.451654       41.579570   0.000000   0.000000
     22         44.898474       45.186369   0.000000   0.000000
     23         47.103724       47.761453   0.000000   0.000000
     24         47.850587       48.951283   0.000000   0.000000
 
  0.1666667E+00  0.1666667E+00  0.0000000E+00  0.5208333E-02
      1          4.627656        4.700389   1.000000   1.000000
      2          6.885561        8.015927   1.000000   1.000000
      3          7.281043        8.380676   1.000000   1.000000
      4          7.392133        8.706188   1.000000   1.000000
      5          8.409214        9.956788   1.000000   1.000000
      6          8.580464       10.068897   1.000000   1.000000
      7          9.052763       10.598512   1.000000   1.000000
      8          9.352523       11.029459   1.000000   0.999996
      9          9.893851       11.594436   1.000000   0.000000
     10         10.314811       11.997247   1.000000   0.000000
     11         10.596549       12.433362   1.000000   0.000000
     12         16.884647       17.608647   0.000000   0.000000
     13         18.899692       19.617540   0.000000   0.000000
     14         24.550965       24.976045   0.000000   0.000000
     15         25.131489       25.553233   0.000000   0.000000
     16         31.960170       31.971227   0.000000   0.000000
     17         33.029994       33.286684   0.000000   0.000000
     18         34.256961       34.561761   0.000000   0.000000
     19         35.083545       35.357604   0.000000   0.000000
     20         39.938256       40.208690   0.000000   0.000000
     21         41.796769       41.750758   0.000000   0.000000
     22         42.731564       43.225104   0.000000   0.000000
     23         46.095699       46.405064   0.000000   0.000000
     24         47.394213       47.556086   0.000000   0.000000
 
  0.2500000E+00  0.1666667E+00  0.0000000E+00  0.1041667E-01
      1          5.752019        5.981152   1.000000   1.000000
      2          6.861616        8.023519   1.000000   1.000000
      3          6.878229        8.065574   1.000000   1.000000
      4          7.369296        8.530777   1.000000   1.000000
      5          8.239519        9.746556   1.000000   1.000000
      6          8.738252       10.223717   1.000000   1.000000
      7          8.843344       10.352306   1.000000   1.000000
      8          9.689466       11.396059   1.000000   0.000000
      9         10.379039       12.142843   1.000000   0.000000
     10         10.594124       12.430456   1.000000   0.000000
     11         11.186636       12.789567   0.511255   0.000000
     12         18.827659       19.476093   0.000000   0.000000
     13         19.221598       19.808281   0.000000   0.000000
     14         21.708375       22.251616   0.000000   0.000000
     15         23.631350       24.041763   0.000000   0.000000
     16         29.345177       29.559091   0.000000   0.000000
     17         31.189917       31.559906   0.000000   0.000000
     18         31.521123       31.721736   0.000000   0.000000
     19         33.786055       34.115852   0.000000   0.000000
     20         40.105686       40.400043   0.000000   0.000000
     21         43.178281       43.110761   0.000000   0.000000
     22         44.948747       45.371334   0.000000   0.000000
     23         46.695373       47.000262   0.000000   0.000000
     24         47.383906       47.542825   0.000000   0.000000
 
  0.3333333E+00  0.1666667E+00  0.0000000E+00  0.1041667E-01
      1          6.430194        7.055094   1.000000   1.000000
      2          6.627360        7.808684   1.000000   1.000000
      3          6.644962        7.822491   1.000000   1.000000
      4          7.720699        8.640969   1.000000   1.000000
      5          8.193720        9.686894   1.000000   1.000000
      6          8.615989       10.077320   1.000000   1.000000
      7          8.958112       10.478578   1.000000   1.000000
      8         10.135490       11.880346   1.000000   0.000000
      9         10.591179       12.426832   1.000000   0.000000
     10         10.621038       12.426984   1.000000   0.000000
     11         12.439649       13.792488   0.000000   0.000000
     12         17.351026       18.057879   0.000000   0.000000
     13         20.926019       21.478804   0.000000   0.000000
     14         21.613959       22.094842   0.000000   0.000000
     15         22.838853       23.221191   0.000000   0.000000
     16         26.637134       27.021793   0.000000   0.000000
     17         28.253723       28.677015   0.000000   0.000000
     18         30.812713       30.975244   0.000000   0.000000
     19         33.010944       33.341889   0.000000   0.000000
     20         39.769532       40.089578   0.000000   0.000000
     21         44.016747       43.972924   0.000000   0.000000
     22         46.741778       47.139226   0.000000   0.000000
     23         47.574863       48.640935   0.000000   0.000000
     24         48.069893       48.643924   0.000000   0.000000
 
  0.4166667E+00  0.1666667E+00  0.0000000E+00  0.5208333E-02
      1          6.534392        7.472642   1.000000   1.000000
      2          6.542818        7.679762   1.000000   1.000000
      3          6.597330        7.737679   1.000000   1.000000
      4          7.961646        8.753967   1.000000   1.000000
      5          8.212869        9.724251   1.000000   1.000000
      6          8.497534        9.917488   1.000000   1.000000
      7          9.052130       10.592108   1.000000   1.000000
      8         10.437798       12.217243   1.000000   0.000000
      9         10.589683       12.409364   1.000000   0.000000
     10         10.597580       12.424966   1.000000   0.000000
     11         13.746080       14.775478   0.000000   0.000000
     12         15.456861       16.408373   0.000000   0.000000
     13         22.079604       22.478337   0.000000   0.000000
     14         22.416915       22.864375   0.000000   0.000000
     15         22.867205       23.241767   0.000000   0.000000
     16         24.936939       25.447684   0.000000   0.000000
     17         26.763250       27.231127   0.000000   0.000000
     18         30.582912       30.736634   0.000000   0.000000
     19         32.733341       33.060473   0.000000   0.000000
     20         39.634552       39.960668   0.000000   0.000000
     21         44.194039       44.171608   0.000000   0.000000
     22         47.223515       47.873507   0.000000   0.000000
     23         47.502180       48.243275   0.000000   0.000000
     24         48.279823       50.141047   0.000000   0.000000
 
  0.2500000E+00  0.2500000E+00  0.0000000E+00  0.5208333E-02
      1          6.587142        7.095962   1.000000   1.000000
      2          6.696250        7.887357   1.000000   1.000000
      3          7.082622        8.206169   1.000000   1.000000
      4          7.132421        8.244963   1.000000   1.000000
      5          8.123271        9.590702   1.000000   1.000000
      6          8.633199       10.103856   1.000000   1.000000
      7          8.964655       10.478529   1.000000   1.000000
      8          9.886374       11.622478   1.000000   0.000000
      9         10.546172       12.375974   1.000000   0.000000
     10         10.627524       12.433139   1.000000   0.000000
     11         12.451897       13.832300   0.000000   0.000000
     12         19.184854       19.716989   0.000000   0.000000
     13         19.944655       20.524609   0.000000   0.000000
     14         20.807981       21.389254   0.000000   0.000000
     15         22.320855       22.774224   0.000000   0.000000
     16         28.544687       28.724977   0.000000   0.000000
     17         28.629672       29.016823   0.000000   0.000000
     18         29.921570       30.322413   0.000000   0.000000
     19         30.864586       31.208284   0.000000   0.000000
     20         43.109732       43.309390   0.000000   0.000000
     21         45.025737       45.141397   0.000000   0.000000
     22         45.236615       45.548488   0.000000   0.000000
     23         47.377667       48.236561   0.000000   0.000000
     24         48.242880       49.899686   0.000000   0.000000
 
  0.3333333E+00  0.2500000E+00  0.0000000E+00  0.1041667E-01
      1          6.608833        7.758221   1.000000   1.000000
      2          6.855452        7.833284   1.000000   1.000000
      3          6.938198        8.041180   1.000000   1.000000
      4          7.484786        8.386673   1.000000   1.000000
      5          8.145167        9.597920   1.000000   1.000000
      6          8.415348        9.846872   1.000000   1.000000
      7          9.147498       10.691694   1.000000   1.000000
      8         10.187246       11.951506   1.000000   0.000000
      9         10.517886       12.343818   1.000000   0.000000
     10         10.567300       12.374331   1.000000   0.000000
     11         14.184312       15.222256   0.000000   0.000000
     12         16.886048       17.642118   0.000000   0.000000
     13         19.282791       19.828793   0.000000   0.000000
     14         22.919979       23.415088   0.000000   0.000000
     15         23.347763       23.736711   0.000000   0.000000
     16         26.020294       26.446971   0.000000   0.000000
     17         27.720257       28.146372   0.000000   0.000000
     18         28.189312       28.458837   0.000000   0.000000
     19         30.039469       30.397104   0.000000   0.000000
     20         43.564261       43.824090   0.000000   0.000000
     21         46.882333       46.778020   0.000000   0.000000
     22         46.998498       47.622153   0.000000   0.000000
     23         47.637864       49.861928   0.000000   0.000000
     24         48.577659       50.375946   0.000000   0.000000
 
  0.3333333E+00  0.3333333E+00  0.0000000E+00  0.1736111E-02
      1          6.613457        7.859423   1.000000   1.000000
      2          7.057792        8.084128   1.000000   1.000000
      3          7.057793        8.084129   1.000000   1.000000
      4          7.345380        8.286822   1.000000   1.000000
      5          8.229647        9.655582   1.000000   1.000000
      6          8.229647        9.655583   1.000000   1.000000
      7          9.254560       10.805487   1.000000   1.000000
      8         10.346950       12.133067   1.000000   0.000000
      9         10.346950       12.133069   1.000000   0.000000
     10         10.488804       12.310994   1.000000   0.000000
     11         15.952590       16.728905   0.000000   0.000000
     12         16.899959       17.649377   0.000000   0.000000
     13         16.899960       17.649382   0.000000   0.000000
     14         24.201601       24.567760   0.000000   0.000000
     15         24.994612       25.443600   0.000000   0.000000