       N       E                     dE             d eps       ncg     rms          rms(c)
DAV:   1     0.272343708413E+01    0.27234E+01   -0.84648E+03  9168   0.878E+02
DAV:   2    -0.153455932477E+02   -0.18069E+02   -0.17841E+02 10848   0.700E+01
DAV:   3    -0.154610837068E+02   -0.11549E+00   -0.11541E+00 12192   0.697E+00
DAV:   4    -0.154616510925E+02   -0.56739E-03   -0.56738E-03 13032   0.254E-01
DAV:   5    -0.154616515033E+02   -0.41082E-06   -0.41257E-06 12768   0.477E-03    0.174E+01
DAV:   6    -0.143226225767E+02    0.11390E+01   -0.26314E+01 16080   0.432E+01    0.562E+00
DAV:   7    -0.140535072343E+02    0.26912E+00   -0.27348E+00 15936   0.130E+01    0.377E+00
DAV:   8    -0.140223965337E+02    0.31111E-01   -0.42877E-02 16680   0.133E+00    0.177E+00
DAV:   9    -0.140089249709E+02    0.13472E-01   -0.18219E-02 17448   0.806E-01    0.464E-01
DAV:  10    -0.140078206862E+02    0.11043E-02   -0.11394E-03 16968   0.206E-01    0.430E-02
DAV:  11    -0.140078243295E+02   -0.36433E-05   -0.52649E-05 13608   0.491E-02    0.290E-02
DAV:  12    -0.140078226005E+02    0.17289E-05   -0.38501E-06 13368   0.124E-02    0.145E-02
DAV:  13    -0.140078215874E+02    0.10132E-05   -0.38386E-06 16800   0.927E-03    0.506E-03
DAV:  14    -0.140078213178E+02    0.26956E-06   -0.16830E-07  6816   0.285E-03
   1 F= -.14007821E+02 E0= -.14006621E+02  d E =-.140078E+02  mag=     3.0961
