PROCAR lm decomposed
# of k-points:   95         # of bands:   24         # of ions:    2

 k-point     1 :    0.00000000 0.00000000 0.00000000     weight = 0.00086806

band     1 # energy    1.90564171 # occ.  1.00000000
 
ion      s     py     pz     px    dxy    dyz    dz2    dxz  x2-y2    tot
    1  0.390  0.000  0.000  0.000  0.000  0.000  0.000  0.000  0.000  0.390
    2  0.390  0.000  0.000  0.000  0.000  0.000  0.000  0.000  0.000  0.390
tot    0.780  0.000  0.000  0.000  0.000  0.000  0.000  0.000  0.000  0.780
 
band     2 # energy    5.75557310 # occ.  1.00000000
 
ion      s     py     pz     px    dxy    dyz    dz2    dxz  x2-y2    tot
    1  0.085  0.000  0.000  0.000  0.000  0.000  0.373  0.000  0.000  0.459
    2  0.085  0.000  0.000  0.000  0.000  0.000  0.373  0.000  0.000  0.459
tot    0.171  0.000  0.000  0.000  0.000  0.000  0.747  0.000  0.000  0.917
 
band     3 # energy    8.50175990 # occ.  1.00000000
 
ion      s     py     pz     px    dxy    dyz    dz2    dxz  x2-y2    tot
    1  0.000  0.000  0.000  0.000  0.000  0.000  0.489  0.000  0.000  0.489
    2  0.000  0.000  0.000  0.000  0.000  0.000  0.489  0.000  0.000  0.489
tot    0.000  0.000  0.000  0.000  0.000  0.000  0.978  0.000  0.000  0.978
 
band     4 # energy    8.51463567 # occ.  1.00000000
 
ion      s     py     pz     px    dxy    dyz    dz2    dxz  x2-y2    tot
    1  0.000  0.001  0.000  0.000  0.000  0.000  0.000  0.000  0.485  0.485
    2  0.000  0.001  0.000  0.000  0.000  0.000  0.000  0.000  0.485  0.485
tot    0.000  0.001  0.000  0.000  0.000  0.000  0.000  0.000  0.969  0.971
 
band     5 # energy    8.51463616 # occ.  1.00000000
 
ion      s     py     pz     px    dxy    dyz    dz2    dxz  x2-y2    tot
    1  0.000  0.000  0.000  0.001  0.485  0.000  0.000  0.000  0.000  0.485
    2  0.000  0.000  0.000  0.001  0.485  0.000  0.000  0.000  0.000  0.485
tot    0.000  0.000  0.000  0.001  0.969  0.000  0.000  0.000  0.000  0.971
 
band     6 # energy    8.86547528 # occ.  1.00000000
 
ion      s     py     pz     px    dxy    dyz    dz2    dxz  x2-y2    tot
    1  0.000  0.001  0.000  0.000  0.000  0.000  0.000  0.000  0.489  0.489
    2  0.000  0.001  0.000  0.000  0.000  0.000  0.000  0.000  0.489  0.489
tot    0.000  0.002  0.000  0.000  0.000  0.000  0.000  0.000  0.977  0.979
 
band     7 # energy    8.86547582 # occ.  1.00000000
 
ion      s     py     pz     px    dxy    dyz    dz2    dxz  x2-y2    tot
    1  0.000  0.000  0.000  0.001  0.489  0.000  0.000  0.000  0.000  0.489
    2  0.000  0.000  0.000  0.001  0.489  0.000  0.000  0.000  0.000  0.489
tot    0.000  0.000  0.000  0.002  0.977  0.000  0.000  0.000  0.000  0.979
 
band     8 # energy    9.24156481 # occ.  1.00000000
 
ion      s     py     pz     px    dxy    dyz    dz2    dxz  x2-y2    tot
    1  0.000  0.000  0.000  0.000  0.000  0.000  0.000  0.491  0.000  0.491
    2  0.000  0.000  0.000  0.000  0.000  0.000  0.000  0.491  0.000  0.491
tot    0.000  0.000  0.000  0.000  0.000  0.000  0.000  0.983  0.000  0.983
 
band     9 # energy    9.24156493 # occ.  1.00000000
 
ion      s     py     pz     px    dxy    dyz    dz2    dxz  x2-y2    tot
    1  0.000  0.000  0.000  0.000  0.000  0.491  0.000  0.000  0.000  0.491
    2  0.000  0.000  0.000  0.000  0.000  0.491  0.000  0.000  0.000  0.491
tot    0.000  0.000  0.000  0.000  0.000  0.983  0.000  0.000  0.000  0.983
 
band    10 # energy   10.46547371 # occ.  1.00000000
 
ion      s     py     pz     px    dxy    dyz    dz2    dxz  x2-y2    tot
    1  0.000  0.000  0.000  0.000  0.000  0.000  0.000  0.493  0.000  0.493
    2  0.000  0.000  0.000  0.000  0.000  0.000  0.000  0.493  0.000  0.493
tot    0.000  0.000  0.000  0.000  0.000  0.000  0.000  0.985  0.000  0.985
 
band    11 # energy   10.46547396 # occ.  1.00000000
 
ion      s     py     pz     px    dxy    dyz    dz2    dxz  x2-y2    tot
    1  0.000  0.000  0.000  0.000  0.000  0.493  0.000  0.000  0.000  0.493
    2  0.000  0.000  0.000  0.000  0.000  0.493  0.000  0.000  0.000  0.493
tot    0.000  0.000  0.000  0.000  0.000  0.985  0.000  0.000  0.000  0.985
 
band    12 # energy   11.11901664 # occ.  0.97385765
 
ion      s     py     pz     px    dxy    dyz    dz2    dxz  x2-y2    tot
    1  0.000  0.000  0.374  0.000  0.000  0.000  0.000  0.000  0.000  0.374
    2  0.000  0.000  0.374  0.000  0.000  0.000  0.000  0.000  0.000  0.374
tot    0.000  0.000  0.748  0.000  0.000  0.000  0.000  0.000  0.000  0.748
 
band    13 # energy   18.17690274 # occ.  0.00000000
 
ion      s     py     pz     px    dxy    dyz    dz2    dxz  x2-y2    tot
    1  0.228  0.000  0.000  0.000  0.000  0.000  0.242  0.000  0.000  0.470
    2  0.228  0.000  0.000  0.000  0.000  0.000  0.242  0.000  0.000  0.470
tot    0.457  0.000  0.000  0.000  0.000  0.000  0.484  0.000  0.000  0.940
 
band    14 # energy   33.68001859 # occ.  0.00000000
 
ion      s     py     pz     px    dxy    dyz    dz2    dxz  x2-y2    tot
    1  0.007  0.000  0.000  0.000  0.000  0.000  0.033  0.000  0.000  0.040
    2  0.007  0.000  0.000  0.000  0.000  0.000  0.033  0.000  0.000  0.040
tot    0.014  0.000  0.000  0.000  0.000  0.000  0.066  0.000  0.000  0.080
 
band    15 # energy   36.88207252 # occ.  0.00000000
 
ion      s     py     pz     px    dxy    dyz    dz2    dxz  x2-y2    tot
    1  0.000  0.268  0.000  0.000  0.000  0.000  0.000  0.000  0.138  0.406
    2  0.000  0.268  0.000  0.000  0.000  0.000  0.000  0.000  0.138  0.406
tot    0.000  0.536  0.000  0.000  0.000  0.000  0.000  0.000  0.275  0.811
 
band    16 # energy   36.88207630 # occ.  0.00000000
 
ion      s     py     pz     px    dxy    dyz    dz2    dxz  x2-y2    tot
    1  0.000  0.000  0.000  0.268  0.138  0.000  0.000  0.000  0.000  0.406
    2  0.000  0.000  0.000  0.268  0.138  0.000  0.000  0.000  0.000  0.406
tot    0.000  0.000  0.000  0.536  0.275  0.000  0.000  0.000  0.000  0.811
 
band    17 # energy   37.00112473 # occ.  0.00000000
 
ion      s     py     pz     px    dxy    dyz    dz2    dxz  x2-y2    tot
    1  0.022  0.000  0.000  0.000  0.000  0.000  0.076  0.000  0.000  0.099
    2  0.022  0.000  0.000  0.000  0.000  0.000  0.076  0.000  0.000  0.099
tot    0.045  0.000  0.000  0.000  0.000  0.000  0.152  0.000  0.000  0.197
 
band    18 # energy   37.40601745 # occ.  0.00000000
 
ion      s     py     pz     px    dxy    dyz    dz2    dxz  x2-y2    tot
    1  0.000  0.000  0.024  0.000  0.000  0.000  0.000  0.000  0.000  0.024
    2  0.000  0.000  0.024  0.000  0.000  0.000  0.000  0.000  0.000  0.024
tot    0.000  0.000  0.049  0.000  0.000  0.000  0.000  0.000  0.000  0.049
 
band    19 # energy   38.16889908 # occ.  0.00000000
 
ion      s     py     pz     px    dxy    dyz    dz2    dxz  x2-y2    tot
    1  0.000  0.084  0.000  0.000  0.000  0.000  0.000  0.000  0.421  0.505
    2  0.000  0.084  0.000  0.000  0.000  0.000  0.000  0.000  0.421  0.505
tot    0.000  0.168  0.000  0.000  0.000  0.000  0.000  0.000  0.841  1.010
 
band    20 # energy   38.16890192 # occ.  0.00000000
 
ion      s     py     pz     px    dxy    dyz    dz2    dxz  x2-y2    tot
    1  0.000  0.000  0.000  0.084  0.421  0.000  0.000  0.000  0.000  0.505
    2  0.000  0.000  0.000  0.084  0.421  0.000  0.000  0.000  0.000  0.505
tot    0.000  0.000  0.000  0.168  0.841  0.000  0.000  0.000  0.000  1.010
 
band    21 # energy   42.61116497 # occ.  0.00000000
 
ion      s     py     pz     px    dxy    dyz    dz2    dxz  x2-y2    tot
    1  0.000  0.000  0.000  0.000  0.000  0.144  0.000  0.000  0.000  0.144
    2  0.000  0.000  0.000  0.000  0.000  0.144  0.000  0.000  0.000  0.144
tot    0.000  0.000  0.000  0.000  0.000  0.289  0.000  0.000  0.000  0.289
 
band    22 # energy   42.61116549 # occ.  0.00000000
 
ion      s     py     pz     px    dxy    dyz    dz2    dxz  x2-y2    tot
    1  0.000  0.000  0.000  0.000  0.000  0.000  0.000  0.144  0.000  0.144
    2  0.000  0.000  0.000  0.000  0.000  0.000  0.000  0.144  0.000  0.144
tot    0.000  0.000  0.000  0.000  0.000  0.000  0.000  0.289  0.000  0.289
 
band    23 # energy   43.88894020 # occ.  0.00000000
 
ion      s     py     pz     px    dxy    dyz    dz2    dxz  x2-y2    tot
    1  0.006  0.000  0.000  0.000  0.000  0.000  0.673  0.000  0.000  0.679
    2  0.006  0.000  0.000  0.000  0.000  0.000  0.673  0.000  0.000  0.679
tot    0.012  0.000  0.000  0.000  0.000  0.000  1.347  0.000  0.000  1.359
 
band    24 # energy   44.08945485 # occ.  0.00000000
 
ion      s     py     pz     px    dxy    dyz    dz2    dxz  x2-y2    tot
    1  0.000  0.000  0.049  0.000  0.000  0.000  0.000  0.000  0.000  0.049
    2  0.000  0.000  0.049  0.000  0.000  0.000  0.000  0.000  0.000  0.049
tot    0.000  0.000  0.099  0.000  0.000  0.000  0.000  0.000  0.000  0.099
 

 k-point     2 :    0.08333333 0.00000000 0.00000000     weight = 0.00520833

band     1 # energy    2.16062442 # occ.  1.00000000
 
ion      s     py     pz     px    dxy    dyz    dz2    dxz  x2-y2    tot
    1  0.381  0.002  0.000  0.007  0.000  0.000  0.000  0.000  0.000  0.390
    2  0.381  0.002  0.000  0.007  0.000  0.000  0.000  0.000  0.000  0.390
tot    0.762  0.005  0.000  0.014  0.000  0.000  0.000  0.000  0.000  0.781
 
band     2 # energy    5.90990373 # occ.  1.00000000
 
ion      s     py     pz     px    dxy    dyz    dz2    dxz  x2-y2    tot
    1  0.077  0.001  0.000  0.004  0.002  0.000  0.374  0.000  0.001  0.459
    2  0.077  0.001  0.000  0.004  0.002  0.000  0.374  0.000  0.001  0.459
tot    0.155  0.003  0.000  0.008  0.004  0.000  0.747  0.000  0.001  0.919
 
band     3 # energy    8.25551655 # occ.  1.00000000
 
ion      s     py     pz     px    dxy    dyz    dz2    dxz  x2-y2    tot
    1  0.000  0.000  0.000  0.001  0.238  0.000  0.165  0.000  0.079  0.484
    2  0.000  0.000  0.000  0.001  0.238  0.000  0.165  0.000  0.079  0.484
tot    0.000  0.001  0.000  0.002  0.476  0.000  0.330  0.000  0.159  0.967
 
band     4 # energy    8.63900323 # occ.  1.00000000
 
ion      s     py     pz     px    dxy    dyz    dz2    dxz  x2-y2    tot
    1  0.000  0.001  0.000  0.000  0.121  0.000  0.000  0.000  0.363  0.485
    2  0.000  0.001  0.000  0.000  0.121  0.000  0.000  0.000  0.363  0.485
tot    0.000  0.002  0.000  0.001  0.242  0.000  0.000  0.000  0.726  0.970
 
band     5 # energy    8.71795500 # occ.  1.00000000
 
ion      s     py     pz     px    dxy    dyz    dz2    dxz  x2-y2    tot
    1  0.000  0.000  0.000  0.000  0.150  0.000  0.287  0.000  0.050  0.488
    2  0.000  0.000  0.000  0.000  0.150  0.000  0.287  0.000  0.050  0.488
tot    0.000  0.000  0.000  0.001  0.301  0.000  0.574  0.000  0.100  0.976
 
band     6 # energy    8.81467696 # occ.  1.00000000
 
ion      s     py     pz     px    dxy    dyz    dz2    dxz  x2-y2    tot
    1  0.001  0.000  0.000  0.001  0.336  0.000  0.038  0.000  0.112  0.488
    2  0.001  0.000  0.000  0.001  0.336  0.000  0.038  0.000  0.112  0.488
tot    0.002  0.000  0.000  0.001  0.672  0.000  0.076  0.000  0.224  0.976
 
band     7 # energy    8.97532671 # occ.  1.00000000
 
ion      s     py     pz     px    dxy    dyz    dz2    dxz  x2-y2    tot
    1  0.000  0.001  0.000  0.000  0.122  0.000  0.000  0.000  0.366  0.489
    2  0.000  0.001  0.000  0.000  0.122  0.000  0.000  0.000  0.366  0.489
tot    0.000  0.002  0.000  0.001  0.244  0.000  0.000  0.000  0.732  0.979
 
band     8 # energy    9.07194238 # occ.  1.00000000
 
ion      s     py     pz     px    dxy    dyz    dz2    dxz  x2-y2    tot
    1  0.000  0.000  0.015  0.000  0.000  0.117  0.000  0.351  0.000  0.483
    2  0.000  0.000  0.015  0.000  0.000  0.117  0.000  0.351  0.000  0.483
tot    0.000  0.000  0.030  0.000  0.000  0.234  0.000  0.702  0.000  0.967
 
band     9 # energy    9.16275117 # occ.  1.00000000
 
ion      s     py     pz     px    dxy    dyz    dz2    dxz  x2-y2    tot
    1  0.000  0.000  0.000  0.000  0.000  0.368  0.000  0.123  0.000  0.490
    2  0.000  0.000  0.000  0.000  0.000  0.368  0.000  0.123  0.000  0.490
tot    0.000  0.000  0.000  0.000  0.000  0.736  0.000  0.245  0.000  0.981
 
band    10 # energy    9.59676727 # occ.  1.00000000
 
ion      s     py     pz     px    dxy    dyz    dz2    dxz  x2-y2    tot
    1  0.000  0.000  0.103  0.000  0.000  0.088  0.000  0.265  0.000  0.456
    2  0.000  0.000  0.103  0.000  0.000  0.088  0.000  0.265  0.000  0.456
tot    0.000  0.000  0.205  0.000  0.000  0.177  0.000  0.530  0.000  0.912
 
band    11 # energy   10.49960908 # occ.  1.00000000
 
ion      s     py     pz     px    dxy    dyz    dz2    dxz  x2-y2    tot
    1  0.000  0.000  0.000  0.000  0.000  0.370  0.000  0.123  0.000  0.493
    2  0.000  0.000  0.000  0.000  0.000  0.370  0.000  0.123  0.000  0.493
tot    0.000  0.000  0.000  0.000  0.000  0.740  0.000  0.247  0.000  0.987
 
band    12 # energy   12.32385415 # occ.  0.00000000
 
ion      s     py     pz     px    dxy    dyz    dz2    dxz  x2-y2    tot
    1  0.000  0.000  0.252  0.000  0.000  0.042  0.000  0.125  0.000  0.419
    2  0.000  0.000  0.252  0.000  0.000  0.042  0.000  0.125  0.000  0.419
tot    0.000  0.000  0.505  0.000  0.000  0.083  0.000  0.250  0.000  0.838
 
band    13 # energy   18.21491667 # occ.  0.00000000
 
ion      s     py     pz     px    dxy    dyz    dz2    dxz  x2-y2    tot
    1  0.224  0.002  0.000  0.006  0.000  0.000  0.236  0.000  0.000  0.468
    2  0.224  0.002  0.000  0.006  0.000  0.000  0.236  0.000  0.000  0.468
tot    0.448  0.004  0.000  0.012  0.000  0.000  0.472  0.000  0.000  0.936
 
band    14 # energy   32.02801378 # occ.  0.00000000
 
ion      s     py     pz     px    dxy    dyz    dz2    dxz  x2-y2    tot
    1  0.013  0.020  0.000  0.060  0.116  0.000  0.026  0.000  0.039  0.275
    2  0.013  0.020  0.000  0.060  0.116  0.000  0.026  0.000  0.039  0.275
tot    0.026  0.040  0.000  0.121  0.233  0.000  0.052  0.000  0.078  0.549
 
band    15 # energy   34.45237312 # occ.  0.00000000
 
ion      s     py     pz     px    dxy    dyz    dz2    dxz  x2-y2    tot
    1  0.023  0.024  0.000  0.071  0.072  0.000  0.042  0.000  0.024  0.255
    2  0.023  0.024  0.000  0.071  0.072  0.000  0.042  0.000  0.024  0.255
tot    0.046  0.047  0.000  0.142  0.143  0.000  0.085  0.000  0.048  0.509
 
band    16 # energy   34.63617038 # occ.  0.00000000
 
ion      s     py     pz     px    dxy    dyz    dz2    dxz  x2-y2    tot
    1  0.000  0.174  0.000  0.058  0.047  0.000  0.000  0.000  0.142  0.421
    2  0.000  0.174  0.000  0.058  0.047  0.000  0.000  0.000  0.142  0.421
tot    0.000  0.349  0.000  0.116  0.094  0.000  0.000  0.000  0.283  0.843
 
band    17 # energy   37.42338097 # occ.  0.00000000
 
ion      s     py     pz     px    dxy    dyz    dz2    dxz  x2-y2    tot
    1  0.000  0.000  0.009  0.000  0.000  0.013  0.000  0.038  0.000  0.059
    2  0.000  0.000  0.009  0.000  0.000  0.013  0.000  0.038  0.000  0.059
tot    0.000  0.000  0.019  0.000  0.000  0.025  0.000  0.075  0.000  0.119
 
band    18 # energy   37.99020054 # occ.  0.00000000
 
ion      s     py     pz     px    dxy    dyz    dz2    dxz  x2-y2    tot
    1  0.003  0.017  0.000  0.052  0.042  0.000  0.034  0.000  0.014  0.162
    2  0.003  0.017  0.000  0.052  0.042  0.000  0.034  0.000  0.014  0.162
tot    0.006  0.034  0.000  0.103  0.084  0.000  0.068  0.000  0.028  0.323
 
band    19 # energy   39.38912153 # occ.  0.00000000
 
ion      s     py     pz     px    dxy    dyz    dz2    dxz  x2-y2    tot
    1  0.000  0.000  0.029  0.000  0.000  0.030  0.000  0.089  0.000  0.148
    2  0.000  0.000  0.029  0.000  0.000  0.030  0.000  0.089  0.000  0.148
tot    0.000  0.000  0.058  0.000  0.000  0.060  0.000  0.179  0.000  0.296
 
band    20 # energy   40.62604280 # occ.  0.00000000
 
ion      s     py     pz     px    dxy    dyz    dz2    dxz  x2-y2    tot
    1  0.000  0.078  0.000  0.026  0.097  0.000  0.000  0.000  0.291  0.493
    2  0.000  0.078  0.000  0.026  0.097  0.000  0.000  0.000  0.291  0.493
tot    0.000  0.156  0.000  0.052  0.194  0.000  0.000  0.000  0.583  0.985
 
band    21 # energy   41.39504114 # occ.  0.00000000
 
ion      s     py     pz     px    dxy    dyz    dz2    dxz  x2-y2    tot
    1  0.007  0.035  0.000  0.105  0.159  0.000  0.005  0.000  0.053  0.364
    2  0.007  0.035  0.000  0.105  0.159  0.000  0.005  0.000  0.053  0.364
tot    0.015  0.070  0.000  0.209  0.318  0.000  0.010  0.000  0.106  0.728
 
band    22 # energy   42.14616426 # occ.  0.00000000
 
ion      s     py     pz     px    dxy    dyz    dz2    dxz  x2-y2    tot
    1  0.000  0.000  0.000  0.000  0.000  0.194  0.000  0.065  0.000  0.259
    2  0.000  0.000  0.000  0.000  0.000  0.194  0.000  0.065  0.000  0.259
tot    0.000  0.000  0.000  0.000  0.000  0.389  0.000  0.130  0.000  0.518
 
band    23 # energy   43.46318459 # occ.  0.00000000
 
ion      s     py     pz     px    dxy    dyz    dz2    dxz  x2-y2    tot
    1  0.002  0.008  0.000  0.023  0.045  0.000  0.547  0.000  0.015  0.640
    2  0.002  0.008  0.000  0.023  0.045  0.000  0.547  0.000  0.015  0.640
tot    0.004  0.015  0.000  0.046  0.090  0.000  1.094  0.000  0.030  1.280
 
band    24 # energy   43.74310978 # occ.  0.00000000
 
ion      s     py     pz     px    dxy    dyz    dz2    dxz  x2-y2    tot
    1  0.000  0.000  0.184  0.000  0.000  0.051  0.000  0.152  0.000  0.386
    2  0.000  0.000  0.184  0.000  0.000  0.051  0.000  0.152  0.000  0.386
tot    0.000  0.000  0.367  0.000  0.000  0.101  0.000  0.303  0.000  0.772
 

 k-point     3 :    0.16666667-0.00000000 0.00000000     weight = 0.00520833

band     1 # energy    2.89614765 # occ.  1.00000000
 
ion      s     py     pz     px    dxy    dyz    dz2    dxz  x2-y2    tot
    1  0.353  0.009  0.000  0.026  0.002  0.000  0.001  0.000  0.001  0.392
    2  0.353  0.009  0.000  0.026  0.002  0.000  0.001  0.000  0.001  0.392
tot    0.706  0.017  0.000  0.052  0.004  0.000  0.002  0.000  0.001  0.783
 
band     2 # energy    6.28978578 # occ.  1.00000000
 
ion      s     py     pz     px    dxy    dyz    dz2    dxz  x2-y2    tot
    1  0.055  0.004  0.000  0.013  0.020  0.000  0.363  0.000  0.007  0.462
    2  0.055  0.004  0.000  0.013  0.020  0.000  0.363  0.000  0.007  0.462
tot    0.110  0.009  0.000  0.027  0.040  0.000  0.725  0.000  0.013  0.924
 
band     3 # energy    7.95125911 # occ.  1.00000000
 
ion      s     py     pz     px    dxy    dyz    dz2    dxz  x2-y2    tot
    1  0.000  0.002  0.000  0.005  0.266  0.000  0.116  0.000  0.089  0.478
    2  0.000  0.002  0.000  0.005  0.266  0.000  0.116  0.000  0.089  0.478
tot    0.001  0.003  0.000  0.010  0.532  0.000  0.233  0.000  0.177  0.955
 
band     4 # energy    8.28858725 # occ.  1.00000000
 
ion      s     py     pz     px    dxy    dyz    dz2    dxz  x2-y2    tot
    1  0.000  0.000  0.070  0.000  0.000  0.097  0.000  0.290  0.000  0.456
    2  0.000  0.000  0.070  0.000  0.000  0.097  0.000  0.290  0.000  0.456
tot    0.000  0.000  0.140  0.000  0.000  0.193  0.000  0.579  0.000  0.913
 
band     5 # energy    8.62587400 # occ.  1.00000000
 
ion      s     py     pz     px    dxy    dyz    dz2    dxz  x2-y2    tot
    1  0.005  0.001  0.000  0.002  0.315  0.000  0.058  0.000  0.105  0.485
    2  0.005  0.001  0.000  0.002  0.315  0.000  0.058  0.000  0.105  0.485
tot    0.010  0.001  0.000  0.003  0.631  0.000  0.116  0.000  0.210  0.970
 
band     6 # energy    8.96870513 # occ.  1.00000000
 
ion      s     py     pz     px    dxy    dyz    dz2    dxz  x2-y2    tot
    1  0.000  0.000  0.000  0.000  0.000  0.367  0.000  0.122  0.000  0.489
    2  0.000  0.000  0.000  0.000  0.000  0.367  0.000  0.122  0.000  0.489
tot    0.000  0.000  0.000  0.000  0.000  0.733  0.000  0.244  0.000  0.977
 
band     7 # energy    8.99018203 # occ.  1.00000000
 
ion      s     py     pz     px    dxy    dyz    dz2    dxz  x2-y2    tot
    1  0.000  0.002  0.000  0.001  0.121  0.000  0.000  0.000  0.362  0.485
    2  0.000  0.002  0.000  0.001  0.121  0.000  0.000  0.000  0.362  0.485
tot    0.000  0.003  0.000  0.001  0.242  0.000  0.000  0.000  0.725  0.971
 
band     8 # energy    9.05255912 # occ.  1.00000000
 
ion      s     py     pz     px    dxy    dyz    dz2    dxz  x2-y2    tot
    1  0.002  0.000  0.000  0.001  0.114  0.000  0.333  0.000  0.038  0.488
    2  0.002  0.000  0.000  0.001  0.114  0.000  0.333  0.000  0.038  0.488
tot    0.003  0.001  0.000  0.003  0.228  0.000  0.665  0.000  0.076  0.976
 
band     9 # energy    9.19921287 # occ.  1.00000000
 
ion      s     py     pz     px    dxy    dyz    dz2    dxz  x2-y2    tot
    1  0.000  0.000  0.040  0.000  0.000  0.109  0.000  0.328  0.000  0.477
    2  0.000  0.000  0.040  0.000  0.000  0.109  0.000  0.328  0.000  0.477
tot    0.000  0.000  0.080  0.000  0.000  0.219  0.000  0.656  0.000  0.955
 
band    10 # energy    9.28309291 # occ.  1.00000000
 
ion      s     py     pz     px    dxy    dyz    dz2    dxz  x2-y2    tot
    1  0.000  0.002  0.000  0.001  0.122  0.000  0.000  0.000  0.366  0.490
    2  0.000  0.002  0.000  0.001  0.122  0.000  0.000  0.000  0.366  0.490
tot    0.000  0.004  0.000  0.001  0.244  0.000  0.000  0.000  0.731  0.980
 
band    11 # energy   10.57229299 # occ.  1.00000000
 
ion      s     py     pz     px    dxy    dyz    dz2    dxz  x2-y2    tot
    1  0.000  0.000  0.000  0.000  0.000  0.371  0.000  0.124  0.000  0.495
    2  0.000  0.000  0.000  0.000  0.000  0.371  0.000  0.124  0.000  0.495
tot    0.000  0.000  0.000  0.000  0.000  0.742  0.000  0.247  0.000  0.989
 
band    12 # energy   14.01555811 # occ.  0.00000000
 
ion      s     py     pz     px    dxy    dyz    dz2    dxz  x2-y2    tot
    1  0.000  0.000  0.249  0.000  0.000  0.044  0.000  0.133  0.000  0.426
    2  0.000  0.000  0.249  0.000  0.000  0.044  0.000  0.133  0.000  0.426
tot    0.000  0.000  0.498  0.000  0.000  0.088  0.000  0.265  0.000  0.852
 
band    13 # energy   18.34958226 # occ.  0.00000000
 
ion      s     py     pz     px    dxy    dyz    dz2    dxz  x2-y2    tot
    1  0.209  0.008  0.000  0.025  0.001  0.000  0.217  0.000  0.000  0.461
    2  0.209  0.008  0.000  0.025  0.001  0.000  0.217  0.000  0.000  0.461
tot    0.418  0.017  0.000  0.051  0.001  0.000  0.435  0.000  0.000  0.922
 
band    14 # energy   28.22971847 # occ.  0.00000000
 
ion      s     py     pz     px    dxy    dyz    dz2    dxz  x2-y2    tot
    1  0.042  0.037  0.000  0.110  0.132  0.000  0.024  0.000  0.044  0.388
    2  0.042  0.037  0.000  0.110  0.132  0.000  0.024  0.000  0.044  0.388
tot    0.085  0.073  0.000  0.219  0.264  0.000  0.048  0.000  0.088  0.777
 
band    15 # energy   32.13268535 # occ.  0.00000000
 
ion      s     py     pz     px    dxy    dyz    dz2    dxz  x2-y2    tot
    1  0.000  0.193  0.000  0.064  0.036  0.000  0.000  0.000  0.109  0.402
    2  0.000  0.193  0.000  0.064  0.036  0.000  0.000  0.000  0.109  0.402
tot    0.000  0.385  0.000  0.128  0.072  0.000  0.000  0.000  0.218  0.804
 
band    16 # energy   33.45969755 # occ.  0.00000000
 
ion      s     py     pz     px    dxy    dyz    dz2    dxz  x2-y2    tot
    1  0.023  0.006  0.000  0.018  0.153  0.000  0.051  0.000  0.051  0.301
    2  0.023  0.006  0.000  0.018  0.153  0.000  0.051  0.000  0.051  0.301
tot    0.045  0.012  0.000  0.037  0.305  0.000  0.102  0.000  0.102  0.603
 
band    17 # energy   35.39372560 # occ.  0.00000000
 
ion      s     py     pz     px    dxy    dyz    dz2    dxz  x2-y2    tot
    1  0.000  0.000  0.038  0.000  0.000  0.057  0.000  0.172  0.000  0.268
    2  0.000  0.000  0.038  0.000  0.000  0.057  0.000  0.172  0.000  0.268
tot    0.000  0.000  0.077  0.000  0.000  0.115  0.000  0.344  0.000  0.535
 
band    18 # energy   37.53679266 # occ.  0.00000000
 
ion      s     py     pz     px    dxy    dyz    dz2    dxz  x2-y2    tot
    1  0.000  0.000  0.009  0.000  0.000  0.014  0.000  0.043  0.000  0.065
    2  0.000  0.000  0.009  0.000  0.000  0.014  0.000  0.043  0.000  0.065
tot    0.000  0.000  0.017  0.000  0.000  0.028  0.000  0.085  0.000  0.131
 
band    19 # energy   38.68867088 # occ.  0.00000000
 
ion      s     py     pz     px    dxy    dyz    dz2    dxz  x2-y2    tot
    1  0.025  0.033  0.000  0.099  0.051  0.000  0.026  0.000  0.017  0.252
    2  0.025  0.033  0.000  0.099  0.051  0.000  0.026  0.000  0.017  0.252
tot    0.050  0.066  0.000  0.198  0.103  0.000  0.053  0.000  0.034  0.503
 
band    20 # energy   41.07724615 # occ.  0.00000000
 
ion      s     py     pz     px    dxy    dyz    dz2    dxz  x2-y2    tot
    1  0.057  0.044  0.000  0.132  0.001  0.000  0.152  0.000  0.000  0.385
    2  0.057  0.044  0.000  0.132  0.001  0.000  0.152  0.000  0.000  0.385
tot    0.113  0.088  0.000  0.264  0.001  0.000  0.303  0.000  0.000  0.770
 
band    21 # energy   41.37894608 # occ.  0.00000000
 
ion      s     py     pz     px    dxy    dyz    dz2    dxz  x2-y2    tot
    1  0.000  0.000  0.000  0.000  0.000  0.298  0.000  0.099  0.000  0.398
    2  0.000  0.000  0.000  0.000  0.000  0.298  0.000  0.099  0.000  0.398
tot    0.000  0.000  0.000  0.000  0.000  0.597  0.000  0.199  0.000  0.795
 
band    22 # energy   42.32946052 # occ.  0.00000000
 
ion      s     py     pz     px    dxy    dyz    dz2    dxz  x2-y2    tot
    1  0.000  0.000  0.231  0.000  0.000  0.011  0.000  0.033  0.000  0.275
    2  0.000  0.000  0.231  0.000  0.000  0.011  0.000  0.033  0.000  0.275
tot    0.000  0.000  0.461  0.000  0.000  0.022  0.000  0.067  0.000  0.550
 
band    23 # energy   42.80411481 # occ.  0.00000000
 
ion      s     py     pz     px    dxy    dyz    dz2    dxz  x2-y2    tot
    1  0.000  0.036  0.000  0.012  0.124  0.000  0.000  0.000  0.372  0.544
    2  0.000  0.036  0.000  0.012  0.124  0.000  0.000  0.000  0.372  0.544
tot    0.000  0.072  0.000  0.024  0.248  0.000  0.000  0.000  0.744  1.088
 
band    24 # energy   44.69640507 # occ.  0.00000000
 
ion      s     py     pz     px    dxy    dyz    dz2    dxz  x2-y2    tot
    1  0.000  0.247  0.000  0.082  0.021  0.000  0.000  0.000  0.064  0.415
    2  0.000  0.247  0.000  0.082  0.021  0.000  0.000  0.000  0.064  0.415
tot    0.000  0.494  0.000  0.165  0.043  0.000  0.000  0.000  0.128  0.830
 

 k-point     4 :    0.25000000-0.00000000 0.00000000     weight = 0.00520833

band     1 # energy    4.00071553 # occ.  1.00000000
 
ion      s     py     pz     px    dxy    dyz    dz2    dxz  x2-y2    tot
    1  0.304  0.017  0.000  0.050  0.015  0.000  0.006  0.000  0.005  0.396
    2  0.304  0.017  0.000  0.050  0.015  0.000  0.006  0.000  0.005  0.396
tot    0.607  0.033  0.000  0.100  0.031  0.000  0.011  0.000  0.010  0.792
 
band     2 # energy    6.58703716 # occ.  1.00000000
 
ion      s     py     pz     px    dxy    dyz    dz2    dxz  x2-y2    tot
    1  0.027  0.004  0.000  0.013  0.106  0.000  0.280  0.000  0.035  0.467
    2  0.027  0.004  0.000  0.013  0.106  0.000  0.280  0.000  0.035  0.467
tot    0.055  0.009  0.000  0.026  0.213  0.000  0.561  0.000  0.071  0.934
 
band     3 # energy    7.49687477 # occ.  1.00000000
 
ion      s     py     pz     px    dxy    dyz    dz2    dxz  x2-y2    tot
    1  0.000  0.000  0.058  0.000  0.000  0.099  0.000  0.296  0.000  0.453
    2  0.000  0.000  0.058  0.000  0.000  0.099  0.000  0.296  0.000  0.453
tot    0.000  0.000  0.116  0.000  0.000  0.198  0.000  0.593  0.000  0.907
 
band     4 # energy    7.76795405 # occ.  1.00000000
 
ion      s     py     pz     px    dxy    dyz    dz2    dxz  x2-y2    tot
    1  0.001  0.008  0.000  0.023  0.230  0.000  0.130  0.000  0.077  0.468
    2  0.001  0.008  0.000  0.023  0.230  0.000  0.130  0.000  0.077  0.468
tot    0.002  0.015  0.000  0.046  0.460  0.000  0.260  0.000  0.153  0.936
 
band     5 # energy    8.52702296 # occ.  1.00000000
 
ion      s     py     pz     px    dxy    dyz    dz2    dxz  x2-y2    tot
    1  0.011  0.002  0.000  0.005  0.251  0.000  0.130  0.000  0.084  0.482
    2  0.011  0.002  0.000  0.005  0.251  0.000  0.130  0.000  0.084  0.482
tot    0.022  0.003  0.000  0.009  0.502  0.000  0.259  0.000  0.167  0.964
 
band     6 # energy    8.73605000 # occ.  1.00000000
 
ion      s     py     pz     px    dxy    dyz    dz2    dxz  x2-y2    tot
    1  0.000  0.000  0.000  0.000  0.000  0.365  0.000  0.122  0.000  0.487
    2  0.000  0.000  0.000  0.000  0.000  0.365  0.000  0.122  0.000  0.487
tot    0.000  0.000  0.000  0.000  0.000  0.731  0.000  0.244  0.000  0.974
 
band     7 # energy    8.98295291 # occ.  1.00000000
 
ion      s     py     pz     px    dxy    dyz    dz2    dxz  x2-y2    tot
    1  0.000  0.000  0.032  0.000  0.000  0.112  0.000  0.336  0.000  0.479
    2  0.000  0.000  0.032  0.000  0.000  0.112  0.000  0.336  0.000  0.479
tot    0.000  0.000  0.063  0.000  0.000  0.224  0.000  0.671  0.000  0.958
 
band     8 # energy    9.50003709 # occ.  1.00000000
 
ion      s     py     pz     px    dxy    dyz    dz2    dxz  x2-y2    tot
    1  0.000  0.002  0.000  0.001  0.121  0.000  0.000  0.000  0.363  0.487
    2  0.000  0.002  0.000  0.001  0.121  0.000  0.000  0.000  0.363  0.487
tot    0.000  0.004  0.000  0.001  0.242  0.000  0.000  0.000  0.726  0.974
 
band     9 # energy    9.52180171 # occ.  1.00000000
 
ion      s     py     pz     px    dxy    dyz    dz2    dxz  x2-y2    tot
    1  0.006  0.002  0.000  0.006  0.101  0.000  0.338  0.000  0.034  0.487
    2  0.006  0.002  0.000  0.006  0.101  0.000  0.338  0.000  0.034  0.487
tot    0.012  0.004  0.000  0.011  0.203  0.000  0.676  0.000  0.068  0.974
 
band    10 # energy    9.72630112 # occ.  1.00000000
 
ion      s     py     pz     px    dxy    dyz    dz2    dxz  x2-y2    tot
    1  0.000  0.003  0.000  0.001  0.122  0.000  0.000  0.000  0.366  0.491
    2  0.000  0.003  0.000  0.001  0.122  0.000  0.000  0.000  0.366  0.491
tot    0.000  0.005  0.000  0.002  0.244  0.000  0.000  0.000  0.731  0.982
 
band    11 # energy   10.64114921 # occ.  1.00000000
 
ion      s     py     pz     px    dxy    dyz    dz2    dxz  x2-y2    tot