<?xml version="1.0" encoding="ISO-8859-1"?>
<modeling>
 <generator>
  <i name="program" type="string">vasp </i>
  <i name="version" type="string">6.3.2  </i>
  <i name="subversion" type="string">27Jun22 (build Aug 12 2022 00:53:59) complex                          parallel </i>
  <i name="platform" type="string">tv2STD </i>
  <i name="date" type="string">2024 12 03 </i>
  <i name="time" type="string">01:28:38 </i>
 </generator>
 <incar>
  <i type="string" name="SYSTEM">Co-hcc</i>
  <i type="int" name="ISTART">     0</i>
  <i type="string" name="PREC">Accurate      normal | accurate</i>
  <i type="string" name="ALGO">Normal     Normal, Fast, Very_Fast</i>
  <i type="logical" name="ADDGRID"> F  </i>
  <i type="int" name="ISPIN">     2</i>
  <i type="int" name="ICHARG">     2</i>
  <i type="int" name="INIWAV">     1</i>
  <i type="int" name="NELM">   100</i>
  <i type="int" name="IBRION">     2</i>
  <i name="EDIFF">      0.00000100</i>
  <i name="EDIFFG">     -0.02000000</i>
  <i type="int" name="NSW">   100</i>
  <i type="int" name="ISIF">     2</i>
  <i type="int" name="ISYM">     1</i>
  <i name="ENCUT">    425.00000000</i>
  <v name="MAGMOM">      3.00000000      3.00000000</v>
  <i type="logical" name="LREAL"> F  </i>
  <i type="int" name="ISMEAR">     0</i>
  <i name="SIGMA">      0.05000000</i>
  <i type="int" name="NWRITE">     2</i>
  <i type="logical" name="LWAVE"> F  </i>
  <i type="logical" name="LCHARG"> F  </i>
  <i type="int" name="LORBIT">    11</i>
 </incar>
 <primitive_cell>
  <structure name="primitive_cell" >
   <crystal>
    <varray name="basis" >
     <v>       1.22121505      -2.11520651       0.00000000 </v>
     <v>       1.22121505       2.11520651       0.00000000 </v>
     <v>       0.00000000       0.00000000       3.93975526 </v>
    </varray>
    <i name="volume">     20.35373715 </i>
    <varray name="rec_basis" >
     <v>       0.40942830      -0.23638354       0.00000000 </v>
     <v>       0.40942830       0.23638354       0.00000000 </v>
     <v>       0.00000000       0.00000000       0.25382287 </v>
    </varray>
   </crystal>
   <varray name="positions" >
    <v>       0.33333333       0.66666667       0.25000000 </v>
    <v>       0.66666667       0.33333333       0.75000000 </v>
   </varray>
  </structure>
  <varray name="primitive_index" >
   <v type="int" >        1 </v>
   <v type="int" >        2 </v>
  </varray>
 </primitive_cell>
 <kpoints>
  <generation param="Gamma">
   <v type="int" name="divisions">      12       12        8 </v>
   <v name="usershift">      0.00000000       0.00000000       0.00000000 </v>
   <v name="genvec1">      0.08333333       0.00000000       0.00000000 </v>
   <v name="genvec2">      0.00000000       0.08333333       0.00000000 </v>
   <v name="genvec3">      0.00000000       0.00000000       0.12500000 </v>
   <v name="shift">      0.00000000       0.00000000       0.00000000 </v>
  </generation>
  <varray name="kpointlist" >
   <v>       0.00000000       0.00000000       0.00000000 </v>
   <v>       0.08333333       0.00000000       0.00000000 </v>
   <v>       0.16666667      -0.00000000       0.00000000 </v>
   <v>       0.25000000      -0.00000000       0.00000000 </v>
   <v>       0.33333333       0.00000000       0.00000000 </v>
   <v>       0.41666667      -0.00000000       0.00000000 </v>
   <v>       0.50000000      -0.00000000       0.00000000 </v>
   <v>       0.08333333       0.08333333       0.00000000 </v>
   <v>       0.16666667       0.08333333       0.00000000 </v>
   <v>       0.25000000       0.08333333       0.00000000 </v>
   <v>       0.33333333       0.08333333       0.00000000 </v>
   <v>       0.41666667       0.08333333       0.00000000 </v>
   <v>       0.16666667       0.16666667       0.00000000 </v>
   <v>       0.25000000       0.16666667       0.00000000 </v>
   <v>       0.33333333       0.16666667       0.00000000 </v>
   <v>       0.41666667       0.16666667       0.00000000 </v>
   <v>       0.25000000       0.25000000       0.00000000 </v>
   <v>       0.33333333       0.25000000       0.00000000 </v>
   <v>       0.33333333       0.33333333       0.00000000 </v>
   <v>       0.00000000       0.00000000       0.12500000 </v>
   <v>       0.08333333       0.00000000       0.12500000 </v>
   <v>       0.16666667      -0.00000000       0.12500000 </v>
   <v>       0.25000000      -0.00000000       0.12500000 </v>
   <v>       0.33333333       0.00000000       0.12500000 </v>
   <v>       0.41666667      -0.00000000       0.12500000 </v>
   <v>       0.50000000      -0.00000000       0.12500000 </v>
   <v>       0.08333333       0.08333333       0.12500000 </v>
   <v>       0.16666667       0.08333333       0.12500000 </v>
   <v>       0.25000000       0.08333333       0.12500000 </v>
   <v>       0.33333333       0.08333333       0.12500000 </v>
   <v>       0.41666667       0.08333333       0.12500000 </v>
   <v>       0.16666667       0.16666667       0.12500000 </v>
   <v>       0.25000000       0.16666667       0.12500000 </v>
   <v>       0.33333333       0.16666667       0.12500000 </v>
   <v>       0.41666667       0.16666667       0.12500000 </v>
   <v>       0.25000000       0.25000000       0.12500000 </v>
   <v>       0.33333333       0.25000000       0.12500000 </v>
   <v>       0.33333333       0.33333333       0.12500000 </v>
   <v>       0.00000000       0.00000000       0.25000000 </v>
   <v>       0.08333333       0.00000000       0.25000000 </v>
   <v>       0.16666667      -0.00000000       0.25000000 </v>
   <v>       0.25000000      -0.00000000       0.25000000 </v>
   <v>       0.33333333       0.00000000       0.25000000 </v>
   <v>       0.41666667      -0.00000000       0.25000000 </v>
   <v>       0.50000000      -0.00000000       0.25000000 </v>
   <v>       0.08333333       0.08333333       0.25000000 </v>
   <v>       0.16666667       0.08333333       0.25000000 </v>
   <v>       0.25000000       0.08333333       0.25000000 </v>
   <v>       0.33333333       0.08333333       0.25000000 </v>
   <v>       0.41666667       0.08333333       0.25000000 </v>
   <v>       0.16666667       0.16666667       0.25000000 </v>
   <v>       0.25000000       0.16666667       0.25000000 </v>
   <v>       0.33333333       0.16666667       0.25000000 </v>
   <v>       0.41666667       0.16666667       0.25000000 </v>
   <v>       0.25000000       0.25000000       0.25000000 </v>
   <v>       0.33333333       0.25000000       0.25000000 </v>
   <v>       0.33333333       0.33333333       0.25000000 </v>
   <v>       0.00000000       0.00000000       0.37500000 </v>
   <v>       0.08333333       0.00000000       0.37500000 </v>
   <v>       0.16666667      -0.00000000       0.37500000 </v>
   <v>       0.25000000      -0.00000000       0.37500000 </v>
   <v>       0.33333333       0.00000000       0.37500000 </v>
   <v>       0.41666667      -0.00000000       0.37500000 </v>
   <v>       0.50000000      -0.00000000       0.37500000 </v>
   <v>       0.08333333       0.08333333       0.37500000 </v>
   <v>       0.16666667       0.08333333       0.37500000 </v>
   <v>       0.25000000       0.08333333       0.37500000 </v>
   <v>       0.33333333       0.08333333       0.37500000 </v>
   <v>       0.41666667       0.08333333       0.37500000 </v>
   <v>       0.16666667       0.16666667       0.37500000 </v>
   <v>       0.25000000       0.16666667       0.37500000 </v>
   <v>       0.33333333       0.16666667       0.37500000 </v>
   <v>       0.41666667       0.16666667       0.37500000 </v>
   <v>       0.25000000       0.25000000       0.37500000 </v>
   <v>       0.33333333       0.25000000       0.37500000 </v>
   <v>       0.33333333       0.33333333       0.37500000 </v>
   <v>       0.00000000       0.00000000       0.50000000 </v>
   <v>       0.08333333       0.00000000       0.50000000 </v>
   <v>       0.16666667      -0.00000000       0.50000000 </v>
   <v>       0.25000000      -0.00000000       0.50000000 </v>
   <v>       0.33333333       0.00000000       0.50000000 </v>
   <v>       0.41666667      -0.00000000       0.50000000 </v>
   <v>       0.50000000      -0.00000000       0.50000000 </v>
   <v>       0.08333333       0.08333333       0.50000000 </v>
   <v>       0.16666667       0.08333333       0.50000000 </v>
   <v>       0.25000000       0.08333333       0.50000000 </v>
   <v>       0.33333333       0.08333333       0.50000000 </v>
   <v>       0.41666667       0.08333333       0.50000000 </v>
   <v>       0.16666667       0.16666667       0.50000000 </v>
   <v>       0.25000000       0.16666667       0.50000000 </v>
   <v>       0.33333333       0.16666667       0.50000000 </v>
   <v>       0.41666667       0.16666667       0.50000000 </v>
   <v>       0.25000000       0.25000000       0.50000000 </v>
   <v>       0.33333333       0.25000000       0.50000000 </v>
   <v>       0.33333333       0.33333333       0.50000000 </v>
  </varray>
  <varray name="weights" >
   <v>       0.00086806 </v>
   <v>       0.00520833 </v>
   <v>       0.00520833 </v>
   <v>       0.00520833 </v>
   <v>       0.00520833 </v>
   <v>       0.00520833 </v>
   <v>       0.00260417 </v>
   <v>       0.00520833 </v>
   <v>       0.01041667 </v>
   <v>       0.01041667 </v>
   <v>       0.01041667 </v>
   <v>       0.01041667 </v>
   <v>       0.00520833 </v>
   <v>       0.01041667 </v>
   <v>       0.01041667 </v>
   <v>       0.00520833 </v>
   <v>       0.00520833 </v>
   <v>       0.01041667 </v>
   <v>       0.00173611 </v>
   <v>       0.00173611 </v>
   <v>       0.01041667 </v>
   <v>       0.01041667 </v>
   <v>       0.01041667 </v>
   <v>       0.01041667 </v>
   <v>       0.01041667 </v>
   <v>       0.00520833 </v>
   <v>       0.01041667 </v>
   <v>       0.02083333 </v>
   <v>       0.02083333 </v>
   <v>       0.02083333 </v>
   <v>       0.02083333 </v>
   <v>       0.01041667 </v>
   <v>       0.02083333 </v>
   <v>       0.02083333 </v>
   <v>       0.01041667 </v>
   <v>       0.01041667 </v>
   <v>       0.02083333 </v>
   <v>       0.00347222 </v>
   <v>       0.00173611 </v>
   <v>       0.01041667 </v>
   <v>       0.01041667 </v>
   <v>       0.01041667 </v>
   <v>       0.01041667 </v>
   <v>       0.01041667 </v>
   <v>       0.00520833 </v>
   <v>       0.01041667 </v>
   <v>       0.02083333 </v>
   <v>       0.02083333 </v>
   <v>       0.02083333 </v>
   <v>       0.02083333 </v>
   <v>       0.01041667 </v>
   <v>       0.02083333 </v>
   <v>       0.02083333 </v>
   <v>       0.01041667 </v>
   <v>       0.01041667 </v>
   <v>       0.02083333 </v>
   <v>       0.00347222 </v>
   <v>       0.00173611 </v>
   <v>       0.01041667 </v>
   <v>       0.01041667 </v>
   <v>       0.01041667 </v>
   <v>       0.01041667 </v>
   <v>       0.01041667 </v>
   <v>       0.00520833 </v>
   <v>       0.01041667 </v>
   <v>       0.02083333 </v>
   <v>       0.02083333 </v>
   <v>       0.02083333 </v>
   <v>       0.02083333 </v>
   <v>       0.01041667 </v>
   <v>       0.02083333 </v>
   <v>       0.02083333 </v>
   <v>       0.01041667 </v>
   <v>       0.01041667 </v>
   <v>       0.02083333 </v>
   <v>       0.00347222 </v>
   <v>       0.00086806 </v>
   <v>       0.00520833 </v>
   <v>       0.00520833 </v>
   <v>       0.00520833 </v>
   <v>       0.00520833 </v>
   <v>       0.00520833 </v>
   <v>       0.00260417 </v>
   <v>       0.00520833 </v>
   <v>       0.01041667 </v>
   <v>       0.01041667 </v>
   <v>       0.01041667 </v>
   <v>       0.01041667 </v>
   <v>       0.00520833 </v>
   <v>       0.01041667 </v>
   <v>       0.01041667 </v>
   <v>       0.00520833 </v>
   <v>       0.00520833 </v>
   <v>       0.01041667 </v>
   <v>       0.00173611 </v>
  </varray>
 </kpoints>
 <parameters>
  <separator name="general" >
   <i type="string" name="SYSTEM">Co-hcc</i>
   <i type="logical" name="LCOMPAT"> F  </i>
  </separator>
  <separator name="electronic" >
   <i type="string" name="PREC">accura</i>
   <i name="ENMAX">    425.00000000</i>
   <i name="ENAUG">    477.81800000</i>
   <i name="EDIFF">      0.00000100</i>
   <i type="int" name="IALGO">    38</i>
   <i type="int" name="IWAVPR">    11</i>
   <i type="int" name="NBANDS">    24</i>
   <i type="int" name="NBANDSLOW">    -1</i>
   <i type="int" name="NBANDSHIGH">    -1</i>
   <i name="NELECT">     18.00000000</i>
   <i type="int" name="TURBO">     0</i>
   <i type="int" name="IRESTART">     0</i>
   <i type="int" name="NREBOOT">     0</i>
   <i type="int" name="NMIN">     0</i>
   <i name="EREF">      0.00000000</i>
   <separator name="electronic smearing" >
    <i type="int" name="ISMEAR">     0</i>
    <i name="SIGMA">      0.05000000</i>
    <i name="KSPACING">      0.50000000</i>
    <i type="logical" name="KGAMMA"> T  </i>
    <i type="logical" name="KBLOWUP"> T  </i>
   </separator>
   <separator name="electronic projectors" >
    <i type="logical" name="LREAL"> F  </i>
    <v name="ROPT">      0.00000000</v>
    <i type="int" name="LMAXPAW">  -100</i>
    <i type="int" name="LMAXMIX">     2</i>
    <i type="logical" name="NLSPLINE"> F  </i>
   </separator>
   <separator name="electronic startup" >
    <i type="int" name="ISTART">     0</i>
    <i type="int" name="ICHARG">     2</i>
    <i type="int" name="INIWAV">     1</i>
   </separator>
   <separator name="electronic spin" >
    <i type="int" name="ISPIN">     2</i>
    <i type="logical" name="LNONCOLLINEAR"> F  </i>
    <v name="MAGMOM">      3.00000000      3.00000000</v>
    <i name="NUPDOWN">     -1.00000000</i>
    <i type="logical" name="LSORBIT"> F  </i>
    <v name="SAXIS">      0.00000000      0.00000000      1.00000000</v>
    <i type="logical" name="LSPIRAL"> F  </i>
    <v name="QSPIRAL">      0.00000000      0.00000000      0.00000000</v>
    <i type="logical" name="LZEROZ"> F  </i>
   </separator>
   <separator name="electronic exchange-correlation" >
    <i type="logical" name="LASPH"> F  </i>
    <i type="logical" name="LMETAGGA"> F  </i>
   </separator>
   <separator name="electronic convergence" >
    <i type="int" name="NELM">   100</i>
    <i type="int" name="NELMDL">    -5</i>
    <i type="int" name="NELMIN">     2</i>
    <i name="ENINI">    425.00000000</i>
    <separator name="electronic convergence detail" >
     <i type="logical" name="LDIAG"> T  </i>
     <i type="logical" name="LSUBROT"> F  </i>
     <i name="WEIMIN">      0.00100000</i>
     <i name="EBREAK">      0.00000001</i>
     <i name="DEPER">      0.30000000</i>
     <i type="int" name="NRMM">     4</i>
     <i name="TIME">      0.40000000</i>
    </separator>
   </separator>
   <separator name="electronic mixer" >
    <i name="AMIX">      0.40000000</i>
    <i name="BMIX">      1.00000000</i>
    <i name="AMIN">      0.10000000</i>
    <i name="AMIX_MAG">      1.60000000</i>
    <i name="BMIX_MAG">      1.00000000</i>
    <separator name="electronic mixer details" >
     <i type="int" name="IMIX">     4</i>
     <i type="logical" name="MIXFIRST"> F  </i>
     <i type="int" name="MAXMIX">   -45</i>
     <i name="WC">    100.00000000</i>
     <i type="int" name="INIMIX">     1</i>
     <i type="int" name="MIXPRE">     1</i>
     <i type="int" name="MREMOVE">     5</i>
    </separator>
   </separator>
   <separator name="electronic dipolcorrection" >
    <i type="logical" name="LDIPOL"> F  </i>
    <i type="logical" name="LMONO"> F  </i>
    <i type="int" name="IDIPOL">     0</i>
    <i name="EPSILON">      1.00000000</i>
    <v name="DIPOL">   -100.00000000   -100.00000000   -100.00000000</v>
    <i name="EFIELD">      0.00000000</i>
   </separator>
  </separator>
  <separator name="grids" >
   <i type="int" name="NGX">    16</i>
   <i type="int" name="NGY">    16</i>
   <i type="int" name="NGZ">    28</i>
   <i type="int" name="NGXF">    32</i>
   <i type="int" name="NGYF">    32</i>
   <i type="int" name="NGZF">    56</i>
   <i type="logical" name="ADDGRID"> F  </i>
  </separator>
  <separator name="ionic" >
   <i type="int" name="NSW">   100</i>
   <i type="int" name="IBRION">     2</i>
   <i type="int" name="MDALGO">     0</i>
   <i type="int" name="ISIF">     2</i>
   <i name="PSTRESS">      0.00000000</i>
   <i name="EDIFFG">     -0.02000000</i>
   <i type="int" name="NFREE">     1</i>
   <i name="POTIM">      0.50000000</i>
   <i name="SMASS">     -3.00000000</i>
   <i name="SCALEE">      1.00000000</i>
  </separator>
  <separator name="ionic md" >
   <i name="TEBEG">      0.00010000</i>
   <i name="TEEND">      0.00010000</i>
   <i type="int" name="NBLOCK">     1</i>
   <i type="int" name="KBLOCK">   100</i>
   <i type="int" name="NPACO">   256</i>
   <i name="APACO">     10.00000000</i>
  </separator>
  <separator name="symmetry" >
   <i type="int" name="ISYM">     1</i>
   <i name="SYMPREC">      0.00001000</i>
  </separator>
  <separator name="dos" >
   <i type="int" name="LORBIT">    11</i>
   <v name="RWIGS">     -1.00000000</v>
   <i type="int" name="NEDOS">   301</i>
   <i name="EMIN">     10.00000000</i>
   <i name="EMAX">    -10.00000000</i>
   <i name="EFERMI">      0.00000000</i>
  </separator>
  <separator name="writing" >
   <i type="int" name="NWRITE">     2</i>
   <i type="logical" name="LWAVE"> F  </i>
   <i type="logical" name="LDOWNSAMPLE"> F  </i>
   <i type="logical" name="LCHARG"> F  </i>
   <i type="logical" name="LPARD"> F  </i>
   <i type="logical" name="LVTOT"> F  </i>
   <i type="logical" name="LVHAR"> F  </i>
   <i type="logical" name="LELF"> F  </i>
   <i type="logical" name="LOPTICS"> F  </i>
   <v name="STM">      0.00000000      0.00000000      0.00000000      0.00000000      0.00000000      0.00000000      0.00000000</v>
  </separator>
  <separator name="performance" >
   <i type="int" name="NPAR">    24</i>
   <i type="int" name="NSIM">     4</i>
   <i type="int" name="NBLK">    -1</i>
   <i type="logical" name="LPLANE"> T  </i>
   <i type="logical" name="LSCALAPACK"> T  </i>
   <i type="logical" name="LSCAAWARE"> T  </i>
   <i type="logical" name="LSCALU"> F  </i>
   <i type="logical" name="LASYNC"> F  </i>
   <i type="logical" name="LORBITALREAL"> F  </i>
  </separator>
  <separator name="miscellaneous" >
   <i type="int" name="IDIOT">     3</i>
   <i type="int" name="PHON_NSTRUCT">    -1</i>
   <i type="logical" name="LMUSIC"> F  </i>
   <v name="POMASS">     58.93300000</v>
   <v name="DARWINR">      0.00000000</v>
   <v name="DARWINV">      1.00000000</v>
   <i type="logical" name="LCORR"> T  </i>
  </separator>
  <i type="logical" name="GGA_COMPAT"> T  </i>
  <i type="logical" name="LBERRY"> F  </i>
  <i type="int" name="ICORELEVEL">     0</i>
  <i type="logical" name="LDAU"> F  </i>
  <i type="int" name="I_CONSTRAINED_M">     0</i>
  <separator name="electronic exchange-correlation" >
   <i type="string" name="GGA">--</i>
   <i type="int" name="VOSKOWN">     0</i>
   <i type="logical" name="LHFCALC"> F  </i>
   <i type="string" name="PRECFOCK"></i>
   <i type="logical" name="LSYMGRAD"> F  </i>
   <i type="logical" name="LHFONE"> F  </i>
   <i type="logical" name="LRHFCALC"> F  </i>
   <i type="logical" name="LTHOMAS"> F  </i>
   <i type="logical" name="LMODELHF"> F  </i>
   <i type="logical" name="LFOCKACE"> F  </i>
   <i name="ENCUT4O">     -1.00000000</i>
   <i type="int" name="EXXOEP">     0</i>
   <i type="int" name="FOURORBIT">     0</i>
   <i name="AEXX">      0.00000000</i>
   <i name="HFALPHA">      0.00000000</i>
   <i name="MCALPHA">      0.00000000</i>
   <i name="ALDAX">      1.00000000</i>
   <i name="AGGAX">      1.00000000</i>
   <i name="ALDAC">      1.00000000</i>
   <i name="AGGAC">      1.00000000</i>
   <i type="int" name="NKREDX">     1</i>
   <i type="int" name="NKREDY">     1</i>
   <i type="int" name="NKREDZ">     1</i>
   <i type="logical" name="SHIFTRED"> F  </i>
   <i type="logical" name="ODDONLY"> F  </i>
   <i type="logical" name="EVENONLY"> F  </i>
   <i type="int" name="LMAXFOCK">     0</i>
   <i type="int" name="NMAXFOCKAE">     0</i>
   <i type="logical" name="LFOCKAEDFT"> F  </i>
   <i name="HFSCREEN">      0.00000000</i>
   <i name="HFSCREENC">      0.00000000</i>
   <i type="int" name="NBANDSGWLOW">     0</i>
  </separator>
  <separator name="vdW DFT" >
   <i type="logical" name="LUSE_VDW"> F  </i>
   <i name="Zab_VDW">     -0.84910000</i>
   <i name="PARAM1">      0.12340000</i>
   <i name="PARAM2">      1.00000000</i>
   <i name="PARAM3">      0.00000000</i>
  </separator>
  <separator name="model GW" >
   <i type="int" name="MODEL_GW">     0</i>
   <i name="MODEL_EPS0">      6.10612115</i>
   <i name="MODEL_ALPHA">      1.00000000</i>
  </separator>
  <separator name="linear response parameters" >
   <i type="logical" name="LEPSILON"> F  </i>
   <i type="logical" name="LRPA"> F  </i>
   <i type="logical" name="LNABLA"> F  </i>
   <i type="logical" name="LVEL"> F  </i>
   <i name="CSHIFT">      0.10000000</i>
   <i name="OMEGAMAX">     -1.00000000</i>
   <i name="DEG_THRESHOLD">      0.00200000</i>
   <i name="RTIME">     -0.10000000</i>
   <i name="WPLASMAI">      0.00000000</i>
   <v name="DFIELD">      0.00000000      0.00000000      0.00000000</v>
   <v name="WPLASMA">      0.00000000      0.00000000      0.00000000      0.00000000      0.00000000      0.00000000      0.00000000      0.00000000      0.00000000</v>
  </separator>
  <separator name="orbital magnetization" >
   <i type="logical" name="NUCIND"> F  </i>
   <v name="MAGPOS">      0.00000000      0.00000000      0.00000000</v>
   <i type="logical" name="LNICSALL"> T  </i>
   <i type="logical" name="ORBITALMAG"> F  </i>
   <i type="logical" name="LMAGBLOCH"> F  </i>
   <i type="logical" name="LCHIMAG"> F  </i>
   <i type="logical" name="LGAUGE"> T  </i>
   <i type="int" name="MAGATOM">     0</i>
   <v name="MAGDIPOL">      0.00000000      0.00000000      0.00000000</v>
   <v name="AVECCONST">      0.00000000      0.00000000      0.00000000</v>
  </separator>
  <separator name="response functions" >
   <i type="logical" name="LFINITE_TEMPERATURE"> F  </i>
   <i type="logical" name="LADDER"> F  </i>
   <i type="logical" name="LRPAFORCE"> F  </i>
   <i type="logical" name="LFXC"> F  </i>
   <i type="logical" name="LHARTREE"> T  </i>
   <i type="int" name="IBSE">     0</i>
   <v type="int" name="KPOINT">    -1     0     0     0</v>
   <i type="logical" name="LTCTC"> F  </i>
   <i type="logical" name="LTCTE"> F  </i>
   <i type="logical" name="LTETE"> F  </i>
   <i type="logical" name="LTRIPLET"> F  </i>
   <i type="logical" name="LFXCEPS"> F  </i>
   <i type="logical" name="LFXHEG"> F  </i>
   <i type="int" name="NATURALO">     2</i>
   <i type="logical" name="LHOLEGF"> F  </i>
   <i type="logical" name="L2ORDER"> F  </i>
   <i type="logical" name="LDMP1"> F  </i>
   <i type="logical" name="LMP2LT"> F  </i>
   <i type="logical" name="LSMP2LT"> F  </i>
   <i type="logical" name="LGWLF"> F  </i>
   <i name="ENCUTGW">     -2.00000000</i>
   <i name="ENCUTGWSOFT">     -2.00000000</i>
   <i name="ENCUTLF">     -1.00000000</i>
   <i type="logical" name="LESF_SPLINES"> F  </i>
   <i type="int" name="LMAXMP2">    -1</i>
   <i name="SCISSOR">      0.00000000</i>
   <i type="int" name="NOMEGA">     0</i>
   <i type="int" name="NOMEGAR">     0</i>
   <i type="int" name="NBANDSGW">    -1</i>
   <i type="int" name="NBANDSO">    -1</i>
   <i type="int" name="NBANDSV">    -1</i>
   <i type="int" name="NELMGW">     1</i>
   <i type="int" name="NELMHF">     1</i>
   <i type="int" name="DIM">     3</i>
   <i type="int" name="IESPILON">     4</i>
   <i type="int" name="ANTIRES">     0</i>
   <i name="OMEGAMAX">    -30.00000000</i>
   <i name="OMEGAMIN">    -30.00000000</i>
   <i name="OMEGATL">   -200.00000000</i>
   <i type="int" name="OMEGAGRID">     0</i>
   <i name="CSHIFT">     -0.10000000</i>
   <i type="logical" name="LSELFENERGY"> F  </i>
   <i type="logical" name="LSPECTRAL"> F  </i>
   <i type="logical" name="LSPECTRALGW"> F  </i>
   <i type="logical" name="LSINGLES"> F  </i>
   <i type="logical" name="LFERMIGW"> F  </i>
   <i type="logical" name="ODDONLYGW"> F  </i>
   <i type="logical" name="EVENONLYGW"> F  </i>
   <i type="int" name="NKREDLFX">     1</i>
   <i type="int" name="NKREDLFY">     1</i>
   <i type="int" name="NKREDLFZ">     1</i>
   <i type="int" name="MAXMEM">  2800</i>
   <i type="int" name="TELESCOPE">     0</i>
   <i type="int" name="NTAUPAR">    -1</i>
   <i type="int" name="NOMEGAPAR">    -1</i>
   <i name="DAMP_NEWTON">      0.80000001</i>
   <i name="LAMBDA">      1.00000000</i>
  </separator>
  <separator name="External order field" >
   <i name="OFIELD_KAPPA">      0.00000000</i>
   <v name="OFIELD_K">      0.00000000      0.00000000      0.00000000</v>
   <i name="OFIELD_Q6_NEAR">      0.00000000</i>
   <i name="OFIELD_Q6_FAR">      0.00000000</i>
   <i name="OFIELD_A">      0.00000000</i>
  </separator>
  <separator name="optional k-points parameters" >
   <i type="int" name="KPOINTS_OPT_MODE">     1</i>
   <i type="logical" name="LKPOINTS_OPT"> F  </i>
  </separator>
 </parameters>
 <atominfo>
  <atoms>       2 </atoms>
  <types>       1 </types>
  <array name="atoms" >
   <dimension dim="1">ion</dimension>
   <field type="string">element</field>
   <field type="int">atomtype</field>
   <set>
    <rc><c>Co</c><c>   1</c></rc>
    <rc><c>Co</c><c>   1</c></rc>
   </set>
  </array>
  <array name="atomtypes" >
   <dimension dim="1">type</dimension>
   <field type="int">atomspertype</field>
   <field type="string">element</field>
   <field>mass</field>
   <field>valence</field>
   <field type="string">pseudopotential</field>
   <set>
    <rc><c>   2</c><c>Co</c><c>     58.93300000</c><c>      9.00000000</c><c>  PAW_PBE Co 02Aug2007                  </c></rc>
   </set>
  </array>
 </atominfo>
 <structure name="initialpos" >
  <crystal>
   <varray name="basis" >
    <v>       1.22121505      -2.11520651       0.00000000 </v>
    <v>       1.22121505       2.11520651       0.00000000 </v>
    <v>       0.00000000       0.00000000       3.93975526 </v>
   </varray>
   <i name="volume">     20.35373715 </i>
   <varray name="rec_basis" >
    <v>       0.40942830      -0.23638354       0.00000000 </v>
    <v>       0.40942830       0.23638354       0.00000000 </v>
    <v>       0.00000000       0.00000000       0.25382287 </v>
   </varray>
  </crystal>
  <varray name="positions" >
   <v>       0.33333333       0.66666667       0.25000000 </v>
   <v>       0.66666667       0.33333333       0.75000000 </v>
  </varray>
 </structure>
 <calculation>
  <scstep>
   <time name="dav">    0.71    0.71</time>
   <time name="total">    0.72    0.73</time>
   <energy>
    <i name="alphaZ">     83.24307341 </i>
    <i name="ewald">  -1554.46382146 </i>
    <i name="hartreedc">   -286.49855607 </i>
    <i name="XCdc">     36.05716560 </i>
    <i name="pawpsdc">   1439.98163886 </i>
    <i name="pawaedc">  -1545.88690193 </i>
    <i name="eentropy">     -0.00316809 </i>
    <i name="bandstr">    203.57077687 </i>
    <i name="atom">   1626.72322989 </i>
    <i name="e_fr_energy">      2.72343708 </i>
    <i name="e_wo_entrp">      2.72660517 </i>
    <i name="e_0_energy">      2.72502113 </i>
   </energy>
  </scstep>
  <scstep>
   <time name="dav">    0.95    0.96</time>
   <time name="total">    0.95    0.96</time>
   <energy>
    <i name="e_fr_energy">    -15.34559325 </i>
    <i name="e_wo_entrp">    -15.34355422 </i>
    <i name="e_0_energy">    -15.34457374 </i>
   </energy>
  </scstep>
  <scstep>
   <time name="dav">    1.19    1.20</time>
   <time name="total">    1.19    1.20</time>
   <energy>
    <i name="e_fr_energy">    -15.46108371 </i>
    <i name="e_wo_entrp">    -15.45905736 </i>
    <i name="e_0_energy">    -15.46007053 </i>
   </energy>
  </scstep>
  <scstep>
   <time name="dav">    1.33    1.34</time>
   <time name="total">    1.34    1.34</time>
   <energy>
    <i name="e_fr_energy">    -15.46165109 </i>
    <i name="e_wo_entrp">    -15.45962496 </i>
    <i name="e_0_energy">    -15.46063802 </i>
   </energy>
  </scstep>
  <scstep>
   <time name="dav">    1.33    1.33</time>
   <time name="total">    1.35    1.36</time>
   <energy>
    <i name="e_fr_energy">    -15.46165150 </i>
    <i name="e_wo_entrp">    -15.45962537 </i>
    <i name="e_0_energy">    -15.46063843 </i>
   </energy>
  </scstep>
  <scstep>
   <time name="dav">    1.89    1.90</time>
   <time name="total">    1.92    1.93</time>
   <energy>
    <i name="e_fr_energy">    -14.32262258 </i>
    <i name="e_wo_entrp">    -14.31990417 </i>
    <i name="e_0_energy">    -14.32126338 </i>
   </energy>
  </scstep>
  <scstep>
   <time name="dav">    1.87    1.88</time>
   <time name="total">    1.90    1.91</time>
   <energy>
    <i name="e_fr_energy">    -14.05350723 </i>
    <i name="e_wo_entrp">    -14.05107879 </i>
    <i name="e_0_energy">    -14.05229301 </i>
   </energy>
  </scstep>
  <scstep>
   <time name="dav">    2.00    2.01</time>
   <time name="total">    2.04    2.05</time>
   <energy>
    <i name="e_fr_energy">    -14.02239653 </i>
    <i name="e_wo_entrp">    -14.02005849 </i>
    <i name="e_0_energy">    -14.02122751 </i>
   </energy>
  </scstep>
  <scstep>
   <time name="dav">    2.14    2.15</time>
   <time name="total">    2.17    2.18</time>
   <energy>
    <i name="e_fr_energy">    -14.00892497 </i>
    <i name="e_wo_entrp">    -14.00655244 </i>
    <i name="e_0_energy">    -14.00773870 </i>
   </energy>
  </scstep>
  <scstep>
   <time name="dav">    2.07    2.08</time>
   <time name="total">    2.11    2.12</time>
   <energy>
    <i name="e_fr_energy">    -14.00782069 </i>
    <i name="e_wo_entrp">    -14.00545531 </i>
    <i name="e_0_energy">    -14.00663800 </i>
   </energy>
  </scstep>
  <scstep>
   <time name="dav">    1.48    1.49</time>
   <time name="total">    1.51    1.52</time>
   <energy>
    <i name="e_fr_energy">    -14.00782433 </i>
    <i name="e_wo_entrp">    -14.00543486 </i>
    <i name="e_0_energy">    -14.00662959 </i>
   </energy>
  </scstep>
  <scstep>
   <time name="dav">    1.41    1.42</time>
   <time name="total">    1.44    1.45</time>
   <energy>
    <i name="e_fr_energy">    -14.00782260 </i>
    <i name="e_wo_entrp">    -14.00542720 </i>
    <i name="e_0_energy">    -14.00662490 </i>
   </energy>
  </scstep>
  <scstep>
   <time name="dav">    2.05    2.06</time>
   <time name="total">    2.08    2.09</time>
   <energy>
    <i name="e_fr_energy">    -14.00782159 </i>
    <i name="e_wo_entrp">    -14.00542046 </i>
    <i name="e_0_energy">    -14.00662103 </i>
   </energy>
  </scstep>
  <scstep>
   <time name="dav">    0.56    0.56</time>
   <time name="total">    0.57    0.57</time>
   <energy>
    <i name="alphaZ">     83.24307341 </i>
    <i name="ewald">  -1554.46382146 </i>
    <i name="hartreedc">   -251.36667790 </i>
    <i name="XCdc">     33.16190754 </i>
    <i name="pawpsdc">   1881.85320514 </i>
    <i name="pawaedc">  -1988.41696201 </i>
    <i name="eentropy">     -0.00240050 </i>
    <i name="bandstr">    155.26062458 </i>
    <i name="atom">   1626.72322989 </i>
    <i name="e_fr_energy">    -14.00782132 </i>
    <i name="e_wo_entrp">    -14.00542082 </i>
    <i name="e_0_energy">    -14.00662107 </i>
   </energy>
  </scstep>
  <structure>
   <crystal>
    <varray name="basis" >
     <v>       1.22121505      -2.11520651       0.00000000 </v>
     <v>       1.22121505       2.11520651       0.00000000 </v>
     <v>       0.00000000       0.00000000       3.93975526 </v>
    </varray>
    <i name="volume">     20.35373715 </i>
    <varray name="rec_basis" >
     <v>       0.40942830      -0.23638354       0.00000000 </v>
     <v>       0.40942830       0.23638354       0.00000000 </v>
     <v>       0.00000000       0.00000000       0.25382287 </v>
    </varray>
   </crystal>
   <varray name="positions" >
    <v>       0.33333333       0.66666667       0.25000000 </v>
    <v>       0.66666667       0.33333333       0.75000000 </v>
   </varray>
  </structure>
  <varray name="forces" >
   <v>       0.00000000      -0.00000000       0.00000000 </v>
   <v>      -0.00000000       0.00000000      -0.00000000 </v>
  </varray>
  <varray name="stress" >
   <v>     144.77654504      -0.00000000       0.00000000 </v>
   <v>       0.00000000     144.77654504      -0.00000000 </v>
   <v>      -0.00000000       0.00000000     143.29586709 </v>
  </varray>
  <energy>
   <i name="e_fr_energy">    -14.00782132 </i>
   <i name="e_wo_entrp">    -14.00542082 </i>
   <i name="e_0_energy">    -14.00662107 </i>
  </energy>
  <time name="totalsc">   21.54   21.68</time>
  <eigenvalues>
   <array>
    <dimension dim="1">band</dimension>
    <dimension dim="2">kpoint</dimension>
    <dimension dim="3">spin</dimension>
    <field>eigene</field>
    <field>occ</field>
    <set>
     <set comment="spin 1">
      <set comment="kpoint 1">
       <r>    1.9056    1.0000 </r>
       <r>    5.7556    1.0000 </r>
       <r>    8.5018    1.0000 </r>
       <r>    8.5146    1.0000 </r>
       <r>    8.5146    1.0000 </r>
       <r>    8.8655    1.0000 </r>
       <r>    8.8655    1.0000 </r>
       <r>    9.2416    1.0000 </r>
       <r>    9.2416    1.0000 </r>
       <r>   10.4655    1.0000 </r>
       <r>   10.4655    1.0000 </r>
       <r>   11.1190    0.9739 </r>
       <r>   18.1769    0.0000 </r>
       <r>   33.6800    0.0000 </r>
       <r>   36.8821    0.0000 </r>
       <r>   36.8821    0.0000 </r>
       <r>   37.0011    0.0000 </r>
       <r>   37.4060    0.0000 </r>
       <r>   38.1689    0.0000 </r>
       <r>   38.1689    0.0000 </r>
       <r>   42.6112    0.0000 </r>
       <r>   42.6112    0.0000 </r>
       <r>   43.8889    0.0000 </r>
       <r>   44.0895    0.0000 </r>
      </set>
      <set comment="kpoint 2">
       <r>    2.1606    1.0000 </r>
       <r>    5.9099    1.0000 </r>
       <r>    8.2555    1.0000 </r>
       <r>    8.6390    1.0000 </r>
       <r>    8.7180    1.0000 </r>
       <r>    8.8147    1.0000 </r>
       <r>    8.9753    1.0000 </r>
       <r>    9.0719    1.0000 </r>
       <r>    9.1628    1.0000 </r>
       <r>    9.5968    1.0000 </r>
       <r>   10.4996    1.0000 </r>
       <r>   12.3239    0.0000 </r>
       <r>   18.2149    0.0000 </r>
       <r>   32.0280    0.0000 </r>
       <r>   34.4524    0.0000 </r>
       <r>   34.6362    0.0000 </r>
       <r>   37.4234    0.0000 </r>
       <r>   37.9902    0.0000 </r>
       <r>   39.3891    0.0000 </r>
       <r>   40.6260    0.0000 </r>
       <r>   41.3950    0.0000 </r>
       <r>   42.1462    0.0000 </r>
       <r>   43.4632    0.0000 </r>
       <r>   43.7431    0.0000 </r>
      </set>
      <set comment="kpoint 3">
       <r>    2.8961    1.0000 </r>
       <r>    6.2898    1.0000 </r>
       <r>    7.9513    1.0000 </r>
       <r>    8.2886    1.0000 </r>
       <r>    8.6259    1.0000 </r>
       <r>    8.9687    1.0000 </r>
       <r>    8.9902    1.0000 </r>
       <r>    9.0526    1.0000 </r>
       <r>    9.1992    1.0000 </r>
       <r>    9.2831    1.0000 </r>
       <r>   10.5723    1.0000 </r>
       <r>   14.0156    0.0000 </r>
       <r>   18.3496    0.0000 </r>
       <r>   28.2297    0.0000 </r>
       <r>   32.1327    0.0000 </r>
       <r>   33.4597    0.0000 </r>
       <r>   35.3937    0.0000 </r>
       <r>   37.5368    0.0000 </r>
       <r>   38.6887    0.0000 </r>
       <r>   41.0772    0.0000 </r>
       <r>   41.3789    0.0000 </r>
       <r>   42.3295    0.0000 </r>
       <r>   42.8041    0.0000 </r>
       <r>   44.6964    0.0000 </r>
      </set>
      <set comment="kpoint 4">
       <r>    4.0007    1.0000 </r>
       <r>    6.5870    1.0000 </r>
       <r>    7.4969    1.0000 </r>
       <r>    7.7680    1.0000 </r>
       <r>    8.5270    1.0000 </r>
       <r>    8.7361    1.0000 </r>
       <r>    8.9830    1.0000 </r>
       <r>    9.5000    1.0000 </r>
       <r>    9.5218    1.0000 </r>
       <r>    9.7263    1.0000 </r>
       <r>   10.6411    1.0000 </r>
       <r>   15.9070    0.0000 </r>
       <r>   18.6065    0.0000 </r>
       <r>   24.4542    0.0000 </r>
       <r>   29.9535    0.0000 </r>
       <r>   31.9920    0.0000 </r>
       <r>   32.2760    0.0000 </r>
       <r>   36.5387    0.0000 </r>
       <r>   36.6556    0.0000 </r>
       <r>   40.7504    0.0000 </r>
       <r>   40.8641    0.0000 </r>
       <r>   41.5349    0.0000 </r>
       <r>   42.8483    0.0000 </r>
       <r>   45.7300    0.0000 </r>
      </set>
      <set comment="kpoint 5">
       <r>    5.1833    1.0000 </r>
       <r>    6.5045    1.0000 </r>
       <r>    6.9182    1.0000 </r>
       <r>    7.8941    1.0000 </r>
       <r>    8.5268    1.0000 </r>
       <r>    8.6630    1.0000 </r>
       <r>    8.7915    1.0000 </r>
       <r>   10.0441    1.0000 </r>
       <r>   10.2073    1.0000 </r>
       <r>   10.2698    1.0000 </r>
       <r>   10.6885    1.0000 </r>
       <r>   17.9547    0.0000 </r>
       <r>   18.5890    0.0000 </r>
       <r>   21.5678    0.0000 </r>
       <r>   28.2165    0.0000 </r>
       <r>   28.8683    0.0000 </r>
       <r>   30.0672    0.0000 </r>
       <r>   35.0895    0.0000 </r>
       <r>   35.3838    0.0000 </r>
       <r>   38.9878    0.0000 </r>
       <r>   40.3200    0.0000 </r>
       <r>   42.4047    0.0000 </r>
       <r>   44.6741    0.0000 </r>
       <r>   46.5934    0.0000 </r>
      </set>
      <set comment="kpoint 6">
       <r>    5.9260    1.0000 </r>
       <r>    6.3055    1.0000 </r>
       <r>    6.5697    1.0000 </r>
       <r>    8.2950    1.0000 </r>
       <r>    8.3841    1.0000 </r>
       <r>    8.6567    1.0000 </r>
       <r>    8.8840    1.0000 </r>
       <r>   10.4519    1.0000 </r>
       <r>   10.6058    1.0000 </r>
       <r>   10.7137    1.0000 </r>
       <r>   11.4684    0.0000 </r>
       <r>   16.6255    0.0000 </r>
       <r>   20.0594    0.0000 </r>
       <r>   21.4654    0.0000 </r>
       <r>   26.1336    0.0000 </r>
       <r>   27.0689    0.0000 </r>
       <r>   27.4498    0.0000 </r>
       <r>   34.5429    0.0000 </r>
       <r>   34.5801    0.0000 </r>
       <r>   37.7568    0.0000 </r>
       <r>   40.0746    0.0000 </r>
       <r>   42.9591    0.0000 </r>
       <r>   46.9571    0.0000 </r>
       <r>   47.1870    0.0000 </r>
      </set>
      <set comment="kpoint 7">
       <r>    6.1300    1.0000 </r>
       <r>    6.2023    1.0000 </r>
       <r>    6.4537    1.0000 </r>
       <r>    8.3336    1.0000 </r>
       <r>    8.5612    1.0000 </r>
       <r>    8.6080    1.0000 </r>
       <r>    8.9682    1.0000 </r>
       <r>   10.5995    1.0000 </r>
       <r>   10.7214    1.0000 </r>
       <r>   10.7674    1.0000 </r>
       <r>   12.6806    0.0000 </r>
       <r>   14.8440    0.0000 </r>
       <r>   21.4291    0.0000 </r>
       <r>   22.1610    0.0000 </r>
       <r>   24.5573    0.0000 </r>
       <r>   26.0325    0.0000 </r>
       <r>   26.6633    0.0000 </r>
       <r>   34.2991    0.0000 </r>
       <r>   34.4117    0.0000 </r>
       <r>   37.3274    0.0000 </r>
       <r>   39.9948    0.0000 </r>
       <r>   43.1615    0.0000 </r>
       <r>   47.0662    0.0000 </r>
       <r>   47.7726    0.0000 </r>
      </set>
      <set comment="kpoint 8">
       <r>    2.6569    1.0000 </r>
       <r>    6.1835    1.0000 </r>
       <r>    8.0158    1.0000 </r>
       <r>    8.5570    1.0000 </r>
       <r>    8.6991    1.0000 </r>
       <r>    8.8904    1.0000 </r>
       <r>    8.8931    1.0000 </r>
       <r>    8.9385    1.0000 </r>
       <r>    9.2180    1.0000 </r>
       <r>    9.3298    1.0000 </r>
       <r>   10.5421    1.0000 </r>
       <r>   13.5431    0.0000 </r>
       <r>   18.3035    0.0000 </r>
       <r>   29.9465    0.0000 </r>
       <r>   30.8434    0.0000 </r>
       <r>   36.0699    0.0000 </r>
       <r>   36.8927    0.0000 </r>
       <r>   37.0454    0.0000 </r>
       <r>   37.2932    0.0000 </r>
       <r>   40.6692    0.0000 </r>
       <r>   41.8683    0.0000 </r>
       <r>   42.4712    0.0000 </r>
       <r>   44.3350    0.0000 </r>
       <r>   44.8305    0.0000 </r>
      </set>
      <set comment="kpoint 9">
       <r>    3.5869    1.0000 </r>
       <r>    6.5710    1.0000 </r>
       <r>    7.7150    1.0000 </r>
       <r>    7.7889    1.0000 </r>
       <r>    8.5689    1.0000 </r>
       <r>    8.6922    1.0000 </r>
       <r>    9.1633    1.0000 </r>
       <r>    9.1695    1.0000 </r>
       <r>    9.3567    1.0000 </r>
       <r>    9.6734    1.0000 </r>
       <r>   10.5947    1.0000 </r>
       <r>   15.2265    0.0000 </r>
       <r>   18.5233    0.0000 </r>
       <r>   26.3780    0.0000 </r>
       <r>   28.6763    0.0000 </r>
       <r>   33.6909    0.0000 </r>
       <r>   34.8170    0.0000 </r>
       <r>   35.8151    0.0000 </r>
       <r>   37.6147    0.0000 </r>
       <r>   39.2956    0.0000 </r>
       <r>   40.7863    0.0000 </r>
       <r>   43.1108    0.0000 </r>
       <r>   44.4396    0.0000 </r>
       <r>   44.9194    0.0000 </r>
      </set>
      <set comment="kpoint 10">
       <r>    4.7722    1.0000 </r>
       <r>    6.6884    1.0000 </r>
       <r>    7.1559    1.0000 </r>
       <r>    7.6398    1.0000 </r>
       <r>    8.4862    1.0000 </r>
       <r>    8.5842    1.0000 </r>
       <r>    8.9505    1.0000 </r>
       <r>    9.6093    1.0000 </r>
       <r>    9.9071    1.0000 </r>
       <r>   10.2919    1.0000 </r>
       <r>   10.6390    1.0000 </r>
       <r>   17.1549    0.0000 </r>
       <r>   18.8396    0.0000 </r>
       <r>   22.8668    0.0000 </r>
       <r>   27.0679    0.0000 </r>
       <r>   30.4962    0.0000 </r>
       <r>   32.1489    0.0000 </r>
       <r>   34.5173    0.0000 </r>
       <r>   37.0501    0.0000 </r>
       <r>   37.5200    0.0000 </r>
       <r>   41.4315    0.0000 </r>
       <r>   44.3491    0.0000 </r>
       <r>   44.6169    0.0000 </r>
       <r>   45.5712    0.0000 </r>
      </set>
      <set comment="kpoint 11">
       <r>    5.7847    1.0000 </r>
       <r>    6.4963    1.0000 </r>
       <r>    6.7243    1.0000 </r>
       <r>    7.9017    1.0000 </r>
       <r>    8.3533    1.0000 </r>
       <r>    8.7402    1.0000 </r>
       <r>    8.7942    1.0000 </r>
       <r>   10.1605    1.0000 </r>
       <r>   10.3783    1.0000 </r>
       <r>   10.6665    1.0000 </r>
       <r>   11.1592    0.7894 </r>
       <r>   18.0206    0.0000 </r>
       <r>   19.2384    0.0000 </r>
       <r>   21.2460    0.0000 </r>
       <r>   25.8084    0.0000 </r>
       <r>   27.5689    0.0000 </r>
       <r>   29.1603    0.0000 </r>
       <r>   33.5545    0.0000 </r>
       <r>   36.3298    0.0000 </r>
       <r>   36.4708    0.0000 </r>
       <r>   41.5331    0.0000 </r>
       <r>   44.6701    0.0000 </r>
       <r>   46.2977    0.0000 </r>
       <r>   46.8412    0.0000 </r>
      </set>
      <set comment="kpoint 12">
       <r>    6.2006    1.0000 </r>
       <r>    6.3382    1.0000 </r>
       <r>    6.5073    1.0000 </r>
       <r>    8.3006    1.0000 </r>
       <r>    8.3015    1.0000 </r>
       <r>    8.6008    1.0000 </r>
       <r>    8.9639    1.0000 </r>
       <r>   10.5555    1.0000 </r>
       <r>   10.6340    1.0000 </r>
       <r>   10.6787    1.0000 </r>
       <r>   12.5097    0.0000 </r>
       <r>   15.6339    0.0000 </r>
       <r>   21.2253    0.0000 </r>
       <r>   22.0738    0.0000 </r>
       <r>   24.9748    0.0000 </r>
       <r>   25.1662    0.0000 </r>
       <r>   26.8909    0.0000 </r>
       <r>   33.0505    0.0000 </r>
       <r>   35.7155    0.0000 </r>
       <r>   36.1579    0.0000 </r>
       <r>   41.4517    0.0000 </r>
       <r>   44.8985    0.0000 </r>
       <r>   47.1037    0.0000 </r>
       <r>   47.8506    0.0000 </r>
      </set>
      <set comment="kpoint 13">
       <r>    4.6277    1.0000 </r>
       <r>    6.8856    1.0000 </r>
       <r>    7.2810    1.0000 </r>
       <r>    7.3921    1.0000 </r>
       <r>    8.4092    1.0000 </r>
       <r>    8.5805    1.0000 </r>
       <r>    9.0528    1.0000 </r>
       <r>    9.3525    1.0000 </r>
       <r>    9.8939    1.0000 </r>
       <r>   10.3148    1.0000 </r>
       <r>   10.5965    1.0000 </r>
       <r>   16.8846    0.0000 </r>
       <r>   18.8997    0.0000 </r>
       <r>   24.5510    0.0000 </r>
       <r>   25.1315    0.0000 </r>
       <r>   31.9602    0.0000 </r>
       <r>   33.0300    0.0000 </r>
       <r>   34.2570    0.0000 </r>
       <r>   35.0835    0.0000 </r>
       <r>   39.9383    0.0000 </r>
       <r>   41.7968    0.0000 </r>
       <r>   42.7316    0.0000 </r>
       <r>   46.0957    0.0000 </r>
       <r>   47.3942    0.0000 </r>
      </set>
      <set comment="kpoint 14">
       <r>    5.7520    1.0000 </r>
       <r>    6.8616    1.0000 </r>
       <r>    6.8782    1.0000 </r>
       <r>    7.3693    1.0000 </r>
       <r>    8.2395    1.0000 </r>
       <r>    8.7383    1.0000 </r>
       <r>    8.8433    1.0000 </r>
       <r>    9.6895    1.0000 </r>
       <r>   10.3790    1.0000 </r>
       <r>   10.5941    1.0000 </r>
       <r>   11.1866    0.5113 </r>
       <r>   18.8277    0.0000 </r>
       <r>   19.2216    0.0000 </r>
       <r>   21.7084    0.0000 </r>
       <r>   23.6313    0.0000 </r>
       <r>   29.3452    0.0000 </r>
       <r>   31.1899    0.0000 </r>
       <r>   31.5211    0.0000 </r>
       <r>   33.7861    0.0000 </r>
       <r>   40.1057    0.0000 </r>
       <r>   43.1783    0.0000 </r>
       <r>   44.9487    0.0000 </r>
       <r>   46.6954    0.0000 </r>
       <r>   47.3839    0.0000 </r>
      </set>
      <set comment="kpoint 15">
       <r>    6.4302    1.0000 </r>
       <r>    6.6274    1.0000 </r>
       <r>    6.6450    1.0000 </r>
       <r>    7.7207    1.0000 </r>
       <r>    8.1937    1.0000 </r>
       <r>    8.6160    1.0000 </r>
       <r>    8.9581    1.0000 </r>
       <r>   10.1355    1.0000 </r>
       <r>   10.5912    1.0000 </r>
       <r>   10.6210    1.0000 </r>
       <r>   12.4396    0.0000 </r>
       <r>   17.3510    0.0000 </r>
       <r>   20.9260    0.0000 </r>
       <r>   21.6140    0.0000 </r>
       <r>   22.8389    0.0000 </r>
       <r>   26.6371    0.0000 </r>
       <r>   28.2537    0.0000 </r>
       <r>   30.8127    0.0000 </r>
       <r>   33.0109    0.0000 </r>
       <r>   39.7695    0.0000 </r>
       <r>   44.0167    0.0000 </r>
       <r>   46.7418    0.0000 </r>
       <r>   47.5749    0.0000 </r>
       <r>   48.0699    0.0000 </r>
      </set>
      <set comment="kpoint 16">
       <r>    6.5344    1.0000 </r>
       <r>    6.5428    1.0000 </r>
       <r>    6.5973    1.0000 </r>
       <r>    7.9616    1.0000 </r>
       <r>    8.2129    1.0000 </r>
       <r>    8.4975    1.0000 </r>
       <r>    9.0521    1.0000 </r>
       <r>   10.4378    1.0000 </r>
       <r>   10.5897    1.0000 </r>
       <r>   10.5976    1.0000 </r>
       <r>   13.7461    0.0000 </r>
       <r>   15.4569    0.0000 </r>
       <r>   22.0796    0.0000 </r>
       <r>   22.4169    0.0000 </r>
       <r>   22.8672    0.0000 </r>
       <r>   24.9369    0.0000 </r>
       <r>   26.7633    0.0000 </r>
       <r>   30.5829    0.0000 </r>
       <r>   32.7333    0.0000 </r>
       <r>   39.6346    0.0000 </r>
       <r>   44.1940    0.0000 </r>
       <r>   47.2235    0.0000 </r>
       <r>   47.5022    0.0000 </r>
       <r>   48.2798    0.0000 </r>
      </set>
      <set comment="kpoint 17">
       <r>    6.5871    1.0000 </r>
       <r>    6.6963    1.0000 </r>
       <r>    7.0826    1.0000 </r>
       <r>    7.1324    1.0000 </r>
       <r>    8.1233    1.0000 </r>
       <r>    8.6332    1.0000 </r>
       <r>    8.9647    1.0000 </r>
       <r>    9.8864    1.0000 </r>
       <r>   10.5462    1.0000 </r>
       <r>   10.6275    1.0000 </r>
       <r>   12.4519    0.0000 </r>
       <r>   19.1849    0.0000 </r>
       <r>   19.9447    0.0000 </r>
       <r>   20.8080    0.0000 </r>
       <r>   22.3209    0.0000 </r>
       <r>   28.5447    0.0000 </r>
       <r>   28.6297    0.0000 </r>
       <r>   29.9216    0.0000 </r>
       <r>   30.8646    0.0000 </r>
       <r>   43.1097    0.0000 </r>
       <r>   45.0257    0.0000 </r>
       <r>   45.2366    0.0000 </r>
       <r>   47.3777    0.0000 </r>
       <r>   48.2429    0.0000 </r>
      </set>
      <set comment="kpoint 18">
       <r>    6.6088    1.0000 </r>
       <r>    6.8555    1.0000 </r>
       <r>    6.9382    1.0000 </r>
       <r>    7.4848    1.0000 </r>
       <r>    8.1452    1.0000 </r>
       <r>    8.4153    1.0000 </r>
       <r>    9.1475    1.0000 </r>
       <r>   10.1872    1.0000 </r>
       <r>   10.5179    1.0000 </r>
       <r>   10.5673    1.0000 </r>
       <r>   14.1843    0.0000 </r>
       <r>   16.8860    0.0000 </r>
       <r>   19.2828    0.0000 </r>
       <r>   22.9200    0.0000 </r>
       <r>   23.3478    0.0000 </r>
       <r>   26.0203    0.0000 </r>
       <r>   27.7203    0.0000 </r>
       <r>   28.1893    0.0000 </r>
       <r>   30.0395    0.0000 </r>
       <r>   43.5643    0.0000 </r>
       <r>   46.8823    0.0000 </r>
       <r>   46.9985    0.0000 </r>
       <r>   47.6379    0.0000 </r>
       <r>   48.5777    0.0000 </r>
      </set>
      <set comment="kpoint 19">
       <r>    6.6135    1.0000 </r>
       <r>    7.0578    1.0000 </r>
       <r>    7.0578    1.0000 </r>
       <r>    7.3454    1.0000 </r>
       <r>    8.2296    1.0000 </r>
       <r>    8.2296    1.0000 </r>
       <r>    9.2546    1.0000 </r>
       <r>   10.3469    1.0000 </r>
       <r>   10.3470    1.0000 </r>
       <r>   10.4888    1.0000 </r>
       <r>   15.9526    0.0000 </r>
       <r>   16.9000    0.0000 </r>
       <r>   16.9000    0.0000 </r>
       <r>   24.2016    0.0000 </r>
       <r>   24.9946    0.0000 </r>
       <r>   24.9946    0.0000 </r>
       <r>   26.7253    0.0000 </r>
       <r>   28.0648    0.0000 </r>
       <r>   28.0648    0.0000 </r>
       <r>   45.9677    0.0000 </r>
       <r>   47.3931    0.0000 </r>
       <r>   47.3931    0.0000 </r>
       <r>   49.1457    0.0000 </r>
       <r>   49.1457    0.0000 </r>
      </set>
      <set comment="kpoint 20">
       <r>    2.0719    1.0000 </r>
       <r>    5.7297    1.0000 </r>
       <r>    8.4562    1.0000 </r>
       <r>    8.4676    1.0000 </r>
       <r>    8.4676    1.0000 </r>
       <r>    8.8172    1.0000 </r>
       <r>    8.8172    1.0000 </r>
       <r>    9.3510    1.0000 </r>
       <r>    9.3510    1.0000 </r>
       <r>   10.4573    1.0000 </r>
       <r>   10.4573    1.0000 </r>
       <r>   10.4982    1.0000 </r>
       <r>   19.1121    0.0000 </r>
       <r>   33.6037    0.0000 </r>
       <r>   36.2520    0.0000 </r>
       <r>   36.6543    0.0000 </r>
       <r>   37.0247    0.0000 </r>
       <r>   37.0247    0.0000 </r>
       <r>   38.2159    0.0000 </r>
       <r>   38.2159    0.0000 </r>
       <r>   42.2641    0.0000 </r>
       <r>   42.2641    0.0000 </r>
       <r>   44.1764    0.0000 </r>
       <r>   44.4853    0.0000 </r>
      </set>
      <set comment="kpoint 21">
       <r>    2.3242    1.0000 </r>
       <r>    5.8926    1.0000 </r>
       <r>    8.2527    1.0000 </r>
       <r>    8.5784    1.0000 </r>
       <r>    8.5949    1.0000 </r>
       <r>    8.6945    1.0000 </r>
       <r>    8.9214    1.0000 </r>
       <r>    9.2133    1.0000 </r>
       <r>    9.2941    1.0000 </r>
       <r>    9.5097    1.0000 </r>
       <r>   10.4865    1.0000 </r>
       <r>   11.7972    0.0000 </r>
       <r>   19.1999    0.0000 </r>
       <r>   32.0939    0.0000 </r>
       <r>   34.4112    0.0000 </r>
       <r>   34.7916    0.0000 </r>
       <r>   36.2657    0.0000 </r>
       <r>   37.2981    0.0000 </r>
       <r>   39.4511    0.0000 </r>
       <r>   40.5376    0.0000 </r>
       <r>   41.5990    0.0000 </r>
       <r>   41.9227    0.0000 </r>
       <r>   42.5574    0.0000 </r>
       <r>   44.5784    0.0000 </r>
      </set>
      <set comment="kpoint 22">
       <r>    3.0493    1.0000 </r>
       <r>    6.2986    1.0000 </r>
       <r>    7.9697    1.0000 </r>
       <r>    8.1128    1.0000 </r>
       <r>    8.5623    1.0000 </r>
       <r>    8.8141    1.0000 </r>
       <r>    8.9557    1.0000 </r>
       <r>    9.1570    1.0000 </r>
       <r>    9.2927    1.0000 </r>
       <r>    9.3790    1.0000 </r>
       <r>   10.5483    1.0000 </r>
       <r>   13.2503    0.0000 </r>
       <r>   19.4958    0.0000 </r>
       <r>   28.3604    0.0000 </r>
       <r>   32.3207    0.0000 </r>
       <r>   33.1535    0.0000 </r>
       <r>   35.0396    0.0000 </r>
       <r>   36.4359    0.0000 </r>
       <r>   39.0841    0.0000 </r>
       <r>   40.0874    0.0000 </r>
       <r>   40.9921    0.0000 </r>
       <r>   42.0446    0.0000 </r>
       <r>   43.2793    0.0000 </r>
       <r>   45.7939    0.0000 </r>
      </set>
      <set comment="kpoint 23">
       <r>    4.1260    1.0000 </r>
       <r>    6.6254    1.0000 </r>
       <r>    7.4058    1.0000 </r>
       <r>    7.8024    1.0000 </r>
       <r>    8.4195    1.0000 </r>
       <r>    8.7585    1.0000 </r>
       <r>    8.9960    1.0000 </r>
       <r>    9.5379    1.0000 </r>
       <r>    9.5955    1.0000 </r>
       <r>    9.6889    1.0000 </r>
       <r>   10.6065    1.0000 </r>
       <r>   14.7535    0.0000 </r>
       <r>   20.0564    0.0000 </r>
       <r>   24.6026    0.0000 </r>
       <r>   30.1699    0.0000 </r>
       <r>   30.6829    0.0000 </r>
       <r>   33.1832    0.0000 </r>
       <r>   35.9899    0.0000 </r>
       <r>   37.1570    0.0000 </r>
       <r>   38.6851    0.0000 </r>
       <r>   40.5353    0.0000 </r>
       <r>   42.5820    0.0000 </r>
       <r>   42.8964    0.0000 </r>
       <r>   47.2030    0.0000 </r>
      </set>
      <set comment="kpoint 24">
       <r>    5.2338    1.0000 </r>
       <r>    6.5353    1.0000 </r>
       <r>    6.9489    1.0000 </r>
       <r>    7.7851    1.0000 </r>
       <r>    8.5843    1.0000 </r>
       <r>    8.5855    1.0000 </r>
       <r>    9.0439    1.0000 </r>
       <r>   10.0629    1.0000 </r>
       <r>   10.1457    1.0000 </r>
       <r>   10.2264    1.0000 </r>
       <r>   10.6510    1.0000 </r>
       <r>   16.1507    0.0000 </r>
       <r>   20.3051    0.0000 </r>
       <r>   21.9890    0.0000 </r>
       <r>   27.6671    0.0000 </r>
       <r>   28.4566    0.0000 </r>
       <r>   31.2802    0.0000 </r>
       <r>   35.0979    0.0000 </r>
       <r>   35.3339    0.0000 </r>
       <r>   37.3544    0.0000 </r>
       <r>   41.4408    0.0000 </r>
       <r>   42.0211    0.0000 </r>
       <r>   43.7578    0.0000 </r>
       <r>   47.6862    0.0000 </r>
      </set>
      <set comment="kpoint 25">
       <r>    5.8349    1.0000 </r>
       <r>    6.2891    1.0000 </r>
       <r>    6.8156    1.0000 </r>
       <r>    7.8028    1.0000 </r>
       <r>    8.4547    1.0000 </r>
       <r>    8.8746    1.0000 </r>
       <r>    9.2751    1.0000 </r>
       <r>   10.4446    1.0000 </r>
       <r>   10.5212    1.0000 </r>
       <r>   10.7028    1.0000 </r>
       <r>   11.3692    0.0000 </r>
       <r>   16.1498    0.0000 </r>
       <r>   19.5099    0.0000 </r>
       <r>   22.3101    0.0000 </r>
       <r>   25.4717    0.0000 </r>
       <r>   27.3264    0.0000 </r>
       <r>   28.7615    0.0000 </r>
       <r>   34.4357    0.0000 </r>
       <r>   34.6266    0.0000 </r>
       <r>   36.3925    0.0000 </r>
       <r>   41.5308    0.0000 </r>
       <r>   42.6947    0.0000 </r>
       <r>   44.4962    0.0000 </r>
       <r>   47.5979    0.0000 </r>
      </set>
      <set comment="kpoint 26">
       <r>    5.9562    1.0000 </r>
       <r>    6.1665    1.0000 </r>
       <r>    6.8122    1.0000 </r>
       <r>    7.8281    1.0000 </r>
       <r>    8.4081    1.0000 </r>
       <r>    8.9660    1.0000 </r>
       <r>    9.4569    1.0000 </r>
       <r>   10.5461    1.0000 </r>
       <r>   10.6691    1.0000 </r>
       <r>   10.7625    1.0000 </r>
       <r>   12.5474    0.0000 </r>
       <r>   14.7353    0.0000 </r>
       <r>   20.8659    0.0000 </r>
       <r>   21.2642    0.0000 </r>
       <r>   25.7603    0.0000 </r>
       <r>   26.9232    0.0000 </r>
       <r>   26.9272    0.0000 </r>
       <r>   34.1865    0.0000 </r>
       <r>   34.4677    0.0000 </r>
       <r>   36.0425    0.0000 </r>
       <r>   41.3780    0.0000 </r>
       <r>   43.3960    0.0000 </r>
       <r>   44.6836    0.0000 </r>
       <r>   47.3238    0.0000 </r>
      </set>
      <set comment="kpoint 27">
       <r>    2.8140    1.0000 </r>
       <r>    6.1840    1.0000 </r>
       <r>    8.0310    1.0000 </r>
       <r>    8.3150    1.0000 </r>
       <r>    8.6400    1.0000 </r>
       <r>    8.7547    1.0000 </r>
       <r>    8.8932    1.0000 </r>
       <r>    9.0797    1.0000 </r>
       <r>    9.2966    1.0000 </r>
       <r>    9.3971    1.0000 </r>
       <r>   10.5234    1.0000 </r>
       <r>   12.8555    0.0000 </r>
       <r>   19.3938    0.0000 </r>
       <r>   30.0533    0.0000 </r>
       <r>   30.9872    0.0000 </r>
       <r>   35.4735    0.0000 </r>
       <r>   35.5982    0.0000 </r>
       <r>   36.8346    0.0000 </r>
       <r>   38.3344    0.0000 </r>
       <r>   39.1488    0.0000 </r>
       <r>   42.2416    0.0000 </r>
       <r>   42.9172    0.0000 </r>
       <r>   44.1781    0.0000 </r>
       <r>   44.4092    0.0000 </r>
      </set>
      <set comment="kpoint 28">
       <r>    3.7262    1.0000 </r>
       <r>    6.6050    1.0000 </r>
       <r>    7.6482    1.0000 </r>
       <r>    7.7514    1.0000 </r>
       <r>    8.4926    1.0000 </r>
       <r>    8.7116    1.0000 </r>
       <r>    9.0073    1.0000 </r>
       <r>    9.2600    1.0000 </r>
       <r>    9.5080    1.0000 </r>
       <r>    9.6545    1.0000 </r>
       <r>   10.5715    1.0000 </r>
       <r>   14.2354    0.0000 </r>
       <r>   19.8451    0.0000 </r>
       <r>   26.5207    0.0000 </r>
       <r>   28.8310    0.0000 </r>
       <r>   32.5980    0.0000 </r>
       <r>   34.7680    0.0000 </r>
       <r>   35.7588    0.0000 </r>
       <r>   38.3008    0.0000 </r>
       <r>   38.9093    0.0000 </r>
       <r>   40.0875    0.0000 </r>
       <r>   42.2424    0.0000 </r>
       <r>   44.9154    0.0000 </r>
       <r>   45.7603    0.0000 </r>
      </set>
      <set comment="kpoint 29">
       <r>    4.8656    1.0000 </r>
       <r>    6.7391    1.0000 </r>
       <r>    7.0983    1.0000 </r>
       <r>    7.6698    1.0000 </r>
       <r>    8.3871    1.0000 </r>
       <r>    8.6888    1.0000 </r>
       <r>    8.9379    1.0000 </r>
       <r>    9.6201    1.0000 </r>
       <r>    9.9667    1.0000 </r>
       <r>   10.2040    1.0000 </r>
       <r>   10.6431    1.0000 </r>
       <r>   15.6890    0.0000 </r>
       <r>   20.5308    0.0000 </r>
       <r>   23.0421    0.0000 </r>
       <r>   27.2326    0.0000 </r>
       <r>   29.3984    0.0000 </r>
       <r>   33.2388    0.0000 </r>
       <r>   33.7705    0.0000 </r>
       <r>   37.2930    0.0000 </r>
       <r>   38.2002    0.0000 </r>
       <r>   39.8949    0.0000 </r>
       <r>   42.8388    0.0000 </r>
       <r>   45.6144    0.0000 </r>
       <r>   46.7517    0.0000 </r>
      </set>
      <set comment="kpoint 30">
       <r>    5.7626    1.0000 </r>
       <r>    6.5152    1.0000 </r>
       <r>    6.8457    1.0000 </r>
       <r>    7.7091    1.0000 </r>
       <r>    8.4224    1.0000 </r>
       <r>    8.7827    1.0000 </r>
       <r>    8.9864    1.0000 </r>
       <r>   10.1293    1.0000 </r>
       <r>   10.4170    1.0000 </r>
       <r>   10.5419    1.0000 </r>
       <r>   11.1635    0.7530 </r>
       <r>   16.7574    0.0000 </r>
       <r>   19.7313    0.0000 </r>
       <r>   22.2308    0.0000 </r>
       <r>   25.8608    0.0000 </r>
       <r>   26.7099    0.0000 </r>
       <r>   30.4653    0.0000 </r>
       <r>   32.7997    0.0000 </r>
       <r>   36.5413    0.0000 </r>
       <r>   36.9770    0.0000 </r>
       <r>   40.6725    0.0000 </r>
       <r>   43.5307    0.0000 </r>
       <r>   45.9499    0.0000 </r>
       <r>   47.7030    0.0000 </r>
      </set>
      <set comment="kpoint 31">
       <r>    6.0348    1.0000 </r>
       <r>    6.3113    1.0000 </r>
       <r>    6.8540    1.0000 </r>
       <r>    7.7717    1.0000 </r>
       <r>    8.3407    1.0000 </r>
       <r>    8.9869    1.0000 </r>
       <r>    9.1738    1.0000 </r>
       <r>   10.4964    1.0000 </r>
       <r>   10.6117    1.0000 </r>
       <r>   10.6537    1.0000 </r>
       <r>   12.4625    0.0000 </r>
       <r>   15.4779    0.0000 </r>
       <r>   20.2903    0.0000 </r>
       <r>   22.1326    0.0000 </r>
       <r>   25.1019    0.0000 </r>
       <r>   25.7778    0.0000 </r>
       <r>   27.9466    0.0000 </r>
       <r>   32.3068    0.0000 </r>
       <r>   36.2264    0.0000 </r>
       <r>   36.2966    0.0000 </r>
       <r>   41.0155    0.0000 </r>
       <r>   44.4995    0.0000 </r>
       <r>   45.8042    0.0000 </r>
       <r>   47.5030    0.0000 </r>
      </set>
      <set comment="kpoint 32">
       <r>    4.7355    1.0000 </r>
       <r>    6.9445    1.0000 </r>
       <r>    7.2025    1.0000 </r>
       <r>    7.4250    1.0000 </r>
       <r>    8.3974    1.0000 </r>
       <r>    8.5877    1.0000 </r>
       <r>    8.9650    1.0000 </r>
       <r>    9.3992    1.0000 </r>
       <r>    9.9760    1.0000 </r>
       <r>   10.2030    1.0000 </r>
       <r>   10.6376    1.0000 </r>
       <r>   15.5261    0.0000 </r>
       <r>   20.5264    0.0000 </r>
       <r>   24.6999    0.0000 </r>
       <r>   25.3067    0.0000 </r>
       <r>   30.9612    0.0000 </r>
       <r>   31.9301    0.0000 </r>
       <r>   35.4753    0.0000 </r>
       <r>   36.1772    0.0000 </r>
       <r>   39.5198    0.0000 </r>
       <r>   40.4697    0.0000 </r>
       <r>   42.6967    0.0000 </r>
       <r>   46.2489    0.0000 </r>
       <r>   46.4852    0.0000 </r>
      </set>
      <set comment="kpoint 33">
       <r>    5.7901    1.0000 </r>
       <r>    6.8323    1.0000 </r>
       <r>    6.9359    1.0000 </r>
       <r>    7.4178    1.0000 </r>
       <r>    8.2859    1.0000 </r>
       <r>    8.7482    1.0000 </r>
       <r>    8.7846    1.0000 </r>
       <r>    9.7055    1.0000 </r>
       <r>   10.4388    1.0000 </r>
       <r>   10.4441    1.0000 </r>
       <r>   11.2513    0.0358 </r>
       <r>   16.9237    0.0000 </r>
       <r>   20.9706    0.0000 </r>
       <r>   22.1966    0.0000 </r>
       <r>   23.8177    0.0000 </r>
       <r>   28.2387    0.0000 </r>
       <r>   30.4608    0.0000 </r>
       <r>   32.5310    0.0000 </r>
       <r>   35.0139    0.0000 </r>
       <r>   40.0565    0.0000 </r>
       <r>   41.4246    0.0000 </r>
       <r>   44.5593    0.0000 </r>
       <r>   46.2997    0.0000 </r>
       <r>   47.9036    0.0000 </r>
      </set>
      <set comment="kpoint 34">
       <r>    6.2796    1.0000 </r>
       <r>    6.6818    1.0000 </r>
       <r>    6.8623    1.0000 </r>
       <r>    7.5653    1.0000 </r>
       <r>    8.2546    1.0000 </r>
       <r>    8.7017    1.0000 </r>
       <r>    8.9958    1.0000 </r>
       <r>   10.1274    1.0000 </r>
       <r>   10.4578    1.0000 </r>
       <r>   10.6638    1.0000 </r>
       <r>   12.4899    0.0000 </r>
       <r>   17.0374    0.0000 </r>
       <r>   19.9321    0.0000 </r>
       <r>   22.6842    0.0000 </r>
       <r>   23.1163    0.0000 </r>
       <r>   25.9997    0.0000 </r>
       <r>   29.5659    0.0000 </r>
       <r>   29.7933    0.0000 </r>
       <r>   34.2898    0.0000 </r>
       <r>   39.8124    0.0000 </r>
       <r>   42.5599    0.0000 </r>
       <r>   45.1257    0.0000 </r>
       <r>   47.5464    0.0000 </r>
       <r>   48.0868    0.0000 </r>
      </set>
      <set comment="kpoint 35">
       <r>    6.2973    1.0000 </r>
       <r>    6.5840    1.0000 </r>
       <r>    6.9646    1.0000 </r>
       <r>    7.6525    1.0000 </r>
       <r>    8.1873    1.0000 </r>
       <r>    8.7716    1.0000 </r>
       <r>    9.0941    1.0000 </r>
       <r>   10.4351    1.0000 </r>
       <r>   10.4400    1.0000 </r>
       <r>   10.6383    1.0000 </r>
       <r>   13.8036    0.0000 </r>
       <r>   15.4237    0.0000 </r>
       <r>   21.4124    0.0000 </r>
       <r>   21.8319    0.0000 </r>
       <r>   22.6442    0.0000 </r>
       <r>   26.2364    0.0000 </r>
       <r>   27.7263    0.0000 </r>
       <r>   29.5228    0.0000 </r>
       <r>   34.0305    0.0000 </r>
       <r>   39.6875    0.0000 </r>
       <r>   43.1165    0.0000 </r>
       <r>   45.1004    0.0000 </r>
       <r>   47.5636    0.0000 </r>
       <r>   48.1285    0.0000 </r>
      </set>
      <set comment="kpoint 36">
       <r>    6.5872    1.0000 </r>
       <r>    6.6632    1.0000 </r>
       <r>    7.1288    1.0000 </r>
       <r>    7.2008    1.0000 </r>
       <r>    8.2322    1.0000 </r>
       <r>    8.5388    1.0000 </r>
       <r>    8.9586    1.0000 </r>
       <r>    9.9067    1.0000 </r>
       <r>   10.4062    1.0000 </r>
       <r>   10.6721    1.0000 </r>
       <r>   12.5309    0.0000 </r>
       <r>   18.1460    0.0000 </r>
       <r>   20.1135    0.0000 </r>
       <r>   20.9640    0.0000 </r>
       <r>   23.4063    0.0000 </r>
       <r>   27.4660    0.0000 </r>
       <r>   27.4994    0.0000 </r>
       <r>   31.4417    0.0000 </r>
       <r>   32.1828    0.0000 </r>
       <r>   42.4083    0.0000 </r>
       <r>   43.9319    0.0000 </r>
       <r>   45.0346    0.0000 </r>
       <r>   47.3044    0.0000 </r>
       <r>   48.0920    0.0000 </r>
      </set>
      <set comment="kpoint 37">
       <r>    6.5734    1.0000 </r>
       <r>    6.9312    1.0000 </r>
       <r>    7.0249    1.0000 </r>
       <r>    7.4064    1.0000 </r>
       <r>    8.1786    1.0000 </r>
       <r>    8.4085    1.0000 </r>
       <r>    9.1493    1.0000 </r>
       <r>   10.2012    1.0000 </r>
       <r>   10.3709    1.0000 </r>
       <r>   10.5985    1.0000 </r>
       <r>   14.3012    0.0000 </r>
       <r>   16.9020    0.0000 </r>
       <r>   19.3158    0.0000 </r>
       <r>   21.7333    0.0000 </r>
       <r>   23.5952    0.0000 </r>
       <r>   25.9935    0.0000 </r>
       <r>   27.3620    0.0000 </r>
       <r>   29.0862    0.0000 </r>
       <r>   31.4508    0.0000 </r>
       <r>   43.3413    0.0000 </r>
       <r>   44.9985    0.0000 </r>
       <r>   46.3235    0.0000 </r>
       <r>   47.5346    0.0000 </r>
       <r>   48.0997    0.0000 </r>
      </set>
      <set comment="kpoint 38">
       <r>    6.6737    1.0000 </r>
       <r>    7.0709    1.0000 </r>
       <r>    7.0709    1.0000 </r>
       <r>    7.3584    1.0000 </r>
       <r>    8.2128    1.0000 </r>
       <r>    8.2128    1.0000 </r>
       <r>    9.2360    1.0000 </r>
       <r>   10.3340    1.0000 </r>
       <r>   10.3733    1.0000 </r>
       <r>   10.3733    1.0000 </r>
       <r>   16.1990    0.0000 </r>
       <r>   16.9416    0.0000 </r>
       <r>   16.9416    0.0000 </r>
       <r>   23.1942    0.0000 </r>
       <r>   24.0881    0.0000 </r>
       <r>   24.0881    0.0000 </r>
       <r>   27.9694    0.0000 </r>
       <r>   29.2833    0.0000 </r>
       <r>   29.2833    0.0000 </r>
       <r>   44.9700    0.0000 </r>
       <r>   47.0460    0.0000 </r>
       <r>   47.0460    0.0000 </r>
       <r>   47.4792    0.0000 </r>
       <r>   47.4792    0.0000 </r>
      </set>
      <set comment="kpoint 39">
       <r>    2.5582    1.0000 </r>
       <r>    5.5786    1.0000 </r>
       <r>    8.3362    1.0000 </r>
       <r>    8.3990    1.0000 </r>
       <r>    8.3990    1.0000 </r>
       <r>    8.6961    1.0000 </r>
       <r>    8.6961    1.0000 </r>
       <r>    9.3272    1.0000 </r>
       <r>    9.5965    1.0000 </r>
       <r>    9.5965    1.0000 </r>
       <r>   10.4155    1.0000 </r>
       <r>   10.4155    1.0000 </r>
       <r>   21.2895    0.0000 </r>
       <r>   32.8600    0.0000 </r>
       <r>   34.3441    0.0000 </r>
       <r>   35.8825    0.0000 </r>
       <r>   37.4347    0.0000 </r>
       <r>   37.4347    0.0000 </r>
       <r>   38.3463    0.0000 </r>
       <r>   38.3463    0.0000 </r>
       <r>   41.5653    0.0000 </r>
       <r>   41.5653    0.0000 </r>
       <r>   43.4421    0.0000 </r>
       <r>   43.4421    0.0000 </r>
      </set>
      <set comment="kpoint 40">
       <r>    2.8023    1.0000 </r>
       <r>    5.7637    1.0000 </r>
       <r>    8.2632    1.0000 </r>
       <r>    8.3639    1.0000 </r>
       <r>    8.4094    1.0000 </r>
       <r>    8.4989    1.0000 </r>
       <r>    8.7985    1.0000 </r>
       <r>    9.0514    1.0000 </r>
       <r>    9.5595    1.0000 </r>
       <r>    9.6051    1.0000 </r>
       <r>   10.4324    1.0000 </r>
       <r>   11.0223    1.0000 </r>
       <r>   21.4281    0.0000 </r>
       <r>   32.2228    0.0000 </r>
       <r>   33.4751    0.0000 </r>
       <r>   34.5937    0.0000 </r>
       <r>   35.2545    0.0000 </r>
       <r>   36.4091    0.0000 </r>
       <r>   38.6916    0.0000 </r>
       <r>   39.6253    0.0000 </r>
       <r>   41.4231    0.0000 </r>
       <r>   42.4870    0.0000 </r>
       <r>   42.5886    0.0000 </r>
       <r>   44.8818    0.0000 </r>
      </set>
      <set comment="kpoint 41">
       <r>    3.4959    1.0000 </r>
       <r>    6.2383    1.0000 </r>
       <r>    7.7606    1.0000 </r>
       <r>    8.0368    1.0000 </r>
       <r>    8.3266    1.0000 </r>
       <r>    8.7287    1.0000 </r>
       <r>    8.8542    1.0000 </r>
       <r>    9.0819    1.0000 </r>
       <r>    9.5289    1.0000 </r>
       <r>    9.6699    1.0000 </r>
       <r>   10.4672    1.0000 </r>
       <r>   12.0450    0.0000 </r>
       <r>   21.8575    0.0000 </r>
       <r>   28.7487    0.0000 </r>
       <r>   32.1824    0.0000 </r>
       <r>   32.8779    0.0000 </r>
       <r>   34.1144    0.0000 </r>
       <r>   34.8382    0.0000 </r>
       <r>   37.7317    0.0000 </r>
       <r>   38.2383    0.0000 </r>
       <r>   42.1119    0.0000 </r>
       <r>   43.7165    0.0000 </r>
       <r>   43.7469    0.0000 </r>
       <r>   46.0070    0.0000 </r>
      </set>
      <set comment="kpoint 42">
       <r>    4.4863    1.0000 </r>
       <r>    6.6427    1.0000 </r>
       <r>    7.2182    1.0000 </r>
       <r>    7.8803    1.0000 </r>
       <r>    8.2435    1.0000 </r>
       <r>    8.8302    1.0000 </r>
       <r>    8.9248    1.0000 </r>
       <r>    9.5003    1.0000 </r>
       <r>    9.7297    1.0000 </r>
       <r>    9.8322    1.0000 </r>
       <r>   10.5038    1.0000 </r>
       <r>   13.1462    0.0000 </r>
       <r>   22.5430    0.0000 </r>
       <r>   25.0504    0.0000 </r>
       <r>   29.2050    0.0000 </r>
       <r>   30.8056    0.0000 </r>
       <r>   33.6462    0.0000 </r>
       <r>   34.5617    0.0000 </r>
       <r>   36.6605    0.0000 </r>
       <r>   36.8846    0.0000 </r>
       <r>   40.0286    0.0000 </r>
       <r>   44.1242    0.0000 </r>
       <r>   44.7336    0.0000 </r>
       <r>   47.4610    0.0000 </r>
      </set>
      <set comment="kpoint 43">
       <r>    5.3839    1.0000 </r>
       <r>    6.5260    1.0000 </r>
       <r>    7.0041    1.0000 </r>
       <r>    7.6918    1.0000 </r>
       <r>    8.5737    1.0000 </r>
       <r>    8.7514    1.0000 </r>
       <r>    9.4147    1.0000 </r>
       <r>    9.9504    1.0000 </r>
       <r>   10.1287    1.0000 </r>
       <r>   10.1722    1.0000 </r>
       <r>   10.5596    1.0000 </r>
       <r>   14.2677    0.0000 </r>
       <r>   21.4235    0.0000 </r>
       <r>   23.5778    0.0000 </r>
       <r>   26.4092    0.0000 </r>
       <r>   29.1560    0.0000 </r>
       <r>   32.5002    0.0000 </r>
       <r>   34.4384    0.0000 </r>
       <r>   35.3148    0.0000 </r>
       <r>   35.7530    0.0000 </r>
       <r>   39.1836    0.0000 </r>
       <r>   44.2541    0.0000 </r>
       <r>   44.9576    0.0000 </r>
       <r>   47.4429    0.0000 </r>
      </set>
      <set comment="kpoint 44">
       <r>    5.7378    1.0000 </r>
       <r>    6.3076    1.0000 </r>
       <r>    7.0826    1.0000 </r>
       <r>    7.4519    1.0000 </r>
       <r>    8.6603    1.0000 </r>
       <r>    8.9419    1.0000 </r>
       <r>   10.1210    1.0000 </r>
       <r>   10.2090    1.0000 </r>
       <r>   10.5023    1.0000 </r>
       <r>   10.6751    1.0000 </r>
       <r>   11.0822    0.9986 </r>
       <r>   14.9383    0.0000 </r>
       <r>   19.3437    0.0000 </r>
       <r>   22.1927    0.0000 </r>
       <r>   26.4069    0.0000 </r>
       <r>   28.0705    0.0000 </r>
       <r>   30.5861    0.0000 </r>
       <r>   34.0737    0.0000 </r>
       <r>   34.3968    0.0000 </r>
       <r>   34.8643    0.0000 </r>
       <r>   40.2292    0.0000 </r>
       <r>   43.8082    0.0000 </r>
       <r>   44.3961    0.0000 </r>
       <r>   46.5775    0.0000 </r>
      </set>
      <set comment="kpoint 45">
       <r>    5.7760    1.0000 </r>
       <r>    6.2238    1.0000 </r>
       <r>    7.2294    1.0000 </r>
       <r>    7.2800    1.0000 </r>
       <r>    8.6246    1.0000 </r>
       <r>    9.0608    1.0000 </r>
       <r>   10.2671    1.0000 </r>
       <r>   10.3362    1.0000 </r>
       <r>   10.6597    1.0000 </r>
       <r>   10.7484    1.0000 </r>
       <r>   12.2078    0.0000 </r>
       <r>   14.3826    0.0000 </r>
       <r>   19.9336    0.0000 </r>
       <r>   20.0831    0.0000 </r>
       <r>   27.6882    0.0000 </r>
       <r>   27.8735    0.0000 </r>
       <r>   28.7634    0.0000 </r>
       <r>   33.9023    0.0000 </r>
       <r>   34.0691    0.0000 </r>
       <r>   34.6338    0.0000 </r>
       <r>   41.3980    0.0000 </r>
       <r>   43.1237    0.0000 </r>
       <r>   43.6512    0.0000 </r>
       <r>   46.4387    0.0000 </r>
      </set>
      <set comment="kpoint 46">
       <r>    3.2727    1.0000 </r>
       <r>    6.1013    1.0000 </r>
       <r>    7.9340    1.0000 </r>
       <r>    8.0855    1.0000 </r>
       <r>    8.3531    1.0000 </r>
       <r>    8.6840    1.0000 </r>
       <r>    8.8538    1.0000 </r>
       <r>    8.9899    1.0000 </r>
       <r>    9.5868    1.0000 </r>
       <r>    9.6021    1.0000 </r>
       <r>   10.4557    1.0000 </r>
       <r>   11.7630    0.0000 </r>
       <r>   21.7147    0.0000 </r>
       <r>   30.3672    0.0000 </r>
       <r>   31.3923    0.0000 </r>
       <r>   33.5118    0.0000 </r>
       <r>   34.2383    0.0000 </r>
       <r>   36.3081    0.0000 </r>
       <r>   37.4470    0.0000 </r>
       <r>   38.8486    0.0000 </r>
       <r>   42.3751    0.0000 </r>
       <r>   42.9351    0.0000 </r>
       <r>   44.3534    0.0000 </r>
       <r>   45.1342    0.0000 </r>
      </set>
      <set comment="kpoint 47">
       <r>    4.1303    1.0000 </r>
       <r>    6.6131    1.0000 </r>
       <r>    7.3726    1.0000 </r>
       <r>    7.8318    1.0000 </r>
       <r>    8.2901    1.0000 </r>
       <r>    8.7222    1.0000 </r>
       <r>    8.8621    1.0000 </r>
       <r>    9.3152    1.0000 </r>
       <r>    9.7048    1.0000 </r>
       <r>    9.7669    1.0000 </r>
       <r>   10.4963    1.0000 </r>
       <r>   12.7695    0.0000 </r>
       <r>   22.3058    0.0000 </r>
       <r>   26.9416    0.0000 </r>
       <r>   29.2503    0.0000 </r>
       <r>   31.1883    0.0000 </r>
       <r>   33.2242    0.0000 </r>
       <r>   35.6349    0.0000 </r>
       <r>   36.5780    0.0000 </r>
       <r>   39.6790    0.0000 </r>
       <r>   40.6735    0.0000 </r>
       <r>   42.0993    0.0000 </r>
       <r>   45.5514    0.0000 </r>
       <r>   46.2433    0.0000 </r>
      </set>
      <set comment="kpoint 48">
       <r>    5.1300    1.0000 </r>
       <r>    6.7556    1.0000 </r>
       <r>    7.0263    1.0000 </r>
       <r>    7.7621    1.0000 </r>
       <r>    8.2641    1.0000 </r>
       <r>    8.8176    1.0000 </r>
       <r>    8.9037    1.0000 </r>
       <r>    9.6705    1.0000 </r>
       <r>   10.0491    1.0000 </r>
       <r>   10.1228    1.0000 </r>
       <r>   10.6221    1.0000 </r>
       <r>   13.8945    0.0000 </r>
       <r>   22.7737    0.0000 </r>
       <r>   23.7589    0.0000 </r>
       <r>   27.4188    0.0000 </r>
       <r>   28.2884    0.0000 </r>
       <r>   32.2707    0.0000 </r>
       <r>   34.5744    0.0000 </r>
       <r>   36.4395    0.0000 </r>
       <r>   38.5793    0.0000 </r>
       <r>   39.2411    0.0000 </r>
       <r>   42.2704    0.0000 </r>
       <r>   47.0585    0.0000 </r>
       <r>   47.6273    0.0000 </r>
      </set>
      <set comment="kpoint 49">
       <r>    5.7638    1.0000 </r>
       <r>    6.5202    1.0000 </r>
       <r>    6.9987    1.0000 </r>
       <r>    7.5987    1.0000 </r>
       <r>    8.4631    1.0000 </r>
       <r>    8.8935    1.0000 </r>
       <r>    9.3897    1.0000 </r>
       <r>   10.0181    1.0000 </r>
       <r>   10.3006    1.0000 </r>
       <r>   10.5341    1.0000 </r>
       <r>   11.1630    0.7569 </r>
       <r>   14.9951    0.0000 </r>
       <r>   20.2313    0.0000 </r>
       <r>   23.4032    0.0000 </r>
       <r>   25.8502    0.0000 </r>
       <r>   26.9369    0.0000 </r>
       <r>   31.4188    0.0000 </r>
       <r>   32.3240    0.0000 </r>
       <r>   36.5805    0.0000 </r>
       <r>   37.3706    0.0000 </r>
       <r>   39.1835    0.0000 </r>
       <r>   42.4091    0.0000 </r>
       <r>   46.9826    0.0000 </r>
       <r>   47.4971    0.0000 </r>
      </set>
      <set comment="kpoint 50">
       <r>    5.8796    1.0000 </r>
       <r>    6.3689    1.0000 </r>
       <r>    7.1873    1.0000 </r>
       <r>    7.3907    1.0000 </r>
       <r>    8.4096    1.0000 </r>
       <r>    9.1434    1.0000 </r>
       <r>    9.7683    1.0000 </r>
       <r>   10.2004    1.0000 </r>
       <r>   10.5655    1.0000 </r>
       <r>   10.7235    1.0000 </r>
       <r>   12.3897    0.0000 </r>
       <r>   14.9640    0.0000 </r>
       <r>   19.4210    0.0000 </r>
       <r>   21.1734    0.0000 </r>
       <r>   25.9722    0.0000 </r>
       <r>   27.4630    0.0000 </r>
       <r>   29.9193    0.0000 </r>
       <r>   30.9701    0.0000 </r>
       <r>   36.3888    0.0000 </r>
       <r>   36.7231    0.0000 </r>
       <r>   40.3905    0.0000 </r>
       <r>   41.8462    0.0000 </r>
       <r>   45.6025    0.0000 </r>
       <r>   47.4005    0.0000 </r>
      </set>
      <set comment="kpoint 51">
       <r>    5.0429    1.0000 </r>
       <r>    6.9487    1.0000 </r>
       <r>    7.1195    1.0000 </r>
       <r>    7.5266    1.0000 </r>
       <r>    8.3066    1.0000 </r>
       <r>    8.5635    1.0000 </r>
       <r>    8.8496    1.0000 </r>
       <r>    9.5489    1.0000 </r>
       <r>   10.0331    1.0000 </r>
       <r>   10.1417    1.0000 </r>
       <r>   10.6712    1.0000 </r>
       <r>   13.7841    0.0000 </r>
       <r>   23.0560    0.0000 </r>
       <r>   25.1315    0.0000 </r>
       <r>   25.8218    0.0000 </r>
       <r>   29.5389    0.0000 </r>
       <r>   30.3385    0.0000 </r>
       <r>   35.8008    0.0000 </r>
       <r>   37.5176    0.0000 </r>
       <r>   38.6645    0.0000 </r>
       <r>   40.6066    0.0000 </r>
       <r>   42.5164    0.0000 </r>
       <r>   45.2410    0.0000 </r>
       <r>   45.7656    0.0000 </r>
      </set>
      <set comment="kpoint 52">
       <r>    5.9014    1.0000 </r>
       <r>    6.7268    1.0000 </r>
       <r>    7.0899    1.0000 </r>
       <r>    7.5891    1.0000 </r>
       <r>    8.2856    1.0000 </r>
       <r>    8.6328    1.0000 </r>
       <r>    8.8465    1.0000 </r>
       <r>    9.7809    1.0000 </r>
       <r>   10.1769    1.0000 </r>
       <r>   10.5693    1.0000 </r>
       <r>   11.3676    0.0000 </r>
       <r>   15.0398    0.0000 </r>
       <r>   21.8765    0.0000 </r>
       <r>   23.9194    0.0000 </r>
       <r>   24.4095    0.0000 </r>
       <r>   27.0060    0.0000 </r>
       <r>   28.9334    0.0000 </r>
       <r>   34.3980    0.0000 </r>
       <r>   36.6769    0.0000 </r>
       <r>   38.5750    0.0000 </r>
       <r>   40.7990    0.0000 </r>
       <r>   43.4771    0.0000 </r>
       <r>   45.9371    0.0000 </r>
       <r>   47.2151    0.0000 </r>
[...]
       </set>
       <set comment="band 12">
        <r>  0.0013  0.0118  0.0873  0.0344  0.0142  0.0305  0.0020  0.0350  0.0338 </r>
        <r>  0.0079  0.0742  0.0139  0.2158  0.0891  0.0049  0.0127  0.0056  0.2116 </r>
       </set>
       <set comment="band 13">
        <r>  0.0410  0.0063  0.0284  0.0039  0.0229  0.0492  0.0020  0.1460  0.0080 </r>
        <r>  0.2791  0.0432  0.0042  0.0267  0.1561  0.0072  0.0136  0.0214  0.0546 </r>
       </set>
       <set comment="band 14">
        <r>  0.2791  0.0432  0.0042  0.0267  0.1561  0.0072  0.0136  0.0214  0.0546 </r>
        <r>  0.0410  0.0063  0.0284  0.0039  0.0229  0.0492  0.0020  0.1460  0.0080 </r>
       </set>
       <set comment="band 15">
        <r>  0.0059  0.0081  0.0190  0.0027  0.0028  0.1257  0.0015  0.0501  0.0009 </r>
        <r>  0.1597  0.2207  0.0007  0.0736  0.0770  0.0046  0.0421  0.0018  0.0257 </r>
       </set>
       <set comment="band 16">
        <r>  0.1597  0.2207  0.0007  0.0736  0.0770  0.0046  0.0421  0.0018  0.0257 </r>
        <r>  0.0059  0.0081  0.0190  0.0027  0.0028  0.1257  0.0015  0.0501  0.0009 </r>
       </set>
       <set comment="band 17">
        <r>  0.0011  0.0118  0.1674  0.0329  0.0035  0.0248  0.0026  0.0506  0.0057 </r>
        <r>  0.0020  0.0215  0.0917  0.0601  0.0064  0.0136  0.0048  0.0277  0.0103 </r>
       </set>
       <set comment="band 18">
        <r>  0.0020  0.0215  0.0917  0.0601  0.0064  0.0136  0.0048  0.0277  0.0103 </r>
        <r>  0.0011  0.0118  0.1674  0.0329  0.0035  0.0248  0.0026  0.0506  0.0057 </r>
       </set>
       <set comment="band 19">
        <r>  0.0360  0.0011  0.0078  0.0015  0.1175  0.0240  0.2352  0.0580  0.0392 </r>
        <r>  0.0113  0.0004  0.0248  0.0005  0.0369  0.0765  0.0739  0.1845  0.0123 </r>
       </set>
       <set comment="band 20">
        <r>  0.0113  0.0004  0.0248  0.0005  0.0369  0.0765  0.0739  0.1845  0.0123 </r>
        <r>  0.0360  0.0011  0.0078  0.0015  0.1175  0.0240  0.2352  0.0580  0.0392 </r>
       </set>
       <set comment="band 21">
        <r>  0.0007  0.0045  0.1908  0.0015  0.0002  0.0143  0.0013  0.0113  0.0001 </r>
        <r>  0.0227  0.1541  0.0056  0.0522  0.0077  0.0004  0.0455  0.0003  0.0036 </r>
       </set>
       <set comment="band 22">
        <r>  0.0227  0.1541  0.0056  0.0522  0.0077  0.0004  0.0455  0.0003  0.0036 </r>
        <r>  0.0007  0.0045  0.1908  0.0015  0.0002  0.0143  0.0013  0.0113  0.0001 </r>
       </set>
       <set comment="band 23">
        <r>  0.0314  0.0010  0.0026  0.0004  0.0164  0.2503  0.0076  0.0974  0.0055 </r>
        <r>  0.2690  0.0083  0.0003  0.0030  0.1408  0.0292  0.0653  0.0114  0.0470 </r>
       </set>
       <set comment="band 24">
        <r>  0.2690  0.0083  0.0003  0.0030  0.1408  0.0292  0.0653  0.0114  0.0470 </r>
        <r>  0.0314  0.0010  0.0026  0.0004  0.0164  0.2503  0.0076  0.0974  0.0055 </r>
       </set>
      </set>
      <set comment="kpoint 93">
       <set comment="band 1">
        <r>  0.0524  0.0059  0.0131  0.0301  0.0235  0.0002  0.0249  0.2644  0.0279 </r>
        <r>  0.0637  0.0072  0.0107  0.0367  0.0286  0.0001  0.0303  0.2172  0.0340 </r>
       </set>
       <set comment="band 2">
        <r>  0.0637  0.0072  0.0107  0.0367  0.0286  0.0001  0.0303  0.2172  0.0340 </r>
        <r>  0.0524  0.0059  0.0131  0.0301  0.0235  0.0002  0.0249  0.2644  0.0279 </r>
       </set>
       <set comment="band 3">
        <r>  0.0099  0.0236  0.0230  0.0047  0.2384  0.0516  0.0041  0.0007  0.0137 </r>
        <r>  0.0172  0.0411  0.0132  0.0083  0.4149  0.0297  0.0072  0.0004  0.0239 </r>
       </set>
       <set comment="band 4">
        <r>  0.0172  0.0411  0.0132  0.0083  0.4149  0.0297  0.0072  0.0004  0.0239 </r>
        <r>  0.0099  0.0236  0.0230  0.0047  0.2384  0.0516  0.0041  0.0007  0.0137 </r>
       </set>
       <set comment="band 5">
        <r>  0.0001  0.0000  0.0116  0.0054  0.0002  0.2354  0.0167  0.0225  0.0087 </r>
        <r>  0.0021  0.0000  0.0006  0.1067  0.0046  0.0120  0.3266  0.0011  0.1695 </r>
       </set>
       <set comment="band 6">
        <r>  0.0021  0.0000  0.0006  0.1067  0.0046  0.0120  0.3266  0.0011  0.1695 </r>
        <r>  0.0001  0.0000  0.0116  0.0054  0.0002  0.2354  0.0167  0.0225  0.0087 </r>
       </set>
       <set comment="band 7">
        <r>  0.0045  0.0000  0.0000  0.0007  0.0545  0.2784  0.0180  0.0500  0.0898 </r>
        <r>  0.0058  0.0000  0.0000  0.0009  0.0699  0.2171  0.0231  0.0390  0.1152 </r>
       </set>
       <set comment="band 8">
        <r>  0.0058  0.0000  0.0000  0.0009  0.0699  0.2171  0.0231  0.0390  0.1152 </r>
        <r>  0.0045  0.0000  0.0000  0.0007  0.0545  0.2784  0.0180  0.0500  0.0898 </r>
       </set>
       <set comment="band 9">
        <r>  0.0000  0.0000  0.0035  0.0001  0.0004  0.0870  0.0210  0.2019  0.0068 </r>
        <r>  0.0000  0.0001  0.0002  0.0034  0.0087  0.0037  0.4872  0.0087  0.1574 </r>
       </set>
       <set comment="band 10">
        <r>  0.0000  0.0001  0.0002  0.0034  0.0087  0.0037  0.4872  0.0087  0.1574 </r>
        <r>  0.0000  0.0000  0.0035  0.0001  0.0004  0.0870  0.0210  0.2019  0.0068 </r>
       </set>
       <set comment="band 11">
        <r>  0.0105  0.0005  0.0715  0.0261  0.0025  0.0066  0.0002  0.1261  0.0481 </r>
        <r>  0.0707  0.0033  0.0106  0.1765  0.0168  0.0010  0.0011  0.0187  0.3246 </r>
       </set>
       <set comment="band 12">
        <r>  0.0707  0.0033  0.0106  0.1765  0.0168  0.0010  0.0011  0.0187  0.3246 </r>
        <r>  0.0105  0.0005  0.0715  0.0261  0.0025  0.0066  0.0002  0.1261  0.0481 </r>
       </set>
       <set comment="band 13">
        <r>  0.0001  0.2031  0.0252  0.0053  0.2173  0.0174  0.0016  0.0265  0.0009 </r>
        <r>  0.0000  0.1187  0.0431  0.0031  0.1270  0.0297  0.0009  0.0454  0.0005 </r>
       </set>
       <set comment="band 14">
        <r>  0.0000  0.1187  0.0431  0.0031  0.1270  0.0297  0.0009  0.0454  0.0005 </r>
        <r>  0.0001  0.2031  0.0252  0.0053  0.2173  0.0174  0.0016  0.0265  0.0009 </r>
       </set>
       <set comment="band 15">
        <r>  0.0176  0.0001  0.0043  0.0079  0.0001  0.1277  0.0031  0.0952  0.0000 </r>
        <r>  0.3597  0.0019  0.0002  0.1617  0.0015  0.0062  0.0642  0.0047  0.0002 </r>
       </set>
       <set comment="band 16">
        <r>  0.3597  0.0019  0.0002  0.1617  0.0015  0.0062  0.0642  0.0047  0.0002 </r>
        <r>  0.0176  0.0001  0.0043  0.0079  0.0001  0.1277  0.0031  0.0952  0.0000 </r>
       </set>
       <set comment="band 17">
        <r>  0.0004  0.0000  0.2588  0.0006  0.0000  0.0335  0.0009  0.1023  0.0002 </r>
        <r>  0.0437  0.0000  0.0023  0.0731  0.0022  0.0003  0.0993  0.0009  0.0285 </r>
       </set>
       <set comment="band 18">
        <r>  0.0437  0.0000  0.0023  0.0731  0.0022  0.0003  0.0993  0.0009  0.0285 </r>
        <r>  0.0004  0.0000  0.2588  0.0006  0.0000  0.0335  0.0009  0.1023  0.0002 </r>
       </set>
       <set comment="band 19">
        <r>  0.0031  0.0181  0.0571  0.0053  0.0391  0.0885  0.0233  0.0673  0.0055 </r>
        <r>  0.0069  0.0402  0.0257  0.0117  0.0867  0.0399  0.0516  0.0303  0.0121 </r>
       </set>
       <set comment="band 20">
        <r>  0.0069  0.0402  0.0257  0.0117  0.0867  0.0399  0.0516  0.0303  0.0121 </r>
        <r>  0.0031  0.0181  0.0571  0.0053  0.0391  0.0885  0.0233  0.0673  0.0055 </r>
       </set>
       <set comment="band 21">
        <r>  0.0015  0.0004  0.0791  0.0022  0.0024  0.0031  0.0129  0.2148  0.0019 </r>
        <r>  0.0300  0.0081  0.0039  0.0457  0.0487  0.0002  0.2618  0.0106  0.0380 </r>
       </set>
       <set comment="band 22">
        <r>  0.0300  0.0081  0.0039  0.0457  0.0487  0.0002  0.2618  0.0106  0.0380 </r>
        <r>  0.0015  0.0004  0.0791  0.0022  0.0024  0.0031  0.0129  0.2148  0.0019 </r>
       </set>
       <set comment="band 23">
        <r>  0.0005  0.0836  0.0456  0.0004  0.0611  0.0222  0.0000  0.0092  0.0000 </r>
        <r>  0.0012  0.1903  0.0200  0.0010  0.1391  0.0098  0.0000  0.0040  0.0000 </r>
       </set>
       <set comment="band 24">
        <r>  0.0012  0.1903  0.0200  0.0010  0.1391  0.0098  0.0000  0.0040  0.0000 </r>
        <r>  0.0005  0.0836  0.0456  0.0004  0.0611  0.0222  0.0000  0.0092  0.0000 </r>
       </set>
      </set>
      <set comment="kpoint 94">
       <set comment="band 1">
        <r>  0.0131  0.0057  0.0030  0.0077  0.0230  0.0339  0.0146  0.3655  0.0121 </r>
        <r>  0.0536  0.0232  0.0007  0.0316  0.0943  0.0083  0.0598  0.0891  0.0495 </r>
       </set>
       <set comment="band 2">
        <r>  0.0536  0.0232  0.0007  0.0316  0.0943  0.0083  0.0598  0.0891  0.0495 </r>
        <r>  0.0131  0.0057  0.0030  0.0077  0.0230  0.0339  0.0146  0.3655  0.0121 </r>
       </set>
       <set comment="band 3">
        <r>  0.0021  0.0064  0.0067  0.0004  0.0387  0.2248  0.0224  0.0656  0.0024 </r>
        <r>  0.0151  0.0459  0.0009  0.0029  0.2765  0.0315  0.1596  0.0092  0.0170 </r>
       </set>
       <set comment="band 4">
        <r>  0.0151  0.0459  0.0009  0.0029  0.2765  0.0315  0.1596  0.0092  0.0170 </r>
        <r>  0.0021  0.0064  0.0067  0.0004  0.0387  0.2248  0.0224  0.0656  0.0024 </r>
       </set>
       <set comment="band 5">
        <r>  0.0008  0.0026  0.0405  0.0124  0.0195  0.1511  0.0052  0.0070  0.0274 </r>
        <r>  0.0073  0.0237  0.0044  0.1138  0.1790  0.0164  0.0474  0.0008  0.2519 </r>
       </set>
       <set comment="band 6">
        <r>  0.0073  0.0237  0.0044  0.1138  0.1790  0.0164  0.0474  0.0008  0.2519 </r>
        <r>  0.0008  0.0026  0.0405  0.0124  0.0195  0.1511  0.0052  0.0070  0.0274 </r>
       </set>
       <set comment="band 7">
        <r>  0.0018  0.0015  0.0008  0.0066  0.0859  0.1548  0.0111  0.0626  0.1594 </r>
        <r>  0.0017  0.0014  0.0008  0.0061  0.0794  0.1675  0.0102  0.0677  0.1473 </r>
       </set>
       <set comment="band 8">
        <r>  0.0017  0.0014  0.0008  0.0061  0.0794  0.1675  0.0102  0.0677  0.1473 </r>
        <r>  0.0018  0.0015  0.0008  0.0066  0.0859  0.1548  0.0111  0.0626  0.1594 </r>
       </set>
       <set comment="band 9">
        <r>  0.0013  0.0002  0.0001  0.0017  0.0093  0.0080  0.5868  0.0138  0.0455 </r>
        <r>  0.0001  0.0000  0.0012  0.0001  0.0008  0.0979  0.0478  0.1692  0.0037 </r>
       </set>
       <set comment="band 10">
        <r>  0.0001  0.0000  0.0012  0.0001  0.0008  0.0979  0.0478  0.1692  0.0037 </r>
        <r>  0.0013  0.0002  0.0001  0.0017  0.0093  0.0080  0.5868  0.0138  0.0455 </r>
       </set>
       <set comment="band 11">
        <r>  0.0200  0.0178  0.0475  0.1650  0.0242  0.0045  0.0010  0.0269  0.1855 </r>
        <r>  0.0141  0.0125  0.0676  0.1159  0.0170  0.0064  0.0007  0.0383  0.1304 </r>
       </set>
       <set comment="band 12">
        <r>  0.0141  0.0125  0.0676  0.1159  0.0170  0.0064  0.0007  0.0383  0.1304 </r>
        <r>  0.0200  0.0178  0.0475  0.1650  0.0242  0.0045  0.0010  0.0269  0.1855 </r>
       </set>
       <set comment="band 13">
        <r>  0.0089  0.0167  0.0405  0.0012  0.0186  0.0545  0.0005  0.1058  0.0012 </r>
        <r>  0.1173  0.2198  0.0031  0.0162  0.2439  0.0042  0.0064  0.0081  0.0163 </r>
       </set>
       <set comment="band 14">
        <r>  0.1173  0.2198  0.0031  0.0162  0.2439  0.0042  0.0064  0.0081  0.0163 </r>
        <r>  0.0089  0.0167  0.0405  0.0012  0.0186  0.0545  0.0005  0.1058  0.0012 </r>
       </set>
       <set comment="band 15">
        <r>  0.1002  0.0233  0.0089  0.0194  0.0114  0.1052  0.0130  0.0611  0.0016 </r>
        <r>  0.2647  0.0616  0.0034  0.0513  0.0301  0.0398  0.0344  0.0231  0.0042 </r>
       </set>
       <set comment="band 16">
        <r>  0.2647  0.0616  0.0034  0.0513  0.0301  0.0398  0.0344  0.0231  0.0042 </r>
        <r>  0.1002  0.0233  0.0089  0.0194  0.0114  0.1052  0.0130  0.0611  0.0016 </r>
       </set>
       <set comment="band 17">
        <r>  0.0102  0.0078  0.0152  0.0946  0.0037  0.0031  0.0257  0.0064  0.0379 </r>
        <r>  0.0007  0.0005  0.2371  0.0061  0.0002  0.0487  0.0017  0.1000  0.0024 </r>
       </set>
       <set comment="band 18">
        <r>  0.0007  0.0005  0.2371  0.0061  0.0002  0.0487  0.0017  0.1000  0.0024 </r>
        <r>  0.0102  0.0078  0.0152  0.0946  0.0037  0.0031  0.0257  0.0064  0.0379 </r>
       </set>
       <set comment="band 19">
        <r>  0.0060  0.0198  0.1049  0.0005  0.0331  0.0815  0.0215  0.1203  0.0034 </r>
        <r>  0.0146  0.0479  0.0433  0.0011  0.0800  0.0337  0.0520  0.0497  0.0081 </r>
       </set>
       <set comment="band 20">
        <r>  0.0146  0.0479  0.0433  0.0011  0.0800  0.0337  0.0520  0.0497  0.0081 </r>
        <r>  0.0060  0.0198  0.1049  0.0005  0.0331  0.0815  0.0215  0.1203  0.0034 </r>
       </set>
       <set comment="band 21">
        <r>  0.0006  0.0004  0.0472  0.0003  0.0000  0.0608  0.0039  0.0950  0.0001 </r>
        <r>  0.0523  0.0352  0.0005  0.0287  0.0031  0.0007  0.3509  0.0011  0.0072 </r>
       </set>
       <set comment="band 22">
        <r>  0.0523  0.0352  0.0005  0.0287  0.0031  0.0007  0.3509  0.0011  0.0072 </r>
        <r>  0.0006  0.0004  0.0472  0.0003  0.0000  0.0608  0.0039  0.0950  0.0001 </r>
       </set>
       <set comment="band 23">
        <r>  0.0084  0.0060  0.0355  0.0004  0.0099  0.1190  0.0002  0.0496  0.0016 </r>
        <r>  0.2027  0.1453  0.0015  0.0085  0.2386  0.0049  0.0049  0.0021  0.0380 </r>
       </set>
       <set comment="band 24">
        <r>  0.2027  0.1453  0.0015  0.0085  0.2386  0.0049  0.0049  0.0021  0.0380 </r>
        <r>  0.0084  0.0060  0.0355  0.0004  0.0099  0.1190  0.0002  0.0496  0.0016 </r>
       </set>
      </set>
      <set comment="kpoint 95">
       <set comment="band 1">
        <r>  0.0000  0.0450  0.0000  0.0450  0.0954  0.0768  0.0000  0.0768  0.0954 </r>
        <r>  0.0000  0.0254  0.0000  0.0254  0.0538  0.1362  0.0000  0.1362  0.0538 </r>
       </set>
       <set comment="band 2">
        <r>  0.0000  0.0254  0.0000  0.0254  0.0538  0.1362  0.0000  0.1362  0.0538 </r>
        <r>  0.0000  0.0450  0.0000  0.0450  0.0954  0.0768  0.0000  0.0768  0.0954 </r>
       </set>
       <set comment="band 3">
        <r>  0.0337  0.0000  0.0000  0.0000  0.0000  0.1603  0.1253  0.1603  0.0000 </r>
        <r>  0.0392  0.0000  0.0000  0.0000  0.0000  0.1379  0.1456  0.1379  0.0000 </r>
       </set>
       <set comment="band 4">
        <r>  0.0392  0.0000  0.0000  0.0000  0.0000  0.1379  0.1456  0.1379  0.0000 </r>
        <r>  0.0337  0.0000  0.0000  0.0000  0.0000  0.1603  0.1253  0.1603  0.0000 </r>
       </set>
       <set comment="band 5">
        <r>  0.0000  0.0372  0.0264  0.0372  0.1771  0.0000  0.0000  0.0000  0.1771 </r>
        <r>  0.0000  0.0384  0.0256  0.0384  0.1827  0.0000  0.0000  0.0000  0.1827 </r>
       </set>
       <set comment="band 6">
        <r>  0.0000  0.0384  0.0256  0.0384  0.1827  0.0000  0.0000  0.0000  0.1827 </r>
        <r>  0.0000  0.0372  0.0264  0.0372  0.1771  0.0000  0.0000  0.0000  0.1771 </r>
       </set>
       <set comment="band 7">
        <r>  0.0000  0.0039  0.0000  0.0039  0.2320  0.0237  0.0000  0.0237  0.2320 </r>
        <r>  0.0000  0.0005  0.0000  0.0005  0.0280  0.1960  0.0000  0.1960  0.0280 </r>
       </set>
       <set comment="band 8">
        <r>  0.0000  0.0005  0.0000  0.0005  0.0280  0.1960  0.0000  0.1960  0.0280 </r>
        <r>  0.0000  0.0039  0.0000  0.0039  0.2320  0.0237  0.0000  0.0237  0.2320 </r>
       </set>
       <set comment="band 9">
        <r>  0.0003  0.0000  0.0000  0.0000  0.0000  0.1315  0.0554  0.1315  0.0000 </r>
        <r>  0.0037  0.0000  0.0000  0.0000  0.0000  0.0114  0.6410  0.0114  0.0000 </r>
       </set>
       <set comment="band 10">
        <r>  0.0037  0.0000  0.0000  0.0000  0.0000  0.0114  0.6410  0.0114  0.0000 </r>
        <r>  0.0003  0.0000  0.0000  0.0000  0.0000  0.1315  0.0554  0.1315  0.0000 </r>
       </set>
       <set comment="band 11">
        <r>  0.0000  0.0621  0.1157  0.0621  0.0663  0.0000  0.0000  0.0000  0.0663 </r>
        <r>  0.0000  0.1126  0.0638  0.1126  0.1203  0.0000  0.0000  0.0000  0.1203 </r>
       </set>
       <set comment="band 12">
        <r>  0.0000  0.1126  0.0638  0.1126  0.1203  0.0000  0.0000  0.0000  0.1203 </r>
        <r>  0.0000  0.0621  0.1157  0.0621  0.0663  0.0000  0.0000  0.0000  0.0663 </r>
       </set>
       <set comment="band 13">
        <r>  0.0000  0.1821  0.0000  0.1821  0.1404  0.0025  0.0000  0.0025  0.1404 </r>
        <r>  0.0000  0.0049  0.0000  0.0049  0.0038  0.0936  0.0000  0.0936  0.0038 </r>
       </set>
       <set comment="band 14">
        <r>  0.0000  0.0049  0.0000  0.0049  0.0038  0.0936  0.0000  0.0936  0.0038 </r>
        <r>  0.0000  0.1821  0.0000  0.1821  0.1404  0.0025  0.0000  0.0025  0.1404 </r>
       </set>
       <set comment="band 15">
        <r>  0.2954  0.0000  0.0000  0.0000  0.0000  0.0651  0.0266  0.0651  0.0000 </r>
        <r>  0.2551  0.0000  0.0000  0.0000  0.0000  0.0753  0.0230  0.0753  0.0000 </r>
       </set>
       <set comment="band 16">
        <r>  0.2551  0.0000  0.0000  0.0000  0.0000  0.0753  0.0230  0.0753  0.0000 </r>
        <r>  0.2954  0.0000  0.0000  0.0000  0.0000  0.0651  0.0266  0.0651  0.0000 </r>
       </set>
       <set comment="band 17">
        <r>  0.0000  0.0254  0.2345  0.0254  0.0230  0.0000  0.0000  0.0000  0.0230 </r>
        <r>  0.0000  0.0282  0.2113  0.0282  0.0256  0.0000  0.0000  0.0000  0.0256 </r>
       </set>
       <set comment="band 18">
        <r>  0.0000  0.0282  0.2113  0.0282  0.0256  0.0000  0.0000  0.0000  0.0256 </r>
        <r>  0.0000  0.0254  0.2345  0.0254  0.0230  0.0000  0.0000  0.0000  0.0230 </r>
       </set>
       <set comment="band 19">
        <r>  0.0000  0.0579  0.0000  0.0579  0.0266  0.0040  0.0000  0.0040  0.0266 </r>
        <r>  0.0000  0.0011  0.0000  0.0011  0.0005  0.2094  0.0000  0.2094  0.0005 </r>
       </set>
       <set comment="band 20">
        <r>  0.0000  0.0011  0.0000  0.0011  0.0005  0.2094  0.0000  0.2094  0.0005 </r>
        <r>  0.0000  0.0579  0.0000  0.0579  0.0266  0.0040  0.0000  0.0040  0.0266 </r>
       </set>
       <set comment="band 21">
        <r>  0.0031  0.0000  0.0000  0.0000  0.0000  0.1022  0.0139  0.1022  0.0000 </r>
        <r>  0.1016  0.0000  0.0000  0.0000  0.0000  0.0031  0.4586  0.0031  0.0000 </r>
       </set>
       <set comment="band 22">
        <r>  0.1016  0.0000  0.0000  0.0000  0.0000  0.0031  0.4586  0.0031  0.0000 </r>
        <r>  0.0031  0.0000  0.0000  0.0000  0.0000  0.1022  0.0139  0.1022  0.0000 </r>
       </set>
       <set comment="band 23">
        <r>  0.0000  0.0787  0.0000  0.0787  0.1982  0.0044  0.0000  0.0044  0.1982 </r>
        <r>  0.0000  0.0047  0.0000  0.0047  0.0118  0.0734  0.0000  0.0734  0.0118 </r>
       </set>
       <set comment="band 24">
        <r>  0.0000  0.0047  0.0000  0.0047  0.0118  0.0734  0.0000  0.0734  0.0118 </r>
        <r>  0.0000  0.0787  0.0000  0.0787  0.1982  0.0044  0.0000  0.0044  0.1982 </r>
       </set>
      </set>
     </set>
    </set>
   </array>
  </projected>
 </calculation>
 <structure name="finalpos" >
  <crystal>
   <varray name="basis" >
    <v>       1.22121505      -2.11520651       0.00000000 </v>
    <v>       1.22121505       2.11520651       0.00000000 </v>
    <v>       0.00000000       0.00000000       3.93975526 </v>
   </varray>
   <i name="volume">     20.35373715 </i>
   <varray name="rec_basis" >
    <v>       0.40942830      -0.23638354       0.00000000 </v>
    <v>       0.40942830       0.23638354       0.00000000 </v>
    <v>       0.00000000       0.00000000       0.25382287 </v>
   </varray>
  </crystal>
  <varray name="positions" >
   <v>       0.33333333       0.66666667       0.25000000 </v>
   <v>       0.66666667       0.33333333       0.75000000 </v>
  </varray>
 </structure>
</modeling>
