   2   2   0   0
  0.1579990E+02  0.2760000E-09  0.2760000E-09  0.4790000E-09  0.5000000E-15
  1.000000000000000E-004
  CAR 
 Pt-hcp                                  
     35.86163465    -45.38095953  301     11.12254984      1.00000000
    -45.381  0.0000E+00  0.0000E+00
    -45.110  0.0000E+00  0.0000E+00
    -44.839  0.0000E+00  0.0000E+00
    -44.569  0.0000E+00  0.0000E+00
    -44.298  0.0000E+00  0.0000E+00
    -44.027  0.0000E+00  0.0000E+00
    -43.756  0.0000E+00  0.0000E+00
    -43.485  0.0000E+00  0.0000E+00
    -43.214  0.0000E+00  0.0000E+00
    -42.944  0.0000E+00  0.0000E+00
    -42.673  0.0000E+00  0.0000E+00
    -42.402  0.0000E+00  0.0000E+00
    -42.131  0.0000E+00  0.0000E+00
    -41.860  0.1235E-06  0.3346E-07
    -41.590  0.6778E+01  0.1835E+01
    -41.319  0.2324E+02  0.8128E+01
    -41.048  0.1430E+02  0.1200E+02
    -40.777  0.4633E-03  0.1200E+02
    -40.506  0.0000E+00  0.1200E+02
    -40.236  0.0000E+00  0.1200E+02
    -39.965  0.0000E+00  0.1200E+02
    -39.694  0.0000E+00  0.1200E+02
    -39.423  0.0000E+00  0.1200E+02
    -39.152  0.0000E+00  0.1200E+02
    -38.882  0.0000E+00  0.1200E+02
    -38.611  0.0000E+00  0.1200E+02
    -38.340  0.0000E+00  0.1200E+02
    -38.069  0.0000E+00  0.1200E+02
    -37.798  0.0000E+00  0.1200E+02
    -37.528  0.0000E+00  0.1200E+02
    -37.257  0.0000E+00  0.1200E+02
    -36.986  0.0000E+00  0.1200E+02
    -36.715  0.0000E+00  0.1200E+02
    -36.444  0.0000E+00  0.1200E+02
    -36.173  0.0000E+00  0.1200E+02
    -35.903  0.0000E+00  0.1200E+02
    -35.632  0.0000E+00  0.1200E+02
    -35.361  0.0000E+00  0.1200E+02
    -35.090  0.0000E+00  0.1200E+02
    -34.819  0.0000E+00  0.1200E+02
    -34.549  0.0000E+00  0.1200E+02
    -34.278  0.0000E+00  0.1200E+02
    -34.007  0.0000E+00  0.1200E+02
    -33.736  0.0000E+00  0.1200E+02
    -33.465  0.0000E+00  0.1200E+02
    -33.195  0.0000E+00  0.1200E+02
    -32.924  0.0000E+00  0.1200E+02
    -32.653  0.0000E+00  0.1200E+02
    -32.382  0.0000E+00  0.1200E+02
    -32.111  0.0000E+00  0.1200E+02
    -31.841  0.0000E+00  0.1200E+02
    -31.570  0.0000E+00  0.1200E+02
    -31.299  0.0000E+00  0.1200E+02
    -31.028  0.0000E+00  0.1200E+02
    -30.757  0.0000E+00  0.1200E+02
    -30.486  0.0000E+00  0.1200E+02
    -30.216  0.0000E+00  0.1200E+02
    -29.945  0.0000E+00  0.1200E+02
    -29.674  0.0000E+00  0.1200E+02
    -29.403  0.0000E+00  0.1200E+02
    -29.132  0.0000E+00  0.1200E+02
    -28.862  0.0000E+00  0.1200E+02
    -28.591  0.0000E+00  0.1200E+02
    -28.320  0.0000E+00  0.1200E+02
    -28.049  0.0000E+00  0.1200E+02
    -27.778  0.0000E+00  0.1200E+02
    -27.508  0.0000E+00  0.1200E+02
    -27.237  0.0000E+00  0.1200E+02
    -26.966  0.0000E+00  0.1200E+02
    -26.695  0.0000E+00  0.1200E+02
    -26.424  0.0000E+00  0.1200E+02
    -26.154  0.0000E+00  0.1200E+02
    -25.883  0.0000E+00  0.1200E+02
    -25.612  0.0000E+00  0.1200E+02
    -25.341  0.0000E+00  0.1200E+02
    -25.070  0.0000E+00  0.1200E+02
    -24.800  0.0000E+00  0.1200E+02
    -24.529  0.0000E+00  0.1200E+02
    -24.258  0.0000E+00  0.1200E+02
    -23.987  0.0000E+00  0.1200E+02
    -23.716  0.0000E+00  0.1200E+02
    -23.445  0.0000E+00  0.1200E+02
    -23.175  0.0000E+00  0.1200E+02
    -22.904  0.0000E+00  0.1200E+02
    -22.633  0.0000E+00  0.1200E+02
    -22.362  0.0000E+00  0.1200E+02
    -22.091  0.0000E+00  0.1200E+02
    -21.821  0.0000E+00  0.1200E+02
    -21.550  0.0000E+00  0.1200E+02
    -21.279  0.0000E+00  0.1200E+02
    -21.008  0.0000E+00  0.1200E+02
    -20.737  0.0000E+00  0.1200E+02
    -20.467  0.0000E+00  0.1200E+02
    -20.196  0.0000E+00  0.1200E+02
    -19.925  0.0000E+00  0.1200E+02
    -19.654  0.0000E+00  0.1200E+02
    -19.383  0.0000E+00  0.1200E+02
    -19.113  0.0000E+00  0.1200E+02
    -18.842  0.0000E+00  0.1200E+02
    -18.571  0.0000E+00  0.1200E+02
    -18.300  0.0000E+00  0.1200E+02
    -18.029  0.0000E+00  0.1200E+02
    -17.758  0.0000E+00  0.1200E+02
    -17.488  0.0000E+00  0.1200E+02
    -17.217  0.0000E+00  0.1200E+02
    -16.946  0.0000E+00  0.1200E+02
    -16.675  0.0000E+00  0.1200E+02
    -16.404  0.0000E+00  0.1200E+02
    -16.134  0.0000E+00  0.1200E+02
    -15.863  0.0000E+00  0.1200E+02
    -15.592  0.0000E+00  0.1200E+02
    -15.321  0.0000E+00  0.1200E+02
    -15.050  0.0000E+00  0.1200E+02
    -14.780  0.0000E+00  0.1200E+02
    -14.509  0.0000E+00  0.1200E+02
    -14.238  0.0000E+00  0.1200E+02
    -13.967  0.0000E+00  0.1200E+02
    -13.696  0.0000E+00  0.1200E+02
    -13.426  0.0000E+00  0.1200E+02
    -13.155  0.0000E+00  0.1200E+02
    -12.884  0.0000E+00  0.1200E+02
    -12.613  0.0000E+00  0.1200E+02
    -12.342  0.0000E+00  0.1200E+02
    -12.071  0.0000E+00  0.1200E+02
    -11.801  0.0000E+00  0.1200E+02
    -11.530  0.0000E+00  0.1200E+02
    -11.259  0.0000E+00  0.1200E+02
    -10.988  0.0000E+00  0.1200E+02
    -10.717  0.0000E+00  0.1200E+02
    -10.447  0.0000E+00  0.1200E+02
    -10.176  0.0000E+00  0.1200E+02
     -9.905  0.0000E+00  0.1200E+02
     -9.634  0.0000E+00  0.1200E+02
     -9.363  0.0000E+00  0.1200E+02
     -9.093  0.0000E+00  0.1200E+02
     -8.822  0.0000E+00  0.1200E+02
     -8.551  0.0000E+00  0.1200E+02
     -8.280  0.0000E+00  0.1200E+02
     -8.009  0.0000E+00  0.1200E+02
     -7.739  0.0000E+00  0.1200E+02
     -7.468  0.0000E+00  0.1200E+02
     -7.197  0.0000E+00  0.1200E+02
     -6.926  0.0000E+00  0.1200E+02
     -6.655  0.0000E+00  0.1200E+02
     -6.385  0.0000E+00  0.1200E+02
     -6.114  0.0000E+00  0.1200E+02
     -5.843  0.0000E+00  0.1200E+02
     -5.572  0.0000E+00  0.1200E+02
     -5.301  0.0000E+00  0.1200E+02
     -5.030  0.0000E+00  0.1200E+02
     -4.760  0.0000E+00  0.1200E+02
     -4.489  0.0000E+00  0.1200E+02
     -4.218  0.0000E+00  0.1200E+02
     -3.947  0.0000E+00  0.1200E+02
     -3.676  0.0000E+00  0.1200E+02
     -3.406  0.0000E+00  0.1200E+02
     -3.135  0.0000E+00  0.1200E+02
     -2.864  0.0000E+00  0.1200E+02
     -2.593  0.0000E+00  0.1200E+02
     -2.322  0.0000E+00  0.1200E+02
     -2.052  0.0000E+00  0.1200E+02
     -1.781  0.0000E+00  0.1200E+02
     -1.510  0.0000E+00  0.1200E+02
     -1.239  0.0000E+00  0.1200E+02
     -0.968  0.0000E+00  0.1200E+02
     -0.698  0.0000E+00  0.1200E+02
     -0.427  0.0000E+00  0.1200E+02
     -0.156  0.0000E+00  0.1200E+02
      0.115  0.0000E+00  0.1200E+02
      0.386  0.0000E+00  0.1200E+02
      0.657  0.0000E+00  0.1200E+02
      0.927  0.0000E+00  0.1200E+02
      1.198  0.1253E-11  0.1200E+02
      1.469  0.8547E-02  0.1200E+02
      1.740  0.2537E-01  0.1201E+02
      2.011  0.1777E+00  0.1206E+02
      2.281  0.4423E-01  0.1207E+02
      2.552  0.1561E+00  0.1211E+02
      2.823  0.1685E+00  0.1216E+02
      3.094  0.3158E+00  0.1224E+02
      3.365  0.1286E+00  0.1228E+02
      3.635  0.2835E+00  0.1235E+02
      3.906  0.4058E+00  0.1246E+02
      4.177  0.6856E+00  0.1265E+02
      4.448  0.7503E+00  0.1285E+02
      4.719  0.1578E+01  0.1328E+02
      4.989  0.2543E+01  0.1397E+02
      5.260  0.1870E+01  0.1448E+02
      5.531  0.2506E+01  0.1515E+02
      5.802  0.1856E+01  0.1566E+02
      6.073  0.3300E+01  0.1655E+02
      6.343  0.3299E+01  0.1744E+02
      6.614  0.2613E+01  0.1815E+02
      6.885  0.3315E+01  0.1905E+02
      7.156  0.2607E+01  0.1976E+02
      7.427  0.2719E+01  0.2049E+02
      7.698  0.3635E+01  0.2148E+02
      7.968  0.3685E+01  0.2247E+02
      8.239  0.3137E+01  0.2332E+02
      8.510  0.4190E+01  0.2446E+02
      8.781  0.3130E+01  0.2531E+02
      9.052  0.3035E+01  0.2613E+02
      9.322  0.1898E+01  0.2664E+02
      9.593  0.2567E+01  0.2734E+02
      9.864  0.2527E+01  0.2802E+02
     10.135  0.2755E+01  0.2877E+02
     10.406  0.2428E+01  0.2943E+02
     10.676  0.2590E+01  0.3013E+02
     10.947  0.3857E+01  0.3117E+02
     11.218  0.4394E+01  0.3236E+02
     11.489  0.2475E+01  0.3303E+02
     11.760  0.1346E+01  0.3340E+02
     12.030  0.7026E+00  0.3359E+02
     12.301  0.3283E+00  0.3367E+02
     12.572  0.1659E+00  0.3372E+02
     12.843  0.2034E+00  0.3377E+02
     13.114  0.1043E+01  0.3406E+02
     13.385  0.1084E+01  0.3435E+02
     13.655  0.5700E+00  0.3451E+02
     13.926  0.1206E+00  0.3454E+02
     14.197  0.3775E+00  0.3464E+02
     14.468  0.7017E+00  0.3483E+02
     14.739  0.1960E+00  0.3488E+02
     15.009  0.7441E+00  0.3508E+02
     15.280  0.4518E+00  0.3521E+02
     15.551  0.4880E+00  0.3534E+02
     15.822  0.9499E+00  0.3560E+02
     16.093  0.4487E+00  0.3572E+02
     16.363  0.4848E+00  0.3585E+02
     16.634  0.2874E+00  0.3593E+02
     16.905  0.2406E+00  0.3599E+02
     17.176  0.2277E+00  0.3605E+02
     17.447  0.5171E+00  0.3619E+02
     17.717  0.1062E+01  0.3648E+02
     17.988  0.9348E+00  0.3673E+02
     18.259  0.8799E+00  0.3697E+02
     18.530  0.7158E+00  0.3717E+02
     18.801  0.8448E+00  0.3740E+02
     19.071  0.7569E+00  0.3760E+02
     19.342  0.4320E+00  0.3772E+02
     19.613  0.5305E+00  0.3786E+02
     19.884  0.7031E+00  0.3805E+02
     20.155  0.1025E+01  0.3833E+02
     20.426  0.9380E+00  0.3858E+02
     20.696  0.6071E+00  0.3875E+02
     20.967  0.2829E+00  0.3882E+02
     21.238  0.6857E+00  0.3901E+02
     21.509  0.1030E+01  0.3929E+02
     21.780  0.6858E+00  0.3947E+02
     22.050  0.5459E+00  0.3962E+02
     22.321  0.3177E+00  0.3971E+02
     22.592  0.1052E+01  0.3999E+02
     22.863  0.3316E+00  0.4008E+02
     23.134  0.3788E+00  0.4019E+02
     23.404  0.1177E+01  0.4050E+02
     23.675  0.1176E+01  0.4082E+02
     23.946  0.9742E+00  0.4109E+02
     24.217  0.6519E+00  0.4126E+02
     24.488  0.7829E+00  0.4148E+02
     24.758  0.3950E+00  0.4158E+02
     25.029  0.9088E+00  0.4183E+02
     25.300  0.2071E+01  0.4239E+02
     25.571  0.1877E+01  0.4290E+02
     25.842  0.1395E+01  0.4328E+02
     26.113  0.1541E+01  0.4369E+02
     26.383  0.1095E+01  0.4399E+02
     26.654  0.1136E+01  0.4430E+02
     26.925  0.1176E+01  0.4462E+02
     27.196  0.1943E+01  0.4514E+02
     27.467  0.1977E+01  0.4568E+02
     27.737  0.9952E+00  0.4595E+02
     28.008  0.1321E+01  0.4630E+02
     28.279  0.1237E+01  0.4664E+02
     28.550  0.7866E+00  0.4685E+02
     28.821  0.8694E+00  0.4709E+02
     29.091  0.5875E+00  0.4725E+02
     29.362  0.6876E+00  0.4743E+02
     29.633  0.1869E+00  0.4748E+02
     29.904  0.6075E+00  0.4765E+02
     30.175  0.3648E+00  0.4775E+02
     30.445  0.1274E+00  0.4778E+02
     30.716  0.5908E+00  0.4794E+02
     30.987  0.6978E-01  0.4796E+02
     31.258  0.7288E-01  0.4798E+02
     31.529  0.1693E-01  0.4798E+02
     31.800  0.3846E-01  0.4799E+02
     32.070  0.4937E-04  0.4800E+02
     32.341  0.1841E-01  0.4800E+02
     32.612  0.0000E+00  0.4800E+02
     32.883  0.0000E+00  0.4800E+02
     33.154  0.0000E+00  0.4800E+02
     33.424  0.0000E+00  0.4800E+02
     33.695  0.0000E+00  0.4800E+02
     33.966  0.0000E+00  0.4800E+02
     34.237  0.0000E+00  0.4800E+02
     34.508  0.0000E+00  0.4800E+02
     34.778  0.0000E+00  0.4800E+02
     35.049  0.0000E+00  0.4800E+02
     35.320  0.0000E+00  0.4800E+02
     35.591  0.0000E+00  0.4800E+02
     35.862  0.0000E+00  0.4800E+02
