    2    2    1    1
  0.1579990E+02  0.2760000E-09  0.2760000E-09  0.4790000E-09  0.5000000E-15
  1.000000000000000E-004
  CAR 
 Pt-hcp                                  
     32     70     24
 
  0.0000000E+00  0.0000000E+00  0.0000000E+00  0.1250000E-02
      1        -41.476050   1.000000
      2        -41.307856   1.000000
      3        -41.307855   1.000000
      4        -41.267939   1.000000
      5        -41.267938   1.000000
      6        -41.148058   1.000000
      7          1.421371   1.000000
      8          4.066978   1.000000
      9          7.202245   1.000000
     10          7.709789   1.000000
     11          7.709790   1.000000
     12          8.074362   1.000000
     13          8.074363   1.000000
     14          9.343638   1.000000
     15          9.343638   1.000000
     16         10.419263   1.000000
     17         10.919975   1.000000
     18         10.919975   1.000000
     19         15.808381   0.000000
     20         26.226278   0.000000
     21         26.805961   0.000000
     22         28.375446   0.000000
     23         32.168789   0.000000
     24         32.168789   0.000000
 
  0.1000000E+00 -0.1387779E-16  0.0000000E+00  0.7500000E-02
      1        -41.464412   1.000000
      2        -41.344287   1.000000
      3        -41.318501   1.000000
      4        -41.305291   1.000000
      5        -41.275536   1.000000
      6        -41.150850   1.000000
      7          1.782688   1.000000
      8          4.394422   1.000000
      9          7.139184   1.000000
     10          7.716174   1.000000
     11          7.925510   1.000000
     12          7.985272   1.000000
     13          8.336313   1.000000
     14          8.758787   1.000000
     15          9.173525   1.000000
     16          9.318116   1.000000
     17         10.981881   0.999965
     18         12.677459   0.000000
     19         15.772204   0.000000
     20         26.658890   0.000000
     21         27.334421   0.000000
     22         28.703226   0.000000
     23         30.543393   0.000000
     24         30.662146   0.000000
 
  0.2000000E+00 -0.2775558E-16  0.0000000E+00  0.7500000E-02
      1        -41.439197   1.000000
      2        -41.431994   1.000000
      3        -41.400881   1.000000
      4        -41.345549   1.000000
      5        -41.295466   1.000000
      6        -41.159592   1.000000
      7          2.767657   1.000000
      8          5.114784   1.000000
      9          6.914761   1.000000
     10          7.397766   1.000000
     11          7.434336   1.000000
     12          8.334840   1.000000
     13          8.765955   1.000000
     14          8.795993   1.000000
     15          8.805494   1.000000
     16          9.073089   1.000000
     17         11.080455   0.883098
     18         14.846936   0.000000
     19         15.704586   0.000000
     20         25.157704   0.000000
     21         27.956033   0.000000
     22         28.234756   0.000000
     23         29.110182   0.000000
     24         29.309658   0.000000
 
  0.3000000E+00  0.0000000E+00  0.0000000E+00  0.7500000E-02
      1        -41.555959   1.000000
      2        -41.516676   1.000000
      3        -41.386642   1.000000
      4        -41.378285   1.000000
      5        -41.320578   1.000000
      6        -41.175621   1.000000
      7          3.972191   1.000000
      8          5.240244   1.000000
      9          6.345175   1.000000
     10          7.177174   1.000000
     11          7.534968   1.000000
     12          8.294577   1.000000
     13          8.406475   1.000000
     14          9.482955   1.000000
     15          9.887048   1.000000
     16         10.116732   1.000000
     17         11.133162   0.382031
     18         15.827411   0.000000
     19         17.056125   0.000000
     20         21.435040   0.000000
     21         25.853132   0.000000
     22         26.399888   0.000000
     23         27.993939   0.000000
     24         29.100042   0.000000
 
  0.4000000E+00 -0.2775558E-16  0.0000000E+00  0.7500000E-02
      1        -41.650190   1.000000
      2        -41.608403   1.000000
      3        -41.404195   1.000000
      4        -41.341183   1.000000
      5        -41.340869   1.000000
      6        -41.197605   1.000000
      7          4.630703   1.000000
      8          4.926729   1.000000
      9          5.693601   1.000000
     10          7.694879   1.000000
     11          7.920575   1.000000
     12          8.129287   1.000000
     13          8.346668   1.000000
     14         10.967838   0.999994
     15         11.143620   0.275604
     16         11.144344   0.268803
     17         11.353017   0.000000
     18         16.632591   0.000000
     19         17.799458   0.000000
     20         19.019721   0.000000
     21         23.534904   0.000000
     22         23.945464   0.000000
     23         25.046732   0.000000
     24         27.824586   0.000000
 
  0.5000000E+00 -0.2775558E-16  0.0000000E+00  0.3750000E-02
      1        -41.685979   1.000000
      2        -41.643193   1.000000
      3        -41.414091   1.000000
      4        -41.349008   1.000000
      5        -41.318064   1.000000
      6        -41.211355   1.000000
      7          4.721155   1.000000
      8          4.798674   1.000000
      9          5.473038   1.000000
     10          7.785221   1.000000
     11          8.030032   1.000000
     12          8.215825   1.000000
     13          8.551283   1.000000
     14         11.143419   0.277506
     15         11.422785   0.000000
     16         11.622641   0.000000
     17         13.397979   0.000000
     18         14.873181   0.000000
     19         18.393768   0.000000
     20         19.968328   0.000000
     21         20.632712   0.000000
     22         23.166241   0.000000
     23         24.400194   0.000000
     24         27.250637   0.000000
 
  0.1000000E+00  0.1000000E+00  0.0000000E+00  0.7500000E-02
      1        -41.442379   1.000000
      2        -41.403736   1.000000
      3        -41.378268   1.000000
      4        -41.331775   1.000000
      5        -41.294531   1.000000
      6        -41.156640   1.000000
      7          2.464202   1.000000
      8          4.966460   1.000000
      9          6.873970   1.000000
     10          7.630603   1.000000
     11          7.799279   1.000000
     12          7.933931   1.000000
     13          8.568161   1.000000
     14          8.591884   1.000000
     15          8.923020   1.000000
     16          9.233172   1.000000
     17         11.002360   0.999662
     18         14.274452   0.000000
     19         15.722371   0.000000
     20         26.576647   0.000000
     21         27.184357   0.000000
     22         28.239826   0.000000
     23         29.262833   0.000000
     24         30.009319   0.000000
 
  0.2000000E+00  0.1000000E+00  0.0000000E+00  0.1500000E-01
      1        -41.501780   1.000000
      2        -41.476290   1.000000
      3        -41.403219   1.000000
      4        -41.369541   1.000000
      5        -41.324364   1.000000
      6        -41.169135   1.000000
      7          3.633502   1.000000
      8          5.578076   1.000000
      9          6.697805   1.000000
     10          6.754095   1.000000
     11          7.359419   1.000000
     12          8.097670   1.000000
     13          8.544182   1.000000
     14          8.867258   1.000000
     15          9.623440   1.000000
     16         10.024083   1.000000
     17         11.002095   0.999672
     18         15.770011   0.000000
     19         16.357516   0.000000
     20         23.336178   0.000000
     21         25.242552   0.000000
     22         27.394112   0.000000
     23         29.291096   0.000000
     24         29.939607   0.000000
 
  0.3000000E+00  0.1000000E+00  0.0000000E+00  0.1500000E-01
      1        -41.603404   1.000000
      2        -41.568488   1.000000
      3        -41.408467   1.000000
      4        -41.356551   1.000000
      5        -41.352848   1.000000
      6        -41.189238   1.000000
      7          4.689211   1.000000
      8          5.339668   1.000000
      9          5.983860   1.000000
     10          7.193144   1.000000
     11          7.800257   1.000000
     12          7.810002   1.000000
     13          8.378751   1.000000
     14          9.641625   1.000000
     15         10.703531   1.000000
     16         10.988144   0.999928
     17         11.446265   0.000000
     18         16.366213   0.000000
     19         18.486393   0.000000
     20         19.510954   0.000000
     21         23.135631   0.000000
     22         25.936474   0.000000
     23         26.240942   0.000000
     24         28.241078   0.000000
 
  0.4000000E+00  0.1000000E+00  0.0000000E+00  0.1500000E-01
      1        -41.666357   1.000000
      2        -41.624537   1.000000
      3        -41.432107   1.000000
      4        -41.370423   1.000000
      5        -41.318275   1.000000
      6        -41.211122   1.000000
      7          4.994738   1.000000
      8          5.084482   1.000000
      9          5.583136   1.000000
     10          7.742505   1.000000
     11          7.980366   1.000000
     12          7.980921   1.000000
     13          8.309742   1.000000
     14         10.874524   1.000000
     15         10.970659   0.999991
     16         11.254970   0.000090
     17         13.149203   0.000000
     18         16.102783   0.000000
     19         18.051081   0.000000
     20         20.153163   0.000000
     21         20.929447   0.000000
     22         23.274055   0.000000
     23         24.868148   0.000000
     24         27.172186   0.000000
 
  0.2000000E+00  0.2000000E+00  0.0000000E+00  0.7500000E-02
      1        -41.559648   1.000000
      2        -41.558570   1.000000
      3        -41.414099   1.000000
      4        -41.374653   1.000000
      5        -41.362254   1.000000
      6        -41.186499   1.000000
      7          4.843129   1.000000
      8          6.183062   1.000000
      9          6.186133   1.000000
     10          6.247328   1.000000
     11          7.573759   1.000000
     12          7.611139   1.000000
     13          8.570106   1.000000
     14          8.904045   1.000000
     15         10.687675   1.000000
     16         10.820587   1.000000
     17         11.527676   0.000000
     18         16.341757   0.000000
     19         18.363172   0.000000
     20         20.964620   0.000000
     21         21.878691   0.000000
     22         26.686521   0.000000
     23         27.887181   0.000000
     24         28.380772   0.000000
 
  0.3000000E+00  0.2000000E+00  0.0000000E+00  0.1500000E-01
      1        -41.620788   1.000000
      2        -41.592181   1.000000
      3        -41.465268   1.000000
      4        -41.417507   1.000000
      5        -41.318753   1.000000
      6        -41.210675   1.000000
      7          5.624674   1.000000
      8          5.803842   1.000000
      9          5.836809   1.000000
     10          6.982773   1.000000
     11          7.465776   1.000000
     12          8.084293   1.000000
     13          8.122846   1.000000
     14          9.694553   1.000000
     15         10.682016   1.000000
     16         11.122868   0.496405
     17         13.201827   0.000000
     18         17.363900   0.000000
     19         18.284354   0.000000
     20         19.923669   0.000000
     21         20.445468   0.000000
     22         24.849909   0.000000
     23         25.899524   0.000000
     24         26.890727   0.000000
 
  0.4000000E+00  0.2000000E+00  0.0000000E+00  0.7500000E-02
      1        -41.643298   1.000000
      2        -41.601049   1.000000
      3        -41.489799   1.000000
      4        -41.433717   1.000000
      5        -41.294060   1.000000
      6        -41.228019   1.000000
      7          5.669282   1.000000
      8          5.685177   1.000000
      9          5.740152   1.000000
     10          7.556392   1.000000
     11          7.605713   1.000000
     12          7.705801   1.000000
     13          8.389623   1.000000
     14         10.455207   1.000000
     15         10.631520   1.000000
     16         10.928363   1.000000
     17         14.797636   0.000000
     18         15.313634   0.000000
     19         18.624769   0.000000
     20         20.186133   0.000000
     21         21.654363   0.000000
     22         22.681573   0.000000
     23         25.097826   0.000000
     24         26.390006   0.000000
 
  0.3000000E+00  0.3000000E+00  0.0000000E+00  0.7500000E-02
      1        -41.607056   1.000000
      2        -41.574870   1.000000
      3        -41.527889   1.000000
      4        -41.487001   1.000000
      5        -41.280318   1.000000
      6        -41.239118   1.000000
      7          5.763616   1.000000
      8          6.175042   1.000000
      9          6.429860   1.000000
     10          6.866364   1.000000
     11          7.417375   1.000000
     12          7.684198   1.000000
     13          8.477606   1.000000
     14         10.054111   1.000000
     15         10.464533   1.000000
     16         10.767908   1.000000
     17         14.809489   0.000000
     18         16.078018   0.000000
     19         17.499429   0.000000
     20         21.016667   0.000000
     21         22.578453   0.000000
     22         23.802540   0.000000
     23         24.618566   0.000000
     24         25.001996   0.000000
 
  0.0000000E+00  0.0000000E+00  0.1250000E+00  0.2500000E-02
      1        -41.463899   1.000000
      2        -41.306396   1.000000
      3        -41.306395   1.000000
      4        -41.269626   1.000000
      5        -41.269625   1.000000
      6        -41.160999   1.000000
      7          1.554881   1.000000
      8          4.047058   1.000000
      9          7.169333   1.000000
     10          7.690740   1.000000
     11          7.690741   1.000000
     12          8.035957   1.000000
     13          8.035958   1.000000
     14          9.440498   1.000000
     15          9.440498   1.000000
     16          9.804330   1.000000
     17         10.892451   1.000000
     18         10.892451   1.000000
     19         16.672946   0.000000
     20         25.765216   0.000000
     21         27.313802   0.000000
     22         28.091797   0.000000
     23         31.618567   0.000000
     24         31.618567   0.000000
 
  0.1000000E+00 -0.1387779E-16  0.1250000E+00  0.1500000E-01
      1        -41.453557   1.000000
      2        -41.341922   1.000000
      3        -41.316882   1.000000
      4        -41.307456   1.000000
      5        -41.277212   1.000000
      6        -41.162259   1.000000
      7          1.913607   1.000000
      8          4.380902   1.000000
      9          7.141850   1.000000
     10          7.631372   1.000000
     11          7.823765   1.000000
     12          7.957487   1.000000
     13          8.293788   1.000000
     14          8.704657   1.000000
     15          9.288194   1.000000
     16          9.319113   1.000000
     17         10.943493   1.000000
     18         12.140957   0.000000
     19         16.760225   0.000000
     20         26.265593   0.000000
     21         27.739450   0.000000
     22         28.475315   0.000000
     23         29.940512   0.000000
     24         30.584087   0.000000
 
  0.2000000E+00 -0.2775558E-16  0.1250000E+00  0.1500000E-01
      1        -41.449802   1.000000
      2        -41.411621   1.000000
      3        -41.401990   1.000000
      4        -41.343691   1.000000
      5        -41.297387   1.000000
      6        -41.168555   1.000000
      7          2.883323   1.000000
      8          5.124132   1.000000
      9          6.946313   1.000000
     10          7.141267   1.000000
     11          7.442179   1.000000
     12          8.223213   1.000000
     13          8.608602   1.000000
     14          8.949955   1.000000
     15          9.014824   1.000000
     16          9.125179   1.000000
     17         11.020475   0.998056
     18         13.661078   0.000000
     19         17.170851   0.000000
     20         25.254668   0.000000
     21         27.738895   0.000000
     22         28.391207   0.000000
     23         28.596644   0.000000
     24         29.728535   0.000000
 
  0.3000000E+00  0.0000000E+00  0.1250000E+00  0.1500000E-01
      1        -41.557938   1.000000
      2        -41.520298   1.000000
      3        -41.376029   1.000000
      4        -41.374950   1.000000
      5        -41.322816   1.000000
      6        -41.181770   1.000000
      7          4.025495   1.000000
      8          5.268215   1.000000
      9          6.325768   1.000000
     10          7.012123   1.000000
     11          7.562555   1.000000
     12          8.400759   1.000000
     13          8.467929   1.000000
     14          9.536867   1.000000
     15          9.908361   1.000000
     16         10.068960   1.000000
     17         11.063366   0.952931
     18         14.750575   0.000000
     19         18.165462   0.000000
     20         21.704671   0.000000
     21         26.092326   0.000000
     22         26.129054   0.000000
     23         27.694647   0.000000
     24         29.559854   0.000000
 
  0.4000000E+00 -0.2775558E-16  0.1250000E+00  0.1500000E-01
      1        -41.651272   1.000000
      2        -41.612291   1.000000
      3        -41.401877   1.000000
      4        -41.343691   1.000000
      5        -41.332619   1.000000
      6        -41.200921   1.000000
      7          4.566661   1.000000
      8          4.934139   1.000000
      9          5.847306   1.000000
     10          7.064240   1.000000
     11          8.140239   1.000000
     12          8.213676   1.000000
     13          8.892209   1.000000
     14         10.886094   1.000000
     15         10.982982   0.999961
     16         11.241952   0.000366
     17         11.265568   0.000026
     18         15.779568   0.000000
     19         17.841896   0.000000
     20         19.835981   0.000000
     21         23.259675   0.000000
     22         24.221378   0.000000
     23         25.369879   0.000000
     24         28.046350   0.000000
 
  0.5000000E+00 -0.2775558E-16  0.1250000E+00  0.7500000E-02
      1        -41.686919   1.000000
      2        -41.646914   1.000000
      3        -41.411627   1.000000
      4        -41.351592   1.000000
      5        -41.311329   1.000000
      6        -41.213181   1.000000
      7          4.643805   1.000000
      8          4.750567   1.000000
      9          5.694237   1.000000
     10          7.127309   1.000000
     11          8.119604   1.000000
     12          8.290379   1.000000
     13          9.341969   1.000000
     14         10.967213   0.999994
     15         11.442510   0.000000
     16         11.616315   0.000000
     17         13.161518   0.000000
     18         14.761330   0.000000
     19         18.254814   0.000000
     20         18.999492   0.000000
     21         21.856461   0.000000
     22         23.455756   0.000000
     23         24.532716   0.000000
     24         27.530536   0.000000
 
  0.1000000E+00  0.1000000E+00  0.1250000E+00  0.1500000E-01
      1        -41.439086   1.000000
      2        -41.394967   1.000000
      3        -41.379635   1.000000
      4        -41.331271   1.000000
      5        -41.296199   1.000000
      6        -41.166168   1.000000
      7          2.587068   1.000000
      8          4.968169   1.000000
      9          6.905263   1.000000
     10          7.354584   1.000000
     11          7.711667   1.000000
     12          7.939539   1.000000
     13          8.501228   1.000000
     14          8.722860   1.000000
     15          9.012898   1.000000
     16          9.303774   1.000000
     17         10.951441   0.999999
     18         13.309424   0.000000
     19         17.015942   0.000000
     20         26.531153   0.000000
     21         27.252439   0.000000
     22         28.137748   0.000000
     23         28.810781   0.000000
     24         30.264342   0.000000
 
  0.2000000E+00  0.1000000E+00  0.1250000E+00  0.3000000E-01
      1        -41.505091   1.000000
      2        -41.479108   1.000000
      3        -41.389769   1.000000
      4        -41.368262   1.000000
      5        -41.326213   1.000000
      6        -41.176153   1.000000
      7          3.724206   1.000000
      8          5.612001   1.000000
      9          6.575750   1.000000
     10          6.763879   1.000000
     11          7.330749   1.000000
     12          7.991798   1.000000
     13          8.705494   1.000000
     14          8.847985   1.000000
     15          9.733668   1.000000
     16          9.971883   1.000000
     17         10.951240   0.999999
     18         14.477813   0.000000
     19         17.816861   0.000000
     20         23.515530   0.000000
     21         25.371866   0.000000
     22         27.312000   0.000000
     23         28.690856   0.000000
     24         30.517900   0.000000
 
  0.3000000E+00  0.1000000E+00  0.1250000E+00  0.3000000E-01
      1        -41.604723   1.000000
      2        -41.571933   1.000000
      3        -41.407189   1.000000
      4        -41.356490   1.000000
      5        -41.345376   1.000000
      6        -41.193264   1.000000
      7          4.673075   1.000000
      8          5.373879   1.000000
      9          6.047870   1.000000
     10          6.916691   1.000000
     11          7.770631   1.000000
     12          8.149713   1.000000
     13          8.393015   1.000000
     14          9.658386   1.000000
     15         10.745557   1.000000
     16         10.805766   1.000000
     17         11.504774   0.000000
     18         15.568913   0.000000
     19         18.752652   0.000000
     20         20.260918   0.000000
     21         23.247480   0.000000
     22         25.412107   0.000000
     23         26.591131   0.000000
     24         28.437623   0.000000
 
  0.4000000E+00  0.1000000E+00  0.1250000E+00  0.3000000E-01
      1        -41.667160   1.000000
      2        -41.628323   1.000000
      3        -41.430580   1.000000
      4        -41.373209   1.000000
      5        -41.310986   1.000000
      6        -41.212610   1.000000
      7          4.872707   1.000000
      8          5.071439   1.000000
      9          5.837328   1.000000
     10          7.069708   1.000000
     11          7.856874   1.000000
     12          8.415971   1.000000
     13          8.819018   1.000000
     14         10.762052   1.000000
     15         10.878152   1.000000
     16         11.296936   0.000000
     17         13.102427   0.000000
     18         15.907349   0.000000
     19         17.700951   0.000000
     20         20.050212   0.000000
     21         21.425060   0.000000
     22         23.536297   0.000000
     23         25.082468   0.000000
     24         27.255245   0.000000
 
  0.2000000E+00  0.2000000E+00  0.1250000E+00  0.1500000E-01
      1        -41.561638   1.000000
      2        -41.560700   1.000000
      3        -41.413847   1.000000
      4        -41.378514   1.000000
      5        -41.349926   1.000000
      6        -41.190571   1.000000
      7          4.877083   1.000000
      8          6.023648   1.000000
      9          6.266199   1.000000
     10          6.348062   1.000000
     11          7.583835   1.000000
     12          7.592352   1.000000
     13          8.453126   1.000000
     14          9.057839   1.000000
     15         10.609262   1.000000
     16         10.797971   1.000000
     17         11.598545   0.000000
     18         15.565827   0.000000
     19         18.980777   0.000000
     20         21.404630   0.000000
     21         22.041149   0.000000
     22         26.526896   0.000000
     23         27.044271   0.000000
     24         29.033471   0.000000
 
  0.3000000E+00  0.2000000E+00  0.1250000E+00  0.3000000E-01
      1        -41.621367   1.000000
      2        -41.595423   1.000000
      3        -41.465207   1.000000
      4        -41.420590   1.000000
      5        -41.310658   1.000000
      6        -41.211782   1.000000
      7          5.466096   1.000000
      8          5.850562   1.000000
      9          6.021003   1.000000
     10          6.781831   1.000000
     11          7.605182   1.000000
     12          7.977993   1.000000
     13          8.265338   1.000000
     14          9.756692   1.000000
     15         10.481364   1.000000
     16         11.225159   0.001853
     17         13.244997   0.000000
     18         17.365154   0.000000
     19         17.639112   0.000000
     20         20.002898   0.000000
     21         21.263277   0.000000
     22         24.349400   0.000000
     23         25.903842   0.000000
     24         26.945449   0.000000
 
  0.4000000E+00  0.2000000E+00  0.1250000E+00  0.1500000E-01
      1        -41.643444   1.000000
      2        -41.604756   1.000000
      3        -41.489419   1.000000
      4        -41.436811   1.000000
      5        -41.287912   1.000000
      6        -41.227226   1.000000
      7          5.412066   1.000000
      8          5.731006   1.000000
      9          6.112522   1.000000
     10          7.002326   1.000000
     11          7.465815   1.000000
     12          8.170469   1.000000
     13          8.558035   1.000000
     14         10.423305   1.000000
     15         10.480964   1.000000
     16         11.003953   0.999602
     17         14.877004   0.000000
     18         15.347480   0.000000
     19         18.699450   0.000000
     20         19.867159   0.000000
     21         20.840385   0.000000
     22         23.784390   0.000000
     23         25.359041   0.000000
     24         25.627561   0.000000
 
  0.3000000E+00  0.3000000E+00  0.1250000E+00  0.1500000E-01
      1        -41.605905   1.000000
      2        -41.578148   1.000000
      3        -41.529562   1.000000
      4        -41.490080   1.000000
      5        -41.274822   1.000000
      6        -41.237116   1.000000
      7          5.797758   1.000000
      8          6.154885   1.000000
      9          6.464035   1.000000
     10          6.751279   1.000000
     11          7.543068   1.000000
     12          7.584103   1.000000
     13          8.487609   1.000000
     14         10.147415   1.000000
     15         10.254685   1.000000
     16         10.862403   1.000000
     17         14.904935   0.000000
     18         16.221328   0.000000
     19         17.750429   0.000000
     20         20.145833   0.000000
     21         22.777466   0.000000
     22         22.874149   0.000000
     23         24.730002   0.000000
     24         26.026010   0.000000
 
  0.0000000E+00  0.0000000E+00  0.2500000E+00  0.2500000E-02
      1        -41.429035   1.000000
      2        -41.302103   1.000000
      3        -41.302102   1.000000
      4        -41.273971   1.000000
      5        -41.273970   1.000000
      6        -41.197227   1.000000
      7          1.938756   1.000000
      8          3.949969   1.000000
      9          7.094807   1.000000
     10          7.660692   1.000000
     11          7.660693   1.000000
     12          7.937681   1.000000
     13          7.937682   1.000000
     14          8.660463   1.000000
     15          9.692438   1.000000
     16          9.692438   1.000000
     17         10.798152   1.000000
     18         10.798153   1.000000
     19         18.582761   0.000000
     20         25.238911   0.000000
     21         27.481295   0.000000
     22         27.606330   0.000000
     23         31.111619   0.000000
     24         31.111619   0.000000
 
  0.1000000E+00 -0.1387779E-16  0.2500000E+00  0.1500000E-01
      1        -41.423269   1.000000
      2        -41.334708   1.000000
      3        -41.313884   1.000000
      4        -41.312251   1.000000
      5        -41.281885   1.000000
      6        -41.194551   1.000000
      7          2.290991   1.000000
      8          4.298379   1.000000
      9          7.125619   1.000000
     10          7.482472   1.000000
     11          7.559300   1.000000
     12          7.913799   1.000000
     13          8.189601   1.000000
     14          8.301810   1.000000
     15          9.572915   1.000000
     16          9.574192   1.000000
     17         10.820445   1.000000
     18         11.426010   0.000000
     19         18.737445   0.000000
     20         25.741162   0.000000
     21         27.873519   0.000000
     22         27.989469   0.000000
     23         29.659789   0.000000
     24         30.540066   0.000000
 
  0.2000000E+00 -0.2775558E-16  0.2500000E+00  0.1500000E-01
      1        -41.452998   1.000000
      2        -41.413159   1.000000
      3        -41.372249   1.000000
      4        -41.338320   1.000000
      5        -41.302881   1.000000
      6        -41.194142   1.000000
      7          3.218228   1.000000
      8          5.096969   1.000000
      9          6.766682   1.000000
     10          7.053890   1.000000
     11          7.216540   1.000000
     12          8.026098   1.000000
     13          8.526074   1.000000
     14          8.877178   1.000000
     15          9.430201   1.000000
     16          9.451424   1.000000
     17         10.843312   1.000000
     18         12.438214   0.000000
     19         19.195903   0.000000
     20         25.536983   0.000000
     21         27.159641   0.000000
     22         27.929104   0.000000
     23         28.862920   0.000000
     24         29.874584   0.000000
 
  0.3000000E+00  0.0000000E+00  0.2500000E+00  0.1500000E-01
      1        -41.560663   1.000000
      2        -41.529740   1.000000
      3        -41.369815   1.000000
      4        -41.344931   1.000000
      5        -41.329124   1.000000
      6        -41.199763   1.000000
      7          4.186964   1.000000