<?xml version="1.0" encoding="ISO-8859-1"?>
<modeling>
 <generator>
  <i name="program" type="string">vasp </i>
  <i name="version" type="string">6.3.2  </i>
  <i name="subversion" type="string">27Jun22 (build Aug 12 2022 00:53:59) complex                          parallel </i>
  <i name="platform" type="string">tv2STD </i>
  <i name="date" type="string">2024 11 30 </i>
  <i name="time" type="string">15:58:28 </i>
 </generator>
 <incar>
  <i type="string" name="SYSTEM">Pt-hcp</i>
  <i type="int" name="ISTART">     0</i>
  <i type="string" name="PREC">Accurate      normal | accurate</i>
  <i type="string" name="ALGO">Normal     Normal, Fast, Very_Fast</i>
  <i type="logical" name="ADDGRID"> F  </i>
  <i type="int" name="ICHARG">     2</i>
  <i type="int" name="INIWAV">     1</i>
  <i type="int" name="NELM">   100</i>
  <i type="int" name="IBRION">    -1</i>
  <i name="EDIFF">      0.00000100</i>
  <i name="EDIFFG">     -0.02000000</i>
  <i type="int" name="NSW">     0</i>
  <i type="int" name="ISIF">     2</i>
  <i type="int" name="ISYM">     1</i>
  <i name="ENCUT">    500.00000000</i>
  <i type="logical" name="LREAL"> F  </i>
  <i type="int" name="ISMEAR">     0</i>
  <i name="SIGMA">      0.05000000</i>
  <i type="int" name="NWRITE">     2</i>
  <i type="logical" name="LWAVE"> F  </i>
  <i type="logical" name="LCHARG"> F  </i>
 </incar>
 <primitive_cell>
  <structure name="primitive_cell" >
   <crystal>
    <varray name="basis" >
     <v>       2.76000000       0.00000000       0.00000000 </v>
     <v>      -1.38000000       2.39023011       0.00000000 </v>
     <v>       0.00000000       0.00000000       4.79000000 </v>
    </varray>
    <i name="volume">     31.59979821 </i>
    <varray name="rec_basis" >
     <v>       0.36231884       0.20918488       0.00000000 </v>
     <v>       0.00000000       0.41836976       0.00000000 </v>
     <v>       0.00000000       0.00000000       0.20876827 </v>
    </varray>
   </crystal>
   <varray name="positions" >
    <v>       0.00000000       0.00000000       0.00000000 </v>
    <v>       0.33333333       0.66666667       0.50000000 </v>
   </varray>
  </structure>
  <varray name="primitive_index" >
   <v type="int" >        1 </v>
   <v type="int" >        2 </v>
  </varray>
 </primitive_cell>
 <kpoints>
  <generation param="Gamma">
   <v type="int" name="divisions">      10       10        8 </v>
   <v name="usershift">      0.00000000       0.00000000       0.00000000 </v>
   <v name="genvec1">      0.10000000       0.00000000       0.00000000 </v>
   <v name="genvec2">      0.00000000       0.10000000       0.00000000 </v>
   <v name="genvec3">      0.00000000       0.00000000       0.12500000 </v>
   <v name="shift">      0.00000000       0.00000000       0.00000000 </v>
  </generation>
  <varray name="kpointlist" >
   <v>       0.00000000       0.00000000       0.00000000 </v>
   <v>       0.10000000      -0.00000000       0.00000000 </v>
   <v>       0.20000000      -0.00000000       0.00000000 </v>
   <v>       0.30000000       0.00000000       0.00000000 </v>
   <v>       0.40000000      -0.00000000       0.00000000 </v>
   <v>       0.50000000      -0.00000000       0.00000000 </v>
   <v>       0.10000000       0.10000000       0.00000000 </v>
   <v>       0.20000000       0.10000000       0.00000000 </v>
   <v>       0.30000000       0.10000000       0.00000000 </v>
   <v>       0.40000000       0.10000000       0.00000000 </v>
   <v>       0.20000000       0.20000000       0.00000000 </v>
   <v>       0.30000000       0.20000000       0.00000000 </v>
   <v>       0.40000000       0.20000000       0.00000000 </v>
   <v>       0.30000000       0.30000000       0.00000000 </v>
   <v>       0.00000000       0.00000000       0.12500000 </v>
   <v>       0.10000000      -0.00000000       0.12500000 </v>
   <v>       0.20000000      -0.00000000       0.12500000 </v>
   <v>       0.30000000       0.00000000       0.12500000 </v>
   <v>       0.40000000      -0.00000000       0.12500000 </v>
   <v>       0.50000000      -0.00000000       0.12500000 </v>
   <v>       0.10000000       0.10000000       0.12500000 </v>
   <v>       0.20000000       0.10000000       0.12500000 </v>
   <v>       0.30000000       0.10000000       0.12500000 </v>
   <v>       0.40000000       0.10000000       0.12500000 </v>
   <v>       0.20000000       0.20000000       0.12500000 </v>
   <v>       0.30000000       0.20000000       0.12500000 </v>
   <v>       0.40000000       0.20000000       0.12500000 </v>
   <v>       0.30000000       0.30000000       0.12500000 </v>
   <v>       0.00000000       0.00000000       0.25000000 </v>
   <v>       0.10000000      -0.00000000       0.25000000 </v>
   <v>       0.20000000      -0.00000000       0.25000000 </v>
   <v>       0.30000000       0.00000000       0.25000000 </v>
   <v>       0.40000000      -0.00000000       0.25000000 </v>
   <v>       0.50000000      -0.00000000       0.25000000 </v>
   <v>       0.10000000       0.10000000       0.25000000 </v>
   <v>       0.20000000       0.10000000       0.25000000 </v>
   <v>       0.30000000       0.10000000       0.25000000 </v>
   <v>       0.40000000       0.10000000       0.25000000 </v>
   <v>       0.20000000       0.20000000       0.25000000 </v>
   <v>       0.30000000       0.20000000       0.25000000 </v>
   <v>       0.40000000       0.20000000       0.25000000 </v>
   <v>       0.30000000       0.30000000       0.25000000 </v>
   <v>       0.00000000       0.00000000       0.37500000 </v>
   <v>       0.10000000      -0.00000000       0.37500000 </v>
   <v>       0.20000000      -0.00000000       0.37500000 </v>
   <v>       0.30000000       0.00000000       0.37500000 </v>
   <v>       0.40000000      -0.00000000       0.37500000 </v>
   <v>       0.50000000      -0.00000000       0.37500000 </v>
   <v>       0.10000000       0.10000000       0.37500000 </v>
   <v>       0.20000000       0.10000000       0.37500000 </v>
   <v>       0.30000000       0.10000000       0.37500000 </v>
   <v>       0.40000000       0.10000000       0.37500000 </v>
   <v>       0.20000000       0.20000000       0.37500000 </v>
   <v>       0.30000000       0.20000000       0.37500000 </v>
   <v>       0.40000000       0.20000000       0.37500000 </v>
   <v>       0.30000000       0.30000000       0.37500000 </v>
   <v>       0.00000000       0.00000000       0.50000000 </v>
   <v>       0.10000000      -0.00000000       0.50000000 </v>
   <v>       0.20000000      -0.00000000       0.50000000 </v>
   <v>       0.30000000       0.00000000       0.50000000 </v>
   <v>       0.40000000      -0.00000000       0.50000000 </v>
   <v>       0.50000000      -0.00000000       0.50000000 </v>
   <v>       0.10000000       0.10000000       0.50000000 </v>
   <v>       0.20000000       0.10000000       0.50000000 </v>
   <v>       0.30000000       0.10000000       0.50000000 </v>
   <v>       0.40000000       0.10000000       0.50000000 </v>
   <v>       0.20000000       0.20000000       0.50000000 </v>
   <v>       0.30000000       0.20000000       0.50000000 </v>
   <v>       0.40000000       0.20000000       0.50000000 </v>
   <v>       0.30000000       0.30000000       0.50000000 </v>
  </varray>
  <varray name="weights" >
   <v>       0.00125000 </v>
   <v>       0.00750000 </v>
   <v>       0.00750000 </v>
   <v>       0.00750000 </v>
   <v>       0.00750000 </v>
   <v>       0.00375000 </v>
   <v>       0.00750000 </v>
   <v>       0.01500000 </v>
   <v>       0.01500000 </v>
   <v>       0.01500000 </v>
   <v>       0.00750000 </v>
   <v>       0.01500000 </v>
   <v>       0.00750000 </v>
   <v>       0.00750000 </v>
   <v>       0.00250000 </v>
   <v>       0.01500000 </v>
   <v>       0.01500000 </v>
   <v>       0.01500000 </v>
   <v>       0.01500000 </v>
   <v>       0.00750000 </v>
   <v>       0.01500000 </v>
   <v>       0.03000000 </v>
   <v>       0.03000000 </v>
   <v>       0.03000000 </v>
   <v>       0.01500000 </v>
   <v>       0.03000000 </v>
   <v>       0.01500000 </v>
   <v>       0.01500000 </v>
   <v>       0.00250000 </v>
   <v>       0.01500000 </v>
   <v>       0.01500000 </v>
   <v>       0.01500000 </v>
   <v>       0.01500000 </v>
   <v>       0.00750000 </v>
   <v>       0.01500000 </v>
   <v>       0.03000000 </v>
   <v>       0.03000000 </v>
   <v>       0.03000000 </v>
   <v>       0.01500000 </v>
   <v>       0.03000000 </v>
   <v>       0.01500000 </v>
   <v>       0.01500000 </v>
   <v>       0.00250000 </v>
   <v>       0.01500000 </v>
   <v>       0.01500000 </v>
   <v>       0.01500000 </v>
   <v>       0.01500000 </v>
   <v>       0.00750000 </v>
   <v>       0.01500000 </v>
   <v>       0.03000000 </v>
   <v>       0.03000000 </v>
   <v>       0.03000000 </v>
   <v>       0.01500000 </v>
   <v>       0.03000000 </v>
   <v>       0.01500000 </v>
   <v>       0.01500000 </v>
   <v>       0.00125000 </v>
   <v>       0.00750000 </v>
   <v>       0.00750000 </v>
   <v>       0.00750000 </v>
   <v>       0.00750000 </v>
   <v>       0.00375000 </v>
   <v>       0.00750000 </v>
   <v>       0.01500000 </v>
   <v>       0.01500000 </v>
   <v>       0.01500000 </v>
   <v>       0.00750000 </v>
   <v>       0.01500000 </v>
   <v>       0.00750000 </v>
   <v>       0.00750000 </v>
  </varray>
 </kpoints>
 <parameters>
  <separator name="general" >
   <i type="string" name="SYSTEM">Pt-hcp</i>
   <i type="logical" name="LCOMPAT"> F  </i>
  </separator>
  <separator name="electronic" >
   <i type="string" name="PREC">accura</i>
   <i name="ENMAX">    500.00000000</i>
   <i name="ENAUG">    527.01400000</i>
   <i name="EDIFF">      0.00000100</i>
   <i type="int" name="IALGO">    38</i>
   <i type="int" name="IWAVPR">    10</i>
   <i type="int" name="NBANDS">    24</i>
   <i type="int" name="NBANDSLOW">    -1</i>
   <i type="int" name="NBANDSHIGH">    -1</i>
   <i name="NELECT">     32.00000000</i>
   <i type="int" name="TURBO">     0</i>
   <i type="int" name="IRESTART">     0</i>
   <i type="int" name="NREBOOT">     0</i>
   <i type="int" name="NMIN">     0</i>
   <i name="EREF">      0.00000000</i>
   <separator name="electronic smearing" >
    <i type="int" name="ISMEAR">     0</i>
    <i name="SIGMA">      0.05000000</i>
    <i name="KSPACING">      0.50000000</i>
    <i type="logical" name="KGAMMA"> T  </i>
    <i type="logical" name="KBLOWUP"> T  </i>
   </separator>
   <separator name="electronic projectors" >
    <i type="logical" name="LREAL"> F  </i>
    <v name="ROPT">      0.00000000</v>
    <i type="int" name="LMAXPAW">  -100</i>
    <i type="int" name="LMAXMIX">     2</i>
    <i type="logical" name="NLSPLINE"> F  </i>
   </separator>
   <separator name="electronic startup" >
    <i type="int" name="ISTART">     0</i>
    <i type="int" name="ICHARG">     2</i>
    <i type="int" name="INIWAV">     1</i>
   </separator>
   <separator name="electronic spin" >
    <i type="int" name="ISPIN">     1</i>
    <i type="logical" name="LNONCOLLINEAR"> F  </i>
    <v name="MAGMOM">      1.00000000      1.00000000</v>
    <i name="NUPDOWN">     -1.00000000</i>
    <i type="logical" name="LSORBIT"> F  </i>
    <v name="SAXIS">      0.00000000      0.00000000      1.00000000</v>
    <i type="logical" name="LSPIRAL"> F  </i>
    <v name="QSPIRAL">      0.00000000      0.00000000      0.00000000</v>
    <i type="logical" name="LZEROZ"> F  </i>
   </separator>
   <separator name="electronic exchange-correlation" >
    <i type="logical" name="LASPH"> F  </i>
    <i type="logical" name="LMETAGGA"> F  </i>
   </separator>
   <separator name="electronic convergence" >
    <i type="int" name="NELM">   100</i>
    <i type="int" name="NELMDL">    -5</i>
    <i type="int" name="NELMIN">     2</i>
    <i name="ENINI">    500.00000000</i>
    <separator name="electronic convergence detail" >
     <i type="logical" name="LDIAG"> T  </i>
     <i type="logical" name="LSUBROT"> F  </i>
     <i name="WEIMIN">      0.00000000</i>
     <i name="EBREAK">      0.00000001</i>
     <i name="DEPER">      0.30000000</i>
     <i type="int" name="NRMM">     4</i>
     <i name="TIME">      0.40000000</i>
    </separator>
   </separator>
   <separator name="electronic mixer" >
    <i name="AMIX">      0.40000000</i>
    <i name="BMIX">      1.00000000</i>
    <i name="AMIN">      0.10000000</i>
    <i name="AMIX_MAG">      1.60000000</i>
    <i name="BMIX_MAG">      1.00000000</i>
    <separator name="electronic mixer details" >
     <i type="int" name="IMIX">     4</i>
     <i type="logical" name="MIXFIRST"> F  </i>
     <i type="int" name="MAXMIX">   -45</i>
     <i name="WC">    100.00000000</i>
     <i type="int" name="INIMIX">     1</i>
     <i type="int" name="MIXPRE">     1</i>
     <i type="int" name="MREMOVE">     5</i>
    </separator>
   </separator>
   <separator name="electronic dipolcorrection" >
    <i type="logical" name="LDIPOL"> F  </i>
    <i type="logical" name="LMONO"> F  </i>
    <i type="int" name="IDIPOL">     0</i>
    <i name="EPSILON">      1.00000000</i>
    <v name="DIPOL">   -100.00000000   -100.00000000   -100.00000000</v>
    <i name="EFIELD">      0.00000000</i>
   </separator>
  </separator>
  <separator name="grids" >
   <i type="int" name="NGX">    20</i>
   <i type="int" name="NGY">    20</i>
   <i type="int" name="NGZ">    36</i>
   <i type="int" name="NGXF">    40</i>
   <i type="int" name="NGYF">    40</i>
   <i type="int" name="NGZF">    72</i>
   <i type="logical" name="ADDGRID"> F  </i>
  </separator>
  <separator name="ionic" >
   <i type="int" name="NSW">     0</i>
   <i type="int" name="IBRION">    -1</i>
   <i type="int" name="MDALGO">     0</i>
   <i type="int" name="ISIF">     2</i>
   <i name="PSTRESS">      0.00000000</i>
   <i name="EDIFFG">     -0.02000000</i>
   <i type="int" name="NFREE">     0</i>
   <i name="POTIM">      0.50000000</i>
   <i name="SMASS">     -3.00000000</i>
   <i name="SCALEE">      1.00000000</i>
  </separator>
  <separator name="ionic md" >
   <i name="TEBEG">      0.00010000</i>
   <i name="TEEND">      0.00010000</i>
   <i type="int" name="NBLOCK">     1</i>
   <i type="int" name="KBLOCK">     1</i>
   <i type="int" name="NPACO">   256</i>
   <i name="APACO">     10.00000000</i>
  </separator>
  <separator name="symmetry" >
   <i type="int" name="ISYM">     1</i>
   <i name="SYMPREC">      0.00001000</i>
  </separator>
  <separator name="dos" >
   <i type="int" name="LORBIT">     0</i>
   <v name="RWIGS">     -1.00000000</v>
   <i type="int" name="NEDOS">   301</i>
   <i name="EMIN">     10.00000000</i>
   <i name="EMAX">    -10.00000000</i>
   <i name="EFERMI">      0.00000000</i>
  </separator>
  <separator name="writing" >
   <i type="int" name="NWRITE">     2</i>
   <i type="logical" name="LWAVE"> F  </i>
   <i type="logical" name="LDOWNSAMPLE"> F  </i>
   <i type="logical" name="LCHARG"> F  </i>
   <i type="logical" name="LPARD"> F  </i>
   <i type="logical" name="LVTOT"> F  </i>
   <i type="logical" name="LVHAR"> F  </i>
   <i type="logical" name="LELF"> F  </i>
   <i type="logical" name="LOPTICS"> F  </i>
   <v name="STM">      0.00000000      0.00000000      0.00000000      0.00000000      0.00000000      0.00000000      0.00000000</v>
  </separator>
  <separator name="performance" >
   <i type="int" name="NPAR">    24</i>
   <i type="int" name="NSIM">     4</i>
   <i type="int" name="NBLK">    -1</i>
   <i type="logical" name="LPLANE"> T  </i>
   <i type="logical" name="LSCALAPACK"> T  </i>
   <i type="logical" name="LSCAAWARE"> F  </i>
   <i type="logical" name="LSCALU"> F  </i>
   <i type="logical" name="LASYNC"> F  </i>
   <i type="logical" name="LORBITALREAL"> F  </i>
  </separator>
  <separator name="miscellaneous" >
   <i type="int" name="IDIOT">     3</i>
   <i type="int" name="PHON_NSTRUCT">    -1</i>
   <i type="logical" name="LMUSIC"> F  </i>
   <v name="POMASS">    195.08000000</v>
   <v name="DARWINR">      0.00000000</v>
   <v name="DARWINV">      1.00000000</v>
   <i type="logical" name="LCORR"> T  </i>
  </separator>
  <i type="logical" name="GGA_COMPAT"> T  </i>
  <i type="logical" name="LBERRY"> F  </i>
  <i type="int" name="ICORELEVEL">     0</i>
  <i type="logical" name="LDAU"> F  </i>
  <i type="int" name="I_CONSTRAINED_M">     0</i>
  <separator name="electronic exchange-correlation" >
   <i type="string" name="GGA">--</i>
   <i type="int" name="VOSKOWN">     0</i>
   <i type="logical" name="LHFCALC"> F  </i>
   <i type="string" name="PRECFOCK"></i>
   <i type="logical" name="LSYMGRAD"> F  </i>
   <i type="logical" name="LHFONE"> F  </i>
   <i type="logical" name="LRHFCALC"> F  </i>
   <i type="logical" name="LTHOMAS"> F  </i>
   <i type="logical" name="LMODELHF"> F  </i>
   <i type="logical" name="LFOCKACE"> F  </i>
   <i name="ENCUT4O">     -1.00000000</i>
   <i type="int" name="EXXOEP">     0</i>
   <i type="int" name="FOURORBIT">     0</i>
   <i name="AEXX">      0.00000000</i>
   <i name="HFALPHA">      0.00000000</i>
   <i name="MCALPHA">      0.00000000</i>
   <i name="ALDAX">      1.00000000</i>
   <i name="AGGAX">      1.00000000</i>
   <i name="ALDAC">      1.00000000</i>
   <i name="AGGAC">      1.00000000</i>
   <i type="int" name="NKREDX">     1</i>
   <i type="int" name="NKREDY">     1</i>
   <i type="int" name="NKREDZ">     1</i>
   <i type="logical" name="SHIFTRED"> F  </i>
   <i type="logical" name="ODDONLY"> F  </i>
   <i type="logical" name="EVENONLY"> F  </i>
   <i type="int" name="LMAXFOCK">     0</i>
   <i type="int" name="NMAXFOCKAE">     0</i>
   <i type="logical" name="LFOCKAEDFT"> F  </i>
   <i name="HFSCREEN">      0.00000000</i>
   <i name="HFSCREENC">      0.00000000</i>
   <i type="int" name="NBANDSGWLOW">     0</i>
  </separator>
  <separator name="vdW DFT" >
   <i type="logical" name="LUSE_VDW"> F  </i>
   <i name="Zab_VDW">     -0.84910000</i>
   <i name="PARAM1">      0.12340000</i>
   <i name="PARAM2">      1.00000000</i>
   <i name="PARAM3">      0.00000000</i>
  </separator>
  <separator name="model GW" >
   <i type="int" name="MODEL_GW">     0</i>
   <i name="MODEL_EPS0">      9.47993946</i>
   <i name="MODEL_ALPHA">      1.00000000</i>
  </separator>
  <separator name="linear response parameters" >
   <i type="logical" name="LEPSILON"> F  </i>
   <i type="logical" name="LRPA"> F  </i>
   <i type="logical" name="LNABLA"> F  </i>
   <i type="logical" name="LVEL"> F  </i>
   <i name="CSHIFT">      0.10000000</i>
   <i name="OMEGAMAX">     -1.00000000</i>
   <i name="DEG_THRESHOLD">      0.00200000</i>
   <i name="RTIME">     -0.10000000</i>
   <i name="WPLASMAI">      0.00000000</i>
   <v name="DFIELD">      0.00000000      0.00000000      0.00000000</v>
   <v name="WPLASMA">      0.00000000      0.00000000      0.00000000      0.00000000      0.00000000      0.00000000      0.00000000      0.00000000      0.00000000</v>
  </separator>
  <separator name="orbital magnetization" >
   <i type="logical" name="NUCIND"> F  </i>
   <v name="MAGPOS">      0.00000000      0.00000000      0.00000000</v>
   <i type="logical" name="LNICSALL"> T  </i>
   <i type="logical" name="ORBITALMAG"> F  </i>
   <i type="logical" name="LMAGBLOCH"> F  </i>
   <i type="logical" name="LCHIMAG"> F  </i>
   <i type="logical" name="LGAUGE"> T  </i>
   <i type="int" name="MAGATOM">     0</i>
   <v name="MAGDIPOL">      0.00000000      0.00000000      0.00000000</v>
   <v name="AVECCONST">      0.00000000      0.00000000      0.00000000</v>
  </separator>
  <separator name="response functions" >
   <i type="logical" name="LFINITE_TEMPERATURE"> F  </i>
   <i type="logical" name="LADDER"> F  </i>
   <i type="logical" name="LRPAFORCE"> F  </i>
   <i type="logical" name="LFXC"> F  </i>
   <i type="logical" name="LHARTREE"> T  </i>
   <i type="int" name="IBSE">     0</i>
   <v type="int" name="KPOINT">    -1     0     0     0</v>
   <i type="logical" name="LTCTC"> F  </i>
   <i type="logical" name="LTCTE"> F  </i>
   <i type="logical" name="LTETE"> F  </i>
   <i type="logical" name="LTRIPLET"> F  </i>
   <i type="logical" name="LFXCEPS"> F  </i>
   <i type="logical" name="LFXHEG"> F  </i>
   <i type="int" name="NATURALO">     2</i>
   <i type="logical" name="LHOLEGF"> F  </i>
   <i type="logical" name="L2ORDER"> F  </i>
   <i type="logical" name="LDMP1"> F  </i>
   <i type="logical" name="LMP2LT"> F  </i>
   <i type="logical" name="LSMP2LT"> F  </i>
   <i type="logical" name="LGWLF"> F  </i>
   <i name="ENCUTGW">     -2.00000000</i>
   <i name="ENCUTGWSOFT">     -2.00000000</i>
   <i name="ENCUTLF">     -1.00000000</i>
   <i type="logical" name="LESF_SPLINES"> F  </i>
   <i type="int" name="LMAXMP2">    -1</i>
   <i name="SCISSOR">      0.00000000</i>
   <i type="int" name="NOMEGA">     0</i>
   <i type="int" name="NOMEGAR">     0</i>
   <i type="int" name="NBANDSGW">    -1</i>
   <i type="int" name="NBANDSO">    -1</i>
   <i type="int" name="NBANDSV">    -1</i>
   <i type="int" name="NELMGW">     1</i>
   <i type="int" name="NELMHF">     1</i>
   <i type="int" name="DIM">     3</i>
   <i type="int" name="IESPILON">     4</i>
   <i type="int" name="ANTIRES">     0</i>
   <i name="OMEGAMAX">    -30.00000000</i>
   <i name="OMEGAMIN">    -30.00000000</i>
   <i name="OMEGATL">   -200.00000000</i>
   <i type="int" name="OMEGAGRID">     0</i>
   <i name="CSHIFT">     -0.10000000</i>
   <i type="logical" name="LSELFENERGY"> F  </i>
   <i type="logical" name="LSPECTRAL"> F  </i>
   <i type="logical" name="LSPECTRALGW"> F  </i>
   <i type="logical" name="LSINGLES"> F  </i>
   <i type="logical" name="LFERMIGW"> F  </i>
   <i type="logical" name="ODDONLYGW"> F  </i>
   <i type="logical" name="EVENONLYGW"> F  </i>
   <i type="int" name="NKREDLFX">     1</i>
   <i type="int" name="NKREDLFY">     1</i>
   <i type="int" name="NKREDLFZ">     1</i>
   <i type="int" name="MAXMEM">  2800</i>
   <i type="int" name="TELESCOPE">     0</i>
   <i type="int" name="NTAUPAR">    -1</i>
   <i type="int" name="NOMEGAPAR">    -1</i>
   <i name="DAMP_NEWTON">      0.80000001</i>
   <i name="LAMBDA">      1.00000000</i>
  </separator>
  <separator name="External order field" >
   <i name="OFIELD_KAPPA">      0.00000000</i>
   <v name="OFIELD_K">      0.00000000      0.00000000      0.00000000</v>
   <i name="OFIELD_Q6_NEAR">      0.00000000</i>
   <i name="OFIELD_Q6_FAR">      0.00000000</i>
   <i name="OFIELD_A">      0.00000000</i>
  </separator>
  <separator name="optional k-points parameters" >
   <i type="int" name="KPOINTS_OPT_MODE">     1</i>
   <i type="logical" name="LKPOINTS_OPT"> F  </i>
  </separator>
 </parameters>
 <atominfo>
  <atoms>       2 </atoms>
  <types>       1 </types>
  <array name="atoms" >
   <dimension dim="1">ion</dimension>
   <field type="string">element</field>
   <field type="int">atomtype</field>
   <set>
    <rc><c>Pt</c><c>   1</c></rc>
    <rc><c>Pt</c><c>   1</c></rc>
   </set>
  </array>
  <array name="atomtypes" >
   <dimension dim="1">type</dimension>
   <field type="int">atomspertype</field>
   <field type="string">element</field>
   <field>mass</field>
   <field>valence</field>
   <field type="string">pseudopotential</field>
   <set>
    <rc><c>   2</c><c>Pt</c><c>    195.08000000</c><c>     16.00000000</c><c>  PAW_PBE Pt_pv 12Dec2005               </c></rc>
   </set>
  </array>
 </atominfo>
 <structure name="initialpos" >
  <crystal>
   <varray name="basis" >
    <v>       2.76000000       0.00000000       0.00000000 </v>
    <v>      -1.38000000       2.39023011       0.00000000 </v>
    <v>       0.00000000       0.00000000       4.79000000 </v>
   </varray>
   <i name="volume">     31.59979821 </i>
   <varray name="rec_basis" >
    <v>       0.36231884       0.20918488       0.00000000 </v>
    <v>       0.00000000       0.41836976       0.00000000 </v>
    <v>       0.00000000       0.00000000       0.20876827 </v>
   </varray>
  </crystal>
  <varray name="positions" >
   <v>       0.00000000       0.00000000       0.00000000 </v>
   <v>       0.33333333       0.66666667       0.50000000 </v>
  </varray>
 </structure>
 <calculation>
  <scstep>
   <time name="dav">    0.32    0.32</time>
   <time name="total">    0.33    0.33</time>
   <energy>
    <i name="alphaZ">    303.71314961 </i>
    <i name="ewald">  -4240.69024974 </i>
    <i name="hartreedc">   -819.48907223 </i>
    <i name="XCdc">    127.32804754 </i>
    <i name="pawpsdc">   4131.50523274 </i>
    <i name="pawaedc">  -4061.67189606 </i>
    <i name="eentropy">     -0.00213463 </i>
    <i name="bandstr">   -136.45484483 </i>
    <i name="atom">   4856.46979851 </i>
    <i name="e_fr_energy">    160.70803091 </i>
    <i name="e_wo_entrp">    160.71016554 </i>
    <i name="e_0_energy">    160.70909823 </i>
   </energy>
  </scstep>
  <scstep>
   <time name="dav">    0.33    0.34</time>
   <time name="total">    0.33    0.34</time>
   <energy>
    <i name="e_fr_energy">    -11.20584576 </i>
    <i name="e_wo_entrp">    -11.20167366 </i>
    <i name="e_0_energy">    -11.20375971 </i>
   </energy>
  </scstep>
  <scstep>
   <time name="dav">    0.55    0.55</time>
   <time name="total">    0.55    0.55</time>
   <energy>
    <i name="e_fr_energy">    -12.74434676 </i>
    <i name="e_wo_entrp">    -12.73993108 </i>
    <i name="e_0_energy">    -12.74213892 </i>
   </energy>
  </scstep>
  <scstep>
   <time name="dav">    0.55    0.55</time>
   <time name="total">    0.55    0.55</time>
   <energy>
    <i name="e_fr_energy">    -12.74861386 </i>
    <i name="e_wo_entrp">    -12.74419914 </i>
    <i name="e_0_energy">    -12.74640650 </i>
   </energy>
  </scstep>
  <scstep>
   <time name="dav">    0.62    0.62</time>
   <time name="total">    0.65    0.65</time>
   <energy>
    <i name="e_fr_energy">    -12.74861851 </i>
    <i name="e_wo_entrp">    -12.74420383 </i>
    <i name="e_0_energy">    -12.74641117 </i>
   </energy>
  </scstep>
  <scstep>
   <time name="dav">    0.33    0.34</time>
   <time name="total">    0.36    0.37</time>
   <energy>
    <i name="e_fr_energy">    -12.07394758 </i>
    <i name="e_wo_entrp">    -12.06947647 </i>
    <i name="e_0_energy">    -12.07171203 </i>
   </energy>
  </scstep>
  <scstep>
   <time name="dav">    0.54    0.54</time>
   <time name="total">    0.57    0.57</time>
   <energy>
    <i name="e_fr_energy">    -12.04200559 </i>
    <i name="e_wo_entrp">    -12.03730726 </i>
    <i name="e_0_energy">    -12.03965643 </i>
   </energy>
  </scstep>
  <scstep>
   <time name="dav">    0.35    0.35</time>
   <time name="total">    0.38    0.38</time>
   <energy>
    <i name="e_fr_energy">    -12.04000635 </i>
    <i name="e_wo_entrp">    -12.03525594 </i>
    <i name="e_0_energy">    -12.03763114 </i>
   </energy>
  </scstep>
  <scstep>
   <time name="dav">    0.51    0.51</time>
   <time name="total">    0.53    0.54</time>
   <energy>
    <i name="e_fr_energy">    -12.03983324 </i>
    <i name="e_wo_entrp">    -12.03510850 </i>
    <i name="e_0_energy">    -12.03747087 </i>
   </energy>
  </scstep>
  <scstep>
   <time name="dav">    0.41    0.41</time>
   <time name="total">    0.44    0.44</time>
   <energy>
    <i name="e_fr_energy">    -12.03984771 </i>
    <i name="e_wo_entrp">    -12.03512703 </i>
    <i name="e_0_energy">    -12.03748737 </i>
   </energy>
  </scstep>
  <scstep>
   <time name="dav">    0.41    0.41</time>
   <time name="total">    0.41    0.42</time>
   <energy>
    <i name="alphaZ">    303.71314961 </i>
    <i name="ewald">  -4240.69024974 </i>
    <i name="hartreedc">   -780.81398887 </i>
    <i name="XCdc">    125.63004017 </i>
    <i name="pawpsdc">   4626.95601823 </i>
    <i name="pawaedc">  -4562.07299394 </i>
    <i name="eentropy">     -0.00472142 </i>
    <i name="bandstr">   -341.22689975 </i>
    <i name="atom">   4856.46979851 </i>
    <i name="e_fr_energy">    -12.03984720 </i>
    <i name="e_wo_entrp">    -12.03512578 </i>
    <i name="e_0_energy">    -12.03748649 </i>
   </energy>
  </scstep>
  <structure>
   <crystal>
    <varray name="basis" >
     <v>       2.76000000       0.00000000       0.00000000 </v>
     <v>      -1.38000000       2.39023011       0.00000000 </v>
     <v>       0.00000000       0.00000000       4.79000000 </v>
    </varray>
    <i name="volume">     31.59979821 </i>
    <varray name="rec_basis" >
     <v>       0.36231884       0.20918488       0.00000000 </v>
     <v>       0.00000000       0.41836976       0.00000000 </v>
     <v>       0.00000000       0.00000000       0.20876827 </v>
    </varray>
   </crystal>
   <varray name="positions" >
    <v>       0.00000000       0.00000000       0.00000000 </v>
    <v>       0.33333333       0.66666667       0.50000000 </v>
   </varray>
  </structure>
  <varray name="forces" >
   <v>       0.00000000      -0.00000000       0.00000000 </v>
   <v>      -0.00000000       0.00000000       0.00000000 </v>
  </varray>
  <varray name="stress" >
   <v>      -9.50071941       0.00000000      -0.00000000 </v>
   <v>      -0.00000000      -9.50071941      -0.00000000 </v>
   <v>      -0.00000000       0.00000000     -10.54889206 </v>
  </varray>
  <energy>
   <i name="e_fr_energy">    -12.03984720 </i>
   <i name="e_wo_entrp">    -12.03512578 </i>
   <i name="e_0_energy">    -12.03748649 </i>
  </energy>
  <time name="totalsc">    5.37    5.40</time>
  <eigenvalues>
   <array>
    <dimension dim="1">band</dimension>
    <dimension dim="2">kpoint</dimension>
    <dimension dim="3">spin</dimension>
    <field>eigene</field>
    <field>occ</field>
    <set>
     <set comment="spin 1">
      <set comment="kpoint 1">
       <r>  -41.4761    1.0000 </r>
       <r>  -41.3079    1.0000 </r>
       <r>  -41.3079    1.0000 </r>
       <r>  -41.2679    1.0000 </r>
       <r>  -41.2679    1.0000 </r>
       <r>  -41.1481    1.0000 </r>
       <r>    1.4214    1.0000 </r>
       <r>    4.0670    1.0000 </r>
       <r>    7.2022    1.0000 </r>
       <r>    7.7098    1.0000 </r>
       <r>    7.7098    1.0000 </r>
       <r>    8.0744    1.0000 </r>
       <r>    8.0744    1.0000 </r>
       <r>    9.3436    1.0000 </r>
       <r>    9.3436    1.0000 </r>
       <r>   10.4193    1.0000 </r>
       <r>   10.9200    1.0000 </r>
       <r>   10.9200    1.0000 </r>
       <r>   15.8084    0.0000 </r>
       <r>   26.2263    0.0000 </r>
       <r>   26.8060    0.0000 </r>
       <r>   28.3754    0.0000 </r>
       <r>   32.1688    0.0000 </r>
       <r>   32.1688    0.0000 </r>
      </set>
      <set comment="kpoint 2">
       <r>  -41.4644    1.0000 </r>
       <r>  -41.3443    1.0000 </r>
       <r>  -41.3185    1.0000 </r>
       <r>  -41.3053    1.0000 </r>
       <r>  -41.2755    1.0000 </r>
       <r>  -41.1509    1.0000 </r>
       <r>    1.7827    1.0000 </r>
       <r>    4.3944    1.0000 </r>
       <r>    7.1392    1.0000 </r>
       <r>    7.7162    1.0000 </r>
       <r>    7.9255    1.0000 </r>
       <r>    7.9853    1.0000 </r>
       <r>    8.3363    1.0000 </r>
       <r>    8.7588    1.0000 </r>
       <r>    9.1735    1.0000 </r>
       <r>    9.3181    1.0000 </r>
       <r>   10.9819    1.0000 </r>
       <r>   12.6775    0.0000 </r>
       <r>   15.7722    0.0000 </r>
       <r>   26.6589    0.0000 </r>
       <r>   27.3344    0.0000 </r>
       <r>   28.7032    0.0000 </r>
       <r>   30.5434    0.0000 </r>
       <r>   30.6621    0.0000 </r>
      </set>
      <set comment="kpoint 3">
       <r>  -41.4392    1.0000 </r>
       <r>  -41.4320    1.0000 </r>
       <r>  -41.4009    1.0000 </r>
       <r>  -41.3455    1.0000 </r>
       <r>  -41.2955    1.0000 </r>
       <r>  -41.1596    1.0000 </r>
       <r>    2.7677    1.0000 </r>
       <r>    5.1148    1.0000 </r>
       <r>    6.9148    1.0000 </r>
       <r>    7.3978    1.0000 </r>
       <r>    7.4343    1.0000 </r>
       <r>    8.3348    1.0000 </r>
       <r>    8.7660    1.0000 </r>
       <r>    8.7960    1.0000 </r>
       <r>    8.8055    1.0000 </r>
       <r>    9.0731    1.0000 </r>
       <r>   11.0805    0.8831 </r>
       <r>   14.8469    0.0000 </r>
       <r>   15.7046    0.0000 </r>
       <r>   25.1577    0.0000 </r>
       <r>   27.9560    0.0000 </r>
       <r>   28.2348    0.0000 </r>
       <r>   29.1102    0.0000 </r>
       <r>   29.3097    0.0000 </r>
      </set>
      <set comment="kpoint 4">
       <r>  -41.5560    1.0000 </r>
       <r>  -41.5167    1.0000 </r>
       <r>  -41.3866    1.0000 </r>
       <r>  -41.3783    1.0000 </r>
       <r>  -41.3206    1.0000 </r>
       <r>  -41.1756    1.0000 </r>
       <r>    3.9722    1.0000 </r>
       <r>    5.2402    1.0000 </r>
       <r>    6.3452    1.0000 </r>
       <r>    7.1772    1.0000 </r>
       <r>    7.5350    1.0000 </r>
       <r>    8.2946    1.0000 </r>
       <r>    8.4065    1.0000 </r>
       <r>    9.4830    1.0000 </r>
       <r>    9.8870    1.0000 </r>
       <r>   10.1167    1.0000 </r>
       <r>   11.1332    0.3820 </r>
       <r>   15.8274    0.0000 </r>
       <r>   17.0561    0.0000 </r>
       <r>   21.4350    0.0000 </r>
       <r>   25.8531    0.0000 </r>
       <r>   26.3999    0.0000 </r>
       <r>   27.9939    0.0000 </r>
       <r>   29.1000    0.0000 </r>
      </set>
      <set comment="kpoint 5">
       <r>  -41.6502    1.0000 </r>
       <r>  -41.6084    1.0000 </r>
       <r>  -41.4042    1.0000 </r>
       <r>  -41.3412    1.0000 </r>
       <r>  -41.3409    1.0000 </r>
       <r>  -41.1976    1.0000 </r>
       <r>    4.6307    1.0000 </r>
       <r>    4.9267    1.0000 </r>
       <r>    5.6936    1.0000 </r>
       <r>    7.6949    1.0000 </r>
       <r>    7.9206    1.0000 </r>
       <r>    8.1293    1.0000 </r>
       <r>    8.3467    1.0000 </r>
       <r>   10.9678    1.0000 </r>
       <r>   11.1436    0.2756 </r>
       <r>   11.1443    0.2688 </r>
       <r>   11.3530    0.0000 </r>
       <r>   16.6326    0.0000 </r>
       <r>   17.7995    0.0000 </r>
       <r>   19.0197    0.0000 </r>
       <r>   23.5349    0.0000 </r>
       <r>   23.9455    0.0000 </r>
       <r>   25.0467    0.0000 </r>
       <r>   27.8246    0.0000 </r>
      </set>
      <set comment="kpoint 6">
       <r>  -41.6860    1.0000 </r>
       <r>  -41.6432    1.0000 </r>
       <r>  -41.4141    1.0000 </r>
       <r>  -41.3490    1.0000 </r>
       <r>  -41.3181    1.0000 </r>
       <r>  -41.2114    1.0000 </r>
       <r>    4.7212    1.0000 </r>
       <r>    4.7987    1.0000 </r>
       <r>    5.4730    1.0000 </r>
       <r>    7.7852    1.0000 </r>
       <r>    8.0300    1.0000 </r>
       <r>    8.2158    1.0000 </r>
       <r>    8.5513    1.0000 </r>
       <r>   11.1434    0.2775 </r>
       <r>   11.4228    0.0000 </r>
       <r>   11.6226    0.0000 </r>
       <r>   13.3980    0.0000 </r>
       <r>   14.8732    0.0000 </r>
       <r>   18.3938    0.0000 </r>
       <r>   19.9683    0.0000 </r>
       <r>   20.6327    0.0000 </r>
       <r>   23.1662    0.0000 </r>
       <r>   24.4002    0.0000 </r>
       <r>   27.2506    0.0000 </r>
      </set>
      <set comment="kpoint 7">
       <r>  -41.4424    1.0000 </r>
       <r>  -41.4037    1.0000 </r>
       <r>  -41.3783    1.0000 </r>
       <r>  -41.3318    1.0000 </r>
       <r>  -41.2945    1.0000 </r>
       <r>  -41.1566    1.0000 </r>
       <r>    2.4642    1.0000 </r>
       <r>    4.9665    1.0000 </r>
       <r>    6.8740    1.0000 </r>
       <r>    7.6306    1.0000 </r>
       <r>    7.7993    1.0000 </r>
       <r>    7.9339    1.0000 </r>
       <r>    8.5682    1.0000 </r>
       <r>    8.5919    1.0000 </r>
       <r>    8.9230    1.0000 </r>
       <r>    9.2332    1.0000 </r>
       <r>   11.0024    0.9997 </r>
       <r>   14.2745    0.0000 </r>
       <r>   15.7224    0.0000 </r>
       <r>   26.5766    0.0000 </r>
       <r>   27.1844    0.0000 </r>
       <r>   28.2398    0.0000 </r>
       <r>   29.2628    0.0000 </r>
       <r>   30.0093    0.0000 </r>
      </set>
      <set comment="kpoint 8">
       <r>  -41.5018    1.0000 </r>
       <r>  -41.4763    1.0000 </r>
       <r>  -41.4032    1.0000 </r>
       <r>  -41.3695    1.0000 </r>
       <r>  -41.3244    1.0000 </r>
       <r>  -41.1691    1.0000 </r>
       <r>    3.6335    1.0000 </r>
       <r>    5.5781    1.0000 </r>
       <r>    6.6978    1.0000 </r>
       <r>    6.7541    1.0000 </r>
       <r>    7.3594    1.0000 </r>
       <r>    8.0977    1.0000 </r>
       <r>    8.5442    1.0000 </r>
       <r>    8.8673    1.0000 </r>
       <r>    9.6234    1.0000 </r>
       <r>   10.0241    1.0000 </r>
       <r>   11.0021    0.9997 </r>
       <r>   15.7700    0.0000 </r>
       <r>   16.3575    0.0000 </r>
       <r>   23.3362    0.0000 </r>
       <r>   25.2426    0.0000 </r>
       <r>   27.3941    0.0000 </r>
       <r>   29.2911    0.0000 </r>
       <r>   29.9396    0.0000 </r>
      </set>
      <set comment="kpoint 9">
       <r>  -41.6034    1.0000 </r>
       <r>  -41.5685    1.0000 </r>
       <r>  -41.4085    1.0000 </r>
       <r>  -41.3566    1.0000 </r>
       <r>  -41.3528    1.0000 </r>
       <r>  -41.1892    1.0000 </r>
       <r>    4.6892    1.0000 </r>
       <r>    5.3397    1.0000 </r>
       <r>    5.9839    1.0000 </r>
       <r>    7.1931    1.0000 </r>
       <r>    7.8003    1.0000 </r>
       <r>    7.8100    1.0000 </r>
       <r>    8.3788    1.0000 </r>
       <r>    9.6416    1.0000 </r>
       <r>   10.7035    1.0000 </r>
       <r>   10.9881    0.9999 </r>
       <r>   11.4463    0.0000 </r>
       <r>   16.3662    0.0000 </r>
       <r>   18.4864    0.0000 </r>
       <r>   19.5110    0.0000 </r>
       <r>   23.1356    0.0000 </r>
       <r>   25.9365    0.0000 </r>
       <r>   26.2409    0.0000 </r>
       <r>   28.2411    0.0000 </r>
      </set>
      <set comment="kpoint 10">
       <r>  -41.6664    1.0000 </r>
       <r>  -41.6245    1.0000 </r>
       <r>  -41.4321    1.0000 </r>
       <r>  -41.3704    1.0000 </r>
       <r>  -41.3183    1.0000 </r>
       <r>  -41.2111    1.0000 </r>
       <r>    4.9947    1.0000 </r>
       <r>    5.0845    1.0000 </r>
       <r>    5.5831    1.0000 </r>
       <r>    7.7425    1.0000 </r>
       <r>    7.9804    1.0000 </r>
       <r>    7.9809    1.0000 </r>
       <r>    8.3097    1.0000 </r>
       <r>   10.8745    1.0000 </r>
       <r>   10.9707    1.0000 </r>
       <r>   11.2550    0.0001 </r>
       <r>   13.1492    0.0000 </r>
       <r>   16.1028    0.0000 </r>
       <r>   18.0511    0.0000 </r>
       <r>   20.1532    0.0000 </r>
       <r>   20.9294    0.0000 </r>
       <r>   23.2741    0.0000 </r>
       <r>   24.8681    0.0000 </r>
       <r>   27.1722    0.0000 </r>
      </set>
      <set comment="kpoint 11">
       <r>  -41.5596    1.0000 </r>
       <r>  -41.5586    1.0000 </r>
       <r>  -41.4141    1.0000 </r>
       <r>  -41.3747    1.0000 </r>
       <r>  -41.3623    1.0000 </r>
       <r>  -41.1865    1.0000 </r>
       <r>    4.8431    1.0000 </r>
       <r>    6.1831    1.0000 </r>
       <r>    6.1861    1.0000 </r>
       <r>    6.2473    1.0000 </r>
       <r>    7.5738    1.0000 </r>
       <r>    7.6111    1.0000 </r>
       <r>    8.5701    1.0000 </r>
       <r>    8.9040    1.0000 </r>
       <r>   10.6877    1.0000 </r>
       <r>   10.8206    1.0000 </r>
       <r>   11.5277    0.0000 </r>
       <r>   16.3418    0.0000 </r>
       <r>   18.3632    0.0000 </r>
       <r>   20.9646    0.0000 </r>
       <r>   21.8787    0.0000 </r>
       <r>   26.6865    0.0000 </r>
       <r>   27.8872    0.0000 </r>
       <r>   28.3808    0.0000 </r>
      </set>
      <set comment="kpoint 12">
       <r>  -41.6208    1.0000 </r>
       <r>  -41.5922    1.0000 </r>
       <r>  -41.4653    1.0000 </r>
       <r>  -41.4175    1.0000 </r>
       <r>  -41.3188    1.0000 </r>
       <r>  -41.2107    1.0000 </r>
       <r>    5.6247    1.0000 </r>
       <r>    5.8038    1.0000 </r>
       <r>    5.8368    1.0000 </r>
       <r>    6.9828    1.0000 </r>
       <r>    7.4658    1.0000 </r>
       <r>    8.0843    1.0000 </r>
       <r>    8.1228    1.0000 </r>
       <r>    9.6946    1.0000 </r>
       <r>   10.6820    1.0000 </r>
       <r>   11.1229    0.4964 </r>
       <r>   13.2018    0.0000 </r>
       <r>   17.3639    0.0000 </r>
       <r>   18.2844    0.0000 </r>
       <r>   19.9237    0.0000 </r>
       <r>   20.4455    0.0000 </r>
       <r>   24.8499    0.0000 </r>
       <r>   25.8995    0.0000 </r>
       <r>   26.8907    0.0000 </r>
      </set>
      <set comment="kpoint 13">
       <r>  -41.6433    1.0000 </r>
       <r>  -41.6010    1.0000 </r>
       <r>  -41.4898    1.0000 </r>
       <r>  -41.4337    1.0000 </r>
       <r>  -41.2941    1.0000 </r>
       <r>  -41.2280    1.0000 </r>
       <r>    5.6693    1.0000 </r>
       <r>    5.6852    1.0000 </r>
       <r>    5.7402    1.0000 </r>
       <r>    7.5564    1.0000 </r>
       <r>    7.6057    1.0000 </r>
       <r>    7.7058    1.0000 </r>
       <r>    8.3896    1.0000 </r>
       <r>   10.4552    1.0000 </r>
       <r>   10.6315    1.0000 </r>
       <r>   10.9284    1.0000 </r>
       <r>   14.7976    0.0000 </r>
       <r>   15.3136    0.0000 </r>
       <r>   18.6248    0.0000 </r>
       <r>   20.1861    0.0000 </r>
       <r>   21.6544    0.0000 </r>
       <r>   22.6816    0.0000 </r>
       <r>   25.0978    0.0000 </r>
       <r>   26.3900    0.0000 </r>
      </set>
      <set comment="kpoint 14">
       <r>  -41.6071    1.0000 </r>
       <r>  -41.5749    1.0000 </r>
       <r>  -41.5279    1.0000 </r>
       <r>  -41.4870    1.0000 </r>
       <r>  -41.2803    1.0000 </r>
       <r>  -41.2391    1.0000 </r>
       <r>    5.7636    1.0000 </r>
       <r>    6.1750    1.0000 </r>
       <r>    6.4299    1.0000 </r>
       <r>    6.8664    1.0000 </r>
       <r>    7.4174    1.0000 </r>
       <r>    7.6842    1.0000 </r>
       <r>    8.4776    1.0000 </r>
       <r>   10.0541    1.0000 </r>
       <r>   10.4645    1.0000 </r>
       <r>   10.7679    1.0000 </r>
       <r>   14.8095    0.0000 </r>
       <r>   16.0780    0.0000 </r>
       <r>   17.4994    0.0000 </r>
       <r>   21.0167    0.0000 </r>
       <r>   22.5785    0.0000 </r>
       <r>   23.8025    0.0000 </r>
       <r>   24.6186    0.0000 </r>
       <r>   25.0020    0.0000 </r>
      </set>
      <set comment="kpoint 15">
       <r>  -41.4639    1.0000 </r>
       <r>  -41.3064    1.0000 </r>
       <r>  -41.3064    1.0000 </r>
       <r>  -41.2696    1.0000 </r>
       <r>  -41.2696    1.0000 </r>
       <r>  -41.1610    1.0000 </r>
       <r>    1.5549    1.0000 </r>
       <r>    4.0471    1.0000 </r>
       <r>    7.1693    1.0000 </r>
       <r>    7.6907    1.0000 </r>
       <r>    7.6907    1.0000 </r>
       <r>    8.0360    1.0000 </r>
       <r>    8.0360    1.0000 </r>
       <r>    9.4405    1.0000 </r>
       <r>    9.4405    1.0000 </r>
       <r>    9.8043    1.0000 </r>
       <r>   10.8925    1.0000 </r>
       <r>   10.8925    1.0000 </r>
       <r>   16.6729    0.0000 </r>
       <r>   25.7652    0.0000 </r>
       <r>   27.3138    0.0000 </r>
       <r>   28.0918    0.0000 </r>
       <r>   31.6186    0.0000 </r>
       <r>   31.6186    0.0000 </r>
      </set>
      <set comment="kpoint 16">
       <r>  -41.4536    1.0000 </r>
       <r>  -41.3419    1.0000 </r>
       <r>  -41.3169    1.0000 </r>
       <r>  -41.3075    1.0000 </r>
       <r>  -41.2772    1.0000 </r>
       <r>  -41.1623    1.0000 </r>
       <r>    1.9136    1.0000 </r>
       <r>    4.3809    1.0000 </r>
       <r>    7.1418    1.0000 </r>
       <r>    7.6314    1.0000 </r>
       <r>    7.8238    1.0000 </r>
       <r>    7.9575    1.0000 </r>
       <r>    8.2938    1.0000 </r>
       <r>    8.7047    1.0000 </r>
       <r>    9.2882    1.0000 </r>
       <r>    9.3191    1.0000 </r>
       <r>   10.9435    1.0000 </r>
       <r>   12.1410    0.0000 </r>
       <r>   16.7602    0.0000 </r>
       <r>   26.2656    0.0000 </r>
       <r>   27.7394    0.0000 </r>
       <r>   28.4753    0.0000 </r>
       <r>   29.9405    0.0000 </r>
       <r>   30.5841    0.0000 </r>
      </set>
      <set comment="kpoint 17">
       <r>  -41.4498    1.0000 </r>
       <r>  -41.4116    1.0000 </r>
       <r>  -41.4020    1.0000 </r>
       <r>  -41.3437    1.0000 </r>
       <r>  -41.2974    1.0000 </r>
       <r>  -41.1686    1.0000 </r>
       <r>    2.8833    1.0000 </r>
       <r>    5.1241    1.0000 </r>
       <r>    6.9463    1.0000 </r>
       <r>    7.1413    1.0000 </r>
       <r>    7.4422    1.0000 </r>
       <r>    8.2232    1.0000 </r>
       <r>    8.6086    1.0000 </r>
       <r>    8.9500    1.0000 </r>
       <r>    9.0148    1.0000 </r>
       <r>    9.1252    1.0000 </r>
       <r>   11.0205    0.9981 </r>
       <r>   13.6611    0.0000 </r>
       <r>   17.1709    0.0000 </r>
       <r>   25.2547    0.0000 </r>
       <r>   27.7389    0.0000 </r>
       <r>   28.3912    0.0000 </r>
       <r>   28.5966    0.0000 </r>
       <r>   29.7285    0.0000 </r>
      </set>
      <set comment="kpoint 18">
       <r>  -41.5579    1.0000 </r>
       <r>  -41.5203    1.0000 </r>
       <r>  -41.3760    1.0000 </r>
       <r>  -41.3749    1.0000 </r>
       <r>  -41.3228    1.0000 </r>
       <r>  -41.1818    1.0000 </r>
       <r>    4.0255    1.0000 </r>
       <r>    5.2682    1.0000 </r>
       <r>    6.3258    1.0000 </r>
       <r>    7.0121    1.0000 </r>
       <r>    7.5626    1.0000 </r>
       <r>    8.4008    1.0000 </r>
       <r>    8.4679    1.0000 </r>
       <r>    9.5369    1.0000 </r>
       <r>    9.9084    1.0000 </r>
       <r>   10.0690    1.0000 </r>
       <r>   11.0634    0.9529 </r>
       <r>   14.7506    0.0000 </r>
       <r>   18.1655    0.0000 </r>
       <r>   21.7047    0.0000 </r>
       <r>   26.0923    0.0000 </r>
       <r>   26.1291    0.0000 </r>
       <r>   27.6946    0.0000 </r>
       <r>   29.5599    0.0000 </r>
      </set>
      <set comment="kpoint 19">
       <r>  -41.6513    1.0000 </r>
       <r>  -41.6123    1.0000 </r>
       <r>  -41.4019    1.0000 </r>
       <r>  -41.3437    1.0000 </r>
       <r>  -41.3326    1.0000 </r>
       <r>  -41.2009    1.0000 </r>
       <r>    4.5667    1.0000 </r>
       <r>    4.9341    1.0000 </r>
       <r>    5.8473    1.0000 </r>
       <r>    7.0642    1.0000 </r>
       <r>    8.1402    1.0000 </r>
       <r>    8.2137    1.0000 </r>
       <r>    8.8922    1.0000 </r>
       <r>   10.8861    1.0000 </r>
       <r>   10.9830    1.0000 </r>
       <r>   11.2420    0.0004 </r>
       <r>   11.2656    0.0000 </r>
       <r>   15.7796    0.0000 </r>
       <r>   17.8419    0.0000 </r>
       <r>   19.8360    0.0000 </r>
       <r>   23.2597    0.0000 </r>
       <r>   24.2214    0.0000 </r>
       <r>   25.3699    0.0000 </r>
       <r>   28.0463    0.0000 </r>
      </set>
      <set comment="kpoint 20">
       <r>  -41.6869    1.0000 </r>
       <r>  -41.6469    1.0000 </r>
       <r>  -41.4116    1.0000 </r>
       <r>  -41.3516    1.0000 </r>
       <r>  -41.3113    1.0000 </r>
       <r>  -41.2132    1.0000 </r>
       <r>    4.6438    1.0000 </r>
       <r>    4.7506    1.0000 </r>
       <r>    5.6942    1.0000 </r>
       <r>    7.1273    1.0000 </r>
       <r>    8.1196    1.0000 </r>
       <r>    8.2904    1.0000 </r>
       <r>    9.3420    1.0000 </r>
       <r>   10.9672    1.0000 </r>
       <r>   11.4425    0.0000 </r>
       <r>   11.6163    0.0000 </r>
       <r>   13.1615    0.0000 </r>
       <r>   14.7613    0.0000 </r>
       <r>   18.2548    0.0000 </r>
       <r>   18.9995    0.0000 </r>
       <r>   21.8565    0.0000 </r>
       <r>   23.4558    0.0000 </r>
       <r>   24.5327    0.0000 </r>
       <r>   27.5305    0.0000 </r>
      </set>
      <set comment="kpoint 21">
       <r>  -41.4391    1.0000 </r>
       <r>  -41.3950    1.0000 </r>
       <r>  -41.3796    1.0000 </r>
       <r>  -41.3313    1.0000 </r>
       <r>  -41.2962    1.0000 </r>
       <r>  -41.1662    1.0000 </r>
       <r>    2.5871    1.0000 </r>
       <r>    4.9682    1.0000 </r>
       <r>    6.9053    1.0000 </r>
       <r>    7.3546    1.0000 </r>
       <r>    7.7117    1.0000 </r>
       <r>    7.9395    1.0000 </r>
       <r>    8.5012    1.0000 </r>
       <r>    8.7229    1.0000 </r>
       <r>    9.0129    1.0000 </r>
       <r>    9.3038    1.0000 </r>
       <r>   10.9514    1.0000 </r>
       <r>   13.3094    0.0000 </r>
       <r>   17.0159    0.0000 </r>
       <r>   26.5312    0.0000 </r>
       <r>   27.2524    0.0000 </r>
       <r>   28.1377    0.0000 </r>
       <r>   28.8108    0.0000 </r>
       <r>   30.2643    0.0000 </r>
      </set>
      <set comment="kpoint 22">
       <r>  -41.5051    1.0000 </r>
       <r>  -41.4791    1.0000 </r>
       <r>  -41.3898    1.0000 </r>
       <r>  -41.3683    1.0000 </r>
       <r>  -41.3262    1.0000 </r>
       <r>  -41.1762    1.0000 </r>
       <r>    3.7242    1.0000 </r>
       <r>    5.6120    1.0000 </r>
       <r>    6.5757    1.0000 </r>
       <r>    6.7639    1.0000 </r>
       <r>    7.3307    1.0000 </r>
       <r>    7.9918    1.0000 </r>
       <r>    8.7055    1.0000 </r>
       <r>    8.8480    1.0000 </r>
       <r>    9.7337    1.0000 </r>
       <r>    9.9719    1.0000 </r>
       <r>   10.9512    1.0000 </r>
       <r>   14.4778    0.0000 </r>
       <r>   17.8169    0.0000 </r>
       <r>   23.5155    0.0000 </r>
       <r>   25.3719    0.0000 </r>
       <r>   27.3120    0.0000 </r>
       <r>   28.6909    0.0000 </r>
       <r>   30.5179    0.0000 </r>
      </set>
      <set comment="kpoint 23">
       <r>  -41.6047    1.0000 </r>
       <r>  -41.5719    1.0000 </r>
       <r>  -41.4072    1.0000 </r>
       <r>  -41.3565    1.0000 </r>
       <r>  -41.3454    1.0000 </r>
       <r>  -41.1933    1.0000 </r>
       <r>    4.6731    1.0000 </r>
       <r>    5.3739    1.0000 </r>
       <r>    6.0479    1.0000 </r>
       <r>    6.9167    1.0000 </r>
       <r>    7.7706    1.0000 </r>
       <r>    8.1497    1.0000 </r>
       <r>    8.3930    1.0000 </r>
       <r>    9.6584    1.0000 </r>
       <r>   10.7456    1.0000 </r>
       <r>   10.8058    1.0000 </r>
       <r>   11.5048    0.0000 </r>
       <r>   15.5689    0.0000 </r>
       <r>   18.7527    0.0000 </r>
       <r>   20.2609    0.0000 </r>
       <r>   23.2475    0.0000 </r>
       <r>   25.4121    0.0000 </r>
       <r>   26.5911    0.0000 </r>
       <r>   28.4376    0.0000 </r>
      </set>
      <set comment="kpoint 24">
       <r>  -41.6672    1.0000 </r>
       <r>  -41.6283    1.0000 </r>
       <r>  -41.4306    1.0000 </r>
       <r>  -41.3732    1.0000 </r>
       <r>  -41.3110    1.0000 </r>
       <r>  -41.2126    1.0000 </r>
       <r>    4.8727    1.0000 </r>
       <r>    5.0714    1.0000 </r>
       <r>    5.8373    1.0000 </r>
       <r>    7.0697    1.0000 </r>
       <r>    7.8569    1.0000 </r>
       <r>    8.4160    1.0000 </r>
       <r>    8.8190    1.0000 </r>
       <r>   10.7621    1.0000 </r>
       <r>   10.8782    1.0000 </r>
       <r>   11.2969    0.0000 </r>
       <r>   13.1024    0.0000 </r>
       <r>   15.9073    0.0000 </r>
       <r>   17.7010    0.0000 </r>
       <r>   20.0502    0.0000 </r>
       <r>   21.4251    0.0000 </r>
       <r>   23.5363    0.0000 </r>
       <r>   25.0825    0.0000 </r>
       <r>   27.2552    0.0000 </r>
      </set>
      <set comment="kpoint 25">
       <r>  -41.5616    1.0000 </r>
       <r>  -41.5607    1.0000 </r>
       <r>  -41.4138    1.0000 </r>
       <r>  -41.3785    1.0000 </r>
       <r>  -41.3499    1.0000 </r>
       <r>  -41.1906    1.0000 </r>
       <r>    4.8771    1.0000 </r>
       <r>    6.0236    1.0000 </r>
       <r>    6.2662    1.0000 </r>
       <r>    6.3481    1.0000 </r>
       <r>    7.5838    1.0000 </r>
       <r>    7.5924    1.0000 </r>
       <r>    8.4531    1.0000 </r>
       <r>    9.0578    1.0000 </r>
       <r>   10.6093    1.0000 </r>
       <r>   10.7980    1.0000 </r>
       <r>   11.5985    0.0000 </r>
       <r>   15.5658    0.0000 </r>
       <r>   18.9808    0.0000 </r>
       <r>   21.4046    0.0000 </r>
       <r>   22.0411    0.0000 </r>
       <r>   26.5269    0.0000 </r>
       <r>   27.0443    0.0000 </r>
       <r>   29.0335    0.0000 </r>
      </set>
      <set comment="kpoint 26">
       <r>  -41.6214    1.0000 </r>
       <r>  -41.5954    1.0000 </r>
       <r>  -41.4652    1.0000 </r>
       <r>  -41.4206    1.0000 </r>
       <r>  -41.3107    1.0000 </r>
       <r>  -41.2118    1.0000 </r>
       <r>    5.4661    1.0000 </r>
       <r>    5.8506    1.0000 </r>
       <r>    6.0210    1.0000 </r>
       <r>    6.7818    1.0000 </r>
       <r>    7.6052    1.0000 </r>
       <r>    7.9780    1.0000 </r>
       <r>    8.2653    1.0000 </r>
       <r>    9.7567    1.0000 </r>
       <r>   10.4814    1.0000 </r>
       <r>   11.2252    0.0019 </r>
       <r>   13.2450    0.0000 </r>
       <r>   17.3652    0.0000 </r>
       <r>   17.6391    0.0000 </r>
       <r>   20.0029    0.0000 </r>
       <r>   21.2633    0.0000 </r>
       <r>   24.3494    0.0000 </r>
       <r>   25.9038    0.0000 </r>
       <r>   26.9454    0.0000 </r>
      </set>
      <set comment="kpoint 27">
       <r>  -41.6434    1.0000 </r>
       <r>  -41.6048    1.0000 </r>
       <r>  -41.4894    1.0000 </r>
       <r>  -41.4368    1.0000 </r>
       <r>  -41.2879    1.0000 </r>
       <r>  -41.2272    1.0000 </r>
       <r>    5.4121    1.0000 </r>
       <r>    5.7310    1.0000 </r>
       <r>    6.1125    1.0000 </r>
       <r>    7.0023    1.0000 </r>
       <r>    7.4658    1.0000 </r>
       <r>    8.1705    1.0000 </r>
       <r>    8.5580    1.0000 </r>
       <r>   10.4233    1.0000 </r>
       <r>   10.4810    1.0000 </r>
       <r>   11.0040    0.9996 </r>
       <r>   14.8770    0.0000 </r>
       <r>   15.3475    0.0000 </r>
       <r>   18.6995    0.0000 </r>
       <r>   19.8672    0.0000 </r>
       <r>   20.8404    0.0000 </r>
       <r>   23.7844    0.0000 </r>
       <r>   25.3590    0.0000 </r>
       <r>   25.6276    0.0000 </r>
      </set>
      <set comment="kpoint 28">
       <r>  -41.6059    1.0000 </r>
       <r>  -41.5781    1.0000 </r>
       <r>  -41.5296    1.0000 </r>
       <r>  -41.4901    1.0000 </r>
       <r>  -41.2748    1.0000 </r>
       <r>  -41.2371    1.0000 </r>
       <r>    5.7978    1.0000 </r>
       <r>    6.1549    1.0000 </r>
       <r>    6.4640    1.0000 </r>
       <r>    6.7513    1.0000 </r>
       <r>    7.5431    1.0000 </r>
       <r>    7.5841    1.0000 </r>
       <r>    8.4876    1.0000 </r>
       <r>   10.1474    1.0000 </r>
       <r>   10.2547    1.0000 </r>
       <r>   10.8624    1.0000 </r>
       <r>   14.9049    0.0000 </r>
       <r>   16.2213    0.0000 </r>
       <r>   17.7504    0.0000 </r>
       <r>   20.1458    0.0000 </r>
       <r>   22.7775    0.0000 </r>
       <r>   22.8741    0.0000 </r>
       <r>   24.7300    0.0000 </r>
       <r>   26.0260    0.0000 </r>
      </set>
      <set comment="kpoint 29">
       <r>  -41.4290    1.0000 </r>
       <r>  -41.3021    1.0000 </r>
       <r>  -41.3021    1.0000 </r>
       <r>  -41.2740    1.0000 </r>
       <r>  -41.2740    1.0000 </r>
       <r>  -41.1972    1.0000 </r>
       <r>    1.9388    1.0000 </r>
       <r>    3.9500    1.0000 </r>
       <r>    7.0948    1.0000 </r>
       <r>    7.6607    1.0000 </r>
       <r>    7.6607    1.0000 </r>
       <r>    7.9377    1.0000 </r>
       <r>    7.9377    1.0000 </r>
       <r>    8.6605    1.0000 </r>
       <r>    9.6924    1.0000 </r>
       <r>    9.6924    1.0000 </r>
       <r>   10.7982    1.0000 </r>
       <r>   10.7982    1.0000 </r>
       <r>   18.5828    0.0000 </r>
       <r>   25.2389    0.0000 </r>
       <r>   27.4813    0.0000 </r>
       <r>   27.6063    0.0000 </r>
       <r>   31.1116    0.0000 </r>
       <r>   31.1116    0.0000 </r>
      </set>
      <set comment="kpoint 30">
       <r>  -41.4233    1.0000 </r>
       <r>  -41.3347    1.0000 </r>
       <r>  -41.3139    1.0000 </r>
       <r>  -41.3123    1.0000 </r>
       <r>  -41.2819    1.0000 </r>
       <r>  -41.1946    1.0000 </r>
       <r>    2.2910    1.0000 </r>
       <r>    4.2984    1.0000 </r>
       <r>    7.1256    1.0000 </r>
       <r>    7.4825    1.0000 </r>
       <r>    7.5593    1.0000 </r>
       <r>    7.9138    1.0000 </r>
       <r>    8.1896    1.0000 </r>
       <r>    8.3018    1.0000 </r>
       <r>    9.5729    1.0000 </r>
       <r>    9.5742    1.0000 </r>
       <r>   10.8204    1.0000 </r>
       <r>   11.4260    0.0000 </r>
       <r>   18.7374    0.0000 </r>
       <r>   25.7412    0.0000 </r>
       <r>   27.8735    0.0000 </r>
       <r>   27.9895    0.0000 </r>
       <r>   29.6598    0.0000 </r>
       <r>   30.5401    0.0000 </r>
      </set>
      <set comment="kpoint 31">
       <r>  -41.4530    1.0000 </r>
       <r>  -41.4132    1.0000 </r>
       <r>  -41.3722    1.0000 </r>
       <r>  -41.3383    1.0000 </r>
       <r>  -41.3029    1.0000 </r>
       <r>  -41.1941    1.0000 </r>
       <r>    3.2182    1.0000 </r>
       <r>    5.0970    1.0000 </r>
       <r>    6.7667    1.0000 </r>
       <r>    7.0539    1.0000 </r>
       <r>    7.2165    1.0000 </r>
       <r>    8.0261    1.0000 </r>
       <r>    8.5261    1.0000 </r>
       <r>    8.8772    1.0000 </r>
       <r>    9.4302    1.0000 </r>
       <r>    9.4514    1.0000 </r>
       <r>   10.8433    1.0000 </r>
       <r>   12.4382    0.0000 </r>
       <r>   19.1959    0.0000 </r>
       <r>   25.5370    0.0000 </r>
       <r>   27.1596    0.0000 </r>
       <r>   27.9291    0.0000 </r>
       <r>   28.8629    0.0000 </r>
       <r>   29.8746    0.0000 </r>
      </set>
      <set comment="kpoint 32">
       <r>  -41.5607    1.0000 </r>
       <r>  -41.5297    1.0000 </r>
       <r>  -41.3698    1.0000 </r>
       <r>  -41.3449    1.0000 </r>
       <r>  -41.3291    1.0000 </r>
       <r>  -41.1998    1.0000 </r>
       <r>    4.1870    1.0000 </r>
       <r>    5.2979    1.0000 </r>
       <r>    6.2155    1.0000 </r>
       <r>    6.7561    1.0000 </r>
       <r>    7.6865    1.0000 </r>
       <r>    8.4934    1.0000 </r>
       <r>    8.6452    1.0000 </r>
       <r>    9.7676    1.0000 </r>
       <r>    9.8362    1.0000 </r>
       <r>   10.0631    1.0000 </r>
       <r>   10.8810    1.0000 </r>
       <r>   13.3462    0.0000 </r>
       <r>   19.6560    0.0000 </r>
       <r>   22.4896    0.0000 </r>
       <r>   25.2276    0.0000 </r>
       <r>   26.7795    0.0000 </r>
       <r>   27.6765    0.0000 </r>
       <r>   29.0506    0.0000 </r>
      </set>
      <set comment="kpoint 33">
       <r>  -41.6527    1.0000 </r>
       <r>  -41.6222    1.0000 </r>
       <r>  -41.3950    1.0000 </r>
       <r>  -41.3505    1.0000 </r>
       <r>  -41.3107    1.0000 </r>
       <r>  -41.2110    1.0000 </r>
       <r>    4.4882    1.0000 </r>
       <r>    4.9651    1.0000 </r>
       <r>    6.0507    1.0000 </r>
       <r>    6.4507    1.0000 </r>
       <r>    8.4211    1.0000 </r>
       <r>    8.4612    1.0000 </r>
       <r>    9.7494    1.0000 </r>
       <r>   10.4568    1.0000 </r>
       <r>   11.0110    0.9992 </r>
       <r>   11.0205    0.9981 </r>
       <r>   11.2465    0.0002 </r>
       <r>   14.3297    0.0000 </r>
       <r>   18.1758    0.0000 </r>
       <r>   20.5928    0.0000 </r>
       <r>   23.2126    0.0000 </r>
       <r>   24.9938    0.0000 </r>
       <r>   25.9291    0.0000 </r>
       <r>   28.4458    0.0000 </r>
      </set>
      <set comment="kpoint 34">
       <r>  -41.6881    1.0000 </r>
       <r>  -41.6569    1.0000 </r>
       <r>  -41.4046    1.0000 </r>
       <r>  -41.3586    1.0000 </r>
       <r>  -41.2936    1.0000 </r>
       <r>  -41.2191    1.0000 </r>
       <r>    4.4785    1.0000 </r>
       <r>    4.8062    1.0000 </r>
       <r>    5.9698    1.0000 </r>
       <r>    6.4019    1.0000 </r>
       <r>    8.3826    1.0000 </r>
       <r>    8.6129    1.0000 </r>
       <r>   10.4705    1.0000 </r>
       <r>   10.5244    1.0000 </r>
       <r>   11.4718    0.0000 </r>
       <r>   11.5981    0.0000 </r>
       <r>   12.4914    0.0000 </r>
       <r>   14.3987    0.0000 </r>
       <r>   17.9474    0.0000 </r>
       <r>   18.1624    0.0000 </r>
       <r>   23.3800    0.0000 </r>
       <r>   24.2566    0.0000 </r>
       <r>   24.8688    0.0000 </r>
       <r>   28.2659    0.0000 </r>
      </set>
      <set comment="kpoint 35">
       <r>  -41.4306    1.0000 </r>
       <r>  -41.3845    1.0000 </r>
       <r>  -41.3694    1.0000 </r>
       <r>  -41.3291    1.0000 </r>
       <r>  -41.3010    1.0000 </r>
       <r>  -41.1936    1.0000 </r>
       <r>    2.9428    1.0000 </r>
       <r>    4.9204    1.0000 </r>
       <r>    6.9606    1.0000 </r>
       <r>    7.0018    1.0000 </r>
       <r>    7.3406    1.0000 </r>
       <r>    7.9211    1.0000 </r>
       <r>    8.3967    1.0000 </r>
       <r>    8.6832    1.0000 </r>
       <r>    9.4400    1.0000 </r>
       <r>    9.5181    1.0000 </r>
       <r>   10.7962    1.0000 </r>
       <r>   12.2004    0.0000 </r>
       <r>   19.0580    0.0000 </r>
       <r>   26.3249    0.0000 </r>
       <r>   27.4848    0.0000 </r>
       <r>   27.9740    0.0000 </r>
       <r>   28.1945    0.0000 </r>
       <r>   29.6899    0.0000 </r>
      </set>
      <set comment="kpoint 36">
       <r>  -41.5097    1.0000 </r>
       <r>  -41.4859    1.0000 </r>
       <r>  -41.3664    1.0000 </r>
       <r>  -41.3559    1.0000 </r>
       <r>  -41.3305    1.0000 </r>
       <r>  -41.1965    1.0000 </r>
       <r>    3.9875    1.0000 </r>
       <r>    5.6502    1.0000 </r>
       <r>    6.2921    1.0000 </r>
       <r>    6.8489    1.0000 </r>
       <r>    7.1751    1.0000 </r>
       <r>    7.8474    1.0000 </r>
       <r>    8.6745    1.0000 </r>
       <r>    9.2342    1.0000 </r>
       <r>    9.8656    1.0000 </r>
       <r>    9.9528    1.0000 </r>
       <r>   10.8114    1.0000 </r>
       <r>   13.1211    0.0000 </r>
       <r>   19.6575    0.0000 </r>
       <r>   24.0345    0.0000 </r>
       <r>   25.6183    0.0000 </r>
       <r>   27.0105    0.0000 </r>
       <r>   28.1483    0.0000 </r>
       <r>   28.8186    0.0000 </r>
      </set>
      <set comment="kpoint 37">
       <r>  -41.6069    1.0000 </r>
       <r>  -41.5808    1.0000 </r>
       <r>  -41.4027    1.0000 </r>
       <r>  -41.3631    1.0000 </r>
       <r>  -41.3201    1.0000 </r>
       <r>  -41.2056    1.0000 </r>
       <r>    4.6813    1.0000 </r>
       <r>    5.4241    1.0000 </r>
       <r>    6.0687    1.0000 </r>
       <r>    6.6423    1.0000 </r>
       <r>    7.8173    1.0000 </r>
       <r>    8.4361    1.0000 </r>
       <r>    8.5918    1.0000 </r>
       <r>    9.7766    1.0000 </r>
       <r>   10.3369    1.0000 </r>
       <r>   10.9674    1.0000 </r>
       <r>   11.5365    0.0000 </r>
       <r>   14.1851    0.0000 </r>
       <r>   19.3131    0.0000 </r>
       <r>   21.6482    0.0000 </r>
       <r>   23.2829    0.0000 </r>
       <r>   25.1043    0.0000 </r>
       <r>   26.9082    0.0000 </r>
       <r>   28.1427    0.0000 </r>
      </set>
      <set comment="kpoint 38">
       <r>  -41.6682    1.0000 </r>
       <r>  -41.6380    1.0000 </r>
       <r>  -41.4252    1.0000 </r>
       <r>  -41.3808    1.0000 </r>
       <r>  -41.2921    1.0000 </r>
       <r>  -41.2179    1.0000 </r>
       <r>    4.7163    1.0000 </r>
       <r>    5.1320    1.0000 </r>
       <r>    6.1477    1.0000 </r>
       <r>    6.4272    1.0000 </r>
       <r>    7.8612    1.0000 </r>
       <r>    8.8663    1.0000 </r>
       <r>    9.5022    1.0000 </r>
       <r>   10.3050    1.0000 </r>
       <r>   10.8285    1.0000 </r>
       <r>   11.3983    0.0000 </r>
       <r>   12.9964    0.0000 </r>
       <r>   15.2035    0.0000 </r>
       <r>   17.4899    0.0000 </r>
       <r>   19.5534    0.0000 </r>
       <r>   22.5200    0.0000 </r>
       <r>   24.2646    0.0000 </r>
       <r>   25.5568    0.0000 </r>
       <r>   27.1077    0.0000 </r>
      </set>
      <set comment="kpoint 39">
       <r>  -41.5678    1.0000 </r>
       <r>  -41.5639    1.0000 </r>
       <r>  -41.4126    1.0000 </r>
       <r>  -41.3853    1.0000 </r>
       <r>  -41.3223    1.0000 </r>
       <r>  -41.2032    1.0000 </r>
       <r>    4.9803    1.0000 </r>
       <r>    5.8440    1.0000 </r>
       <r>    6.3418    1.0000 </r>
       <r>    6.5097    1.0000 </r>
       <r>    7.5014    1.0000 </r>
       <r>    7.5426    1.0000 </r>
       <r>    8.3222    1.0000 </r>
       <r>    9.4999    1.0000 </r>
       <r>   10.1769    1.0000 </r>
       <r>   11.0218    0.9978 </r>
       <r>   11.6804    0.0000 </r>
       <r>   14.2349    0.0000 </r>
       <r>   20.0093    0.0000 </r>
       <r>   22.4534    0.0000 </r>
       <r>   22.4995    0.0000 </r>
       <r>   25.9382    0.0000 </r>
       <r>   26.1460    0.0000 </r>
       <r>   28.6806    0.0000 </r>
      </set>
      <set comment="kpoint 40">
       <r>  -41.6225    1.0000 </r>
       <r>  -41.6033    1.0000 </r>
       <r>  -41.4637    1.0000 </r>
       <r>  -41.4286    1.0000 </r>
       <r>  -41.2904    1.0000 </r>
       <r>  -41.2162    1.0000 </r>
       <r>    5.3336    1.0000 </r>
       <r>    5.9827    1.0000 </r>
       <r>    6.0122    1.0000 </r>
       <r>    6.7852    1.0000 </r>
       <r>    7.4594    1.0000 </r>
       <r>    8.0456    1.0000 </r>
       <r>    8.4751    1.0000 </r>
       <r>    9.8777    1.0000 </r>
       <r>   10.1325    1.0000 </r>
       <r>   11.4159    0.0000 </r>
       <r>   13.3545    0.0000 </r>
       <r>   16.1012    0.0000 </r>
       <r>   18.0272    0.0000 </r>
       <r>   20.4137    0.0000 </r>
       <r>   22.0213    0.0000 </r>
       <r>   24.0160    0.0000 </r>
       <r>   25.3485    0.0000 </r>
       <r>   27.4626    0.0000 </r>
      </set>
      <set comment="kpoint 41">
       <r>  -41.6433    1.0000 </r>
       <r>  -41.6142    1.0000 </r>
       <r>  -41.4870    1.0000 </r>
       <r>  -41.4454    1.0000 </r>
       <r>  -41.2723    1.0000 </r>
       <r>  -41.2267    1.0000 </r>
       <r>    5.2626    1.0000 </r>
       <r>    5.8447    1.0000 </r>
       <r>    6.4285    1.0000 </r>
       <r>    6.5939    1.0000 </r>
       <r>    7.2075    1.0000 </r>
       <r>    8.4862    1.0000 </r>
       <r>    8.8807    1.0000 </r>
       <r>    9.9315    1.0000 </r>
       <r>   10.5779    1.0000 </r>
       <r>   11.1542    0.1851 </r>
       <r>   15.1132    0.0000 </r>
       <r>   15.4506    0.0000 </r>
       <r>   18.4308    0.0000 </r>
       <r>   19.1124    0.0000 </r>
       <r>   20.6241    0.0000 </r>
       <r>   24.6125    0.0000 </r>
       <r>   25.2414    0.0000 </r>
       <r>   26.0172    0.0000 </r>
      </set>
      <set comment="kpoint 42">
       <r>  -41.6034    1.0000 </r>
       <r>  -41.5859    1.0000 </r>
       <r>  -41.5320    1.0000 </r>
       <r>  -41.4986    1.0000 </r>
       <r>  -41.2616    1.0000 </r>
       <r>  -41.2332    1.0000 </r>
       <r>    5.8602    1.0000 </r>
       <r>    6.0752    1.0000 </r>
       <r>    6.5798    1.0000 </r>
       <r>    6.6477    1.0000 </r>
       <r>    7.3930    1.0000 </r>
       <r>    7.6830    1.0000 </r>
       <r>    8.5107    1.0000 </r>
       <r>    9.7365    1.0000 </r>
       <r>   10.4181    1.0000 </r>
       <r>   11.0420    0.9886 </r>
       <r>   15.1905    0.0000 </r>
       <r>   16.6623    0.0000 </r>
       <r>   18.3875    0.0000 </r>
       <r>   18.8044    0.0000 </r>
       <r>   21.3972    0.0000 </r>
       <r>   22.3860    0.0000 </r>
       <r>   25.7486    0.0000 </r>
       <r>   27.3353    0.0000 </r>
      </set>
      <set comment="kpoint 43">
       <r>  -41.3764    1.0000 </r>
       <r>  -41.2956    1.0000 </r>
       <r>  -41.2956    1.0000 </r>
       <r>  -41.2804    1.0000 </r>
       <r>  -41.2804    1.0000 </r>
       <r>  -41.2509    1.0000 </r>
       <r>    2.5145    1.0000 </r>
       <r>    3.6744    1.0000 </r>
       <r>    7.0559    1.0000 </r>
       <r>    7.6630    1.0000 </r>
       <r>    7.6630    1.0000 </r>
       <r>    7.7070    1.0000 </r>
       <r>    7.8182    1.0000 </r>
       <r>    7.8182    1.0000 </r>
       <r>   10.0198    1.0000 </r>
       <r>   10.0198    1.0000 </r>
       <r>   10.6168    1.0000 </r>
       <r>   10.6168    1.0000 </r>
       <r>   20.8421    0.0000 </r>
       <r>   24.5663    0.0000 </r>
       <r>   26.9065    0.0000 </r>
       <r>   27.0465    0.0000 </r>
       <r>   31.0558    0.0000 </r>
       <r>   31.0558    0.0000 </r>
      </set>
      <set comment="kpoint 44">
       <r>  -41.3810    1.0000 </r>
       <r>  -41.3257    1.0000 </r>
       <r>  -41.3198    1.0000 </r>
       <r>  -41.3053    1.0000 </r>
       <r>  -41.2889    1.0000 </r>
       <r>  -41.2412    1.0000 </r>
       <r>    2.8610    1.0000 </r>
       <r>    4.0299    1.0000 </r>
       <r>    7.0350    1.0000 </r>
       <r>    7.1999    1.0000 </r>
       <r>    7.4733    1.0000 </r>
       <r>    7.8789    1.0000 </r>
       <r>    7.9091    1.0000 </r>
       <r>    8.0661    1.0000 </r>
       <r>    9.9328    1.0000 </r>
       <r>    9.9877    1.0000 </r>
       <r>   10.6015    1.0000 </r>
       <r>   10.8975    1.0000 </r>
       <r>   21.0038    0.0000 </r>
       <r>   24.9448    0.0000 </r>
       <r>   27.3383    0.0000 </r>
       <r>   27.4106    0.0000 </r>
       <r>   29.7099    0.0000 </r>
       <r>   30.7243    0.0000 </r>
      </set>
      <set comment="kpoint 45">
       <r>  -41.4478    1.0000 </r>
       <r>  -41.4246    1.0000 </r>
       <r>  -41.3302    1.0000 </r>
       <r>  -41.3278    1.0000 </r>
       <r>  -41.3111    1.0000 </r>
       <r>  -41.2329    1.0000 </r>
       <r>    3.7314    1.0000 </r>
       <r>    4.8568    1.0000 </r>
       <r>    6.5507    1.0000 </r>
       <r>    6.9014    1.0000 </r>
       <r>    7.2326    1.0000 </r>
       <r>    7.7615    1.0000 </r>
       <r>    8.5328    1.0000 </r>
       <r>    8.7418    1.0000 </r>
       <r>    9.8123    1.0000 </r>
       <r>   10.0144    1.0000 </r>
       <r>   10.5620    1.0000 </r>
       <r>   11.4701    0.0000 </r>
       <r>   21.3651    0.0000 </r>
       <r>   25.4981    0.0000 </r>
       <r>   26.2612    0.0000 </r>
       <r>   27.2990    0.0000 </r>
       <r>   29.1050    0.0000 </r>
       <r>   29.6475    0.0000 </r>
      </set>
      <set comment="kpoint 46">
       <r>  -41.5594    1.0000 </r>
       <r>  -41.5417    1.0000 </r>
       <r>  -41.3605    1.0000 </r>
       <r>  -41.3384    1.0000 </r>
       <r>  -41.3057    1.0000 </r>
       <r>  -41.2282    1.0000 </r>
       <r>    4.4545    1.0000 </r>
       <r>    5.1479    1.0000 </r>
       <r>    6.1664    1.0000 </r>
       <r>    6.5454    1.0000 </r>
       <r>    7.9201    1.0000 </r>
       <r>    8.4084    1.0000 </r>
       <r>    8.9167    1.0000 </r>
       <r>    9.5730    1.0000 </r>
       <r>   10.2086    1.0000 </r>
       <r>   10.2663    1.0000 </r>
       <r>   10.6462    1.0000 </r>
       <r>   12.0862    0.0000 </r>
       <r>   21.0859    0.0000 </r>
       <r>   23.4042    0.0000 </r>
       <r>   24.3092    0.0000 </r>
       <r>   26.7946    0.0000 </r>
       <r>   27.8355    0.0000 </r>
       <r>   29.1268    0.0000 </r>
      </set>
      <set comment="kpoint 47">
       <r>  -41.6513    1.0000 </r>
       <r>  -41.6344    1.0000 </r>
       <r>  -41.3848    1.0000 </r>
       <r>  -41.3607    1.0000 </r>
       <r>  -41.2819    1.0000 </r>
       <r>  -41.2285    1.0000 </r>
       <r>    4.5271    1.0000 </r>
       <r>    4.9015    1.0000 </r>
       <r>    6.0194    1.0000 </r>
       <r>    6.1865    1.0000 </r>
       <r>    8.8532    1.0000 </r>
       <r>    8.9931    1.0000 </r>
       <r>    9.9162    1.0000 </r>
       <r>   10.2814    1.0000 </r>
       <r>   10.9114    1.0000 </r>
       <r>   11.0773    0.8998 </r>
       <r>   11.2050    0.0099 </r>
       <r>   12.9471    0.0000 </r>
       <r>   18.7499    0.0000 </r>
       <r>   20.2491    0.0000 </r>
       <r>   24.1208    0.0000 </r>
       <r>   26.0169    0.0000 </r>
       <r>   26.1279    0.0000 </r>
       <r>   28.8025    0.0000 </r>
      </set>
      <set comment="kpoint 48">
       <r>  -41.6866    1.0000 </r>
       <r>  -41.6694    1.0000 </r>
       <r>  -41.3940    1.0000 </r>
       <r>  -41.3693    1.0000 </r>
       <r>  -41.2707    1.0000 </r>
       <r>  -41.2306    1.0000 </r>
       <r>    4.4678    1.0000 </r>
       <r>    4.7763    1.0000 </r>
       <r>    5.9946    1.0000 </r>
       <r>    6.0267    1.0000 </r>
       <r>    8.8008    1.0000 </r>
       <r>    9.3089    1.0000 </r>
       <r>    9.9431    1.0000 </r>
       <r>   11.2317    0.0010 </r>
       <r>   11.5036    0.0000 </r>
       <r>   11.5707    0.0000 </r>
       <r>   11.8976    0.0000 </r>
       <r>   13.7455    0.0000 </r>
       <r>   17.6795    0.0000 </r>
       <r>   17.7204    0.0000 </r>
       <r>   24.6353    0.0000 </r>
       <r>   25.2231    0.0000 </r>
       <r>   25.4094    0.0000 </r>
       <r>   28.0174    0.0000 </r>
      </set>
      <set comment="kpoint 49">
       <r>  -41.4188    1.0000 </r>
       <r>  -41.3936    1.0000 </r>
       <r>  -41.3307    1.0000 </r>
       <r>  -41.3243    1.0000 </r>
       <r>  -41.3075    1.0000 </r>
       <r>  -41.2342    1.0000 </r>
       <r>    3.4871    1.0000 </r>
       <r>    4.6627    1.0000 </r>
       <r>    6.6985    1.0000 </r>
       <r>    6.9872    1.0000 </r>
       <r>    7.1706    1.0000 </r>
       <r>    7.6866    1.0000 </r>
       <r>    8.3902    1.0000 </r>
       <r>    8.5664    1.0000 </r>
       <r>    9.8429    1.0000 </r>
       <r>    9.9995    1.0000 </r>
       <r>   10.5408    1.0000 </r>
       <r>   11.3374    0.0000 </r>
       <r>   21.2893    0.0000 </r>
       <r>   25.4701    0.0000 </r>
       <r>   27.5593    0.0000 </r>
       <r>   27.7040    0.0000 </r>
       <r>   27.9153    0.0000 </r>
       <r>   28.7609    0.0000 </r>
      </set>
      <set comment="kpoint 50">
       <r>  -41.5095    1.0000 </r>
       <r>  -41.4949    1.0000 </r>
       <r>  -41.3592    1.0000 </r>
       <r>  -41.3426    1.0000 </r>
       <r>  -41.3106    1.0000 </r>
       <r>  -41.2282    1.0000 </r>
       <r>    4.3958    1.0000 </r>
       <r>    5.3969    1.0000 </r>
       <r>    6.2627    1.0000 </r>
       <r>    6.7954    1.0000 </r>
       <r>    7.1184    1.0000 </r>
       <r>    7.6129    1.0000 </r>
       <r>    8.8179    1.0000 </r>
       <r>    9.3365    1.0000 </r>
       <r>   10.1392    1.0000 </r>
       <r>   10.2060    1.0000 </r>
       <r>   10.6135    1.0000 </r>
       <r>   11.9482    0.0000 </r>
       <r>   21.5830    0.0000 </r>
       <r>   24.8146    0.0000 </r>
       <r>   25.1385    0.0000 </r>
       <r>   26.9928    0.0000 </r>
       <r>   27.0023    0.0000 </r>
       <r>   27.9146    0.0000 </r>
      </set>
      <set comment="kpoint 51">
       <r>  -41.6063    1.0000 </r>
       <r>  -41.5917    1.0000 </r>
       <r>  -41.3945    1.0000 </r>
       <r>  -41.3729    1.0000 </r>
       <r>  -41.2873    1.0000 </r>
       <r>  -41.2262    1.0000 </r>
       <r>    4.7889    1.0000 </r>
       <r>    5.2937    1.0000 </r>
       <r>    6.0857    1.0000 </r>
       <r>    6.4959    1.0000 </r>
       <r>    8.0355    1.0000 </r>
       <r>    8.4548    1.0000 </r>
       <r>    8.8838    1.0000 </r>
       <r>    9.6597    1.0000 </r>
       <r>   10.4069    1.0000 </r>
       <r>   11.1571    0.1640 </r>
       <r>   11.5181    0.0000 </r>
       <r>   12.8420    0.0000 </r>
       <r>   20.1302    0.0000 </r>
       <r>   22.0117    0.0000 </r>
       <r>   23.7962    0.0000 </r>
       <r>   25.6098    0.0000 </r>
       <r>   26.7750    0.0000 </r>
       <r>   27.0036    0.0000 </r>
      </set>
      <set comment="kpoint 52">
       <r>  -41.6666    1.0000 </r>
       <r>  -41.6501    1.0000 </r>
       <r>  -41.4161    1.0000 </r>
       <r>  -41.3919    1.0000 </r>
       <r>  -41.2684    1.0000 </r>
       <r>  -41.2287    1.0000 </r>
       <r>    4.7171    1.0000 </r>
       <r>    5.0869    1.0000 </r>
       <r>    6.0558    1.0000 </r>
       <r>    6.2489    1.0000 </r>
       <r>    8.2042    1.0000 </r>
       <r>    9.3583    1.0000 </r>
       <r>    9.5254    1.0000 </r>
       <r>   10.0729    1.0000 </r>
       <r>   10.8538    1.0000 </r>
       <r>   11.3906    0.0000 </r>
       <r>   13.0424    0.0000 </r>
       <r>   14.2809    0.0000 </r>
       <r>   17.7240    0.0000 </r>
       <r>   18.8741    0.0000 </r>
       <r>   23.7918    0.0000 </r>
       <r>   25.1226    0.0000 </r>
       <r>   25.9132    0.0000 </r>
       <r>   26.3160    0.0000 </r>
      </set>
      <set comment="kpoint 53">
       <r>  -41.5719    1.0000 </r>
       <r>  -41.5682    1.0000 </r>
       <r>  -41.4088    1.0000 </r>
       <r>  -41.3936    1.0000 </r>
       <r>  -41.2880    1.0000 </r>
       <r>  -41.2247    1.0000 </r>
       <r>    5.1520    1.0000 </r>
       <r>    5.6234    1.0000 </r>
       <r>    6.4901    1.0000 </r>
       <r>    6.6458    1.0000 </r>
       <r>    7.3414    1.0000 </r>
       <r>    7.3443    1.0000 </r>
       <r>    8.5112    1.0000 </r>
       <r>    9.4740    1.0000 </r>
       <r>   10.3972    1.0000 </r>
       <r>   11.2046    0.0101 </r>
       <r>   11.7188    0.0000 </r>
       <r>   12.9205    0.0000 </r>
       <r>   21.1782    0.0000 </r>
       <r>   22.8162    0.0000 </r>
       <r>   23.7542    0.0000 </r>
       <r>   24.8792    0.0000 </r>
       <r>   25.7599    0.0000 </r>
       <r>   27.3089    0.0000 </r>
      </set>
      <set comment="kpoint 54">
       <r>  -41.6223    1.0000 </r>
       <r>  -41.6121    1.0000 </r>
       <r>  -41.4588    1.0000 </r>
       <r>  -41.4392    1.0000 </r>
       <r>  -41.2656    1.0000 </r>
       <r>  -41.2261    1.0000 </r>
       <r>    5.3286    1.0000 </r>
       <r>    5.7078    1.0000 </r>
       <r>    6.2438    1.0000 </r>
       <r>    6.8246    1.0000 </r>
       <r>    7.4816    1.0000 </r>
       <r>    8.0397    1.0000 </r>
       <r>    8.6530    1.0000 </r>
       <r>    9.3482    1.0000 </r>
       <r>   10.6144    1.0000 </r>
       <r>   11.4661    0.0000 </r>
       <r>   13.5583    0.0000 </r>
       <r>   14.8746    0.0000 </r>
       <r>   18.7675    0.0000 </r>
       <r>   20.4190    0.0000 </r>
       <r>   22.2979    0.0000 </r>
       <r>   23.8485    0.0000 </r>
       <r>   25.4980    0.0000 </r>
       <r>   27.3192    0.0000 </r>
      </set>
      <set comment="kpoint 55">
       <r>  -41.6412    1.0000 </r>
       <r>  -41.6257    1.0000 </r>
       <r>  -41.4805    1.0000 </r>
       <r>  -41.4574    1.0000 </r>
       <r>  -41.2542    1.0000 </r>
       <r>  -41.2298    1.0000 </r>
       <r>    5.2738    1.0000 </r>
       <r>    5.7619    1.0000 </r>
       <r>    6.2336    1.0000 </r>
       <r>    6.7517    1.0000 </r>
       <r>    7.3221    1.0000 </r>
       <r>    8.4231    1.0000 </r>
       <r>    9.1560    1.0000 </r>
       <r>    9.4897    1.0000 </r>
       <r>   10.7816    1.0000 </r>
       <r>   11.2003    0.0139 </r>
       <r>   15.4703    0.0000 </r>
       <r>   15.6099    0.0000 </r>
       <r>   17.8183    0.0000 </r>
       <r>   18.2606    0.0000 </r>
       <r>   21.3822    0.0000 </r>
       <r>   23.5567    0.0000 </r>
       <r>   26.4009    0.0000 </r>
       <r>   26.6482    0.0000 </r>
      </set>
      <set comment="kpoint 56">
       <r>  -41.6013    1.0000 </r>
       <r>  -41.5938    1.0000 </r>
       <r>  -41.5301    1.0000 </r>
       <r>  -41.5102    1.0000 </r>
       <r>  -41.2470    1.0000 </r>
       <r>  -41.2319    1.0000 </r>
       <r>    5.8916    1.0000 </r>
       <r>    5.9704    1.0000 </r>
       <r>    6.6651    1.0000 </r>
       <r>    6.7261    1.0000 </r>
       <r>    7.3172    1.0000 </r>
       <r>    7.6706    1.0000 </r>
       <r>    8.5762    1.0000 </r>
       <r>    9.1717    1.0000 </r>
[...]
       <r>   13.5023    0.0000 </r>
       <r>   13.5023    0.0000 </r>
       <r>   18.2217    0.0000 </r>
       <r>   18.2217    0.0000 </r>
       <r>   25.1006    0.0000 </r>
       <r>   25.1006    0.0000 </r>
       <r>   25.7775    0.0000 </r>
       <r>   25.7775    0.0000 </r>
      </set>
      <set comment="kpoint 67">
       <r>  -41.5717    1.0000 </r>
       <r>  -41.5717    1.0000 </r>
       <r>  -41.4021    1.0000 </r>
       <r>  -41.4021    1.0000 </r>
       <r>  -41.2538    1.0000 </r>
       <r>  -41.2538    1.0000 </r>
       <r>    5.3781    1.0000 </r>
       <r>    5.3782    1.0000 </r>
       <r>    6.6512    1.0000 </r>
       <r>    6.6512    1.0000 </r>
       <r>    7.2290    1.0000 </r>
       <r>    7.2290    1.0000 </r>
       <r>    8.9491    1.0000 </r>
       <r>    8.9491    1.0000 </r>
       <r>   11.1157    0.5763 </r>
       <r>   11.1157    0.5763 </r>
       <r>   11.9370    0.0000 </r>
       <r>   11.9370    0.0000 </r>
       <r>   22.3435    0.0000 </r>
       <r>   22.3435    0.0000 </r>
       <r>   24.4265    0.0000 </r>
       <r>   24.4265    0.0000 </r>
       <r>   26.0670    0.0000 </r>
       <r>   26.0670    0.0000 </r>
      </set>
      <set comment="kpoint 68">
       <r>  -41.6189    1.0000 </r>
       <r>  -41.6189    1.0000 </r>
       <r>  -41.4501    1.0000 </r>
       <r>  -41.4501    1.0000 </r>
       <r>  -41.2430    1.0000 </r>
       <r>  -41.2430    1.0000 </r>
       <r>    5.4605    1.0000 </r>
       <r>    5.4605    1.0000 </r>
       <r>    6.5431    1.0000 </r>
       <r>    6.5431    1.0000 </r>
       <r>    7.8334    1.0000 </r>
       <r>    7.8334    1.0000 </r>
       <r>    8.8899    1.0000 </r>
       <r>    8.8899    1.0000 </r>
       <r>   11.1847    0.0394 </r>
       <r>   11.1847    0.0394 </r>
       <r>   14.0078    0.0000 </r>
       <r>   14.0078    0.0000 </r>
       <r>   19.6637    0.0000 </r>
       <r>   19.6637    0.0000 </r>
       <r>   23.0434    0.0000 </r>
       <r>   23.0434    0.0000 </r>
       <r>   26.4826    0.0000 </r>
       <r>   26.4826    0.0000 </r>
      </set>
      <set comment="kpoint 69">
       <r>  -41.6354    1.0000 </r>
       <r>  -41.6354    1.0000 </r>
       <r>  -41.4699    1.0000 </r>
       <r>  -41.4699    1.0000 </r>
       <r>  -41.2389    1.0000 </r>
       <r>  -41.2389    1.0000 </r>
       <r>    5.4531    1.0000 </r>
       <r>    5.4531    1.0000 </r>
       <r>    6.4715    1.0000 </r>
       <r>    6.4715    1.0000 </r>
       <r>    7.9224    1.0000 </r>
       <r>    7.9224    1.0000 </r>
       <r>    9.3130    1.0000 </r>
       <r>    9.3130    1.0000 </r>
       <r>   11.0437    0.9872 </r>
       <r>   11.0437    0.9872 </r>
       <r>   15.6997    0.0000 </r>
       <r>   15.6997    0.0000 </r>
       <r>   17.6869    0.0000 </r>
       <r>   17.6869    0.0000 </r>
       <r>   22.4469    0.0000 </r>
       <r>   22.4469    0.0000 </r>
       <r>   26.8933    0.0000 </r>
       <r>   26.8933    0.0000 </r>
      </set>
      <set comment="kpoint 70">
       <r>  -41.5988    1.0000 </r>
       <r>  -41.5988    1.0000 </r>
       <r>  -41.5219    1.0000 </r>
       <r>  -41.5219    1.0000 </r>
       <r>  -41.2362    1.0000 </r>
       <r>  -41.2362    1.0000 </r>
       <r>    5.9105    1.0000 </r>
       <r>    5.9105    1.0000 </r>
       <r>    6.7302    1.0000 </r>
       <r>    6.7302    1.0000 </r>
       <r>    7.4900    1.0000 </r>
       <r>    7.4900    1.0000 </r>
       <r>    8.7665    1.0000 </r>
       <r>    8.7665    1.0000 </r>
       <r>   11.0281    0.9962 </r>
       <r>   11.0281    0.9962 </r>
       <r>   16.4654    0.0000 </r>
       <r>   16.4654    0.0000 </r>
       <r>   18.4173    0.0000 </r>
       <r>   18.4173    0.0000 </r>
       <r>   20.6361    0.0000 </r>
       <r>   20.6361    0.0000 </r>
       <r>   27.9595    0.0000 </r>
       <r>   27.9595    0.0000 </r>
      </set>
     </set>
    </set>
   </array>
  </eigenvalues>
  <separator name="orbital magnetization" >
   <v name="MAGDIPOLOUT">      0.00000000      0.00000000      0.00000000</v>
  </separator>
  <dos>
   <i name="efermi">     11.12254984 </i>
   <total>
    <array>
     <dimension dim="1">gridpoints</dimension>
     <dimension dim="2">spin</dimension>
     <field>energy</field>
     <field>total</field>
     <field>integrated</field>
     <set>
      <set comment="spin 1">
       <r>   -45.3810     0.0000     0.0000 </r>
       <r>   -45.1102     0.0000     0.0000 </r>
       <r>   -44.8393     0.0000     0.0000 </r>
       <r>   -44.5685     0.0000     0.0000 </r>
       <r>   -44.2977     0.0000     0.0000 </r>
       <r>   -44.0269     0.0000     0.0000 </r>
       <r>   -43.7561     0.0000     0.0000 </r>
       <r>   -43.4853     0.0000     0.0000 </r>
       <r>   -43.2145     0.0000     0.0000 </r>
       <r>   -42.9437     0.0000     0.0000 </r>
       <r>   -42.6729     0.0000     0.0000 </r>
       <r>   -42.4021     0.0000     0.0000 </r>
       <r>   -42.1313     0.0000     0.0000 </r>
       <r>   -41.8604     0.0000     0.0000 </r>
       <r>   -41.5896     6.7778     1.8355 </r>
       <r>   -41.3188    23.2362     8.1280 </r>
       <r>   -41.0480    14.2972    11.9999 </r>
       <r>   -40.7772     0.0005    12.0000 </r>
       <r>   -40.5064     0.0000    12.0000 </r>
       <r>   -40.2356     0.0000    12.0000 </r>
       <r>   -39.9648     0.0000    12.0000 </r>
       <r>   -39.6940     0.0000    12.0000 </r>
       <r>   -39.4232     0.0000    12.0000 </r>
       <r>   -39.1524     0.0000    12.0000 </r>
       <r>   -38.8816     0.0000    12.0000 </r>
       <r>   -38.6107     0.0000    12.0000 </r>
       <r>   -38.3399     0.0000    12.0000 </r>
       <r>   -38.0691     0.0000    12.0000 </r>
       <r>   -37.7983     0.0000    12.0000 </r>
       <r>   -37.5275     0.0000    12.0000 </r>
       <r>   -37.2567     0.0000    12.0000 </r>
       <r>   -36.9859     0.0000    12.0000 </r>
       <r>   -36.7151     0.0000    12.0000 </r>
       <r>   -36.4443     0.0000    12.0000 </r>
       <r>   -36.1735     0.0000    12.0000 </r>
       <r>   -35.9027     0.0000    12.0000 </r>
       <r>   -35.6318     0.0000    12.0000 </r>
       <r>   -35.3610     0.0000    12.0000 </r>
       <r>   -35.0902     0.0000    12.0000 </r>
       <r>   -34.8194     0.0000    12.0000 </r>
       <r>   -34.5486     0.0000    12.0000 </r>
       <r>   -34.2778     0.0000    12.0000 </r>
       <r>   -34.0070     0.0000    12.0000 </r>
       <r>   -33.7362     0.0000    12.0000 </r>
       <r>   -33.4654     0.0000    12.0000 </r>
       <r>   -33.1946     0.0000    12.0000 </r>
       <r>   -32.9238     0.0000    12.0000 </r>
       <r>   -32.6530     0.0000    12.0000 </r>
       <r>   -32.3821     0.0000    12.0000 </r>
       <r>   -32.1113     0.0000    12.0000 </r>
       <r>   -31.8405     0.0000    12.0000 </r>
       <r>   -31.5697     0.0000    12.0000 </r>
       <r>   -31.2989     0.0000    12.0000 </r>
       <r>   -31.0281     0.0000    12.0000 </r>
       <r>   -30.7573     0.0000    12.0000 </r>
       <r>   -30.4865     0.0000    12.0000 </r>
       <r>   -30.2157     0.0000    12.0000 </r>
       <r>   -29.9449     0.0000    12.0000 </r>
       <r>   -29.6741     0.0000    12.0000 </r>
       <r>   -29.4032     0.0000    12.0000 </r>
       <r>   -29.1324     0.0000    12.0000 </r>
       <r>   -28.8616     0.0000    12.0000 </r>
       <r>   -28.5908     0.0000    12.0000 </r>
       <r>   -28.3200     0.0000    12.0000 </r>
       <r>   -28.0492     0.0000    12.0000 </r>
       <r>   -27.7784     0.0000    12.0000 </r>
       <r>   -27.5076     0.0000    12.0000 </r>
       <r>   -27.2368     0.0000    12.0000 </r>
       <r>   -26.9660     0.0000    12.0000 </r>
       <r>   -26.6952     0.0000    12.0000 </r>
       <r>   -26.4244     0.0000    12.0000 </r>
       <r>   -26.1535     0.0000    12.0000 </r>
       <r>   -25.8827     0.0000    12.0000 </r>
       <r>   -25.6119     0.0000    12.0000 </r>
       <r>   -25.3411     0.0000    12.0000 </r>
       <r>   -25.0703     0.0000    12.0000 </r>
       <r>   -24.7995     0.0000    12.0000 </r>
       <r>   -24.5287     0.0000    12.0000 </r>
       <r>   -24.2579     0.0000    12.0000 </r>
       <r>   -23.9871     0.0000    12.0000 </r>
       <r>   -23.7163     0.0000    12.0000 </r>
       <r>   -23.4455     0.0000    12.0000 </r>
       <r>   -23.1747     0.0000    12.0000 </r>
       <r>   -22.9038     0.0000    12.0000 </r>
       <r>   -22.6330     0.0000    12.0000 </r>
       <r>   -22.3622     0.0000    12.0000 </r>
       <r>   -22.0914     0.0000    12.0000 </r>
       <r>   -21.8206     0.0000    12.0000 </r>
       <r>   -21.5498     0.0000    12.0000 </r>
       <r>   -21.2790     0.0000    12.0000 </r>
       <r>   -21.0082     0.0000    12.0000 </r>
       <r>   -20.7374     0.0000    12.0000 </r>
       <r>   -20.4666     0.0000    12.0000 </r>
       <r>   -20.1958     0.0000    12.0000 </r>
       <r>   -19.9249     0.0000    12.0000 </r>
       <r>   -19.6541     0.0000    12.0000 </r>
       <r>   -19.3833     0.0000    12.0000 </r>
       <r>   -19.1125     0.0000    12.0000 </r>
       <r>   -18.8417     0.0000    12.0000 </r>
       <r>   -18.5709     0.0000    12.0000 </r>
       <r>   -18.3001     0.0000    12.0000 </r>
       <r>   -18.0293     0.0000    12.0000 </r>
       <r>   -17.7585     0.0000    12.0000 </r>
       <r>   -17.4877     0.0000    12.0000 </r>
       <r>   -17.2169     0.0000    12.0000 </r>
       <r>   -16.9461     0.0000    12.0000 </r>
       <r>   -16.6752     0.0000    12.0000 </r>
       <r>   -16.4044     0.0000    12.0000 </r>
       <r>   -16.1336     0.0000    12.0000 </r>
       <r>   -15.8628     0.0000    12.0000 </r>
       <r>   -15.5920     0.0000    12.0000 </r>
       <r>   -15.3212     0.0000    12.0000 </r>
       <r>   -15.0504     0.0000    12.0000 </r>
       <r>   -14.7796     0.0000    12.0000 </r>
       <r>   -14.5088     0.0000    12.0000 </r>
       <r>   -14.2380     0.0000    12.0000 </r>
       <r>   -13.9672     0.0000    12.0000 </r>
       <r>   -13.6963     0.0000    12.0000 </r>
       <r>   -13.4255     0.0000    12.0000 </r>
       <r>   -13.1547     0.0000    12.0000 </r>
       <r>   -12.8839     0.0000    12.0000 </r>
       <r>   -12.6131     0.0000    12.0000 </r>
       <r>   -12.3423     0.0000    12.0000 </r>
       <r>   -12.0715     0.0000    12.0000 </r>
       <r>   -11.8007     0.0000    12.0000 </r>
       <r>   -11.5299     0.0000    12.0000 </r>
       <r>   -11.2591     0.0000    12.0000 </r>
       <r>   -10.9883     0.0000    12.0000 </r>
       <r>   -10.7175     0.0000    12.0000 </r>
       <r>   -10.4466     0.0000    12.0000 </r>
       <r>   -10.1758     0.0000    12.0000 </r>
       <r>    -9.9050     0.0000    12.0000 </r>
       <r>    -9.6342     0.0000    12.0000 </r>
       <r>    -9.3634     0.0000    12.0000 </r>
       <r>    -9.0926     0.0000    12.0000 </r>
       <r>    -8.8218     0.0000    12.0000 </r>
       <r>    -8.5510     0.0000    12.0000 </r>
       <r>    -8.2802     0.0000    12.0000 </r>
       <r>    -8.0094     0.0000    12.0000 </r>
       <r>    -7.7386     0.0000    12.0000 </r>
       <r>    -7.4677     0.0000    12.0000 </r>
       <r>    -7.1969     0.0000    12.0000 </r>
       <r>    -6.9261     0.0000    12.0000 </r>
       <r>    -6.6553     0.0000    12.0000 </r>
       <r>    -6.3845     0.0000    12.0000 </r>
       <r>    -6.1137     0.0000    12.0000 </r>
       <r>    -5.8429     0.0000    12.0000 </r>
       <r>    -5.5721     0.0000    12.0000 </r>
       <r>    -5.3013     0.0000    12.0000 </r>
       <r>    -5.0305     0.0000    12.0000 </r>
       <r>    -4.7597     0.0000    12.0000 </r>
       <r>    -4.4889     0.0000    12.0000 </r>
       <r>    -4.2180     0.0000    12.0000 </r>
       <r>    -3.9472     0.0000    12.0000 </r>
       <r>    -3.6764     0.0000    12.0000 </r>
       <r>    -3.4056     0.0000    12.0000 </r>
       <r>    -3.1348     0.0000    12.0000 </r>
       <r>    -2.8640     0.0000    12.0000 </r>
       <r>    -2.5932     0.0000    12.0000 </r>
       <r>    -2.3224     0.0000    12.0000 </r>
       <r>    -2.0516     0.0000    12.0000 </r>
       <r>    -1.7808     0.0000    12.0000 </r>
       <r>    -1.5100     0.0000    12.0000 </r>
       <r>    -1.2392     0.0000    12.0000 </r>
       <r>    -0.9683     0.0000    12.0000 </r>
       <r>    -0.6975     0.0000    12.0000 </r>
       <r>    -0.4267     0.0000    12.0000 </r>
       <r>    -0.1559     0.0000    12.0000 </r>
       <r>     0.1149     0.0000    12.0000 </r>
       <r>     0.3857     0.0000    12.0000 </r>
       <r>     0.6565     0.0000    12.0000 </r>
       <r>     0.9273     0.0000    12.0000 </r>
       <r>     1.1981     0.0000    12.0000 </r>
       <r>     1.4689     0.0085    12.0023 </r>
       <r>     1.7397     0.0254    12.0092 </r>
       <r>     2.0106     0.1777    12.0573 </r>
       <r>     2.2814     0.0442    12.0693 </r>
       <r>     2.5522     0.1561    12.1115 </r>
       <r>     2.8230     0.1685    12.1572 </r>
       <r>     3.0938     0.3158    12.2427 </r>
       <r>     3.3646     0.1286    12.2775 </r>
       <r>     3.6354     0.2835    12.3543 </r>
       <r>     3.9062     0.4058    12.4642 </r>
       <r>     4.1770     0.6856    12.6498 </r>
       <r>     4.4478     0.7503    12.8530 </r>
       <r>     4.7186     1.5778    13.2803 </r>
       <r>     4.9894     2.5430    13.9690 </r>
       <r>     5.2603     1.8704    14.4755 </r>
       <r>     5.5311     2.5057    15.1541 </r>
       <r>     5.8019     1.8558    15.6566 </r>
       <r>     6.0727     3.2999    16.5503 </r>
       <r>     6.3435     3.2994    17.4438 </r>
       <r>     6.6143     2.6132    18.1515 </r>
       <r>     6.8851     3.3153    19.0493 </r>
       <r>     7.1559     2.6069    19.7553 </r>
       <r>     7.4267     2.7192    20.4916 </r>
       <r>     7.6975     3.6350    21.4760 </r>
       <r>     7.9683     3.6849    22.4739 </r>
       <r>     8.2392     3.1369    23.3234 </r>
       <r>     8.5100     4.1900    24.4581 </r>
       <r>     8.7808     3.1298    25.3057 </r>
       <r>     9.0516     3.0353    26.1277 </r>
       <r>     9.3224     1.8984    26.6418 </r>
       <r>     9.5932     2.5674    27.3371 </r>
       <r>     9.8640     2.5274    28.0215 </r>
       <r>    10.1348     2.7547    28.7675 </r>
       <r>    10.4056     2.4283    29.4252 </r>
       <r>    10.6764     2.5898    30.1265 </r>
       <r>    10.9472     3.8574    31.1711 </r>
       <r>    11.2180     4.3937    32.3610 </r>
       <r>    11.4889     2.4747    33.0311 </r>
       <r>    11.7597     1.3464    33.3958 </r>
       <r>    12.0305     0.7026    33.5860 </r>
       <r>    12.3013     0.3283    33.6749 </r>
       <r>    12.5721     0.1659    33.7199 </r>
       <r>    12.8429     0.2034    33.7749 </r>
       <r>    13.1137     1.0433    34.0575 </r>
       <r>    13.3845     1.0842    34.3511 </r>
       <r>    13.6553     0.5700    34.5055 </r>
       <r>    13.9261     0.1206    34.5381 </r>
       <r>    14.1969     0.3775    34.6404 </r>
       <r>    14.4678     0.7017    34.8304 </r>
       <r>    14.7386     0.1960    34.8835 </r>
       <r>    15.0094     0.7441    35.0850 </r>
       <r>    15.2802     0.4518    35.2074 </r>
       <r>    15.5510     0.4880    35.3395 </r>
       <r>    15.8218     0.9499    35.5967 </r>
       <r>    16.0926     0.4487    35.7183 </r>
       <r>    16.3634     0.4848    35.8495 </r>
       <r>    16.6342     0.2874    35.9274 </r>
       <r>    16.9050     0.2406    35.9925 </r>
       <r>    17.1758     0.2277    36.0542 </r>
       <r>    17.4466     0.5171    36.1942 </r>
       <r>    17.7175     1.0617    36.4817 </r>
       <r>    17.9883     0.9348    36.7349 </r>
       <r>    18.2591     0.8799    36.9732 </r>
       <r>    18.5299     0.7158    37.1670 </r>
       <r>    18.8007     0.8448    37.3958 </r>
       <r>    19.0715     0.7569    37.6008 </r>
       <r>    19.3423     0.4320    37.7178 </r>
       <r>    19.6131     0.5305    37.8614 </r>
       <r>    19.8839     0.7031    38.0519 </r>
       <r>    20.1547     1.0246    38.3293 </r>
       <r>    20.4255     0.9380    38.5833 </r>
       <r>    20.6964     0.6071    38.7477 </r>
       <r>    20.9672     0.2829    38.8244 </r>
       <r>    21.2380     0.6857    39.0100 </r>
       <r>    21.5088     1.0301    39.2890 </r>
       <r>    21.7796     0.6858    39.4747 </r>
       <r>    22.0504     0.5459    39.6226 </r>
       <r>    22.3212     0.3177    39.7086 </r>
       <r>    22.5920     1.0515    39.9934 </r>
       <r>    22.8628     0.3316    40.0832 </r>
       <r>    23.1336     0.3788    40.1858 </r>
       <r>    23.4044     1.1765    40.5044 </r>
       <r>    23.6752     1.1762    40.8229 </r>
       <r>    23.9461     0.9742    41.0867 </r>
       <r>    24.2169     0.6519    41.2633 </r>
       <r>    24.4877     0.7829    41.4753 </r>
       <r>    24.7585     0.3950    41.5823 </r>
       <r>    25.0293     0.9088    41.8284 </r>
       <r>    25.3001     2.0714    42.3893 </r>
       <r>    25.5709     1.8768    42.8976 </r>
       <r>    25.8417     1.3954    43.2755 </r>
       <r>    26.1125     1.5410    43.6928 </r>
       <r>    26.3833     1.0950    43.9893 </r>
       <r>    26.6541     1.1360    44.2970 </r>
       <r>    26.9249     1.1762    44.6155 </r>
       <r>    27.1958     1.9433    45.1418 </r>
       <r>    27.4666     1.9766    45.6771 </r>
       <r>    27.7374     0.9952    45.9466 </r>
       <r>    28.0082     1.3207    46.3043 </r>
       <r>    28.2790     1.2366    46.6391 </r>
       <r>    28.5498     0.7866    46.8522 </r>
       <r>    28.8206     0.8694    47.0876 </r>
       <r>    29.0914     0.5875    47.2467 </r>
       <r>    29.3622     0.6876    47.4329 </r>
       <r>    29.6330     0.1869    47.4836 </r>
       <r>    29.9038     0.6075    47.6481 </r>
       <r>    30.1747     0.3648    47.7469 </r>
       <r>    30.4455     0.1274    47.7814 </r>
       <r>    30.7163     0.5908    47.9414 </r>
       <r>    30.9871     0.0698    47.9603 </r>
       <r>    31.2579     0.0729    47.9800 </r>
       <r>    31.5287     0.0169    47.9846 </r>
       <r>    31.7995     0.0385    47.9950 </r>
       <r>    32.0703     0.0000    47.9950 </r>
       <r>    32.3411     0.0184    48.0000 </r>
       <r>    32.6119     0.0000    48.0000 </r>
       <r>    32.8827     0.0000    48.0000 </r>
       <r>    33.1535     0.0000    48.0000 </r>
       <r>    33.4244     0.0000    48.0000 </r>
       <r>    33.6952     0.0000    48.0000 </r>
       <r>    33.9660     0.0000    48.0000 </r>
       <r>    34.2368     0.0000    48.0000 </r>
       <r>    34.5076     0.0000    48.0000 </r>
       <r>    34.7784     0.0000    48.0000 </r>
       <r>    35.0492     0.0000    48.0000 </r>
       <r>    35.3200     0.0000    48.0000 </r>
       <r>    35.5908     0.0000    48.0000 </r>
       <r>    35.8616     0.0000    48.0000 </r>
      </set>
     </set>
    </array>
   </total>
  </dos>
 </calculation>
 <structure name="finalpos" >
  <crystal>
   <varray name="basis" >
    <v>       2.76000000       0.00000000       0.00000000 </v>
    <v>      -1.38000000       2.39023011       0.00000000 </v>
    <v>       0.00000000       0.00000000       4.79000000 </v>
   </varray>
   <i name="volume">     31.59979821 </i>
   <varray name="rec_basis" >
    <v>       0.36231884       0.20918488       0.00000000 </v>
    <v>       0.00000000       0.41836976       0.00000000 </v>
    <v>       0.00000000       0.00000000       0.20876827 </v>
   </varray>
  </crystal>
  <varray name="positions" >
   <v>       0.00000000       0.00000000       0.00000000 </v>
   <v>       0.33333333       0.66666667       0.50000000 </v>
  </varray>
 </structure>
</modeling>
