   1   1   0   0
  0.1529075E+02  0.2786001E-09  0.2786001E-09  0.2786001E-09  0.5000000E-15
  1.000000000000000E-004
  CAR 
 Pt-fcc                                  
     68.28355902    -46.34477898  301     11.79253330      1.00000000
    -46.345  0.0000E+00  0.0000E+00
    -45.963  0.0000E+00  0.0000E+00
    -45.581  0.0000E+00  0.0000E+00
    -45.198  0.0000E+00  0.0000E+00
    -44.816  0.0000E+00  0.0000E+00
    -44.434  0.0000E+00  0.0000E+00
    -44.052  0.0000E+00  0.0000E+00
    -43.670  0.0000E+00  0.0000E+00
    -43.288  0.0000E+00  0.0000E+00
    -42.906  0.0000E+00  0.0000E+00
    -42.524  0.0000E+00  0.0000E+00
    -42.142  0.0000E+00  0.0000E+00
    -41.760  0.0000E+00  0.0000E+00
    -41.378  0.4518E-12  0.1726E-12
    -40.995  0.4039E+01  0.1543E+01
    -40.613  0.1148E+02  0.5999E+01
    -40.231  0.0000E+00  0.6000E+01
    -39.849  0.0000E+00  0.6000E+01
    -39.467  0.0000E+00  0.6000E+01
    -39.085  0.0000E+00  0.6000E+01
    -38.703  0.0000E+00  0.6000E+01
    -38.321  0.0000E+00  0.6000E+01
    -37.939  0.0000E+00  0.6000E+01
    -37.557  0.0000E+00  0.6000E+01
    -37.175  0.0000E+00  0.6000E+01
    -36.792  0.0000E+00  0.6000E+01
    -36.410  0.0000E+00  0.6000E+01
    -36.028  0.0000E+00  0.6000E+01
    -35.646  0.0000E+00  0.6000E+01
    -35.264  0.0000E+00  0.6000E+01
    -34.882  0.0000E+00  0.6000E+01
    -34.500  0.0000E+00  0.6000E+01
    -34.118  0.0000E+00  0.6000E+01
    -33.736  0.0000E+00  0.6000E+01
    -33.354  0.0000E+00  0.6000E+01
    -32.971  0.0000E+00  0.6000E+01
    -32.589  0.0000E+00  0.6000E+01
    -32.207  0.0000E+00  0.6000E+01
    -31.825  0.0000E+00  0.6000E+01
    -31.443  0.0000E+00  0.6000E+01
    -31.061  0.0000E+00  0.6000E+01
    -30.679  0.0000E+00  0.6000E+01
    -30.297  0.0000E+00  0.6000E+01
    -29.915  0.0000E+00  0.6000E+01
    -29.533  0.0000E+00  0.6000E+01
    -29.151  0.0000E+00  0.6000E+01
    -28.768  0.0000E+00  0.6000E+01
    -28.386  0.0000E+00  0.6000E+01
    -28.004  0.0000E+00  0.6000E+01
    -27.622  0.0000E+00  0.6000E+01
    -27.240  0.0000E+00  0.6000E+01
    -26.858  0.0000E+00  0.6000E+01
    -26.476  0.0000E+00  0.6000E+01
    -26.094  0.0000E+00  0.6000E+01
    -25.712  0.0000E+00  0.6000E+01
    -25.330  0.0000E+00  0.6000E+01
    -24.947  0.0000E+00  0.6000E+01
    -24.565  0.0000E+00  0.6000E+01
    -24.183  0.0000E+00  0.6000E+01
    -23.801  0.0000E+00  0.6000E+01
    -23.419  0.0000E+00  0.6000E+01
    -23.037  0.0000E+00  0.6000E+01
    -22.655  0.0000E+00  0.6000E+01
    -22.273  0.0000E+00  0.6000E+01
    -21.891  0.0000E+00  0.6000E+01
    -21.509  0.0000E+00  0.6000E+01
    -21.127  0.0000E+00  0.6000E+01
    -20.744  0.0000E+00  0.6000E+01
    -20.362  0.0000E+00  0.6000E+01
    -19.980  0.0000E+00  0.6000E+01
    -19.598  0.0000E+00  0.6000E+01
    -19.216  0.0000E+00  0.6000E+01
    -18.834  0.0000E+00  0.6000E+01
    -18.452  0.0000E+00  0.6000E+01
    -18.070  0.0000E+00  0.6000E+01
    -17.688  0.0000E+00  0.6000E+01
    -17.306  0.0000E+00  0.6000E+01
    -16.924  0.0000E+00  0.6000E+01
    -16.541  0.0000E+00  0.6000E+01
    -16.159  0.0000E+00  0.6000E+01
    -15.777  0.0000E+00  0.6000E+01
    -15.395  0.0000E+00  0.6000E+01
    -15.013  0.0000E+00  0.6000E+01
    -14.631  0.0000E+00  0.6000E+01
    -14.249  0.0000E+00  0.6000E+01
    -13.867  0.0000E+00  0.6000E+01
    -13.485  0.0000E+00  0.6000E+01
    -13.103  0.0000E+00  0.6000E+01
    -12.720  0.0000E+00  0.6000E+01
    -12.338  0.0000E+00  0.6000E+01
    -11.956  0.0000E+00  0.6000E+01
    -11.574  0.0000E+00  0.6000E+01
    -11.192  0.0000E+00  0.6000E+01
    -10.810  0.0000E+00  0.6000E+01
    -10.428  0.0000E+00  0.6000E+01
    -10.046  0.0000E+00  0.6000E+01
     -9.664  0.0000E+00  0.6000E+01
     -9.282  0.0000E+00  0.6000E+01
     -8.900  0.0000E+00  0.6000E+01
     -8.517  0.0000E+00  0.6000E+01
     -8.135  0.0000E+00  0.6000E+01
     -7.753  0.0000E+00  0.6000E+01
     -7.371  0.0000E+00  0.6000E+01
     -6.989  0.0000E+00  0.6000E+01
     -6.607  0.0000E+00  0.6000E+01
     -6.225  0.0000E+00  0.6000E+01
     -5.843  0.0000E+00  0.6000E+01
     -5.461  0.0000E+00  0.6000E+01
     -5.079  0.0000E+00  0.6000E+01
     -4.696  0.0000E+00  0.6000E+01
     -4.314  0.0000E+00  0.6000E+01
     -3.932  0.0000E+00  0.6000E+01
     -3.550  0.0000E+00  0.6000E+01
     -3.168  0.0000E+00  0.6000E+01
     -2.786  0.0000E+00  0.6000E+01
     -2.404  0.0000E+00  0.6000E+01
     -2.022  0.0000E+00  0.6000E+01
     -1.640  0.0000E+00  0.6000E+01
     -1.258  0.0000E+00  0.6000E+01
     -0.876  0.0000E+00  0.6000E+01
     -0.493  0.0000E+00  0.6000E+01
     -0.111  0.0000E+00  0.6000E+01
      0.271  0.0000E+00  0.6000E+01
      0.653  0.0000E+00  0.6000E+01
      1.035  0.0000E+00  0.6000E+01
      1.417  0.0000E+00  0.6000E+01
      1.799  0.2057E-07  0.6000E+01
      2.181  0.4847E-01  0.6019E+01
      2.563  0.1254E-03  0.6019E+01
      2.945  0.1453E+00  0.6074E+01
      3.328  0.1208E+00  0.6120E+01
      3.710  0.1267E-01  0.6134E+01
      4.092  0.1812E+00  0.6204E+01
      4.474  0.3542E+00  0.6339E+01
      4.856  0.4063E+00  0.6495E+01
      5.238  0.7944E+00  0.6804E+01
      5.620  0.1035E+01  0.7247E+01
      6.002  0.1507E+01  0.7823E+01
      6.384  0.1263E+01  0.8316E+01
      6.766  0.8792E+00  0.8652E+01
      7.148  0.1271E+01  0.9166E+01
      7.531  0.1661E+01  0.9808E+01
      7.913  0.1054E+01  0.1024E+02
      8.295  0.1884E+01  0.1096E+02
      8.677  0.2423E+01  0.1189E+02
      9.059  0.1295E+01  0.1242E+02
      9.441  0.9264E+00  0.1278E+02
      9.823  0.1339E+01  0.1330E+02
     10.205  0.1599E+01  0.1391E+02
     10.587  0.9775E+00  0.1428E+02
     10.969  0.1619E+01  0.1490E+02
     11.351  0.6676E+00  0.1516E+02
     11.734  0.1932E+01  0.1593E+02
     12.116  0.1316E+01  0.1644E+02
     12.498  0.8476E+00  0.1678E+02
     12.880  0.8818E-11  0.1678E+02
     13.262  0.1454E+00  0.1683E+02
     13.644  0.4394E+00  0.1700E+02
     14.026  0.4167E+00  0.1716E+02
     14.408  0.1453E+00  0.1722E+02
     14.790  0.1313E+00  0.1727E+02
     15.172  0.3049E+00  0.1739E+02
     15.555  0.2908E+00  0.1750E+02
     15.937  0.2391E+00  0.1759E+02
     16.319  0.2901E+00  0.1772E+02
     16.701  0.2908E+00  0.1783E+02
     17.083  0.0000E+00  0.1783E+02
     17.465  0.1157E+00  0.1788E+02
     17.847  0.8678E+00  0.1822E+02
     18.229  0.1423E+00  0.1828E+02
     18.611  0.0000E+00  0.1828E+02
     18.993  0.2588E-02  0.1828E+02
     19.375  0.1064E+01  0.1869E+02
     19.758  0.2908E+00  0.1880E+02
     20.140  0.1827E+00  0.1887E+02
     20.522  0.2536E+00  0.1896E+02
     20.904  0.1453E+00  0.1902E+02
     21.286  0.2909E+00  0.1913E+02
     21.668  0.5284E+00  0.1933E+02
     22.050  0.2908E+00  0.1946E+02
     22.432  0.4023E-06  0.1946E+02
     22.814  0.7153E+00  0.1974E+02
     23.196  0.2598E+00  0.1984E+02
     23.579  0.5436E+00  0.2006E+02
     23.961  0.5816E+00  0.2030E+02
     24.343  0.9252E-01  0.2033E+02
     24.725  0.4903E+00  0.2052E+02
     25.107  0.3380E+00  0.2065E+02
     25.489  0.8585E+00  0.2098E+02
     25.871  0.1682E+00  0.2105E+02
     26.253  0.7068E+00  0.2132E+02
     26.635  0.7726E+00  0.2161E+02
     27.017  0.3912E+00  0.2176E+02
     27.399  0.1402E+01  0.2230E+02
     27.782  0.4549E+00  0.2247E+02
     28.164  0.3155E+00  0.2259E+02
     28.546  0.8719E+00  0.2293E+02
     28.928  0.8736E+00  0.2326E+02
     29.310  0.1473E+00  0.2332E+02
     29.692  0.4326E+00  0.2348E+02
     30.074  0.4771E-01  0.2350E+02
     30.456  0.7357E+00  0.2378E+02
     30.838  0.9602E+00  0.2415E+02
     31.220  0.3164E+00  0.2427E+02
     31.602  0.7587E+00  0.2458E+02
     31.985  0.6611E+00  0.2485E+02
     32.367  0.8534E+00  0.2518E+02
     32.749  0.5673E+00  0.2540E+02
     33.131  0.5742E+00  0.2562E+02
     33.513  0.6032E+00  0.2585E+02
     33.895  0.1415E+00  0.2591E+02
     34.277  0.1852E+00  0.2598E+02
     34.659  0.4185E+00  0.2616E+02
     35.041  0.5494E+00  0.2638E+02
     35.423  0.7753E+00  0.2669E+02
     35.806  0.2898E+00  0.2680E+02
     36.188  0.3861E+00  0.2694E+02
     36.570  0.2545E+00  0.2704E+02
     36.952  0.7469E+00  0.2734E+02
     37.334  0.6709E+00  0.2760E+02
     37.716  0.4334E+00  0.2778E+02
     38.098  0.4854E+00  0.2796E+02
     38.480  0.8282E+00  0.2828E+02
     38.862  0.6879E+00  0.2856E+02
     39.244  0.1144E+01  0.2901E+02
     39.626  0.1465E+01  0.2957E+02
     40.009  0.9230E+00  0.2996E+02
     40.391  0.3615E+00  0.3010E+02
     40.773  0.1091E+01  0.3052E+02
     41.155  0.4719E+00  0.3070E+02
     41.537  0.5897E+00  0.3094E+02
     41.919  0.8099E+00  0.3125E+02
     42.301  0.1213E+01  0.3171E+02
     42.683  0.5007E+00  0.3191E+02
     43.065  0.2857E+00  0.3202E+02
     43.447  0.8332E+00  0.3234E+02
     43.830  0.1510E+01  0.3291E+02
     44.212  0.6153E+00  0.3315E+02
     44.594  0.4683E+00  0.3333E+02
     44.976  0.6332E+00  0.3357E+02
     45.358  0.2908E+00  0.3369E+02
     45.740  0.2908E+00  0.3380E+02
     46.122  0.6373E+00  0.3404E+02
     46.504  0.5322E+00  0.3424E+02
     46.886  0.1004E+01  0.3463E+02
     47.268  0.1448E+01  0.3518E+02
     47.650  0.1200E+01  0.3565E+02
     48.033  0.1051E+01  0.3606E+02
     48.415  0.6510E+00  0.3632E+02
     48.797  0.5686E+00  0.3655E+02
     49.179  0.1074E+01  0.3696E+02
     49.561  0.1566E+01  0.3756E+02
     49.943  0.6267E+00  0.3783E+02
     50.325  0.1103E+01  0.3825E+02
     50.707  0.2950E+00  0.3836E+02
     51.089  0.4363E+00  0.3854E+02
     51.471  0.7058E+00  0.3881E+02
     51.853  0.1305E+01  0.3931E+02
     52.236  0.9970E-01  0.3935E+02
     52.618  0.6300E+01  0.4176E+02
     53.000  0.9704E+00  0.4213E+02
     53.382  0.6990E+00  0.4241E+02
     53.764  0.1078E+01  0.4282E+02
     54.146  0.7532E+00  0.4311E+02
     54.528  0.7544E+00  0.4340E+02
     54.910  0.1085E+01  0.4381E+02
     55.292  0.1019E+01  0.4420E+02
     55.674  0.2424E+00  0.4430E+02
     56.057  0.1115E+01  0.4472E+02
     56.439  0.1617E+00  0.4478E+02
     56.821  0.9521E+00  0.4515E+02
     57.203  0.1399E+01  0.4568E+02
     57.585  0.5351E+00  0.4589E+02
     57.967  0.8268E+00  0.4621E+02
     58.349  0.1189E+01  0.4666E+02
     58.731  0.6175E+00  0.4690E+02
     59.113  0.1042E+01  0.4730E+02
     59.495  0.3779E+00  0.4744E+02
     59.877  0.2296E+00  0.4755E+02
     60.260  0.1105E-02  0.4757E+02
     60.642  0.1928E+00  0.4765E+02
     61.024  0.2911E+00  0.4776E+02
     61.406  0.1335E+00  0.4781E+02
     61.788  0.2056E+00  0.4789E+02
     62.170  0.1453E+00  0.4794E+02
     62.552  0.0000E+00  0.4794E+02
     62.934  0.6178E-05  0.4794E+02
     63.316  0.1454E+00  0.4800E+02
     63.698  0.0000E+00  0.4800E+02
     64.081  0.0000E+00  0.4800E+02
     64.463  0.0000E+00  0.4800E+02
     64.845  0.0000E+00  0.4800E+02
     65.227  0.0000E+00  0.4800E+02
     65.609  0.0000E+00  0.4800E+02
     65.991  0.0000E+00  0.4800E+02
     66.373  0.0000E+00  0.4800E+02
     66.755  0.0000E+00  0.4800E+02
     67.137  0.0000E+00  0.4800E+02
     67.519  0.0000E+00  0.4800E+02
     67.901  0.0000E+00  0.4800E+02
     68.284  0.0000E+00  0.4800E+02
