       N       E                     dE             d eps       ncg     rms          rms(c)
DAV:   1     0.239653672422E+02    0.23965E+02   -0.12189E+04  1488   0.641E+02
DAV:   2    -0.639596883536E+01   -0.30361E+02   -0.30123E+02  1872   0.105E+02
DAV:   3    -0.643826964697E+01   -0.42301E-01   -0.42301E-01  1584   0.451E+00
DAV:   4    -0.643832347836E+01   -0.53831E-04   -0.53834E-04  2328   0.122E-01
DAV:   5    -0.643832347931E+01   -0.94542E-09   -0.42127E-09  1584   0.315E-04    0.149E+01
DAV:   6    -0.611219014131E+01    0.32613E+00   -0.12100E+00  1488   0.496E+00    0.481E+00
DAV:   7    -0.609392501137E+01    0.18265E-01   -0.80855E-02  1968   0.110E+00    0.145E+00
DAV:   8    -0.609265291463E+01    0.12721E-02   -0.39135E-03  1488   0.477E-01    0.161E-01
DAV:   9    -0.609258634538E+01    0.66569E-04   -0.47127E-05  1968   0.499E-02    0.154E-02
DAV:  10    -0.609259215060E+01   -0.58052E-05   -0.55418E-06  1896   0.140E-02    0.577E-03
DAV:  11    -0.609259209589E+01    0.54706E-07   -0.55943E-09   840   0.523E-04
   1 F= -.60925921E+01 E0= -.60918184E+01  d E =-.154736E-02
