   1   1   0   0
  0.1081089E+02  0.2481945E-09  0.2481945E-09  0.2481945E-09  0.5000000E-15
  1.000000000000000E-004
  CAR 
 Co-fcc                                  
     53.53540432     -0.94513014  301     10.38207240      1.00000000
     -0.945  0.0000E+00  0.0000E+00  0.0000E+00  0.0000E+00
     -0.764  0.0000E+00  0.0000E+00  0.0000E+00  0.0000E+00
     -0.582  0.0000E+00  0.0000E+00  0.0000E+00  0.0000E+00
     -0.400  0.0000E+00  0.0000E+00  0.0000E+00  0.0000E+00
     -0.219  0.0000E+00  0.0000E+00  0.0000E+00  0.0000E+00
     -0.037  0.0000E+00  0.0000E+00  0.0000E+00  0.0000E+00
      0.144  0.0000E+00  0.0000E+00  0.0000E+00  0.0000E+00
      0.326  0.0000E+00  0.0000E+00  0.0000E+00  0.0000E+00
      0.508  0.0000E+00  0.0000E+00  0.0000E+00  0.0000E+00
      0.689  0.0000E+00  0.0000E+00  0.0000E+00  0.0000E+00
      0.871  0.0000E+00  0.0000E+00  0.0000E+00  0.0000E+00
      1.052  0.0000E+00  0.0000E+00  0.0000E+00  0.0000E+00
      1.234  0.0000E+00  0.0000E+00  0.0000E+00  0.0000E+00
      1.416  0.1162E-04  0.1135E-04  0.2110E-05  0.2062E-05
      1.597  0.2083E-01  0.2082E-01  0.3786E-02  0.3784E-02
      1.779  0.6647E-03  0.6746E-03  0.3906E-02  0.3906E-02
      1.960  0.4691E-01  0.4524E-01  0.1243E-01  0.1212E-01
      2.142  0.1762E-01  0.1929E-01  0.1563E-01  0.1563E-01
      2.324  0.2521E-01  0.2018E-01  0.2020E-01  0.1929E-01
      2.505  0.3932E-01  0.4435E-01  0.2734E-01  0.2734E-01
      2.687  0.1893E-01  0.9895E-02  0.3078E-01  0.2914E-01
      2.869  0.6711E-01  0.7614E-01  0.4297E-01  0.4297E-01
      3.050  0.2331E-01  0.6916E-02  0.4720E-01  0.4422E-01
      3.232  0.1057E+00  0.1221E+00  0.6641E-01  0.6640E-01
      3.413  0.3309E-01  0.6262E-02  0.7242E-01  0.6754E-01
      3.595  0.3144E-01  0.5829E-01  0.7813E-01  0.7812E-01
      3.777  0.8701E-01  0.1375E-01  0.9393E-01  0.8062E-01
      3.958  0.4544E-01  0.1153E+00  0.1022E+00  0.1016E+00
      4.140  0.1861E+00  0.8083E-01  0.1360E+00  0.1162E+00
      4.321  0.3048E-01  0.1128E+00  0.1415E+00  0.1367E+00
      4.503  0.5878E-01  0.5694E-01  0.1522E+00  0.1471E+00
      4.685  0.1066E+00  0.2043E-01  0.1715E+00  0.1508E+00
      4.866  0.2184E+00  0.1343E+00  0.2112E+00  0.1752E+00
      5.048  0.1598E+00  0.1687E+00  0.2402E+00  0.2058E+00
      5.229  0.3016E+00  0.2971E-01  0.2950E+00  0.2112E+00
      5.411  0.4635E+00  0.1800E+00  0.3792E+00  0.2439E+00
      5.593  0.7470E+00  0.7701E-01  0.5148E+00  0.2579E+00
      5.774  0.5119E+00  0.1379E+00  0.6078E+00  0.2829E+00
      5.956  0.9230E+00  0.3166E+00  0.7754E+00  0.3404E+00
      6.137  0.8816E+00  0.1596E+00  0.9355E+00  0.3694E+00
      6.319  0.9439E+00  0.4093E+00  0.1107E+01  0.4437E+00
      6.501  0.7940E+00  0.4171E+00  0.1251E+01  0.5194E+00
      6.682  0.8417E+00  0.4009E+00  0.1404E+01  0.5922E+00
      6.864  0.8812E+00  0.5048E+00  0.1564E+01  0.6839E+00
      7.045  0.7345E+00  0.4488E+00  0.1697E+01  0.7654E+00
      7.227  0.9329E+00  0.7929E+00  0.1867E+01  0.9094E+00
      7.409  0.1203E+01  0.5326E+00  0.2085E+01  0.1006E+01
      7.590  0.1185E+01  0.1020E+01  0.2301E+01  0.1191E+01
      7.772  0.1391E+01  0.5422E+00  0.2553E+01  0.1290E+01
      7.953  0.1748E+01  0.8084E+00  0.2871E+01  0.1437E+01
      8.135  0.1359E+01  0.7053E+00  0.3117E+01  0.1565E+01
      8.317  0.9309E+00  0.5763E+00  0.3286E+01  0.1669E+01
      8.498  0.9739E+00  0.9859E+00  0.3463E+01  0.1848E+01
      8.680  0.1356E+01  0.1015E+01  0.3710E+01  0.2033E+01
      8.861  0.1241E+01  0.8173E+00  0.3935E+01  0.2181E+01
      9.043  0.1230E+01  0.1129E+01  0.4158E+01  0.2386E+01
      9.225  0.8857E+00  0.8963E+00  0.4319E+01  0.2549E+01
      9.406  0.1340E+01  0.1246E+01  0.4563E+01  0.2775E+01
      9.588  0.1207E+01  0.1233E+01  0.4782E+01  0.2999E+01
      9.769  0.1841E+01  0.9949E+00  0.5116E+01  0.3180E+01
      9.951  0.8279E+00  0.7194E+00  0.5266E+01  0.3310E+01
     10.133  0.1027E+00  0.7742E+00  0.5285E+01  0.3451E+01
     10.314  0.5582E-02  0.9119E+00  0.5286E+01  0.3617E+01
     10.496  0.9550E-01  0.1131E+01  0.5303E+01  0.3822E+01
     10.677  0.3335E+00  0.8253E+00  0.5364E+01  0.3972E+01
     10.859  0.1840E+00  0.1356E+01  0.5397E+01  0.4218E+01
     11.041  0.2748E-01  0.5965E+00  0.5402E+01  0.4326E+01
     11.222  0.1483E+00  0.1337E+01  0.5429E+01  0.4569E+01
     11.404  0.1354E+00  0.1191E+01  0.5454E+01  0.4786E+01
     11.585  0.2322E+00  0.2055E+01  0.5496E+01  0.5159E+01
     11.767  0.1628E-01  0.6942E+00  0.5499E+01  0.5285E+01
     11.949  0.1406E+00  0.4720E-01  0.5525E+01  0.5294E+01
     12.130  0.1660E+00  0.3919E+00  0.5555E+01  0.5365E+01
     12.312  0.5460E-02  0.2800E+00  0.5556E+01  0.5416E+01
     12.493  0.1972E+00  0.1774E+00  0.5591E+01  0.5448E+01
     12.675  0.1096E+00  0.1755E-01  0.5611E+01  0.5451E+01
     12.857  0.1407E+00  0.1431E+00  0.5637E+01  0.5477E+01
     13.038  0.3571E+00  0.2253E+00  0.5702E+01  0.5518E+01
     13.220  0.2882E-01  0.2104E+00  0.5707E+01  0.5556E+01
     13.401  0.1237E-07  0.2356E+00  0.5707E+01  0.5599E+01
     13.583  0.6039E-01  0.8264E-01  0.5718E+01  0.5614E+01
     13.765  0.6867E-01  0.1274E+00  0.5730E+01  0.5637E+01
     13.946  0.9933E-01  0.1742E+00  0.5749E+01  0.5669E+01
     14.128  0.2878E+00  0.2110E+00  0.5801E+01  0.5707E+01
     14.309  0.1004E+00  0.2570E-03  0.5819E+01  0.5707E+01
     14.491  0.9314E-01  0.1434E+00  0.5836E+01  0.5733E+01
     14.673  0.5181E-04  0.1152E+00  0.5836E+01  0.5754E+01
     14.854  0.8837E-01  0.2410E+00  0.5852E+01  0.5798E+01
     15.036  0.2342E+00  0.1673E-01  0.5895E+01  0.5801E+01
     15.217  0.1541E-04  0.1818E+00  0.5895E+01  0.5834E+01
     15.399  0.3204E-01  0.6195E-01  0.5900E+01  0.5845E+01
     15.581  0.9702E-01  0.1643E-01  0.5918E+01  0.5848E+01
     15.762  0.3867E-03  0.2527E+00  0.5918E+01  0.5894E+01
     15.944  0.6817E-01  0.1036E-01  0.5930E+01  0.5896E+01
     16.125  0.1250E+00  0.1219E+00  0.5953E+01  0.5918E+01
     16.307  0.1143E+00  0.2562E-04  0.5974E+01  0.5918E+01
     16.489  0.1486E-01  0.5293E-02  0.5977E+01  0.5919E+01
     16.670  0.9514E-02  0.1797E+00  0.5978E+01  0.5952E+01
     16.852  0.1278E+00  0.9547E-02  0.6001E+01  0.5953E+01
     17.033  0.2208E+00  0.1277E+00  0.6042E+01  0.5976E+01
     17.215  0.1592E+00  0.4623E-03  0.6070E+01  0.5977E+01
     17.397  0.7647E-01  0.1116E-07  0.6084E+01  0.5977E+01
     17.578  0.2090E+00  0.6028E-01  0.6122E+01  0.5988E+01
     17.760  0.1505E+00  0.2395E+00  0.6150E+01  0.6031E+01
     17.941  0.1137E+00  0.1582E+00  0.6170E+01  0.6060E+01
     18.123  0.1179E+00  0.1941E+00  0.6192E+01  0.6095E+01
     18.305  0.2554E+00  0.1280E+00  0.6238E+01  0.6118E+01
     18.486  0.9443E-03  0.2528E+00  0.6238E+01  0.6164E+01
     18.668  0.1709E-01  0.3838E-01  0.6241E+01  0.6171E+01
     18.849  0.3006E+00  0.2501E+00  0.6296E+01  0.6217E+01
     19.031  0.1402E+00  0.1197E+00  0.6321E+01  0.6238E+01
     19.213  0.5839E-01  0.1458E-02  0.6332E+01  0.6239E+01
     19.394  0.2416E+00  0.2838E+00  0.6376E+01  0.6290E+01
     19.576  0.1647E-01  0.1281E+00  0.6379E+01  0.6313E+01
     19.757  0.2920E-01  0.7483E-01  0.6384E+01  0.6327E+01
     19.939  0.1242E+00  0.1645E+00  0.6407E+01  0.6357E+01
     20.121  0.1047E+00  0.1217E+00  0.6426E+01  0.6379E+01
     20.302  0.1189E+00  0.1201E-01  0.6447E+01  0.6381E+01
     20.484  0.2598E+00  0.1589E+00  0.6495E+01  0.6410E+01
     20.665  0.1380E+00  0.8685E-01  0.6520E+01  0.6426E+01
     20.847  0.1276E+00  0.1391E+00  0.6543E+01  0.6451E+01
     21.029  0.1083E+00  0.1211E+00  0.6562E+01  0.6473E+01
     21.210  0.3517E+00  0.1381E+00  0.6626E+01  0.6498E+01
     21.392  0.2492E+00  0.2412E+00  0.6672E+01  0.6542E+01
     21.573  0.1150E+00  0.2042E+00  0.6692E+01  0.6579E+01
     21.755  0.1285E+00  0.2113E+00  0.6716E+01  0.6617E+01
     21.937  0.1453E+00  0.2800E+00  0.6742E+01  0.6668E+01
     22.118  0.1269E+00  0.1453E+00  0.6765E+01  0.6695E+01
     22.300  0.2363E-01  0.1292E+00  0.6770E+01  0.6718E+01
     22.481  0.1860E+00  0.1658E+00  0.6803E+01  0.6748E+01
     22.663  0.3434E+00  0.9726E-01  0.6866E+01  0.6766E+01
     22.845  0.3044E+00  0.2427E-01  0.6921E+01  0.6770E+01
     23.026  0.8135E-01  0.3675E+00  0.6936E+01  0.6837E+01
     23.208  0.6387E-01  0.3219E+00  0.6947E+01  0.6895E+01
     23.390  0.4927E+00  0.1498E+00  0.7037E+01  0.6923E+01
     23.571  0.1396E+00  0.1203E+00  0.7062E+01  0.6944E+01
     23.753  0.9509E-01  0.2398E+00  0.7079E+01  0.6988E+01
     23.934  0.1895E+00  0.3762E+00  0.7114E+01  0.7056E+01
     24.116  0.1044E+00  0.4714E-01  0.7133E+01  0.7065E+01
     24.298  0.8731E-01  0.2612E+00  0.7149E+01  0.7112E+01
     24.479  0.3938E+00  0.1133E+00  0.7220E+01  0.7133E+01
     24.661  0.2931E+00  0.6023E-01  0.7273E+01  0.7144E+01
     24.842  0.1695E+00  0.2952E+00  0.7304E+01  0.7197E+01
     25.024  0.1186E+00  0.4184E+00  0.7326E+01  0.7273E+01
     25.206  0.2732E+00  0.1276E+00  0.7375E+01  0.7297E+01
     25.387  0.1492E+00  0.3223E+00  0.7402E+01  0.7355E+01
     25.569  0.1917E+00  0.9940E-01  0.7437E+01  0.7373E+01
     25.750  0.1948E+00  0.1976E+00  0.7473E+01  0.7409E+01
     25.932  0.1678E+00  0.2995E+00  0.7503E+01  0.7463E+01
     26.114  0.2839E+00  0.5117E-01  0.7555E+01  0.7473E+01
     26.295  0.3228E+00  0.1777E+00  0.7613E+01  0.7505E+01
     26.477  0.1338E+00  0.3764E+00  0.7638E+01  0.7573E+01
     26.658  0.1774E+00  0.2653E+00  0.7670E+01  0.7621E+01
     26.840  0.3114E+00  0.9312E-01  0.7726E+01  0.7638E+01
     27.022  0.2798E+00  0.2133E+00  0.7777E+01  0.7677E+01
     27.203  0.1299E+00  0.3147E+00  0.7801E+01  0.7734E+01
     27.385  0.1546E+00  0.2829E+00  0.7829E+01  0.7786E+01
     27.566  0.3411E+00  0.8733E-01  0.7891E+01  0.7802E+01
     27.748  0.1057E+00  0.3534E+00  0.7910E+01  0.7866E+01
     27.930  0.1730E+00  0.1586E+00  0.7941E+01  0.7895E+01
     28.111  0.2874E-01  0.2132E+00  0.7947E+01  0.7933E+01
     28.293  0.3795E+00  0.4533E-01  0.8016E+01  0.7941E+01
     28.474  0.7013E-01  0.2068E+00  0.8028E+01  0.7979E+01
     28.656  0.1271E+00  0.2019E+00  0.8051E+01  0.8016E+01
     28.838  0.2793E+00  0.1877E+00  0.8102E+01  0.8050E+01
     29.019  0.1127E+00  0.1589E+00  0.8123E+01  0.8079E+01
     29.201  0.3454E+00  0.1683E+00  0.8185E+01  0.8109E+01
     29.382  0.1414E+00  0.2854E+00  0.8211E+01  0.8161E+01
     29.564  0.1588E+00  0.2319E+00  0.8240E+01  0.8203E+01
     29.746  0.5632E-01  0.1563E+00  0.8250E+01  0.8231E+01
     29.927  0.1269E+00  0.1020E+00  0.8273E+01  0.8250E+01
     30.109  0.1907E+00  0.4385E-01  0.8308E+01  0.8258E+01
     30.290  0.2291E+00  0.2169E+00  0.8349E+01  0.8297E+01
     30.472  0.2327E+00  0.3513E+00  0.8392E+01  0.8361E+01
     30.654  0.1723E+00  0.9833E-01  0.8423E+01  0.8379E+01
     30.835  0.1373E+00  0.2323E+00  0.8448E+01  0.8421E+01
     31.017  0.7953E-01  0.5616E-01  0.8462E+01  0.8431E+01
     31.198  0.2473E+00  0.9928E-01  0.8507E+01  0.8449E+01
     31.380  0.1193E+00  0.3591E+00  0.8529E+01  0.8515E+01
     31.562  0.2105E+00  0.9517E-01  0.8567E+01  0.8532E+01
     31.743  0.1837E+00  0.2237E+00  0.8600E+01  0.8573E+01
     31.925  0.2320E+00  0.2747E+00  0.8643E+01  0.8622E+01
     32.106  0.3198E+00  0.1442E+00  0.8701E+01  0.8649E+01
     32.288  0.1526E+00  0.2575E+00  0.8728E+01  0.8695E+01
     32.470  0.3006E+00  0.1505E+00  0.8783E+01  0.8723E+01
     32.651  0.1834E+00  0.2578E+00  0.8816E+01  0.8770E+01
     32.833  0.1853E+00  0.1956E+00  0.8850E+01  0.8805E+01
     33.014  0.7051E-01  0.2419E+00  0.8863E+01  0.8849E+01
     33.196  0.3674E+00  0.2496E+00  0.8929E+01  0.8894E+01
     33.378  0.5088E+00  0.2934E+00  0.9022E+01  0.8948E+01
     33.559  0.1393E+00  0.3684E+00  0.9047E+01  0.9014E+01
     33.741  0.2438E+00  0.1665E+00  0.9091E+01  0.9045E+01
     33.922  0.1718E+00  0.2437E+00  0.9123E+01  0.9089E+01
     34.104  0.2378E+00  0.2047E+00  0.9166E+01  0.9126E+01
     34.286  0.3376E+00  0.3056E+00  0.9227E+01  0.9182E+01
     34.467  0.1294E+00  0.2239E+00  0.9251E+01  0.9222E+01
     34.649  0.4288E+00  0.3311E+00  0.9328E+01  0.9282E+01
     34.830  0.1092E+00  0.2860E+00  0.9348E+01  0.9334E+01
     35.012  0.2961E+00  0.1196E+00  0.9402E+01  0.9356E+01
     35.194  0.1561E+00  0.1901E+00  0.9430E+01  0.9391E+01
     35.375  0.2358E+00  0.1673E+00  0.9473E+01  0.9421E+01
     35.557  0.4497E+00  0.3125E+00  0.9555E+01  0.9478E+01
     35.738  0.3274E+00  0.3893E+00  0.9614E+01  0.9548E+01
     35.920  0.8285E-01  0.2695E+00  0.9629E+01  0.9597E+01
     36.102  0.2626E+00  0.1688E+00  0.9677E+01  0.9628E+01
     36.283  0.2220E+00  0.2166E+00  0.9717E+01  0.9667E+01
     36.465  0.2936E+00  0.3260E+00  0.9771E+01  0.9727E+01
     36.646  0.3174E+00  0.2902E+00  0.9828E+01  0.9779E+01
     36.828  0.1617E+00  0.2896E+00  0.9858E+01  0.9832E+01
     37.010  0.7675E-01  0.1143E+00  0.9872E+01  0.9853E+01
     37.191  0.1101E+00  0.5869E-01  0.9892E+01  0.9863E+01
     37.373  0.1981E+00  0.7380E-01  0.9928E+01  0.9877E+01
     37.554  0.1146E+00  0.2572E+00  0.9948E+01  0.9923E+01
     37.736  0.3952E+00  0.2694E+00  0.1002E+02  0.9972E+01
     37.918  0.1785E-01  0.1524E+00  0.1002E+02  0.1000E+02
     38.099  0.9612E-03  0.8995E-01  0.1002E+02  0.1002E+02
     38.281  0.9986E-01  0.3911E-01  0.1004E+02  0.1002E+02
     38.462  0.1443E+00  0.1748E-01  0.1007E+02  0.1003E+02
     38.644  0.4349E+00  0.3248E+00  0.1015E+02  0.1009E+02
     38.826  0.1306E+00  0.2327E+00  0.1017E+02  0.1013E+02
     39.007  0.1132E+00  0.1760E+00  0.1019E+02  0.1016E+02
     39.189  0.5989E-01  0.1523E+00  0.1020E+02  0.1019E+02
     39.370  0.1621E+00  0.8745E-01  0.1023E+02  0.1020E+02
     39.552  0.2583E+00  0.6194E-01  0.1028E+02  0.1021E+02
     39.734  0.1848E+00  0.2829E+00  0.1031E+02  0.1027E+02
     39.915  0.1765E+00  0.1913E+00  0.1034E+02  0.1030E+02
     40.097  0.8263E+00  0.2986E+00  0.1049E+02  0.1035E+02
     40.278  0.3664E+00  0.3730E+00  0.1056E+02  0.1042E+02
     40.460  0.3010E+00  0.7666E+00  0.1062E+02  0.1056E+02
     40.642  0.1503E+00  0.4191E+00  0.1064E+02  0.1064E+02
     40.823  0.2305E+00  0.1160E+00  0.1068E+02  0.1066E+02
     41.005  0.3150E+00  0.1350E+00  0.1074E+02  0.1068E+02
     41.186  0.1319E+00  0.1682E+00  0.1077E+02  0.1071E+02
     41.368  0.1381E+00  0.2284E+00  0.1079E+02  0.1076E+02
     41.550  0.3100E+00  0.1632E+00  0.1085E+02  0.1079E+02
     41.731  0.3211E+00  0.2528E+00  0.1091E+02  0.1083E+02
     41.913  0.1694E+00  0.4861E+00  0.1094E+02  0.1092E+02
     42.094  0.2224E+00  0.1928E+00  0.1098E+02  0.1095E+02
     42.276  0.3320E-01  0.1216E+00  0.1098E+02  0.1098E+02
     42.458  0.3112E+00  0.6216E-02  0.1104E+02  0.1098E+02
     42.639  0.5487E+00  0.3607E+00  0.1114E+02  0.1104E+02
     42.821  0.1508E+00  0.2198E+00  0.1117E+02  0.1108E+02
     43.003  0.7526E-01  0.5175E+00  0.1118E+02  0.1118E+02
     43.184  0.2306E-02  0.1431E-01  0.1118E+02  0.1118E+02
     43.366  0.3726E+00  0.1694E+00  0.1125E+02  0.1121E+02
     43.547  0.7247E-01  0.1022E+00  0.1126E+02  0.1123E+02
     43.729  0.2820E+00  0.1805E+00  0.1131E+02  0.1126E+02
     43.911  0.2600E+00  0.3770E+00  0.1136E+02  0.1133E+02
     44.092  0.2977E+00  0.1629E+00  0.1141E+02  0.1136E+02
     44.274  0.1235E-01  0.1085E+00  0.1142E+02  0.1138E+02
     44.455  0.1478E+00  0.2926E+00  0.1144E+02  0.1143E+02
     44.637  0.1822E+00  0.5713E-01  0.1148E+02  0.1144E+02
     44.819  0.1129E+00  0.3408E-01  0.1150E+02  0.1145E+02
     45.000  0.1076E-01  0.1241E+00  0.1150E+02  0.1147E+02
     45.182  0.2687E+00  0.1087E+00  0.1155E+02  0.1149E+02
     45.363  0.2498E+00  0.2672E+00  0.1159E+02  0.1154E+02
     45.545  0.2431E+00  0.1454E+00  0.1164E+02  0.1157E+02
     45.727  0.1316E+00  0.1998E+00  0.1166E+02  0.1160E+02
     45.908  0.1277E+00  0.1233E+00  0.1168E+02  0.1163E+02
     46.090  0.9169E-03  0.1831E+00  0.1168E+02  0.1166E+02
     46.271  0.2069E+00  0.1850E+00  0.1172E+02  0.1169E+02
     46.453  0.2048E+00  0.1395E+00  0.1176E+02  0.1172E+02
     46.635  0.2942E+00  0.1407E+00  0.1181E+02  0.1174E+02
     46.816  0.4180E-01  0.1253E+00  0.1182E+02  0.1177E+02
     46.998  0.3376E+00  0.2377E-02  0.1188E+02  0.1177E+02
     47.179  0.1569E-01  0.1970E+00  0.1188E+02  0.1180E+02
     47.361  0.3982E+00  0.1233E+00  0.1196E+02  0.1182E+02
     47.543  0.2416E+00  0.1367E+00  0.1200E+02  0.1185E+02
     47.724  0.1593E-02  0.5696E-01  0.1200E+02  0.1186E+02
     47.906  0.0000E+00  0.1887E-07  0.1200E+02  0.1186E+02
     48.087  0.0000E+00  0.3191E-01  0.1200E+02  0.1187E+02
     48.269  0.0000E+00  0.9715E-01  0.1200E+02  0.1188E+02
     48.451  0.0000E+00  0.5456E-06  0.1200E+02  0.1188E+02
     48.632  0.0000E+00  0.0000E+00  0.1200E+02  0.1188E+02
     48.814  0.0000E+00  0.3921E-05  0.1200E+02  0.1188E+02
     48.995  0.0000E+00  0.6232E-01  0.1200E+02  0.1189E+02
     49.177  0.0000E+00  0.1312E+00  0.1200E+02  0.1192E+02
     49.359  0.0000E+00  0.6460E-01  0.1200E+02  0.1193E+02
     49.540  0.0000E+00  0.1818E-07  0.1200E+02  0.1193E+02
     49.722  0.0000E+00  0.0000E+00  0.1200E+02  0.1193E+02
     49.903  0.0000E+00  0.1577E-10  0.1200E+02  0.1193E+02
     50.085  0.0000E+00  0.8950E-02  0.1200E+02  0.1193E+02
     50.267  0.0000E+00  0.5562E-01  0.1200E+02  0.1194E+02
     50.448  0.0000E+00  0.1233E+00  0.1200E+02  0.1196E+02
     50.630  0.0000E+00  0.5738E-02  0.1200E+02  0.1196E+02
     50.811  0.0000E+00  0.4293E-01  0.1200E+02  0.1197E+02
     50.993  0.0000E+00  0.8019E-01  0.1200E+02  0.1199E+02
     51.175  0.0000E+00  0.7044E-01  0.1200E+02  0.1200E+02
     51.356  0.0000E+00  0.3486E-04  0.1200E+02  0.1200E+02
     51.538  0.0000E+00  0.0000E+00  0.1200E+02  0.1200E+02
     51.719  0.0000E+00  0.0000E+00  0.1200E+02  0.1200E+02
     51.901  0.0000E+00  0.0000E+00  0.1200E+02  0.1200E+02
     52.083  0.0000E+00  0.0000E+00  0.1200E+02  0.1200E+02
     52.264  0.0000E+00  0.0000E+00  0.1200E+02  0.1200E+02
     52.446  0.0000E+00  0.0000E+00  0.1200E+02  0.1200E+02
     52.627  0.0000E+00  0.0000E+00  0.1200E+02  0.1200E+02
     52.809  0.0000E+00  0.0000E+00  0.1200E+02  0.1200E+02
     52.991  0.0000E+00  0.0000E+00  0.1200E+02  0.1200E+02
     53.172  0.0000E+00  0.0000E+00  0.1200E+02  0.1200E+02
     53.354  0.0000E+00  0.0000E+00  0.1200E+02  0.1200E+02
     53.535  0.0000E+00  0.0000E+00  0.1200E+02  0.1200E+02
