    1    1    1    2
  0.1081089E+02  0.2481945E-09  0.2481945E-09  0.2481945E-09  0.5000000E-15
  1.000000000000000E-004
  CAR 
 Co-fcc                                  
      9     60     12
 
  0.6250000E-01  0.6250000E-01  0.6250000E-01  0.3906250E-02
      1          1.531258        1.531491   1.000000   1.000000
      2          7.647328        9.195721   1.000000   1.000000
      3          7.728862        9.293688   1.000000   1.000000
      4          7.728862        9.293688   1.000000   1.000000
      5          8.760663       10.645195   1.000000   0.000000
      6          8.760663       10.645195   1.000000   0.000000
      7         33.131179       32.893630   0.000000   0.000000
      8         36.096328       36.191858   0.000000   0.000000
      9         37.587107       37.759561   0.000000   0.000000
     10         37.587107       37.759561   0.000000   0.000000
     11         41.499635       41.741958   0.000000   0.000000
     12         41.499669       41.742280   0.000000   0.000000
 
  0.1875000E+00  0.6250000E-01  0.6250000E-01  0.1171875E-01
      1          2.333512        2.340954   1.000000   1.000000
      2          7.433299        8.920666   1.000000   1.000000
      3          7.887928        9.470797   1.000000   1.000000
      4          7.893040        9.479048   1.000000   1.000000
      5          8.604686       10.456315   1.000000   0.017869
      6          8.850796       10.723244   1.000000   0.000000
      7         30.321888       30.507567   0.000000   0.000000
      8         32.962344       33.031959   0.000000   0.000000
      9         36.482843       36.521664   0.000000   0.000000
     10         38.607804       38.782048   0.000000   0.000000
     11         40.372395       40.343984   0.000000   0.000000
     12         41.624453       41.833174   0.000000   0.000000
 
  0.3125000E+00  0.6250000E-01  0.6250000E-01  0.1171875E-01
      1          4.015781        4.124623   1.000000   1.000000
      2          7.321555        8.596891   1.000000   1.000000
      3          7.832700        9.455027   1.000000   1.000000
      4          7.907341        9.558027   1.000000   1.000000
      5          8.818993       10.614264   1.000000   0.000000
      6          9.255565       11.076922   1.000000   0.000000
      7         24.228167       24.666219   0.000000   0.000000
      8         31.864687       31.921883   0.000000   0.000000
      9         35.430804       35.484208   0.000000   0.000000
     10         38.176081       38.490363   0.000000   0.000000
     11         39.357641       39.597943   0.000000   0.000000
     12         40.355251       40.409026   0.000000   0.000000
 
  0.4375000E+00  0.6250000E-01  0.6250000E-01  0.1171875E-01
      1          5.148492        5.812621   1.000000   1.000000
      2          7.601104        9.035828   1.000000   1.000000
      3          7.700307        9.255741   1.000000   1.000000
      4          8.391390        9.352873   1.000000   1.000000
      5          9.376572       11.203364   1.000000   0.000000
      6         10.049926       11.679506   1.000000   0.000000
      7         18.867557       19.584404   0.000000   0.000000
      8         31.366171       31.303216   0.000000   0.000000
      9         34.192221       34.334056   0.000000   0.000000
     10         36.021696       36.337238   0.000000   0.000000
     11         38.505807       38.771066   0.000000   0.000000
     12         40.082449       40.271090   0.000000   0.000000
 
 -0.4375000E+00  0.6250000E-01  0.6250000E-01  0.1171875E-01
      1          5.271949        6.168522   1.000000   1.000000
      2          7.504767        9.093085   1.000000   1.000000
      3          7.646815        9.291542   1.000000   1.000000
      4          8.967058        9.719054   1.000000   1.000000
      5          9.660185       11.523102   1.000000   0.000000
      6         10.844583       11.955231   0.000000   0.000000
      7         16.707297       17.667607   0.000000   0.000000
      8         31.469443       31.282514   0.000000   0.000000
      9         34.159899       34.464325   0.000000   0.000000
     10         34.332411       34.596452   0.000000   0.000000
     11         39.332010       39.570624   0.000000   0.000000
     12         39.363485       39.584441   0.000000   0.000000
 
 -0.3125000E+00  0.6250000E-01  0.6250000E-01  0.1171875E-01
      1          4.934412        5.379103   1.000000   1.000000
      2          7.638722        8.732136   1.000000   1.000000
      3          7.790048        9.293268   1.000000   1.000000
      4          7.860855        9.437070   1.000000   1.000000
      5          9.452691       11.200522   1.000000   0.000000
      6          9.513027       11.307983   1.000000   0.000000
      7         20.491515       21.097190   0.000000   0.000000
      8         32.194280       32.000376   0.000000   0.000000
      9         33.623166       33.951263   0.000000   0.000000
     10         36.048073       36.379117   0.000000   0.000000
     11         39.181985       39.353298   0.000000   0.000000
     12         41.051443       41.248257   0.000000   0.000000
 
 -0.1875000E+00  0.6250000E-01  0.6250000E-01  0.1171875E-01
      1          3.412182        3.459311   1.000000   1.000000
      2          7.273489        8.652432   1.000000   1.000000
      3          7.896957        9.525166   1.000000   1.000000
      4          7.955891        9.577787   1.000000   1.000000
      5          8.748118       10.529927   1.000000   0.000014
      6          9.010033       10.868661   1.000000   0.000000
      7         26.239413       26.604165   0.000000   0.000000
      8         33.272352       33.127932   0.000000   0.000000
      9         34.174115       34.503150   0.000000   0.000000
     10         38.697338       38.832968   0.000000   0.000000
     11         38.991327       39.202928   0.000000   0.000000
     12         43.304925       43.392403   0.000000   0.000000
 
 -0.6250000E-01  0.6250000E-01  0.6250000E-01  0.1171875E-01
      1          1.939154        1.941843   1.000000   1.000000
      2          7.503406        9.022346   1.000000   1.000000
      3          7.839309        9.412471   1.000000   1.000000
      4          7.843658        9.417740   1.000000   1.000000
      5          8.624544       10.481604   1.000000   0.002438
      6          8.827701       10.717632   1.000000   0.000000
      7         32.107313       32.100231   0.000000   0.000000
      8         34.537735       34.536563   0.000000   0.000000
      9         35.567756       35.842009   0.000000   0.000000
     10         37.433423       37.506968   0.000000   0.000000
     11         41.436653       41.612968   0.000000   0.000000
     12         43.271615       43.358543   0.000000   0.000000
 
  0.1875000E+00  0.1875000E+00  0.6250000E-01  0.1171875E-01
      1          2.716577        2.730974   1.000000   1.000000
      2          7.225356        8.693892   1.000000   1.000000
      3          8.035863        9.637958   1.000000   1.000000
      4          8.066571        9.660536   1.000000   1.000000
      5          8.439265       10.222637   1.000000   0.999997
      6          8.952302       10.851646   1.000000   0.000000
      7         30.629490       30.822546   0.000000   0.000000
      8         33.113176       33.089979   0.000000   0.000000
      9         33.269738       33.584242   0.000000   0.000000
     10         35.497483       35.553299   0.000000   0.000000
     11         41.107775       41.753941   0.000000   0.000000
     12         43.778726       43.876852   0.000000   0.000000
 
  0.3125000E+00  0.1875000E+00  0.6250000E-01  0.2343750E-01
      1          4.074170        4.158918   1.000000   1.000000
      2          6.922111        8.307170   1.000000   1.000000
      3          7.818474        9.447587   1.000000   1.000000
      4          8.326736        9.973329   1.000000   1.000000
      5          8.710178       10.404867   1.000000   0.259549
      6          9.334933       11.175025   1.000000   0.000000
      7         26.789285       27.137861   0.000000   0.000000
      8         29.397512       29.642247   0.000000   0.000000
      9         33.173792       33.298153   0.000000   0.000000
     10         35.175526       35.318139   0.000000   0.000000
     11         39.978948       40.503290   0.000000   0.000000
     12         43.550299       43.591744   0.000000   0.000000
 
  0.4375000E+00  0.1875000E+00  0.6250000E-01  0.2343750E-01
      1          5.445878        5.956129   1.000000   1.000000
      2          7.044190        8.212096   1.000000   1.000000
      3          7.510061        9.018638   1.000000   1.000000
      4          8.168566        9.846701   1.000000   1.000000
      5          9.420335       11.209875   1.000000   0.000000
      6         10.537914       12.033154   0.000005   0.000000
      7         20.999495       21.547138   0.000000   0.000000
      8         28.785212       29.001391   0.000000   0.000000
      9         30.780148       31.041966   0.000000   0.000000
     10         34.820818       35.013100   0.000000   0.000000
     11         41.527328       41.646379   0.000000   0.000000
     12         44.005492       44.271378   0.000000   0.000000
 
 -0.4375000E+00  0.1875000E+00  0.6250000E-01  0.2343750E-01
      1          5.747748        6.714788   1.000000   1.000000
      2          7.078766        8.401189   1.000000   1.000000
      3          7.952464        9.123939   1.000000   1.000000
      4          8.018341        9.685915   1.000000   1.000000
      5          9.623082       11.468021   1.000000   0.000000
      6         12.705505       13.593745   0.000000   0.000000
      7         16.897477       17.770115   0.000000   0.000000
      8         28.192633       28.397433   0.000000   0.000000
      9         30.064457       30.388429   0.000000   0.000000
     10         34.612316       34.715838   0.000000   0.000000
     11         40.665858       40.867500   0.000000   0.000000
     12         44.326304       44.421578   0.000000   0.000000
 
 -0.3125000E+00  0.1875000E+00  0.6250000E-01  0.2343750E-01
      1          5.681151        6.396545   1.000000   1.000000
      2          7.227799        8.449750   1.000000   1.000000
      3          7.581086        8.905315   1.000000   1.000000
      4          8.056391        9.738626   1.000000   1.000000
      5          9.301063       11.087758   1.000000   0.000000
      6         11.389884       12.725907   0.000000   0.000000
      7         19.335476       19.984576   0.000000   0.000000
      8         27.380411       27.657840   0.000000   0.000000
      9         31.627788       31.850406   0.000000   0.000000
     10         35.715875       35.829886   0.000000   0.000000
     11         40.033114       40.223491   0.000000   0.000000
     12         43.713954       43.823188   0.000000   0.000000
 
 -0.1875000E+00  0.1875000E+00  0.6250000E-01  0.2343750E-01
      1          4.656606        4.797856   1.000000   1.000000
      2          6.997096        8.336376   1.000000   1.000000
      3          7.643178        9.237565   1.000000   1.000000
      4          8.259351        9.953049   1.000000   1.000000
      5          8.641758       10.361972   1.000000   0.715165
      6          9.838044       11.588877   1.000000   0.000000
      7         24.792367       25.210124   0.000000   0.000000
      8         27.530856       27.825309   0.000000   0.000000
      9         34.159317       34.279997   0.000000   0.000000
     10         37.666507       37.760185   0.000000   0.000000
     11         39.499644       39.616287   0.000000   0.000000
     12         42.535396       42.840138   0.000000   0.000000
 
 -0.6250000E-01  0.1875000E+00  0.6250000E-01  0.2343750E-01
      1          3.082390        3.107076   1.000000   1.000000
      2          7.223268        8.663183   1.000000   1.000000
      3          7.932909        9.542477   1.000000   1.000000
      4          8.069447        9.678321   1.000000   1.000000
      5          8.517759       10.309925   1.000000   0.979356
      6          9.041298       10.904550   1.000000   0.000000
      7         28.487123       28.775198   0.000000   0.000000
      8         31.129741       31.299085   0.000000   0.000000
      9         35.557303       35.613273   0.000000   0.000000
     10         37.351914       37.384342   0.000000   0.000000
     11         40.885497       41.150621   0.000000   0.000000
     12         42.299993       42.532434   0.000000   0.000000
 
  0.3125000E+00  0.3125000E+00  0.6250000E-01  0.1171875E-01
      1          4.745605        5.007471   1.000000   1.000000
      2          6.502085        7.851368   1.000000   1.000000
      3          8.142740        9.585169   1.000000   1.000000
      4          8.755677       10.435399   1.000000   0.065739
      5          9.092824       10.689177   1.000000   0.000000
      6          9.306913       11.222720   1.000000   0.000000
      7         27.376309       27.676624   0.000000   0.000000
      8         29.065808       29.353533   0.000000   0.000000
      9         29.134505       29.364072   0.000000   0.000000
     10         31.959042       32.186366   0.000000   0.000000
     11         36.550196       37.056956   0.000000   0.000000
     12         47.291430       48.949630   0.000000   0.000000
 
  0.4375000E+00  0.3125000E+00  0.6250000E-01  0.2343750E-01
      1          5.478372        6.187764   1.000000   1.000000
      2          6.294626        7.582699   1.000000   1.000000
      3          8.084455        9.369102   1.000000   1.000000
      4          9.001057       10.750273   1.000000   0.000000
      5          9.468384       11.269117   1.000000   0.000000
      6         10.797743       12.138897   0.000000   0.000000
      7         23.965085       24.337873   0.000000   0.000000
      8         25.916053       26.270093   0.000000   0.000000
      9         26.899928       27.233513   0.000000   0.000000
     10         33.202806       33.425221   0.000000   0.000000
     11         37.693360       38.081018   0.000000   0.000000
     12         46.874383       47.508007   0.000000   0.000000
 
 -0.4375000E+00  0.3125000E+00  0.6250000E-01  0.2343750E-01
      1          5.965567        7.092322   1.000000   1.000000
      2          6.429766        7.612038   1.000000   1.000000
      3          7.781815        9.028214   1.000000   1.000000
      4          8.718449       10.495152   1.000000   0.000691
      5          9.687631       11.516148   1.000000   0.000000
      6         13.969401       14.813025   0.000000   0.000000
      7         18.865012       19.421460   0.000000   0.000000
      8         23.734404       24.205293   0.000000   0.000000
      9         27.086181       27.391555   0.000000   0.000000
     10         33.645103       33.841381   0.000000   0.000000
     11         42.591679       42.868801   0.000000   0.000000
     12         45.405436       45.733934   0.000000   0.000000
 
 -0.3125000E+00  0.3125000E+00  0.6250000E-01  0.2343750E-01
      1          6.446187        7.453425   1.000000   1.000000
      2          6.601375        7.880100   1.000000   1.000000
      3          7.325786        8.569330   1.000000   1.000000
      4          8.518610       10.305054   1.000000   0.985312
      5          9.370426       11.127457   1.000000   0.000000
      6         14.284303       15.167692   0.000000   0.000000
      7         18.707452       19.308430   0.000000   0.000000
      8         22.419417       22.915633   0.000000   0.000000
      9         28.812784       29.124336   0.000000   0.000000
     10         34.517172       34.659153   0.000000   0.000000
     11         43.261545       43.318291   0.000000   0.000000
     12         46.840752       48.111504   0.000000   0.000000
 
 -0.1875000E+00  0.3125000E+00  0.6250000E-01  0.2343750E-01
      1          5.974652        6.493371   1.000000   1.000000
      2          7.013483        8.245813   1.000000   1.000000
      3          7.168344        8.665651   1.000000   1.000000
      4          8.340810       10.084792   1.000000   1.000000
      5          8.993498       10.713592   1.000000   0.000000
      6         11.486085       12.889230   0.000000   0.000000
      7         21.532278       22.058400   0.000000   0.000000
      8         24.539778       24.925055   0.000000   0.000000
      9         31.387730       31.629724   0.000000   0.000000
     10         36.272020       36.400373   0.000000   0.000000
     11         40.507551       40.563250   0.000000   0.000000
     12         45.158797       45.299037   0.000000   0.000000
 
 -0.6250000E-01  0.3125000E+00  0.6250000E-01  0.2343750E-01
      1          4.763107        5.011965   1.000000   1.000000
      2          7.277989        8.456559   1.000000   1.000000
      3          7.658741        9.276779   1.000000   1.000000
      4          7.973447        9.634428   1.000000   1.000000
      5          9.052120       10.805762   1.000000   0.000000
      6          9.705800       11.461030   1.000000   0.000000
      7         22.483227       22.985738   0.000000   0.000000
      8         30.277247       30.437391   0.000000   0.000000
      9         33.822603       33.909892   0.000000   0.000000
     10         36.458149       36.731296   0.000000   0.000000
     11         40.131455       40.285333   0.000000   0.000000
     12         41.674351       41.819362   0.000000   0.000000
 
  0.4375000E+00  0.4375000E+00  0.6250000E-01  0.1171875E-01
      1          5.256526        6.257150   1.000000   1.000000
      2          5.926468        7.191340   1.000000   1.000000
      3          9.345487       10.703390   1.000000   0.000000
      4          9.388151       11.259992   1.000000   0.000000
      5          9.711087       11.564815   1.000000   0.000000
      6         11.455891       12.227678   0.000000   0.000000
      7         22.652792       23.239508   0.000000   0.000000
      8         25.042024       25.293960   0.000000   0.000000
      9         26.218500       26.412768   0.000000   0.000000
     10         31.093469       31.434791   0.000000   0.000000
     11         35.119284       35.539320   0.000000   0.000000
     12         47.384484       50.951967   0.000000   0.000000
 
 -0.4375000E+00  0.4375000E+00  0.6250000E-01  0.2343750E-01
      1          5.403946        6.544743   1.000000   1.000000
      2          5.951256        7.191804   1.000000   1.000000
      3          8.926518       10.273698   1.000000   0.998913
      4          9.335869       11.248705   1.000000   0.000000
      5          9.851489       11.658247   1.000000   0.000000
      6         13.999894       14.510537   0.000000   0.000000
      7         20.508244       21.261296   0.000000   0.000000
      8         22.615385       22.938356   0.000000   0.000000
      9         25.073721       25.311450   0.000000   0.000000
     10         32.564714       32.840857   0.000000   0.000000
     11         37.022626       37.402702   0.000000   0.000000
     12         47.376223       50.388030   0.000000   0.000000
 
 -0.3125000E+00  0.4375000E+00  0.6250000E-01  0.2343750E-01
      1          5.915477        7.143238   1.000000   1.000000
      2          6.335468        7.506180   1.000000   1.000000
      3          7.956252        9.202602   1.000000   1.000000
      4          8.897657       10.738840   1.000000   0.000000
      5          9.676358       11.466751   1.000000   0.000000
      6         16.008649       16.617189   0.000000   0.000000
      7         18.210224       18.756580   0.000000   0.000000
      8         21.252066       21.876876   0.000000   0.000000
      9         26.610601       26.908256   0.000000   0.000000
     10         33.481530       33.694229   0.000000   0.000000
     11         42.566374       42.911336   0.000000   0.000000
     12         46.546184       46.694619   0.000000   0.000000
 
 -0.1875000E+00  0.4375000E+00  0.6250000E-01  0.2343750E-01
      1          6.121665        7.155843   1.000000   1.000000
      2          6.775581        8.023267   1.000000   1.000000
      3          7.627997        8.855659   1.000000   1.000000
      4          8.275502       10.005063   1.000000   1.000000
      5          9.523625       11.335399   1.000000   0.000000
      6         13.950729       14.767591   0.000000   0.000000
      7         17.147805       17.940151   0.000000   0.000000
      8         25.174213       25.546451   0.000000   0.000000
      9         29.181741       29.486147   0.000000   0.000000
     10         34.529284       34.648390   0.000000   0.000000
     11         42.003020       42.143801   0.000000   0.000000
     12         46.435842       46.558388   0.000000   0.000000
 
 -0.6250000E-01  0.4375000E+00  0.6250000E-01  0.2343750E-01
      1          5.416660        6.260513   1.000000   1.000000
      2          7.391689        8.835941   1.000000   1.000000
      3          7.787503        9.263689   1.000000   1.000000
      4          8.298306        9.453148   1.000000   1.000000
      5          9.566401       11.403982   1.000000   0.000000
      6         11.159092       12.364333   0.000000   0.000000
      7         17.634533       18.451411   0.000000   0.000000
      8         30.157254       30.207260   0.000000   0.000000
      9         32.313780       32.580173   0.000000   0.000000
     10         34.905603       35.074369   0.000000   0.000000
     11         39.594241       39.833324   0.000000   0.000000
     12         41.756339       41.906105   0.000000   0.000000
 
 -0.4375000E+00 -0.4375000E+00  0.6250000E-01  0.1171875E-01
      1          5.192496        6.307491   1.000000   1.000000
      2          5.796326        7.043235   1.000000   1.000000
      3          9.506545       11.188660   1.000000   0.000000
      4          9.633812       11.460370   1.000000   0.000000
      5          9.863987       11.676415   1.000000   0.000000
      6         12.993633       13.293639   0.000000   0.000000
      7         20.420908       21.217071   0.000000   0.000000
      8         24.447889       24.662777   0.000000   0.000000
      9         25.583767       25.744796   0.000000   0.000000
     10         30.955455       31.322706   0.000000   0.000000
     11         34.940703       35.358883   0.000000   0.000000
     12         47.473052       51.059016   0.000000   0.000000
 
 -0.3125000E+00 -0.4375000E+00  0.6250000E-01  0.2343750E-01
      1          5.481752        6.512264   1.000000   1.000000
      2          6.070013        7.326823   1.000000   1.000000
      3          8.587364        9.859913   1.000000   1.000000
      4          9.258869       11.096314   1.000000   0.000000
      5          9.700777       11.519272   1.000000   0.000000
      6         12.389438       13.271589   0.000000   0.000000
      7         22.639712       23.113853   0.000000   0.000000
      8         23.341620       23.769657   0.000000   0.000000
      9         25.640583       25.904805   0.000000   0.000000
     10         32.766401       33.023047   0.000000   0.000000
     11         37.219736       37.597911   0.000000   0.000000
     12         47.261165       49.177002   0.000000   0.000000
 
 -0.1875000E+00 -0.4375000E+00  0.6250000E-01  0.2343750E-01
      1          5.861774        6.716888   1.000000   1.000000
      2          6.688990        7.888382   1.000000   1.000000
      3          7.576316        8.907267   1.000000   1.000000
      4          8.442593       10.158741   1.000000   1.000000
      5          9.627620       11.467751   1.000000   0.000000
      6         12.007069       13.147587   0.000000   0.000000
      7         19.784030       20.349029   0.000000   0.000000
      8         26.778155       27.083339   0.000000   0.000000
      9         28.145443       28.481953   0.000000   0.000000
     10         34.036921       34.214685   0.000000   0.000000
     11         42.387605       42.540865   0.000000   0.000000
     12         44.495976       44.939628   0.000000   0.000000
 
 -0.3125000E+00 -0.3125000E+00  0.6250000E-01  0.1171875E-01
      1          5.228012        5.910024   1.000000   1.000000
      2          6.171938        7.471796   1.000000   1.000000
      3          8.754115        9.929883   1.000000   1.000000
      4          9.123491       10.882503   1.000000   0.000000
      5          9.505047       11.321164   1.000000   0.000000
      6          9.945201       11.408163   1.000000   0.000000
      7         25.558517       25.916706   0.000000   0.000000
      8         26.292812       26.630628   0.000000   0.000000
      9         27.415607       27.658692   0.000000   0.000000
     10         31.397424       31.688801   0.000000   0.000000
     11         35.583256       36.023425   0.000000   0.000000
     12         47.318075       50.796291   0.000000   0.000000
 
 -0.1875000E+00 -0.3125000E+00  0.6250000E-01  0.2343750E-01
      1          5.024066        5.310764   1.000000   1.000000
      2          6.594477        7.926250   1.000000   1.000000
      3          7.755306        9.258440   1.000000   1.000000
      4          8.651387       10.340666   1.000000   0.879233
      5          9.124693       10.827228   1.000000   0.000000
      6          9.809990       11.521746   1.000000   0.000000
      7         25.268918       25.644362   0.000000   0.000000
      8         27.772895       28.051711   0.000000   0.000000
      9         29.850969       30.123661   0.000000   0.000000
     10         33.948219       34.131838   0.000000   0.000000
     11         38.572365       39.002943   0.000000   0.000000
     12         45.501655       45.645090   0.000000   0.000000
 
 -0.1875000E+00 -0.1875000E+00  0.6250000E-01  0.1171875E-01
      1          3.751940        3.817231   1.000000   1.000000
      2          6.871730        8.279979   1.000000   1.000000
      3          8.041579        9.691258   1.000000   1.000000
      4          8.382095       10.009775   1.000000   1.000000
      5          8.592840       10.232518   1.000000   0.999988
      6          9.118487       11.028469   1.000000   0.000000
      7         28.997782       29.280797   0.000000   0.000000
      8         31.055266       31.370009   0.000000   0.000000
      9         31.697601       31.735896   0.000000   0.000000
     10         33.243628       33.396038   0.000000   0.000000
     11         38.350445       38.967027   0.000000   0.000000
     12         46.266534       46.245530   0.000000   0.000000
 
  0.1875000E+00  0.1875000E+00  0.1875000E+00  0.3906250E-02
      1          2.707725        2.724921   1.000000   1.000000
      2          7.405225        8.846123   1.000000   1.000000
      3          7.895683        9.496727   1.000000   1.000000
      4          7.895683        9.496727   1.000000   1.000000
      5          8.763427       10.614448   1.000000   0.000000
      6          8.763427       10.614448   1.000000   0.000000
      7         28.202023       28.491526   0.000000   0.000000
      8         34.244875       34.012127   0.000000   0.000000
      9         36.513512       36.807839   0.000000   0.000000
     10         36.513512       36.807839   0.000000   0.000000
     11         41.935492       41.838296   0.000000   0.000000
     12         42.397305       42.498740   0.000000   0.000000
 
  0.3125000E+00  0.1875000E+00  0.1875000E+00  0.1171875E-01
      1          3.768306        3.824302   1.000000   1.000000
      2          7.157962        8.549558   1.000000   1.000000
      3          7.841567        9.441183   1.000000   1.000000
      4          8.130303        9.777386   1.000000   1.000000
      5          8.474657       10.259953   1.000000   0.999724
      6          9.359324       11.174942   1.000000   0.000000
      7         26.526553       26.886900   0.000000   0.000000
      8         29.220314       29.458322   0.000000   0.000000
      9         36.825521       36.781004   0.000000   0.000000
     10         38.781470       38.734106   0.000000   0.000000
     11         38.937916       39.111459   0.000000   0.000000
     12         40.923954       41.283101   0.000000   0.000000
 
  0.4375000E+00  0.1875000E+00  0.1875000E+00  0.1171875E-01
      1          5.356983        5.632433   1.000000   1.000000
      2          7.046791        8.327201   1.000000   1.000000
      3          7.469173        9.010339   1.000000   1.000000
      4          8.189200        9.933570   1.000000   1.000000
      5          8.723834       10.431704   1.000000   0.080188
      6         10.515328       12.148173   0.000082   0.000000
      7         23.040224       23.521169   0.000000   0.000000
      8         25.891924       26.235673   0.000000   0.000000
      9         34.868611       34.860062   0.000000   0.000000
     10         35.454660       35.780906   0.000000   0.000000
     11         40.736033       40.672611   0.000000   0.000000
     12         42.522909       42.749583   0.000000   0.000000
 
 -0.4375000E+00  0.1875000E+00  0.1875000E+00  0.1171875E-01
      1          5.895709        6.793538   1.000000   1.000000
      2          7.071497        8.381444   1.000000   1.000000
      3          7.725083        8.900475   1.000000   1.000000
      4          8.072680        9.781523   1.000000   1.000000
      5          9.363639       11.163173   1.000000   0.000000
      6         12.531056       13.602449   0.000000   0.000000
      7         18.013685       18.754037   0.000000   0.000000
      8         26.133668       26.461500   0.000000   0.000000
      9         32.359651       32.685208   0.000000   0.000000
     10         33.238866       33.287281   0.000000   0.000000