<?xml version="1.0" encoding="ISO-8859-1"?>
<modeling>
 <generator>
  <i name="program" type="string">vasp </i>
  <i name="version" type="string">6.3.2  </i>
  <i name="subversion" type="string">27Jun22 (build Aug 12 2022 00:53:59) complex                          parallel </i>
  <i name="platform" type="string">tv2STD </i>
  <i name="date" type="string">2024 11 30 </i>
  <i name="time" type="string">15:14:46 </i>
 </generator>
 <incar>
  <i type="string" name="SYSTEM">Co-fcc</i>
  <i type="int" name="ISTART">     0</i>
  <i type="string" name="PREC">Accurate      normal | accurate</i>
  <i type="string" name="ALGO">Normal     Normal, Fast, Very_Fast</i>
  <i type="logical" name="ADDGRID"> F  </i>
  <i type="int" name="ISPIN">     2</i>
  <i type="int" name="ICHARG">     2</i>
  <i type="int" name="INIWAV">     1</i>
  <i type="int" name="NELM">   100</i>
  <i type="int" name="IBRION">    -1</i>
  <i name="EDIFF">      0.00000100</i>
  <i name="EDIFFG">     -0.02000000</i>
  <i type="int" name="NSW">     0</i>
  <i type="int" name="ISIF">     2</i>
  <i type="int" name="ISYM">     1</i>
  <i name="ENCUT">    400.00000000</i>
  <v name="MAGMOM">      3.00000000</v>
  <i type="logical" name="LREAL"> F  </i>
  <i type="int" name="ISMEAR">     0</i>
  <i name="SIGMA">      0.05000000</i>
  <i type="int" name="NWRITE">     2</i>
  <i type="logical" name="LWAVE"> F  </i>
  <i type="logical" name="LCHARG"> F  </i>
 </incar>
 <primitive_cell>
  <structure name="primitive_cell" >
   <crystal>
    <varray name="basis" >
     <v>       0.00000000       1.75500000       1.75500000 </v>
     <v>       1.75500000       0.00000000       1.75500000 </v>
     <v>       1.75500000       1.75500000       0.00000000 </v>
    </varray>
    <i name="volume">     10.81088775 </i>
    <varray name="rec_basis" >
     <v>      -0.28490028       0.28490028       0.28490028 </v>
     <v>       0.28490028      -0.28490028       0.28490028 </v>
     <v>       0.28490028       0.28490028      -0.28490028 </v>
    </varray>
   </crystal>
   <varray name="positions" >
    <v>       0.00000000       0.00000000       0.00000000 </v>
   </varray>
  </structure>
  <varray name="primitive_index" >
   <v type="int" >        1 </v>
  </varray>
 </primitive_cell>
 <kpoints>
  <generation param="Monkhorst-Pack">
   <v type="int" name="divisions">       8        8        8 </v>
   <v name="usershift">      0.00000000       0.00000000       0.00000000 </v>
   <v name="genvec1">      0.12500000       0.00000000       0.00000000 </v>
   <v name="genvec2">      0.00000000       0.12500000       0.00000000 </v>
   <v name="genvec3">      0.00000000       0.00000000       0.12500000 </v>
   <v name="shift">      0.50000000       0.50000000       0.50000000 </v>
  </generation>
  <varray name="kpointlist" >
   <v>       0.06250000       0.06250000       0.06250000 </v>
   <v>       0.18750000       0.06250000       0.06250000 </v>
   <v>       0.31250000       0.06250000       0.06250000 </v>
   <v>       0.43750000       0.06250000       0.06250000 </v>
   <v>      -0.43750000       0.06250000       0.06250000 </v>
   <v>      -0.31250000       0.06250000       0.06250000 </v>
   <v>      -0.18750000       0.06250000       0.06250000 </v>
   <v>      -0.06250000       0.06250000       0.06250000 </v>
   <v>       0.18750000       0.18750000       0.06250000 </v>
   <v>       0.31250000       0.18750000       0.06250000 </v>
   <v>       0.43750000       0.18750000       0.06250000 </v>
   <v>      -0.43750000       0.18750000       0.06250000 </v>
   <v>      -0.31250000       0.18750000       0.06250000 </v>
   <v>      -0.18750000       0.18750000       0.06250000 </v>
   <v>      -0.06250000       0.18750000       0.06250000 </v>
   <v>       0.31250000       0.31250000       0.06250000 </v>
   <v>       0.43750000       0.31250000       0.06250000 </v>
   <v>      -0.43750000       0.31250000       0.06250000 </v>
   <v>      -0.31250000       0.31250000       0.06250000 </v>
   <v>      -0.18750000       0.31250000       0.06250000 </v>
   <v>      -0.06250000       0.31250000       0.06250000 </v>
   <v>       0.43750000       0.43750000       0.06250000 </v>
   <v>      -0.43750000       0.43750000       0.06250000 </v>
   <v>      -0.31250000       0.43750000       0.06250000 </v>
   <v>      -0.18750000       0.43750000       0.06250000 </v>
   <v>      -0.06250000       0.43750000       0.06250000 </v>
   <v>      -0.43750000      -0.43750000       0.06250000 </v>
   <v>      -0.31250000      -0.43750000       0.06250000 </v>
   <v>      -0.18750000      -0.43750000       0.06250000 </v>
   <v>      -0.31250000      -0.31250000       0.06250000 </v>
   <v>      -0.18750000      -0.31250000       0.06250000 </v>
   <v>      -0.18750000      -0.18750000       0.06250000 </v>
   <v>       0.18750000       0.18750000       0.18750000 </v>
   <v>       0.31250000       0.18750000       0.18750000 </v>
   <v>       0.43750000       0.18750000       0.18750000 </v>
   <v>      -0.43750000       0.18750000       0.18750000 </v>
   <v>      -0.31250000       0.18750000       0.18750000 </v>
   <v>      -0.18750000       0.18750000       0.18750000 </v>
   <v>       0.31250000       0.31250000       0.18750000 </v>
   <v>       0.43750000       0.31250000       0.18750000 </v>
   <v>      -0.43750000       0.31250000       0.18750000 </v>
   <v>      -0.31250000       0.31250000       0.18750000 </v>
   <v>      -0.18750000       0.31250000       0.18750000 </v>
   <v>       0.43750000       0.43750000       0.18750000 </v>
   <v>      -0.43750000       0.43750000       0.18750000 </v>
   <v>      -0.31250000       0.43750000       0.18750000 </v>
   <v>      -0.18750000       0.43750000       0.18750000 </v>
   <v>      -0.43750000      -0.43750000       0.18750000 </v>
   <v>      -0.31250000      -0.43750000       0.18750000 </v>
   <v>      -0.31250000      -0.31250000       0.18750000 </v>
   <v>       0.31250000       0.31250000       0.31250000 </v>
   <v>       0.43750000       0.31250000       0.31250000 </v>
   <v>      -0.43750000       0.31250000       0.31250000 </v>
   <v>      -0.31250000       0.31250000       0.31250000 </v>
   <v>       0.43750000       0.43750000       0.31250000 </v>
   <v>      -0.43750000       0.43750000       0.31250000 </v>
   <v>      -0.31250000       0.43750000       0.31250000 </v>
   <v>      -0.43750000      -0.43750000       0.31250000 </v>
   <v>       0.43750000       0.43750000       0.43750000 </v>
   <v>      -0.43750000       0.43750000       0.43750000 </v>
  </varray>
  <varray name="weights" >
   <v>       0.00390625 </v>
   <v>       0.01171875 </v>
   <v>       0.01171875 </v>
   <v>       0.01171875 </v>
   <v>       0.01171875 </v>
   <v>       0.01171875 </v>
   <v>       0.01171875 </v>
   <v>       0.01171875 </v>
   <v>       0.01171875 </v>
   <v>       0.02343750 </v>
   <v>       0.02343750 </v>
   <v>       0.02343750 </v>
   <v>       0.02343750 </v>
   <v>       0.02343750 </v>
   <v>       0.02343750 </v>
   <v>       0.01171875 </v>
   <v>       0.02343750 </v>
   <v>       0.02343750 </v>
   <v>       0.02343750 </v>
   <v>       0.02343750 </v>
   <v>       0.02343750 </v>
   <v>       0.01171875 </v>
   <v>       0.02343750 </v>
   <v>       0.02343750 </v>
   <v>       0.02343750 </v>
   <v>       0.02343750 </v>
   <v>       0.01171875 </v>
   <v>       0.02343750 </v>
   <v>       0.02343750 </v>
   <v>       0.01171875 </v>
   <v>       0.02343750 </v>
   <v>       0.01171875 </v>
   <v>       0.00390625 </v>
   <v>       0.01171875 </v>
   <v>       0.01171875 </v>
   <v>       0.01171875 </v>
   <v>       0.01171875 </v>
   <v>       0.01171875 </v>
   <v>       0.01171875 </v>
   <v>       0.02343750 </v>
   <v>       0.02343750 </v>
   <v>       0.02343750 </v>
   <v>       0.02343750 </v>
   <v>       0.01171875 </v>
   <v>       0.02343750 </v>
   <v>       0.02343750 </v>
   <v>       0.02343750 </v>
   <v>       0.01171875 </v>
   <v>       0.02343750 </v>
   <v>       0.01171875 </v>
   <v>       0.00390625 </v>
   <v>       0.01171875 </v>
   <v>       0.01171875 </v>
   <v>       0.01171875 </v>
   <v>       0.01171875 </v>
   <v>       0.02343750 </v>
   <v>       0.02343750 </v>
   <v>       0.01171875 </v>
   <v>       0.00390625 </v>
   <v>       0.01171875 </v>
  </varray>
 </kpoints>
 <parameters>
  <separator name="general" >
   <i type="string" name="SYSTEM">Co-fcc</i>
   <i type="logical" name="LCOMPAT"> F  </i>
  </separator>
  <separator name="electronic" >
   <i type="string" name="PREC">accura</i>
   <i name="ENMAX">    400.00000000</i>
   <i name="ENAUG">    477.81800000</i>
   <i name="EDIFF">      0.00000100</i>
   <i type="int" name="IALGO">    38</i>
   <i type="int" name="IWAVPR">    10</i>
   <i type="int" name="NBANDS">    12</i>
   <i type="int" name="NBANDSLOW">    -1</i>
   <i type="int" name="NBANDSHIGH">    -1</i>
   <i name="NELECT">      9.00000000</i>
   <i type="int" name="TURBO">     0</i>
   <i type="int" name="IRESTART">     0</i>
   <i type="int" name="NREBOOT">     0</i>
   <i type="int" name="NMIN">     0</i>
   <i name="EREF">      0.00000000</i>
   <separator name="electronic smearing" >
    <i type="int" name="ISMEAR">     0</i>
    <i name="SIGMA">      0.05000000</i>
    <i name="KSPACING">      0.50000000</i>
    <i type="logical" name="KGAMMA"> T  </i>
    <i type="logical" name="KBLOWUP"> T  </i>
   </separator>
   <separator name="electronic projectors" >
    <i type="logical" name="LREAL"> F  </i>
    <v name="ROPT">      0.00000000</v>
    <i type="int" name="LMAXPAW">  -100</i>
    <i type="int" name="LMAXMIX">     2</i>
    <i type="logical" name="NLSPLINE"> F  </i>
   </separator>
   <separator name="electronic startup" >
    <i type="int" name="ISTART">     0</i>
    <i type="int" name="ICHARG">     2</i>
    <i type="int" name="INIWAV">     1</i>
   </separator>
   <separator name="electronic spin" >
    <i type="int" name="ISPIN">     2</i>
    <i type="logical" name="LNONCOLLINEAR"> F  </i>
    <v name="MAGMOM">      3.00000000</v>
    <i name="NUPDOWN">     -1.00000000</i>
    <i type="logical" name="LSORBIT"> F  </i>
    <v name="SAXIS">      0.00000000      0.00000000      1.00000000</v>
    <i type="logical" name="LSPIRAL"> F  </i>
    <v name="QSPIRAL">      0.00000000      0.00000000      0.00000000</v>
    <i type="logical" name="LZEROZ"> F  </i>
   </separator>
   <separator name="electronic exchange-correlation" >
    <i type="logical" name="LASPH"> F  </i>
    <i type="logical" name="LMETAGGA"> F  </i>
   </separator>
   <separator name="electronic convergence" >
    <i type="int" name="NELM">   100</i>
    <i type="int" name="NELMDL">    -5</i>
    <i type="int" name="NELMIN">     2</i>
    <i name="ENINI">    400.00000000</i>
    <separator name="electronic convergence detail" >
     <i type="logical" name="LDIAG"> T  </i>
     <i type="logical" name="LSUBROT"> F  </i>
     <i name="WEIMIN">      0.00000000</i>
     <i name="EBREAK">      0.00000002</i>
     <i name="DEPER">      0.30000000</i>
     <i type="int" name="NRMM">     4</i>
     <i name="TIME">      0.40000000</i>
    </separator>
   </separator>
   <separator name="electronic mixer" >
    <i name="AMIX">      0.40000000</i>
    <i name="BMIX">      1.00000000</i>
    <i name="AMIN">      0.10000000</i>
    <i name="AMIX_MAG">      1.60000000</i>
    <i name="BMIX_MAG">      1.00000000</i>
    <separator name="electronic mixer details" >
     <i type="int" name="IMIX">     4</i>
     <i type="logical" name="MIXFIRST"> F  </i>
     <i type="int" name="MAXMIX">   -45</i>
     <i name="WC">    100.00000000</i>
     <i type="int" name="INIMIX">     1</i>
     <i type="int" name="MIXPRE">     1</i>
     <i type="int" name="MREMOVE">     5</i>
    </separator>
   </separator>
   <separator name="electronic dipolcorrection" >
    <i type="logical" name="LDIPOL"> F  </i>
    <i type="logical" name="LMONO"> F  </i>
    <i type="int" name="IDIPOL">     0</i>
    <i name="EPSILON">      1.00000000</i>
    <v name="DIPOL">   -100.00000000   -100.00000000   -100.00000000</v>
    <i name="EFIELD">      0.00000000</i>
   </separator>
  </separator>
  <separator name="grids" >
   <i type="int" name="NGX">    16</i>
   <i type="int" name="NGY">    16</i>
   <i type="int" name="NGZ">    16</i>
   <i type="int" name="NGXF">    32</i>
   <i type="int" name="NGYF">    32</i>
   <i type="int" name="NGZF">    32</i>
   <i type="logical" name="ADDGRID"> F  </i>
  </separator>
  <separator name="ionic" >
   <i type="int" name="NSW">     0</i>
   <i type="int" name="IBRION">    -1</i>
   <i type="int" name="MDALGO">     0</i>
   <i type="int" name="ISIF">     2</i>
   <i name="PSTRESS">      0.00000000</i>
   <i name="EDIFFG">     -0.02000000</i>
   <i type="int" name="NFREE">     0</i>
   <i name="POTIM">      0.50000000</i>
   <i name="SMASS">     -3.00000000</i>
   <i name="SCALEE">      1.00000000</i>
  </separator>
  <separator name="ionic md" >
   <i name="TEBEG">      0.00010000</i>
   <i name="TEEND">      0.00010000</i>
   <i type="int" name="NBLOCK">     1</i>
   <i type="int" name="KBLOCK">     1</i>
   <i type="int" name="NPACO">   256</i>
   <i name="APACO">     10.00000000</i>
  </separator>
  <separator name="symmetry" >
   <i type="int" name="ISYM">     1</i>
   <i name="SYMPREC">      0.00001000</i>
  </separator>
  <separator name="dos" >
   <i type="int" name="LORBIT">     0</i>
   <v name="RWIGS">     -1.00000000</v>
   <i type="int" name="NEDOS">   301</i>
   <i name="EMIN">     10.00000000</i>
   <i name="EMAX">    -10.00000000</i>
   <i name="EFERMI">      0.00000000</i>
  </separator>
  <separator name="writing" >
   <i type="int" name="NWRITE">     2</i>
   <i type="logical" name="LWAVE"> F  </i>
   <i type="logical" name="LDOWNSAMPLE"> F  </i>
   <i type="logical" name="LCHARG"> F  </i>
   <i type="logical" name="LPARD"> F  </i>
   <i type="logical" name="LVTOT"> F  </i>
   <i type="logical" name="LVHAR"> F  </i>
   <i type="logical" name="LELF"> F  </i>
   <i type="logical" name="LOPTICS"> F  </i>
   <v name="STM">      0.00000000      0.00000000      0.00000000      0.00000000      0.00000000      0.00000000      0.00000000</v>
  </separator>
  <separator name="performance" >
   <i type="int" name="NPAR">     4</i>
   <i type="int" name="NSIM">     4</i>
   <i type="int" name="NBLK">    -1</i>
   <i type="logical" name="LPLANE"> T  </i>
   <i type="logical" name="LSCALAPACK"> T  </i>
   <i type="logical" name="LSCAAWARE"> T  </i>
   <i type="logical" name="LSCALU"> F  </i>
   <i type="logical" name="LASYNC"> F  </i>
   <i type="logical" name="LORBITALREAL"> F  </i>
  </separator>
  <separator name="miscellaneous" >
   <i type="int" name="IDIOT">     3</i>
   <i type="int" name="PHON_NSTRUCT">    -1</i>
   <i type="logical" name="LMUSIC"> F  </i>
   <v name="POMASS">     58.93300000</v>
   <v name="DARWINR">      0.00000000</v>
   <v name="DARWINV">      1.00000000</v>
   <i type="logical" name="LCORR"> T  </i>
  </separator>
  <i type="logical" name="GGA_COMPAT"> T  </i>
  <i type="logical" name="LBERRY"> F  </i>
  <i type="int" name="ICORELEVEL">     0</i>
  <i type="logical" name="LDAU"> F  </i>
  <i type="int" name="I_CONSTRAINED_M">     0</i>
  <separator name="electronic exchange-correlation" >
   <i type="string" name="GGA">--</i>
   <i type="int" name="VOSKOWN">     0</i>
   <i type="logical" name="LHFCALC"> F  </i>
   <i type="string" name="PRECFOCK"></i>
   <i type="logical" name="LSYMGRAD"> F  </i>
   <i type="logical" name="LHFONE"> F  </i>
   <i type="logical" name="LRHFCALC"> F  </i>
   <i type="logical" name="LTHOMAS"> F  </i>
   <i type="logical" name="LMODELHF"> F  </i>
   <i type="logical" name="LFOCKACE"> F  </i>
   <i name="ENCUT4O">     -1.00000000</i>
   <i type="int" name="EXXOEP">     0</i>
   <i type="int" name="FOURORBIT">     0</i>
   <i name="AEXX">      0.00000000</i>
   <i name="HFALPHA">      0.00000000</i>
   <i name="MCALPHA">      0.00000000</i>
   <i name="ALDAX">      1.00000000</i>
   <i name="AGGAX">      1.00000000</i>
   <i name="ALDAC">      1.00000000</i>
   <i name="AGGAC">      1.00000000</i>
   <i type="int" name="NKREDX">     1</i>
   <i type="int" name="NKREDY">     1</i>
   <i type="int" name="NKREDZ">     1</i>
   <i type="logical" name="SHIFTRED"> F  </i>
   <i type="logical" name="ODDONLY"> F  </i>
   <i type="logical" name="EVENONLY"> F  </i>
   <i type="int" name="LMAXFOCK">     0</i>
   <i type="int" name="NMAXFOCKAE">     0</i>
   <i type="logical" name="LFOCKAEDFT"> F  </i>
   <i name="HFSCREEN">      0.00000000</i>
   <i name="HFSCREENC">      0.00000000</i>
   <i type="int" name="NBANDSGWLOW">     0</i>
  </separator>
  <separator name="vdW DFT" >
   <i type="logical" name="LUSE_VDW"> F  </i>
   <i name="Zab_VDW">     -0.84910000</i>
   <i name="PARAM1">      0.12340000</i>
   <i name="PARAM2">      1.00000000</i>
   <i name="PARAM3">      0.00000000</i>
  </separator>
  <separator name="model GW" >
   <i type="int" name="MODEL_GW">     0</i>
   <i name="MODEL_EPS0">      6.48653265</i>
   <i name="MODEL_ALPHA">      1.00000000</i>
  </separator>
  <separator name="linear response parameters" >
   <i type="logical" name="LEPSILON"> F  </i>
   <i type="logical" name="LRPA"> F  </i>
   <i type="logical" name="LNABLA"> F  </i>
   <i type="logical" name="LVEL"> F  </i>
   <i name="CSHIFT">      0.10000000</i>
   <i name="OMEGAMAX">     -1.00000000</i>
   <i name="DEG_THRESHOLD">      0.00200000</i>
   <i name="RTIME">     -0.10000000</i>
   <i name="WPLASMAI">      0.00000000</i>
   <v name="DFIELD">      0.00000000      0.00000000      0.00000000</v>
   <v name="WPLASMA">      0.00000000      0.00000000      0.00000000      0.00000000      0.00000000      0.00000000      0.00000000      0.00000000      0.00000000</v>
  </separator>
  <separator name="orbital magnetization" >
   <i type="logical" name="NUCIND"> F  </i>
   <v name="MAGPOS">      0.00000000      0.00000000      0.00000000</v>
   <i type="logical" name="LNICSALL"> T  </i>
   <i type="logical" name="ORBITALMAG"> F  </i>
   <i type="logical" name="LMAGBLOCH"> F  </i>
   <i type="logical" name="LCHIMAG"> F  </i>
   <i type="logical" name="LGAUGE"> T  </i>
   <i type="int" name="MAGATOM">     0</i>
   <v name="MAGDIPOL">      0.00000000      0.00000000      0.00000000</v>
   <v name="AVECCONST">      0.00000000      0.00000000      0.00000000</v>
  </separator>
  <separator name="response functions" >
   <i type="logical" name="LFINITE_TEMPERATURE"> F  </i>
   <i type="logical" name="LADDER"> F  </i>
   <i type="logical" name="LRPAFORCE"> F  </i>
   <i type="logical" name="LFXC"> F  </i>
   <i type="logical" name="LHARTREE"> T  </i>
   <i type="int" name="IBSE">     0</i>
   <v type="int" name="KPOINT">    -1     0     0     0</v>
   <i type="logical" name="LTCTC"> F  </i>
   <i type="logical" name="LTCTE"> F  </i>
   <i type="logical" name="LTETE"> F  </i>
   <i type="logical" name="LTRIPLET"> F  </i>
   <i type="logical" name="LFXCEPS"> F  </i>
   <i type="logical" name="LFXHEG"> F  </i>
   <i type="int" name="NATURALO">     2</i>
   <i type="logical" name="LHOLEGF"> F  </i>
   <i type="logical" name="L2ORDER"> F  </i>
   <i type="logical" name="LDMP1"> F  </i>
   <i type="logical" name="LMP2LT"> F  </i>
   <i type="logical" name="LSMP2LT"> F  </i>
   <i type="logical" name="LGWLF"> F  </i>
   <i name="ENCUTGW">     -2.00000000</i>
   <i name="ENCUTGWSOFT">     -2.00000000</i>
   <i name="ENCUTLF">     -1.00000000</i>
   <i type="logical" name="LESF_SPLINES"> F  </i>
   <i type="int" name="LMAXMP2">    -1</i>
   <i name="SCISSOR">      0.00000000</i>
   <i type="int" name="NOMEGA">     0</i>
   <i type="int" name="NOMEGAR">     0</i>
   <i type="int" name="NBANDSGW">    -1</i>
   <i type="int" name="NBANDSO">    -1</i>
   <i type="int" name="NBANDSV">    -1</i>
   <i type="int" name="NELMGW">     1</i>
   <i type="int" name="NELMHF">     1</i>
   <i type="int" name="DIM">     3</i>
   <i type="int" name="IESPILON">     4</i>
   <i type="int" name="ANTIRES">     0</i>
   <i name="OMEGAMAX">    -30.00000000</i>
   <i name="OMEGAMIN">    -30.00000000</i>
   <i name="OMEGATL">   -200.00000000</i>
   <i type="int" name="OMEGAGRID">     0</i>
   <i name="CSHIFT">     -0.10000000</i>
   <i type="logical" name="LSELFENERGY"> F  </i>
   <i type="logical" name="LSPECTRAL"> F  </i>
   <i type="logical" name="LSPECTRALGW"> F  </i>
   <i type="logical" name="LSINGLES"> F  </i>
   <i type="logical" name="LFERMIGW"> F  </i>
   <i type="logical" name="ODDONLYGW"> F  </i>
   <i type="logical" name="EVENONLYGW"> F  </i>
   <i type="int" name="NKREDLFX">     1</i>
   <i type="int" name="NKREDLFY">     1</i>
   <i type="int" name="NKREDLFZ">     1</i>
   <i type="int" name="MAXMEM">  2800</i>
   <i type="int" name="TELESCOPE">     0</i>
   <i type="int" name="NTAUPAR">    -1</i>
   <i type="int" name="NOMEGAPAR">    -1</i>
   <i name="DAMP_NEWTON">      0.80000001</i>
   <i name="LAMBDA">      1.00000000</i>
  </separator>
  <separator name="External order field" >
   <i name="OFIELD_KAPPA">      0.00000000</i>
   <v name="OFIELD_K">      0.00000000      0.00000000      0.00000000</v>
   <i name="OFIELD_Q6_NEAR">      0.00000000</i>
   <i name="OFIELD_Q6_FAR">      0.00000000</i>
   <i name="OFIELD_A">      0.00000000</i>
  </separator>
  <separator name="optional k-points parameters" >
   <i type="int" name="KPOINTS_OPT_MODE">     1</i>
   <i type="logical" name="LKPOINTS_OPT"> F  </i>
  </separator>
 </parameters>
 <atominfo>
  <atoms>       1 </atoms>
  <types>       1 </types>
  <array name="atoms" >
   <dimension dim="1">ion</dimension>
   <field type="string">element</field>
   <field type="int">atomtype</field>
   <set>
    <rc><c>Co</c><c>   1</c></rc>
   </set>
  </array>
  <array name="atomtypes" >
   <dimension dim="1">type</dimension>
   <field type="int">atomspertype</field>
   <field type="string">element</field>
   <field>mass</field>
   <field>valence</field>
   <field type="string">pseudopotential</field>
   <set>
    <rc><c>   1</c><c>Co</c><c>     58.93300000</c><c>      9.00000000</c><c>  PAW_PBE Co 02Aug2007                  </c></rc>
   </set>
  </array>
 </atominfo>
 <structure name="initialpos" >
  <crystal>
   <varray name="basis" >
    <v>       0.00000000       1.75500000       1.75500000 </v>
    <v>       1.75500000       0.00000000       1.75500000 </v>
    <v>       1.75500000       1.75500000       0.00000000 </v>
   </varray>
   <i name="volume">     10.81088775 </i>
   <varray name="rec_basis" >
    <v>      -0.28490028       0.28490028       0.28490028 </v>
    <v>       0.28490028      -0.28490028       0.28490028 </v>
    <v>       0.28490028       0.28490028      -0.28490028 </v>
   </varray>
  </crystal>
  <varray name="positions" >
   <v>       0.00000000       0.00000000       0.00000000 </v>
  </varray>
 </structure>
 <calculation>
  <scstep>
   <time name="dav">    0.27    0.27</time>
   <time name="total">    0.28    0.28</time>
   <energy>
    <i name="alphaZ">     39.18058524 </i>
    <i name="ewald">   -761.78120824 </i>
    <i name="hartreedc">   -149.59159932 </i>
    <i name="XCdc">     17.82600435 </i>
    <i name="pawpsdc">    719.99081943 </i>
    <i name="pawaedc">   -772.94345096 </i>
    <i name="eentropy">     -0.00068515 </i>
    <i name="bandstr">    117.44107321 </i>
    <i name="atom">    813.35773410 </i>
    <i name="e_fr_energy">     23.47927267 </i>
    <i name="e_wo_entrp">     23.47995782 </i>
    <i name="e_0_energy">     23.47961524 </i>
   </energy>
  </scstep>
  <scstep>
   <time name="dav">    0.26    0.26</time>
   <time name="total">    0.26    0.27</time>
   <energy>
    <i name="e_fr_energy">     -7.05456733 </i>
    <i name="e_wo_entrp">     -7.05324004 </i>
    <i name="e_0_energy">     -7.05390369 </i>
   </energy>
  </scstep>
  <scstep>
   <time name="dav">    0.28    0.28</time>
   <time name="total">    0.28    0.28</time>
   <energy>
    <i name="e_fr_energy">     -7.80094982 </i>
    <i name="e_wo_entrp">     -7.79986685 </i>
    <i name="e_0_energy">     -7.80040833 </i>
   </energy>
  </scstep>
  <scstep>
   <time name="dav">    0.28    0.28</time>
   <time name="total">    0.28    0.28</time>
   <energy>
    <i name="e_fr_energy">     -7.80847079 </i>
    <i name="e_wo_entrp">     -7.80738932 </i>
    <i name="e_0_energy">     -7.80793006 </i>
   </energy>
  </scstep>
  <scstep>
   <time name="dav">    0.31    0.31</time>
   <time name="total">    0.32    0.33</time>
   <energy>
    <i name="e_fr_energy">     -7.80865997 </i>
    <i name="e_wo_entrp">     -7.80757846 </i>
    <i name="e_0_energy">     -7.80811921 </i>
   </energy>
  </scstep>
  <scstep>
   <time name="dav">    0.30    0.30</time>
   <time name="total">    0.32    0.32</time>
   <energy>
    <i name="e_fr_energy">     -7.20327077 </i>
    <i name="e_wo_entrp">     -7.20155464 </i>
    <i name="e_0_energy">     -7.20241271 </i>
   </energy>
  </scstep>
  <scstep>
   <time name="dav">    0.29    0.29</time>
   <time name="total">    0.31    0.31</time>
   <energy>
    <i name="e_fr_energy">     -7.03675852 </i>
    <i name="e_wo_entrp">     -7.03533153 </i>
    <i name="e_0_energy">     -7.03604502 </i>
   </energy>
  </scstep>
  <scstep>
   <time name="dav">    0.30    0.31</time>
   <time name="total">    0.32    0.32</time>
   <energy>
    <i name="e_fr_energy">     -7.02560991 </i>
    <i name="e_wo_entrp">     -7.02417780 </i>
    <i name="e_0_energy">     -7.02489386 </i>
   </energy>
  </scstep>
  <scstep>
   <time name="dav">    0.35    0.36</time>
   <time name="total">    0.37    0.37</time>
   <energy>
    <i name="e_fr_energy">     -7.01970359 </i>
    <i name="e_wo_entrp">     -7.01823314 </i>
    <i name="e_0_energy">     -7.01896836 </i>
   </energy>
  </scstep>
  <scstep>
   <time name="dav">    0.34    0.34</time>
   <time name="total">    0.35    0.36</time>
   <energy>
    <i name="e_fr_energy">     -7.01913350 </i>
    <i name="e_wo_entrp">     -7.01764713 </i>
    <i name="e_0_energy">     -7.01839032 </i>
   </energy>
  </scstep>
  <scstep>
   <time name="dav">    0.29    0.30</time>
   <time name="total">    0.31    0.31</time>
   <energy>
    <i name="e_fr_energy">     -7.01913403 </i>
    <i name="e_wo_entrp">     -7.01764813 </i>
    <i name="e_0_energy">     -7.01839108 </i>
   </energy>
  </scstep>
  <scstep>
   <time name="dav">    0.28    0.29</time>
   <time name="total">    0.29    0.29</time>
   <energy>
    <i name="alphaZ">     39.18058524 </i>
    <i name="ewald">   -761.78120824 </i>
    <i name="hartreedc">   -131.96148679 </i>
    <i name="XCdc">     16.41073682 </i>
    <i name="pawpsdc">    904.64254639 </i>
    <i name="pawaedc">   -957.66386511 </i>
    <i name="eentropy">     -0.00148737 </i>
    <i name="bandstr">     70.79731053 </i>
    <i name="atom">    813.35773410 </i>
    <i name="e_fr_energy">     -7.01913443 </i>
    <i name="e_wo_entrp">     -7.01764706 </i>
    <i name="e_0_energy">     -7.01839074 </i>
   </energy>
  </scstep>
  <structure>
   <crystal>
    <varray name="basis" >
     <v>       0.00000000       1.75500000       1.75500000 </v>
     <v>       1.75500000       0.00000000       1.75500000 </v>
     <v>       1.75500000       1.75500000       0.00000000 </v>
    </varray>
    <i name="volume">     10.81088775 </i>
    <varray name="rec_basis" >
     <v>      -0.28490028       0.28490028       0.28490028 </v>
     <v>       0.28490028      -0.28490028       0.28490028 </v>
     <v>       0.28490028       0.28490028      -0.28490028 </v>
    </varray>
   </crystal>
   <varray name="positions" >
    <v>       0.00000000       0.00000000       0.00000000 </v>
   </varray>
  </structure>
  <varray name="forces" >
   <v>       0.00000000       0.00000000       0.00000000 </v>
  </varray>
  <varray name="stress" >
   <v>      -3.07277968      -0.00000000       0.00000000 </v>
   <v>       0.00000000      -3.07277968       0.00000000 </v>
   <v>       0.00000000       0.00000000      -3.07277968 </v>
  </varray>
  <energy>
   <i name="e_fr_energy">     -7.01913443 </i>
   <i name="e_wo_entrp">     -7.01764706 </i>
   <i name="e_0_energy">     -7.01839074 </i>
  </energy>
  <time name="totalsc">    3.77    3.80</time>
  <eigenvalues>
   <array>
    <dimension dim="1">band</dimension>
    <dimension dim="2">kpoint</dimension>
    <dimension dim="3">spin</dimension>
    <field>eigene</field>
    <field>occ</field>
    <set>
     <set comment="spin 1">
      <set comment="kpoint 1">
       <r>    1.5313    1.0000 </r>
       <r>    7.6473    1.0000 </r>
       <r>    7.7289    1.0000 </r>
       <r>    7.7289    1.0000 </r>
       <r>    8.7607    1.0000 </r>
       <r>    8.7607    1.0000 </r>
       <r>   33.1312    0.0000 </r>
       <r>   36.0963    0.0000 </r>
       <r>   37.5871    0.0000 </r>
       <r>   37.5871    0.0000 </r>
       <r>   41.4996    0.0000 </r>
       <r>   41.4997    0.0000 </r>
      </set>
      <set comment="kpoint 2">
       <r>    2.3335    1.0000 </r>
       <r>    7.4333    1.0000 </r>
       <r>    7.8879    1.0000 </r>
       <r>    7.8930    1.0000 </r>
       <r>    8.6047    1.0000 </r>
       <r>    8.8508    1.0000 </r>
       <r>   30.3219    0.0000 </r>
       <r>   32.9623    0.0000 </r>
       <r>   36.4828    0.0000 </r>
       <r>   38.6078    0.0000 </r>
       <r>   40.3724    0.0000 </r>
       <r>   41.6245    0.0000 </r>
      </set>
      <set comment="kpoint 3">
       <r>    4.0158    1.0000 </r>
       <r>    7.3216    1.0000 </r>
       <r>    7.8327    1.0000 </r>
       <r>    7.9073    1.0000 </r>
       <r>    8.8190    1.0000 </r>
       <r>    9.2556    1.0000 </r>
       <r>   24.2282    0.0000 </r>
       <r>   31.8647    0.0000 </r>
       <r>   35.4308    0.0000 </r>
       <r>   38.1761    0.0000 </r>
       <r>   39.3576    0.0000 </r>
       <r>   40.3553    0.0000 </r>
      </set>
      <set comment="kpoint 4">
       <r>    5.1485    1.0000 </r>
       <r>    7.6011    1.0000 </r>
       <r>    7.7003    1.0000 </r>
       <r>    8.3914    1.0000 </r>
       <r>    9.3766    1.0000 </r>
       <r>   10.0499    1.0000 </r>
       <r>   18.8676    0.0000 </r>
       <r>   31.3662    0.0000 </r>
       <r>   34.1922    0.0000 </r>
       <r>   36.0217    0.0000 </r>
       <r>   38.5058    0.0000 </r>
       <r>   40.0824    0.0000 </r>
      </set>
      <set comment="kpoint 5">
       <r>    5.2719    1.0000 </r>
       <r>    7.5048    1.0000 </r>
       <r>    7.6468    1.0000 </r>
       <r>    8.9671    1.0000 </r>
       <r>    9.6602    1.0000 </r>
       <r>   10.8446    0.0000 </r>
       <r>   16.7073    0.0000 </r>
       <r>   31.4694    0.0000 </r>
       <r>   34.1599    0.0000 </r>
       <r>   34.3324    0.0000 </r>
       <r>   39.3320    0.0000 </r>
       <r>   39.3635    0.0000 </r>
      </set>
      <set comment="kpoint 6">
       <r>    4.9344    1.0000 </r>
       <r>    7.6387    1.0000 </r>
       <r>    7.7900    1.0000 </r>
       <r>    7.8609    1.0000 </r>
       <r>    9.4527    1.0000 </r>
       <r>    9.5130    1.0000 </r>
       <r>   20.4915    0.0000 </r>
       <r>   32.1943    0.0000 </r>
       <r>   33.6232    0.0000 </r>
       <r>   36.0481    0.0000 </r>
       <r>   39.1820    0.0000 </r>
       <r>   41.0514    0.0000 </r>
      </set>
      <set comment="kpoint 7">
       <r>    3.4122    1.0000 </r>
       <r>    7.2735    1.0000 </r>
       <r>    7.8970    1.0000 </r>
       <r>    7.9559    1.0000 </r>
       <r>    8.7481    1.0000 </r>
       <r>    9.0100    1.0000 </r>
       <r>   26.2394    0.0000 </r>
       <r>   33.2724    0.0000 </r>
       <r>   34.1741    0.0000 </r>
       <r>   38.6973    0.0000 </r>
       <r>   38.9913    0.0000 </r>
       <r>   43.3049    0.0000 </r>
      </set>
      <set comment="kpoint 8">
       <r>    1.9392    1.0000 </r>
       <r>    7.5034    1.0000 </r>
       <r>    7.8393    1.0000 </r>
       <r>    7.8437    1.0000 </r>
       <r>    8.6245    1.0000 </r>
       <r>    8.8277    1.0000 </r>
       <r>   32.1073    0.0000 </r>
       <r>   34.5377    0.0000 </r>
       <r>   35.5678    0.0000 </r>
       <r>   37.4334    0.0000 </r>
       <r>   41.4367    0.0000 </r>
       <r>   43.2716    0.0000 </r>
      </set>
      <set comment="kpoint 9">
       <r>    2.7166    1.0000 </r>
       <r>    7.2254    1.0000 </r>
       <r>    8.0359    1.0000 </r>
       <r>    8.0666    1.0000 </r>
       <r>    8.4393    1.0000 </r>
       <r>    8.9523    1.0000 </r>
       <r>   30.6295    0.0000 </r>
       <r>   33.1132    0.0000 </r>
       <r>   33.2697    0.0000 </r>
       <r>   35.4975    0.0000 </r>
       <r>   41.1078    0.0000 </r>
       <r>   43.7787    0.0000 </r>
      </set>
      <set comment="kpoint 10">
       <r>    4.0742    1.0000 </r>
       <r>    6.9221    1.0000 </r>
       <r>    7.8185    1.0000 </r>
       <r>    8.3267    1.0000 </r>
       <r>    8.7102    1.0000 </r>
       <r>    9.3349    1.0000 </r>
       <r>   26.7893    0.0000 </r>
       <r>   29.3975    0.0000 </r>
       <r>   33.1738    0.0000 </r>
       <r>   35.1755    0.0000 </r>
       <r>   39.9789    0.0000 </r>
       <r>   43.5503    0.0000 </r>
      </set>
      <set comment="kpoint 11">
       <r>    5.4459    1.0000 </r>
       <r>    7.0442    1.0000 </r>
       <r>    7.5101    1.0000 </r>
       <r>    8.1686    1.0000 </r>
       <r>    9.4203    1.0000 </r>
       <r>   10.5379    0.0000 </r>
       <r>   20.9995    0.0000 </r>
       <r>   28.7852    0.0000 </r>
       <r>   30.7801    0.0000 </r>
       <r>   34.8208    0.0000 </r>
       <r>   41.5273    0.0000 </r>
       <r>   44.0055    0.0000 </r>
      </set>
      <set comment="kpoint 12">
       <r>    5.7477    1.0000 </r>
       <r>    7.0788    1.0000 </r>
       <r>    7.9525    1.0000 </r>
       <r>    8.0183    1.0000 </r>
       <r>    9.6231    1.0000 </r>
       <r>   12.7055    0.0000 </r>
       <r>   16.8975    0.0000 </r>
       <r>   28.1926    0.0000 </r>
       <r>   30.0645    0.0000 </r>
       <r>   34.6123    0.0000 </r>
       <r>   40.6659    0.0000 </r>
       <r>   44.3263    0.0000 </r>
      </set>
      <set comment="kpoint 13">
       <r>    5.6812    1.0000 </r>
       <r>    7.2278    1.0000 </r>
       <r>    7.5811    1.0000 </r>
       <r>    8.0564    1.0000 </r>
       <r>    9.3011    1.0000 </r>
       <r>   11.3899    0.0000 </r>
       <r>   19.3355    0.0000 </r>
       <r>   27.3804    0.0000 </r>
       <r>   31.6278    0.0000 </r>
       <r>   35.7159    0.0000 </r>
       <r>   40.0331    0.0000 </r>
       <r>   43.7140    0.0000 </r>
      </set>
      <set comment="kpoint 14">
       <r>    4.6566    1.0000 </r>
       <r>    6.9971    1.0000 </r>
       <r>    7.6432    1.0000 </r>
       <r>    8.2594    1.0000 </r>
       <r>    8.6418    1.0000 </r>
       <r>    9.8380    1.0000 </r>
       <r>   24.7924    0.0000 </r>
       <r>   27.5309    0.0000 </r>
       <r>   34.1593    0.0000 </r>
       <r>   37.6665    0.0000 </r>
       <r>   39.4996    0.0000 </r>
       <r>   42.5354    0.0000 </r>
      </set>
      <set comment="kpoint 15">
       <r>    3.0824    1.0000 </r>
       <r>    7.2233    1.0000 </r>
       <r>    7.9329    1.0000 </r>
       <r>    8.0694    1.0000 </r>
       <r>    8.5178    1.0000 </r>
       <r>    9.0413    1.0000 </r>
       <r>   28.4871    0.0000 </r>
       <r>   31.1297    0.0000 </r>
       <r>   35.5573    0.0000 </r>
       <r>   37.3519    0.0000 </r>
       <r>   40.8855    0.0000 </r>
       <r>   42.3000    0.0000 </r>
      </set>
      <set comment="kpoint 16">
       <r>    4.7456    1.0000 </r>
       <r>    6.5021    1.0000 </r>
       <r>    8.1427    1.0000 </r>
       <r>    8.7557    1.0000 </r>
       <r>    9.0928    1.0000 </r>
       <r>    9.3069    1.0000 </r>
       <r>   27.3763    0.0000 </r>
       <r>   29.0658    0.0000 </r>
       <r>   29.1345    0.0000 </r>
       <r>   31.9590    0.0000 </r>
       <r>   36.5502    0.0000 </r>
       <r>   47.2914    0.0000 </r>
      </set>
      <set comment="kpoint 17">
       <r>    5.4784    1.0000 </r>
       <r>    6.2946    1.0000 </r>
       <r>    8.0845    1.0000 </r>
       <r>    9.0011    1.0000 </r>
       <r>    9.4684    1.0000 </r>
       <r>   10.7977    0.0000 </r>
       <r>   23.9651    0.0000 </r>
       <r>   25.9161    0.0000 </r>
       <r>   26.8999    0.0000 </r>
       <r>   33.2028    0.0000 </r>
       <r>   37.6934    0.0000 </r>
       <r>   46.8744    0.0000 </r>
      </set>
      <set comment="kpoint 18">
       <r>    5.9656    1.0000 </r>
       <r>    6.4298    1.0000 </r>
       <r>    7.7818    1.0000 </r>
       <r>    8.7184    1.0000 </r>
       <r>    9.6876    1.0000 </r>
       <r>   13.9694    0.0000 </r>
       <r>   18.8650    0.0000 </r>
       <r>   23.7344    0.0000 </r>
       <r>   27.0862    0.0000 </r>
       <r>   33.6451    0.0000 </r>
       <r>   42.5917    0.0000 </r>
       <r>   45.4054    0.0000 </r>
      </set>
      <set comment="kpoint 19">
       <r>    6.4462    1.0000 </r>
       <r>    6.6014    1.0000 </r>
       <r>    7.3258    1.0000 </r>
       <r>    8.5186    1.0000 </r>
       <r>    9.3704    1.0000 </r>
       <r>   14.2843    0.0000 </r>
       <r>   18.7075    0.0000 </r>
       <r>   22.4194    0.0000 </r>
       <r>   28.8128    0.0000 </r>
       <r>   34.5172    0.0000 </r>
       <r>   43.2615    0.0000 </r>
       <r>   46.8408    0.0000 </r>
      </set>
      <set comment="kpoint 20">
       <r>    5.9747    1.0000 </r>
       <r>    7.0135    1.0000 </r>
       <r>    7.1683    1.0000 </r>
       <r>    8.3408    1.0000 </r>
       <r>    8.9935    1.0000 </r>
       <r>   11.4861    0.0000 </r>
       <r>   21.5323    0.0000 </r>
       <r>   24.5398    0.0000 </r>
       <r>   31.3877    0.0000 </r>
       <r>   36.2720    0.0000 </r>
       <r>   40.5076    0.0000 </r>
       <r>   45.1588    0.0000 </r>
      </set>
      <set comment="kpoint 21">
       <r>    4.7631    1.0000 </r>
       <r>    7.2780    1.0000 </r>
       <r>    7.6587    1.0000 </r>
       <r>    7.9734    1.0000 </r>
       <r>    9.0521    1.0000 </r>
       <r>    9.7058    1.0000 </r>
       <r>   22.4832    0.0000 </r>
       <r>   30.2772    0.0000 </r>
       <r>   33.8226    0.0000 </r>
       <r>   36.4581    0.0000 </r>
       <r>   40.1315    0.0000 </r>
       <r>   41.6744    0.0000 </r>
      </set>
      <set comment="kpoint 22">
       <r>    5.2565    1.0000 </r>
       <r>    5.9265    1.0000 </r>
       <r>    9.3455    1.0000 </r>
       <r>    9.3882    1.0000 </r>
       <r>    9.7111    1.0000 </r>
       <r>   11.4559    0.0000 </r>
       <r>   22.6528    0.0000 </r>
       <r>   25.0420    0.0000 </r>
       <r>   26.2185    0.0000 </r>
       <r>   31.0935    0.0000 </r>
       <r>   35.1193    0.0000 </r>
       <r>   47.3845    0.0000 </r>
      </set>
      <set comment="kpoint 23">
       <r>    5.4039    1.0000 </r>
       <r>    5.9513    1.0000 </r>
       <r>    8.9265    1.0000 </r>
       <r>    9.3359    1.0000 </r>
       <r>    9.8515    1.0000 </r>
       <r>   13.9999    0.0000 </r>
       <r>   20.5082    0.0000 </r>
       <r>   22.6154    0.0000 </r>
       <r>   25.0737    0.0000 </r>
       <r>   32.5647    0.0000 </r>
       <r>   37.0226    0.0000 </r>
       <r>   47.3762    0.0000 </r>
      </set>
      <set comment="kpoint 24">
       <r>    5.9155    1.0000 </r>
       <r>    6.3355    1.0000 </r>
       <r>    7.9563    1.0000 </r>
       <r>    8.8977    1.0000 </r>
       <r>    9.6764    1.0000 </r>
       <r>   16.0086    0.0000 </r>
       <r>   18.2102    0.0000 </r>
       <r>   21.2521    0.0000 </r>
       <r>   26.6106    0.0000 </r>
       <r>   33.4815    0.0000 </r>
       <r>   42.5664    0.0000 </r>
       <r>   46.5462    0.0000 </r>
      </set>
      <set comment="kpoint 25">
       <r>    6.1217    1.0000 </r>
       <r>    6.7756    1.0000 </r>
       <r>    7.6280    1.0000 </r>
       <r>    8.2755    1.0000 </r>
       <r>    9.5236    1.0000 </r>
       <r>   13.9507    0.0000 </r>
       <r>   17.1478    0.0000 </r>
       <r>   25.1742    0.0000 </r>
       <r>   29.1817    0.0000 </r>
       <r>   34.5293    0.0000 </r>
       <r>   42.0030    0.0000 </r>
       <r>   46.4358    0.0000 </r>
      </set>
      <set comment="kpoint 26">
       <r>    5.4167    1.0000 </r>
       <r>    7.3917    1.0000 </r>
       <r>    7.7875    1.0000 </r>
       <r>    8.2983    1.0000 </r>
       <r>    9.5664    1.0000 </r>
       <r>   11.1591    0.0000 </r>
       <r>   17.6345    0.0000 </r>
       <r>   30.1573    0.0000 </r>
       <r>   32.3138    0.0000 </r>
       <r>   34.9056    0.0000 </r>
       <r>   39.5942    0.0000 </r>
       <r>   41.7563    0.0000 </r>
      </set>
      <set comment="kpoint 27">
       <r>    5.1925    1.0000 </r>
       <r>    5.7963    1.0000 </r>
       <r>    9.5065    1.0000 </r>
       <r>    9.6338    1.0000 </r>
       <r>    9.8640    1.0000 </r>
       <r>   12.9936    0.0000 </r>
       <r>   20.4209    0.0000 </r>
       <r>   24.4479    0.0000 </r>
       <r>   25.5838    0.0000 </r>
       <r>   30.9555    0.0000 </r>
       <r>   34.9407    0.0000 </r>
       <r>   47.4731    0.0000 </r>
      </set>
      <set comment="kpoint 28">
       <r>    5.4818    1.0000 </r>
       <r>    6.0700    1.0000 </r>
       <r>    8.5874    1.0000 </r>
       <r>    9.2589    1.0000 </r>
       <r>    9.7008    1.0000 </r>
       <r>   12.3894    0.0000 </r>
       <r>   22.6397    0.0000 </r>
       <r>   23.3416    0.0000 </r>
       <r>   25.6406    0.0000 </r>
       <r>   32.7664    0.0000 </r>
       <r>   37.2197    0.0000 </r>
       <r>   47.2612    0.0000 </r>
      </set>
      <set comment="kpoint 29">
       <r>    5.8618    1.0000 </r>
       <r>    6.6890    1.0000 </r>
       <r>    7.5763    1.0000 </r>
       <r>    8.4426    1.0000 </r>
       <r>    9.6276    1.0000 </r>
       <r>   12.0071    0.0000 </r>
       <r>   19.7840    0.0000 </r>
       <r>   26.7782    0.0000 </r>
       <r>   28.1454    0.0000 </r>
       <r>   34.0369    0.0000 </r>
       <r>   42.3876    0.0000 </r>
       <r>   44.4960    0.0000 </r>
      </set>
      <set comment="kpoint 30">
       <r>    5.2280    1.0000 </r>
       <r>    6.1719    1.0000 </r>
       <r>    8.7541    1.0000 </r>
       <r>    9.1235    1.0000 </r>
       <r>    9.5050    1.0000 </r>
       <r>    9.9452    1.0000 </r>
       <r>   25.5585    0.0000 </r>
       <r>   26.2928    0.0000 </r>
       <r>   27.4156    0.0000 </r>
       <r>   31.3974    0.0000 </r>
       <r>   35.5833    0.0000 </r>
       <r>   47.3181    0.0000 </r>
      </set>
      <set comment="kpoint 31">
       <r>    5.0241    1.0000 </r>
       <r>    6.5945    1.0000 </r>
       <r>    7.7553    1.0000 </r>
       <r>    8.6514    1.0000 </r>
       <r>    9.1247    1.0000 </r>
       <r>    9.8100    1.0000 </r>
       <r>   25.2689    0.0000 </r>
       <r>   27.7729    0.0000 </r>
       <r>   29.8510    0.0000 </r>
       <r>   33.9482    0.0000 </r>
       <r>   38.5724    0.0000 </r>
       <r>   45.5017    0.0000 </r>
      </set>
      <set comment="kpoint 32">
       <r>    3.7519    1.0000 </r>
       <r>    6.8717    1.0000 </r>
       <r>    8.0416    1.0000 </r>
       <r>    8.3821    1.0000 </r>
       <r>    8.5928    1.0000 </r>
       <r>    9.1185    1.0000 </r>
       <r>   28.9978    0.0000 </r>
       <r>   31.0553    0.0000 </r>
       <r>   31.6976    0.0000 </r>
       <r>   33.2436    0.0000 </r>
       <r>   38.3504    0.0000 </r>
       <r>   46.2665    0.0000 </r>
      </set>
      <set comment="kpoint 33">
       <r>    2.7077    1.0000 </r>
       <r>    7.4052    1.0000 </r>
       <r>    7.8957    1.0000 </r>
       <r>    7.8957    1.0000 </r>
       <r>    8.7634    1.0000 </r>
       <r>    8.7634    1.0000 </r>
       <r>   28.2020    0.0000 </r>
       <r>   34.2449    0.0000 </r>
       <r>   36.5135    0.0000 </r>
       <r>   36.5135    0.0000 </r>
       <r>   41.9355    0.0000 </r>
       <r>   42.3973    0.0000 </r>
      </set>
      <set comment="kpoint 34">
       <r>    3.7683    1.0000 </r>
       <r>    7.1580    1.0000 </r>
       <r>    7.8416    1.0000 </r>
       <r>    8.1303    1.0000 </r>
       <r>    8.4747    1.0000 </r>
       <r>    9.3593    1.0000 </r>
       <r>   26.5266    0.0000 </r>
       <r>   29.2203    0.0000 </r>
       <r>   36.8255    0.0000 </r>
       <r>   38.7815    0.0000 </r>
       <r>   38.9379    0.0000 </r>
       <r>   40.9240    0.0000 </r>
      </set>
      <set comment="kpoint 35">
       <r>    5.3570    1.0000 </r>
       <r>    7.0468    1.0000 </r>
       <r>    7.4692    1.0000 </r>
       <r>    8.1892    1.0000 </r>
       <r>    8.7238    1.0000 </r>
       <r>   10.5153    0.0001 </r>
       <r>   23.0402    0.0000 </r>
       <r>   25.8919    0.0000 </r>
       <r>   34.8686    0.0000 </r>
       <r>   35.4547    0.0000 </r>
       <r>   40.7360    0.0000 </r>
       <r>   42.5229    0.0000 </r>
      </set>
      <set comment="kpoint 36">
       <r>    5.8957    1.0000 </r>
       <r>    7.0715    1.0000 </r>
       <r>    7.7251    1.0000 </r>
       <r>    8.0727    1.0000 </r>
       <r>    9.3636    1.0000 </r>
       <r>   12.5311    0.0000 </r>
       <r>   18.0137    0.0000 </r>
       <r>   26.1337    0.0000 </r>
       <r>   32.3597    0.0000 </r>
       <r>   33.2389    0.0000 </r>
       <r>   42.7572    0.0000 </r>
       <r>   42.8552    0.0000 </r>
      </set>
      <set comment="kpoint 37">
       <r>    5.7949    1.0000 </r>
       <r>    6.9284    1.0000 </r>
       <r>    7.7639    1.0000 </r>
       <r>    8.1496    1.0000 </r>
       <r>    9.6938    1.0000 </r>
       <r>   12.3680    0.0000 </r>
       <r>   17.9739    0.0000 </r>
       <r>   27.4706    0.0000 </r>
       <r>   30.4565    0.0000 </r>
       <r>   32.7834    0.0000 </r>
       <r>   43.7953    0.0000 </r>
       <r>   43.9267    0.0000 </r>
      </set>
      <set comment="kpoint 38">
       <r>    5.1958    1.0000 </r>
       <r>    6.7440    1.0000 </r>
       <r>    7.6479    1.0000 </r>
       <r>    8.3395    1.0000 </r>
       <r>    9.5162    1.0000 </r>
       <r>    9.9142    1.0000 </r>
       <r>   22.9918    0.0000 </r>
       <r>   29.5925    0.0000 </r>
       <r>   30.0449    0.0000 </r>
       <r>   33.2010    0.0000 </r>
       <r>   40.9643    0.0000 </r>
       <r>   45.0344    0.0000 </r>
      </set>
      <set comment="kpoint 39">
       <r>    4.3295    1.0000 </r>
       <r>    7.0399    1.0000 </r>
       <r>    7.7514    1.0000 </r>
       <r>    8.1041    1.0000 </r>
       <r>    9.1032    1.0000 </r>
       <r>    9.2780    1.0000 </r>
       <r>   24.5007    0.0000 </r>
       <r>   31.9104    0.0000 </r>
       <r>   31.9725    0.0000 </r>
       <r>   35.3288    0.0000 </r>
       <r>   41.5147    0.0000 </r>
       <r>   42.8020    0.0000 </r>
      </set>
      <set comment="kpoint 40">
       <r>    5.4963    1.0000 </r>
       <r>    6.7747    1.0000 </r>
       <r>    7.4041    1.0000 </r>
       <r>    8.5212    1.0000 </r>
       <r>    9.0067    1.0000 </r>
       <r>   10.5710    0.0000 </r>
       <r>   23.2909    0.0000 </r>
       <r>   26.0759    0.0000 </r>
       <r>   30.4933    0.0000 </r>
       <r>   36.7272    0.0000 </r>
       <r>   39.8995    0.0000 </r>
       <r>   43.3136    0.0000 </r>
      </set>
      <set comment="kpoint 41">
       <r>    6.3320    1.0000 </r>
       <r>    6.7673    1.0000 </r>
       <r>    7.0747    1.0000 </r>
       <r>    8.5863    1.0000 </r>
       <r>    9.3349    1.0000 </r>
       <r>   12.9432    0.0000 </r>
       <r>   20.2823    0.0000 </r>
       <r>   23.4935    0.0000 </r>
       <r>   27.7552    0.0000 </r>
       <r>   37.6058    0.0000 </r>
       <r>   39.9033    0.0000 </r>
       <r>   45.2862    0.0000 </r>
      </set>
      <set comment="kpoint 42">
       <r>    6.3094    1.0000 </r>
       <r>    6.5508    1.0000 </r>
       <r>    7.4223    1.0000 </r>
       <r>    8.5357    1.0000 </r>
       <r>    9.6222    1.0000 </r>
       <r>   14.9026    0.0000 </r>
       <r>   17.4786    0.0000 </r>
       <r>   24.4457    0.0000 </r>
       <r>   25.9629    0.0000 </r>
       <r>   36.4323    0.0000 </r>
       <r>   41.2751    0.0000 </r>
       <r>   46.2386    0.0000 </r>
      </set>
      <set comment="kpoint 43">
       <r>    5.9023    1.0000 </r>
       <r>    6.5346    1.0000 </r>
       <r>    7.4615    1.0000 </r>
       <r>    8.8218    1.0000 </r>
       <r>    9.3717    1.0000 </r>
       <r>   11.8079    0.0000 </r>
       <r>   22.0440    0.0000 </r>
       <r>   24.8521    0.0000 </r>
       <r>   26.9599    0.0000 </r>
       <r>   35.9929    0.0000 </r>
       <r>   40.0232    0.0000 </r>
       <r>   44.0196    0.0000 </r>
      </set>
      <set comment="kpoint 44">
       <r>    5.6358    1.0000 </r>
       <r>    6.4345    1.0000 </r>
       <r>    7.8769    1.0000 </r>
       <r>    8.6345    1.0000 </r>
       <r>    9.6830    1.0000 </r>
       <r>   11.2337    0.0000 </r>
       <r>   21.7331    0.0000 </r>
       <r>   26.3845    0.0000 </r>
       <r>   28.4869    0.0000 </r>
       <r>   32.3872    0.0000 </r>
       <r>   40.1606    0.0000 </r>
       <r>   46.9185    0.0000 </r>
      </set>
      <set comment="kpoint 45">
       <r>    5.8614    1.0000 </r>
       <r>    6.3518    1.0000 </r>
       <r>    7.8054    1.0000 </r>
       <r>    9.0011    1.0000 </r>
       <r>    9.6642    1.0000 </r>
       <r>   13.5859    0.0000 </r>
       <r>   21.0983    0.0000 </r>
       <r>   23.2725    0.0000 </r>
       <r>   24.4370    0.0000 </r>
       <r>   35.5111    0.0000 </r>
       <r>   40.0248    0.0000 </r>
       <r>   45.1325    0.0000 </r>
      </set>
      <set comment="kpoint 46">
       <r>    6.0645    1.0000 </r>
       <r>    6.7135    1.0000 </r>
       <r>    7.3358    1.0000 </r>
       <r>    8.7514    1.0000 </r>
       <r>    9.8462    1.0000 </r>
       <r>   17.0069    0.0000 </r>
       <r>   18.7773    0.0000 </r>
       <r>   21.3128    0.0000 </r>
       <r>   22.7825    0.0000 </r>
       <r>   38.4900    0.0000 </r>
       <r>   41.9228    0.0000 </r>
       <r>   43.6801    0.0000 </r>
      </set>
      <set comment="kpoint 47">
       <r>    6.2267    1.0000 </r>
       <r>    6.7177    1.0000 </r>
       <r>    7.1839    1.0000 </r>
       <r>    8.7269    1.0000 </r>
       <r>    9.6475    1.0000 </r>
       <r>   14.8957    0.0000 </r>
       <r>   19.3445    0.0000 </r>
       <r>   22.7018    0.0000 </r>
       <r>   24.4851    0.0000 </r>
       <r>   38.4818    0.0000 </r>
       <r>   40.2798    0.0000 </r>
       <r>   44.6776    0.0000 </r>
      </set>
      <set comment="kpoint 48">
       <r>    5.5926    1.0000 </r>
       <r>    6.0865    1.0000 </r>
       <r>    8.5673    1.0000 </r>
       <r>    9.1511    1.0000 </r>
       <r>    9.7460    1.0000 </r>
       <r>   14.7930    0.0000 </r>
       <r>   19.9548    0.0000 </r>
       <r>   21.0999    0.0000 </r>
       <r>   26.8112    0.0000 </r>
       <r>   31.9149    0.0000 </r>
       <r>   39.4556    0.0000 </r>
       <r>   47.3649    0.0000 </r>
      </set>
      <set comment="kpoint 49">
       <r>    5.7543    1.0000 </r>
       <r>    6.2598    1.0000 </r>
       <r>    8.0882    1.0000 </r>
       <r>    9.0283    1.0000 </r>
       <r>    9.8474    1.0000 </r>
       <r>   15.4231    0.0000 </r>
       <r>   20.3312    0.0000 </r>
       <r>   21.1562    0.0000 </r>
       <r>   23.8220    0.0000 </r>
       <r>   35.2748    0.0000 </r>
       <r>   40.0168    0.0000 </r>
       <r>   46.2710    0.0000 </r>
      </set>
      <set comment="kpoint 50">
       <r>    5.6632    1.0000 </r>
       <r>    6.2006    1.0000 </r>
       <r>    8.2917    1.0000 </r>
       <r>    8.9350    1.0000 </r>
       <r>    9.7537    1.0000 </r>
       <r>   13.0213    0.0000 </r>
       <r>   20.7611    0.0000 </r>
       <r>   23.2568    0.0000 </r>
       <r>   27.3844    0.0000 </r>
       <r>   32.0481    0.0000 </r>
       <r>   39.6736    0.0000 </r>
       <r>   47.2410    0.0000 </r>
      </set>
      <set comment="kpoint 51">
       <r>    4.4420    1.0000 </r>
       <r>    7.6340    1.0000 </r>
       <r>    7.7866    1.0000 </r>
       <r>    7.7866    1.0000 </r>
       <r>    9.1640    1.0000 </r>
       <r>    9.1640    1.0000 </r>
       <r>   22.2068    0.0000 </r>
       <r>   33.0975    0.0000 </r>
       <r>   35.7598    0.0000 </r>
       <r>   35.7598    0.0000 </r>
       <r>   40.0295    0.0000 </r>
       <r>   40.0295    0.0000 </r>
      </set>
      <set comment="kpoint 52">
       <r>    5.2455    1.0000 </r>
       <r>    7.5234    1.0000 </r>
       <r>    7.5389    1.0000 </r>
       <r>    7.9132    1.0000 </r>
       <r>    9.0601    1.0000 </r>
       <r>   10.3646    0.6891 </r>
       <r>   20.7631    0.0000 </r>
       <r>   28.7144    0.0000 </r>
       <r>   34.4385    0.0000 </r>
       <r>   35.7128    0.0000 </r>
       <r>   40.3176    0.0000 </r>
       <r>   40.7372    0.0000 </r>
      </set>
      <set comment="kpoint 53">
       <r>    6.2827    1.0000 </r>
       <r>    6.9189    1.0000 </r>
       <r>    7.2306    1.0000 </r>
       <r>    8.3325    1.0000 </r>
       <r>    9.1247    1.0000 </r>
       <r>   12.6794    0.0000 </r>
       <r>   19.9976    0.0000 </r>
       <r>   23.3114    0.0000 </r>
       <r>   31.9928    0.0000 </r>
       <r>   33.2898    0.0000 </r>
       <r>   43.7940    0.0000 </r>
       <r>   44.4881    0.0000 </r>
      </set>
      <set comment="kpoint 54">
       <r>    6.1718    1.0000 </r>
       <r>    6.4875    1.0000 </r>
       <r>    7.6785    1.0000 </r>
       <r>    8.6869    1.0000 </r>
       <r>    9.4879    1.0000 </r>
       <r>   15.8511    0.0000 </r>
       <r>   17.4294    0.0000 </r>
       <r>   21.6851    0.0000 </r>
       <r>   29.0374    0.0000 </r>
       <r>   32.4152    0.0000 </r>
       <r>   45.5873    0.0000 </r>
       <r>   46.9638    0.0000 </r>
      </set>
      <set comment="kpoint 55">
       <r>    5.4004    1.0000 </r>
       <r>    7.3225    1.0000 </r>
       <r>    7.8383    1.0000 </r>
       <r>    7.9176    1.0000 </r>
       <r>    9.6391    1.0000 </r>
       <r>   10.6561    0.0000 </r>
       <r>   19.0772    0.0000 </r>
       <r>   30.4327    0.0000 </r>
       <r>   31.8389    0.0000 </r>
       <r>   33.7127    0.0000 </r>
       <r>   41.6893    0.0000 </r>
       <r>   42.3698    0.0000 </r>
      </set>
      <set comment="kpoint 56">
       <r>    6.0514    1.0000 </r>
       <r>    6.8366    1.0000 </r>
       <r>    7.5147    1.0000 </r>
       <r>    8.2991    1.0000 </r>
       <r>    9.5234    1.0000 </r>
       <r>   12.9556    0.0000 </r>
       <r>   18.2094    0.0000 </r>
       <r>   26.2689    0.0000 </r>
       <r>   28.1710    0.0000 </r>
       <r>   36.2069    0.0000 </r>
       <r>   40.2608    0.0000 </r>
       <r>   46.5645    0.0000 </r>
      </set>
      <set comment="kpoint 57">
       <r>    6.2486    1.0000 </r>
       <r>    6.6200    1.0000 </r>
       <r>    7.3477    1.0000 </r>
       <r>    8.6812    1.0000 </r>
       <r>    9.6492    1.0000 </r>
       <r>   16.2646    0.0000 </r>
       <r>   17.7872    0.0000 </r>
       <r>   21.8281    0.0000 </r>
       <r>   25.4789    0.0000 </r>
       <r>   36.4831    0.0000 </r>
       <r>   42.6013    0.0000 </r>
       <r>   45.8214    0.0000 </r>
      </set>
      <set comment="kpoint 58">
       <r>    6.0742    1.0000 </r>
       <r>    6.6109    1.0000 </r>
       <r>    7.7060    1.0000 </r>
       <r>    8.4395    1.0000 </r>
       <r>    9.6198    1.0000 </r>
       <r>   14.3741    0.0000 </r>
       <r>   17.2664    0.0000 </r>
       <r>   24.3085    0.0000 </r>
       <r>   29.5142    0.0000 </r>
       <r>   32.4981    0.0000 </r>
       <r>   45.2661    0.0000 </r>
       <r>   45.5962    0.0000 </r>
      </set>
      <set comment="kpoint 59">
       <r>    5.1464    1.0000 </r>
       <r>    7.6067    1.0000 </r>
       <r>    7.6067    1.0000 </r>
       <r>    9.5221    1.0000 </r>
       <r>    9.5906    1.0000 </r>
       <r>    9.5906    1.0000 </r>
       <r>   17.4778    0.0000 </r>
       <r>   32.1744    0.0000 </r>
       <r>   35.4173    0.0000 </r>
       <r>   35.4173    0.0000 </r>
       <r>   38.2499    0.0000 </r>
       <r>   38.2499    0.0000 </r>
      </set>
      <set comment="kpoint 60">
       <r>    5.5293    1.0000 </r>
       <r>    7.3026    1.0000 </r>
       <r>    7.8133    1.0000 </r>
       <r>    8.3293    1.0000 </r>
       <r>    9.5748    1.0000 </r>
       <r>   11.9643    0.0000 </r>
       <r>   16.7995    0.0000 </r>
       <r>   29.1700    0.0000 </r>
       <r>   33.0903    0.0000 </r>
       <r>   33.3379    0.0000 </r>
       <r>   40.9095    0.0000 </r>
       <r>   41.4094    0.0000 </r>
      </set>
     </set>
     <set comment="spin 2">
      <set comment="kpoint 1">
       <r>    1.5315    1.0000 </r>
       <r>    9.1957    1.0000 </r>
       <r>    9.2937    1.0000 </r>
       <r>    9.2937    1.0000 </r>
       <r>   10.6452    0.0000 </r>
       <r>   10.6452    0.0000 </r>
       <r>   32.8936    0.0000 </r>
       <r>   36.1919    0.0000 </r>
       <r>   37.7596    0.0000 </r>
       <r>   37.7596    0.0000 </r>
       <r>   41.7420    0.0000 </r>
       <r>   41.7423    0.0000 </r>
      </set>
      <set comment="kpoint 2">
       <r>    2.3410    1.0000 </r>
       <r>    8.9207    1.0000 </r>
       <r>    9.4708    1.0000 </r>
       <r>    9.4790    1.0000 </r>
       <r>   10.4563    0.0179 </r>
       <r>   10.7232    0.0000 </r>
       <r>   30.5076    0.0000 </r>
       <r>   33.0320    0.0000 </r>
       <r>   36.5217    0.0000 </r>
       <r>   38.7820    0.0000 </r>
       <r>   40.3440    0.0000 </r>
       <r>   41.8332    0.0000 </r>
      </set>
      <set comment="kpoint 3">
       <r>    4.1246    1.0000 </r>
       <r>    8.5969    1.0000 </r>
       <r>    9.4550    1.0000 </r>
       <r>    9.5580    1.0000 </r>
       <r>   10.6143    0.0000 </r>
       <r>   11.0769    0.0000 </r>
       <r>   24.6662    0.0000 </r>
       <r>   31.9219    0.0000 </r>
       <r>   35.4842    0.0000 </r>
       <r>   38.4904    0.0000 </r>
       <r>   39.5979    0.0000 </r>
       <r>   40.4090    0.0000 </r>
      </set>
      <set comment="kpoint 4">
       <r>    5.8126    1.0000 </r>
       <r>    9.0358    1.0000 </r>
       <r>    9.2557    1.0000 </r>
       <r>    9.3529    1.0000 </r>
       <r>   11.2034    0.0000 </r>
       <r>   11.6795    0.0000 </r>
       <r>   19.5844    0.0000 </r>
       <r>   31.3032    0.0000 </r>
       <r>   34.3341    0.0000 </r>
       <r>   36.3372    0.0000 </r>
       <r>   38.7711    0.0000 </r>
       <r>   40.2711    0.0000 </r>
      </set>
      <set comment="kpoint 5">
       <r>    6.1685    1.0000 </r>
       <r>    9.0931    1.0000 </r>
       <r>    9.2915    1.0000 </r>
       <r>    9.7191    1.0000 </r>
       <r>   11.5231    0.0000 </r>
       <r>   11.9552    0.0000 </r>
       <r>   17.6676    0.0000 </r>
       <r>   31.2825    0.0000 </r>
       <r>   34.4643    0.0000 </r>
       <r>   34.5965    0.0000 </r>
       <r>   39.5706    0.0000 </r>
       <r>   39.5844    0.0000 </r>
      </set>
      <set comment="kpoint 6">
       <r>    5.3791    1.0000 </r>
       <r>    8.7321    1.0000 </r>
       <r>    9.2933    1.0000 </r>
       <r>    9.4371    1.0000 </r>
       <r>   11.2005    0.0000 </r>
       <r>   11.3080    0.0000 </r>
       <r>   21.0972    0.0000 </r>
       <r>   32.0004    0.0000 </r>
       <r>   33.9513    0.0000 </r>
       <r>   36.3791    0.0000 </r>
       <r>   39.3533    0.0000 </r>
       <r>   41.2483    0.0000 </r>
      </set>
      <set comment="kpoint 7">
       <r>    3.4593    1.0000 </r>
       <r>    8.6524    1.0000 </r>
       <r>    9.5252    1.0000 </r>
       <r>    9.5778    1.0000 </r>
       <r>   10.5299    0.0000 </r>
       <r>   10.8687    0.0000 </r>
       <r>   26.6042    0.0000 </r>
       <r>   33.1279    0.0000 </r>
       <r>   34.5032    0.0000 </r>
       <r>   38.8330    0.0000 </r>
       <r>   39.2029    0.0000 </r>
       <r>   43.3924    0.0000 </r>
      </set>
      <set comment="kpoint 8">
       <r>    1.9418    1.0000 </r>
       <r>    9.0223    1.0000 </r>
       <r>    9.4125    1.0000 </r>
       <r>    9.4177    1.0000 </r>
       <r>   10.4816    0.0024 </r>
       <r>   10.7176    0.0000 </r>
       <r>   32.1002    0.0000 </r>
       <r>   34.5366    0.0000 </r>
       <r>   35.8420    0.0000 </r>
       <r>   37.5070    0.0000 </r>
       <r>   41.6130    0.0000 </r>
       <r>   43.3585    0.0000 </r>
      </set>
      <set comment="kpoint 9">
       <r>    2.7310    1.0000 </r>
       <r>    8.6939    1.0000 </r>
       <r>    9.6380    1.0000 </r>
       <r>    9.6605    1.0000 </r>
       <r>   10.2226    1.0000 </r>
       <r>   10.8516    0.0000 </r>
       <r>   30.8225    0.0000 </r>
       <r>   33.0900    0.0000 </r>
       <r>   33.5842    0.0000 </r>
       <r>   35.5533    0.0000 </r>
       <r>   41.7539    0.0000 </r>
       <r>   43.8769    0.0000 </r>
      </set>
      <set comment="kpoint 10">
       <r>    4.1589    1.0000 </r>
       <r>    8.3072    1.0000 </r>
       <r>    9.4476    1.0000 </r>
       <r>    9.9733    1.0000 </r>
       <r>   10.4049    0.2595 </r>
       <r>   11.1750    0.0000 </r>
       <r>   27.1379    0.0000 </r>
       <r>   29.6422    0.0000 </r>
       <r>   33.2982    0.0000 </r>
       <r>   35.3181    0.0000 </r>
       <r>   40.5033    0.0000 </r>
       <r>   43.5917    0.0000 </r>
      </set>
      <set comment="kpoint 11">
       <r>    5.9561    1.0000 </r>
       <r>    8.2121    1.0000 </r>
       <r>    9.0186    1.0000 </r>
       <r>    9.8467    1.0000 </r>
       <r>   11.2099    0.0000 </r>
       <r>   12.0332    0.0000 </r>
       <r>   21.5471    0.0000 </r>
       <r>   29.0014    0.0000 </r>
       <r>   31.0420    0.0000 </r>
       <r>   35.0131    0.0000 </r>
       <r>   41.6464    0.0000 </r>
       <r>   44.2714    0.0000 </r>
      </set>
      <set comment="kpoint 12">
       <r>    6.7148    1.0000 </r>
       <r>    8.4012    1.0000 </r>
       <r>    9.1239    1.0000 </r>
       <r>    9.6859    1.0000 </r>
       <r>   11.4680    0.0000 </r>
       <r>   13.5937    0.0000 </r>
       <r>   17.7701    0.0000 </r>
       <r>   28.3974    0.0000 </r>
       <r>   30.3884    0.0000 </r>
       <r>   34.7158    0.0000 </r>
       <r>   40.8675    0.0000 </r>
       <r>   44.4216    0.0000 </r>
      </set>
      <set comment="kpoint 13">
       <r>    6.3965    1.0000 </r>
       <r>    8.4497    1.0000 </r>
       <r>    8.9053    1.0000 </r>
       <r>    9.7386    1.0000 </r>
       <r>   11.0878    0.0000 </r>
       <r>   12.7259    0.0000 </r>
       <r>   19.9846    0.0000 </r>
       <r>   27.6578    0.0000 </r>
       <r>   31.8504    0.0000 </r>
       <r>   35.8299    0.0000 </r>
       <r>   40.2235    0.0000 </r>
       <r>   43.8232    0.0000 </r>
      </set>
      <set comment="kpoint 14">
       <r>    4.7979    1.0000 </r>
       <r>    8.3364    1.0000 </r>
       <r>    9.2376    1.0000 </r>
       <r>    9.9530    1.0000 </r>
       <r>   10.3620    0.7152 </r>
       <r>   11.5889    0.0000 </r>
       <r>   25.2101    0.0000 </r>
       <r>   27.8253    0.0000 </r>
       <r>   34.2800    0.0000 </r>
       <r>   37.7602    0.0000 </r>
       <r>   39.6163    0.0000 </r>
       <r>   42.8401    0.0000 </r>
      </set>
      <set comment="kpoint 15">
       <r>    3.1071    1.0000 </r>
       <r>    8.6632    1.0000 </r>
       <r>    9.5425    1.0000 </r>
       <r>    9.6783    1.0000 </r>
       <r>   10.3099    0.9794 </r>
       <r>   10.9046    0.0000 </r>
       <r>   28.7752    0.0000 </r>
       <r>   31.2991    0.0000 </r>
       <r>   35.6133    0.0000 </r>
       <r>   37.3843    0.0000 </r>
       <r>   41.1506    0.0000 </r>
       <r>   42.5324    0.0000 </r>
      </set>
      <set comment="kpoint 16">
       <r>    5.0075    1.0000 </r>
       <r>    7.8514    1.0000 </r>
       <r>    9.5852    1.0000 </r>
       <r>   10.4354    0.0657 </r>
       <r>   10.6892    0.0000 </r>
       <r>   11.2227    0.0000 </r>
       <r>   27.6766    0.0000 </r>
       <r>   29.3535    0.0000 </r>
       <r>   29.3641    0.0000 </r>
       <r>   32.1864    0.0000 </r>
       <r>   37.0570    0.0000 </r>
       <r>   48.9496    0.0000 </r>
      </set>
      <set comment="kpoint 17">
       <r>    6.1878    1.0000 </r>
       <r>    7.5827    1.0000 </r>
       <r>    9.3691    1.0000 </r>
       <r>   10.7503    0.0000 </r>
       <r>   11.2691    0.0000 </r>
       <r>   12.1389    0.0000 </r>
       <r>   24.3379    0.0000 </r>
       <r>   26.2701    0.0000 </r>
       <r>   27.2335    0.0000 </r>
       <r>   33.4252    0.0000 </r>
       <r>   38.0810    0.0000 </r>
       <r>   47.5080    0.0000 </r>
      </set>
      <set comment="kpoint 18">
       <r>    7.0923    1.0000 </r>
       <r>    7.6120    1.0000 </r>
       <r>    9.0282    1.0000 </r>
       <r>   10.4952    0.0007 </r>
       <r>   11.5161    0.0000 </r>
       <r>   14.8130    0.0000 </r>
       <r>   19.4215    0.0000 </r>
       <r>   24.2053    0.0000 </r>
       <r>   27.3916    0.0000 </r>
       <r>   33.8414    0.0000 </r>
       <r>   42.8688    0.0000 </r>
       <r>   45.7339    0.0000 </r>
      </set>
      <set comment="kpoint 19">
       <r>    7.4534    1.0000 </r>
       <r>    7.8801    1.0000 </r>
       <r>    8.5693    1.0000 </r>
       <r>   10.3051    0.9853 </r>
       <r>   11.1275    0.0000 </r>
       <r>   15.1677    0.0000 </r>
       <r>   19.3084    0.0000 </r>
       <r>   22.9156    0.0000 </r>
       <r>   29.1243    0.0000 </r>
       <r>   34.6592    0.0000 </r>
       <r>   43.3183    0.0000 </r>
       <r>   48.1115    0.0000 </r>
      </set>
      <set comment="kpoint 20">
       <r>    6.4934    1.0000 </r>
       <r>    8.2458    1.0000 </r>
       <r>    8.6657    1.0000 </r>
       <r>   10.0848    1.0000 </r>
       <r>   10.7136    0.0000 </r>
       <r>   12.8892    0.0000 </r>
       <r>   22.0584    0.0000 </r>
       <r>   24.9251    0.0000 </r>
       <r>   31.6297    0.0000 </r>
       <r>   36.4004    0.0000 </r>
       <r>   40.5632    0.0000 </r>
       <r>   45.2990    0.0000 </r>
      </set>
      <set comment="kpoint 21">
       <r>    5.0120    1.0000 </r>
       <r>    8.4566    1.0000 </r>
       <r>    9.2768    1.0000 </r>
       <r>    9.6344    1.0000 </r>
       <r>   10.8058    0.0000 </r>
       <r>   11.4610    0.0000 </r>
       <r>   22.9857    0.0000 </r>
       <r>   30.4374    0.0000 </r>
       <r>   33.9099    0.0000 </r>
       <r>   36.7313    0.0000 </r>
       <r>   40.2853    0.0000 </r>
       <r>   41.8194    0.0000 </r>
      </set>
      <set comment="kpoint 22">
       <r>    6.2572    1.0000 </r>
       <r>    7.1913    1.0000 </r>
       <r>   10.7034    0.0000 </r>
       <r>   11.2600    0.0000 </r>
       <r>   11.5648    0.0000 </r>
       <r>   12.2277    0.0000 </r>
       <r>   23.2395    0.0000 </r>
       <r>   25.2940    0.0000 </r>
       <r>   26.4128    0.0000 </r>
       <r>   31.4348    0.0000 </r>
       <r>   35.5393    0.0000 </r>
       <r>   50.9520    0.0000 </r>
      </set>
      <set comment="kpoint 23">
       <r>    6.5447    1.0000 </r>
       <r>    7.1918    1.0000 </r>
       <r>   10.2737    0.9989 </r>
       <r>   11.2487    0.0000 </r>
       <r>   11.6582    0.0000 </r>
       <r>   14.5105    0.0000 </r>
       <r>   21.2613    0.0000 </r>
       <r>   22.9384    0.0000 </r>
       <r>   25.3114    0.0000 </r>
       <r>   32.8409    0.0000 </r>
       <r>   37.4027    0.0000 </r>
       <r>   50.3880    0.0000 </r>
      </set>
      <set comment="kpoint 24">
       <r>    7.1432    1.0000 </r>
       <r>    7.5062    1.0000 </r>
       <r>    9.2026    1.0000 </r>
       <r>   10.7388    0.0000 </r>
       <r>   11.4668    0.0000 </r>
       <r>   16.6172    0.0000 </r>
       <r>   18.7566    0.0000 </r>
       <r>   21.8769    0.0000 </r>
       <r>   26.9083    0.0000 </r>
       <r>   33.6942    0.0000 </r>
       <r>   42.9113    0.0000 </r>
       <r>   46.6946    0.0000 </r>
      </set>
      <set comment="kpoint 25">
       <r>    7.1558    1.0000 </r>
       <r>    8.0233    1.0000 </r>
       <r>    8.8557    1.0000 </r>
       <r>   10.0051    1.0000 </r>
       <r>   11.3354    0.0000 </r>
       <r>   14.7676    0.0000 </r>
       <r>   17.9402    0.0000 </r>
       <r>   25.5465    0.0000 </r>
       <r>   29.4861    0.0000 </r>
       <r>   34.6484    0.0000 </r>
       <r>   42.1438    0.0000 </r>
       <r>   46.5584    0.0000 </r>
      </set>
      <set comment="kpoint 26">
       <r>    6.2605    1.0000 </r>
       <r>    8.8359    1.0000 </r>
       <r>    9.2637    1.0000 </r>
       <r>    9.4531    1.0000 </r>
       <r>   11.4040    0.0000 </r>
       <r>   12.3643    0.0000 </r>
       <r>   18.4514    0.0000 </r>
       <r>   30.2073    0.0000 </r>
       <r>   32.5802    0.0000 </r>
       <r>   35.0744    0.0000 </r>
       <r>   39.8333    0.0000 </r>
       <r>   41.9061    0.0000 </r>
      </set>
      <set comment="kpoint 27">
       <r>    6.3075    1.0000 </r>
       <r>    7.0432    1.0000 </r>
       <r>   11.1887    0.0000 </r>
       <r>   11.4604    0.0000 </r>
       <r>   11.6764    0.0000 </r>
       <r>   13.2936    0.0000 </r>
       <r>   21.2171    0.0000 </r>
       <r>   24.6628    0.0000 </r>
       <r>   25.7448    0.0000 </r>
       <r>   31.3227    0.0000 </r>
       <r>   35.3589    0.0000 </r>
       <r>   51.0590    0.0000 </r>
      </set>
      <set comment="kpoint 28">
       <r>    6.5123    1.0000 </r>
       <r>    7.3268    1.0000 </r>
       <r>    9.8599    1.0000 </r>
       <r>   11.0963    0.0000 </r>
       <r>   11.5193    0.0000 </r>
       <r>   13.2716    0.0000 </r>
       <r>   23.1139    0.0000 </r>
       <r>   23.7697    0.0000 </r>
       <r>   25.9048    0.0000 </r>
       <r>   33.0230    0.0000 </r>
       <r>   37.5979    0.0000 </r>
       <r>   49.1770    0.0000 </r>
      </set>
      <set comment="kpoint 29">
       <r>    6.7169    1.0000 </r>
       <r>    7.8884    1.0000 </r>
       <r>    8.9073    1.0000 </r>
       <r>   10.1587    1.0000 </r>
       <r>   11.4678    0.0000 </r>
       <r>   13.1476    0.0000 </r>
       <r>   20.3490    0.0000 </r>
       <r>   27.0833    0.0000 </r>
       <r>   28.4820    0.0000 </r>
       <r>   34.2147    0.0000 </r>
       <r>   42.5409    0.0000 </r>
       <r>   44.9396    0.0000 </r>
      </set>
      <set comment="kpoint 30">
       <r>    5.9100    1.0000 </r>
       <r>    7.4718    1.0000 </r>
       <r>    9.9299    1.0000 </r>
       <r>   10.8825    0.0000 </r>
       <r>   11.3212    0.0000 </r>
       <r>   11.4082    0.0000 </r>
       <r>   25.9167    0.0000 </r>
       <r>   26.6306    0.0000 </r>
       <r>   27.6587    0.0000 </r>
       <r>   31.6888    0.0000 </r>
       <r>   36.0234    0.0000 </r>
       <r>   50.7963    0.0000 </r>
      </set>
      <set comment="kpoint 31">
       <r>    5.3108    1.0000 </r>
       <r>    7.9263    1.0000 </r>
       <r>    9.2584    1.0000 </r>
       <r>   10.3407    0.8792 </r>
       <r>   10.8272    0.0000 </r>
       <r>   11.5217    0.0000 </r>
       <r>   25.6444    0.0000 </r>
       <r>   28.0517    0.0000 </r>
       <r>   30.1237    0.0000 </r>
       <r>   34.1318    0.0000 </r>
       <r>   39.0029    0.0000 </r>
       <r>   45.6451    0.0000 </r>
      </set>
      <set comment="kpoint 32">
       <r>    3.8172    1.0000 </r>
       <r>    8.2800    1.0000 </r>
       <r>    9.6913    1.0000 </r>
       <r>   10.0098    1.0000 </r>
       <r>   10.2325    1.0000 </r>
       <r>   11.0285    0.0000 </r>
       <r>   29.2808    0.0000 </r>
       <r>   31.3700    0.0000 </r>
       <r>   31.7359    0.0000 </r>
       <r>   33.3960    0.0000 </r>
       <r>   38.9670    0.0000 </r>
       <r>   46.2455    0.0000 </r>
      </set>
      <set comment="kpoint 33">
       <r>    2.7249    1.0000 </r>
       <r>    8.8461    1.0000 </r>
       <r>    9.4967    1.0000 </r>
       <r>    9.4967    1.0000 </r>
       <r>   10.6144    0.0000 </r>
       <r>   10.6144    0.0000 </r>
       <r>   28.4915    0.0000 </r>
       <r>   34.0121    0.0000 </r>
       <r>   36.8078    0.0000 </r>
       <r>   36.8078    0.0000 </r>
       <r>   41.8383    0.0000 </r>
       <r>   42.4987    0.0000 </r>
      </set>
      <set comment="kpoint 34">
       <r>    3.8243    1.0000 </r>
       <r>    8.5496    1.0000 </r>
       <r>    9.4412    1.0000 </r>
       <r>    9.7774    1.0000 </r>
       <r>   10.2600    0.9997 </r>
       <r>   11.1749    0.0000 </r>
       <r>   26.8869    0.0000 </r>
       <r>   29.4583    0.0000 </r>
       <r>   36.7810    0.0000 </r>
       <r>   38.7341    0.0000 </r>
       <r>   39.1115    0.0000 </r>
       <r>   41.2831    0.0000 </r>
      </set>
      <set comment="kpoint 35">
       <r>    5.6324    1.0000 </r>
       <r>    8.3272    1.0000 </r>
       <r>    9.0103    1.0000 </r>
       <r>    9.9336    1.0000 </r>
       <r>   10.4317    0.0802 </r>
       <r>   12.1482    0.0000 </r>
       <r>   23.5212    0.0000 </r>
       <r>   26.2357    0.0000 </r>
       <r>   34.8601    0.0000 </r>
       <r>   35.7809    0.0000 </r>
       <r>   40.6726    0.0000 </r>
       <r>   42.7496    0.0000 </r>
      </set>
      <set comment="kpoint 36">
       <r>    6.7935    1.0000 </r>
       <r>    8.3814    1.0000 </r>
       <r>    8.9005    1.0000 </r>
       <r>    9.7815    1.0000 </r>
       <r>   11.1632    0.0000 </r>
       <r>   13.6024    0.0000 </r>
       <r>   18.7540    0.0000 </r>
       <r>   26.4615    0.0000 </r>
       <r>   32.6852    0.0000 </r>
       <r>   33.2873    0.0000 </r>
       <r>   42.9050    0.0000 </r>
       <r>   42.9672    0.0000 </r>
      </set>
      <set comment="kpoint 37">
       <r>    6.7320    1.0000 </r>
       <r>    8.1421    1.0000 </r>
       <r>    9.0285    1.0000 </r>
       <r>    9.8486    1.0000 </r>
       <r>   11.5566    0.0000 </r>
       <r>   13.3749    0.0000 </r>
       <r>   18.6919    0.0000 </r>
       <r>   27.7436    0.0000 </r>
       <r>   30.7582    0.0000 </r>
       <r>   32.9430    0.0000 </r>
       <r>   43.8458    0.0000 </r>
       <r>   44.1036    0.0000 </r>
      </set>
      <set comment="kpoint 38">
       <r>    5.5520    1.0000 </r>
       <r>    8.0154    1.0000 </r>
       <r>    9.1609    1.0000 </r>
       <r>   10.0284    1.0000 </r>
       <r>   11.3967    0.0000 </r>
       <r>   11.4062    0.0000 </r>
       <r>   23.4454    0.0000 </r>
       <r>   29.7558    0.0000 </r>
       <r>   30.3476    0.0000 </r>
       <r>   33.4638    0.0000 </r>
       <r>   41.3256    0.0000 </r>
       <r>   45.0808    0.0000 </r>
      </set>
      <set comment="kpoint 39">
       <r>    4.4610    1.0000 </r>
       <r>    8.3576    1.0000 </r>
       <r>    9.3828    1.0000 </r>
       <r>    9.7538    1.0000 </r>
       <r>   10.7614    0.0000 </r>
       <r>   11.1491    0.0000 </r>
       <r>   24.9223    0.0000 </r>
       <r>   31.8668    0.0000 </r>
       <r>   32.2980    0.0000 </r>
       <r>   35.5985    0.0000 </r>
       <r>   41.8015    0.0000 </r>
       <r>   42.9441    0.0000 </r>
      </set>
      <set comment="kpoint 40">
       <r>    5.8532    1.0000 </r>
       <r>    8.0681    1.0000 </r>
       <r>    8.9312    1.0000 </r>
       <r>   10.2322    1.0000 </r>
       <r>   10.7262    0.0000 </r>
       <r>   12.1447    0.0000 </r>
       <r>   23.7441    0.0000 </r>
       <r>   26.4068    0.0000 </r>
       <r>   30.7522    0.0000 </r>
       <r>   36.8462    0.0000 </r>
       <r>   40.0645    0.0000 </r>
       <r>   43.7459    0.0000 </r>
      </set>
      <set comment="kpoint 41">
       <r>    7.1656    1.0000 </r>
       <r>    8.0571    1.0000 </r>
       <r>    8.4035    1.0000 </r>
       <r>   10.3507    0.8126 </r>
       <r>   11.0832    0.0000 </r>
       <r>   14.0259    0.0000 </r>
       <r>   20.8255    0.0000 </r>
       <r>   23.9123    0.0000 </r>
       <r>   28.0930    0.0000 </r>
       <r>   37.7036    0.0000 </r>
       <r>   40.0027    0.0000 </r>
       <r>   45.9986    0.0000 </r>
      </set>
      <set comment="kpoint 42">
       <r>    7.4498    1.0000 </r>
       <r>    7.7341    1.0000 </r>
       <r>    8.6752    1.0000 </r>
       <r>   10.2980    0.9913 </r>
       <r>   11.4248    0.0000 </r>
       <r>   15.6565    0.0000 </r>
       <r>   18.1765    0.0000 </r>
       <r>   24.8527    0.0000 </r>
       <r>   26.3336    0.0000 </r>
       <r>   36.5448    0.0000 </r>
       <r>   41.4071    0.0000 </r>
       <r>   47.0885    0.0000 </r>
      </set>
      <set comment="kpoint 43">
       <r>    6.6658    1.0000 </r>
       <r>    7.8004    1.0000 </r>
       <r>    8.8031    1.0000 </r>
       <r>   10.5770    0.0000 </r>
       <r>   11.1330    0.0000 </r>
       <r>   13.0445    0.0000 </r>
       <r>   22.5051    0.0000 </r>
       <r>   25.2027    0.0000 </r>
       <r>   27.3323    0.0000 </r>
       <r>   36.1396    0.0000 </r>
       <r>   40.2626    0.0000 </r>
       <r>   44.3919    0.0000 </r>
      </set>
      <set comment="kpoint 44">
       <r>    6.3978    1.0000 </r>
       <r>    7.6822    1.0000 </r>
       <r>    9.1745    1.0000 </r>
       <r>   10.3764    0.5634 </r>
       <r>   11.5612    0.0000 </r>
       <r>   12.4522    0.0000 </r>
       <r>   22.1890    0.0000 </r>
       <r>   26.7450    0.0000 </r>
       <r>   28.7580    0.0000 </r>
       <r>   32.6389    0.0000 </r>
       <r>   40.5028    0.0000 </r>
       <r>   47.5473    0.0000 </r>
      </set>
      <set comment="kpoint 45">
       <r>    6.9464    1.0000 </r>
       <r>    7.5945    1.0000 </r>
       <r>    9.0478    1.0000 </r>
       <r>   10.8208    0.0000 </r>
       <r>   11.4504    0.0000 </r>
       <r>   14.4586    0.0000 </r>
       <r>   21.5483    0.0000 </r>
       <r>   23.7505    0.0000 </r>
       <r>   24.8089    0.0000 </r>
       <r>   35.6811    0.0000 </r>
       <r>   40.3359    0.0000 </r>
       <r>   45.4240    0.0000 </r>
      </set>
      <set comment="kpoint 46">
       <r>    7.2862    1.0000 </r>
       <r>    7.9360    1.0000 </r>
       <r>    8.5699    1.0000 </r>
       <r>   10.5598    0.0000 </r>
       <r>   11.6480    0.0000 </r>
       <r>   17.5814    0.0000 </r>
       <r>   19.2981    0.0000 </r>
       <r>   21.8941    0.0000 </r>
       <r>   23.2217    0.0000 </r>
       <r>   38.6060    0.0000 </r>
       <r>   42.0246    0.0000 </r>
       <r>   43.9757    0.0000 </r>
      </set>
      <set comment="kpoint 47">
       <r>    7.3784    1.0000 </r>
       <r>    7.9380    1.0000 </r>
       <r>    8.4156    1.0000 </r>
       <r>   10.5237    0.0000 </r>
       <r>   11.4250    0.0000 </r>
       <r>   15.6920    0.0000 </r>
       <r>   19.8782    0.0000 </r>
       <r>   23.1556    0.0000 </r>
       <r>   24.9108    0.0000 </r>
       <r>   38.5833    0.0000 </r>
       <r>   40.3871    0.0000 </r>
       <r>   45.1997    0.0000 </r>
      </set>
      <set comment="kpoint 48">
       <r>    6.7664    1.0000 </r>
       <r>    7.3026    1.0000 </r>
       <r>    9.8455    1.0000 </r>
       <r>   11.0340    0.0000 </r>
       <r>   11.5521    0.0000 </r>
       <r>   15.3718    0.0000 </r>
       <r>   20.4708    0.0000 </r>
       <r>   21.7072    0.0000 </r>
       <r>   27.0335    0.0000 </r>
[...]
       <r>    37.3728     0.1981     9.9276 </r>
       <r>    37.5544     0.1146     9.9484 </r>
       <r>    37.7360     0.3952    10.0202 </r>
       <r>    37.9177     0.0179    10.0234 </r>
       <r>    38.0993     0.0010    10.0236 </r>
       <r>    38.2809     0.0999    10.0417 </r>
       <r>    38.4625     0.1443    10.0679 </r>
       <r>    38.6441     0.4349    10.1469 </r>
       <r>    38.8257     0.1306    10.1706 </r>
       <r>    39.0073     0.1132    10.1912 </r>
       <r>    39.1889     0.0599    10.2021 </r>
       <r>    39.3705     0.1621    10.2315 </r>
       <r>    39.5521     0.2583    10.2784 </r>
       <r>    39.7337     0.1848    10.3120 </r>
       <r>    39.9153     0.1765    10.3440 </r>
       <r>    40.0969     0.8263    10.4941 </r>
       <r>    40.2785     0.3664    10.5606 </r>
       <r>    40.4601     0.3010    10.6153 </r>
       <r>    40.6417     0.1503    10.6426 </r>
       <r>    40.8233     0.2305    10.6845 </r>
       <r>    41.0049     0.3150    10.7417 </r>
       <r>    41.1865     0.1319    10.7656 </r>
       <r>    41.3681     0.1381    10.7907 </r>
       <r>    41.5497     0.3100    10.8470 </r>
       <r>    41.7313     0.3211    10.9053 </r>
       <r>    41.9129     0.1694    10.9361 </r>
       <r>    42.0945     0.2224    10.9764 </r>
       <r>    42.2761     0.0332    10.9825 </r>
       <r>    42.4577     0.3112    11.0390 </r>
       <r>    42.6393     0.5487    11.1386 </r>
       <r>    42.8209     0.1508    11.1660 </r>
       <r>    43.0025     0.0753    11.1797 </r>
       <r>    43.1841     0.0023    11.1801 </r>
       <r>    43.3657     0.3726    11.2478 </r>
       <r>    43.5473     0.0725    11.2609 </r>
       <r>    43.7289     0.2820    11.3121 </r>
       <r>    43.9105     0.2600    11.3594 </r>
       <r>    44.0921     0.2977    11.4134 </r>
       <r>    44.2737     0.0123    11.4157 </r>
       <r>    44.4553     0.1478    11.4425 </r>
       <r>    44.6369     0.1822    11.4756 </r>
       <r>    44.8185     0.1129    11.4961 </r>
       <r>    45.0001     0.0108    11.4980 </r>
       <r>    45.1817     0.2687    11.5468 </r>
       <r>    45.3633     0.2498    11.5922 </r>
       <r>    45.5449     0.2431    11.6363 </r>
       <r>    45.7265     0.1316    11.6602 </r>
       <r>    45.9081     0.1277    11.6834 </r>
       <r>    46.0897     0.0009    11.6836 </r>
       <r>    46.2713     0.2069    11.7212 </r>
       <r>    46.4529     0.2048    11.7584 </r>
       <r>    46.6345     0.2942    11.8118 </r>
       <r>    46.8161     0.0418    11.8194 </r>
       <r>    46.9977     0.3376    11.8807 </r>
       <r>    47.1793     0.0157    11.8835 </r>
       <r>    47.3609     0.3982    11.9558 </r>
       <r>    47.5425     0.2416    11.9997 </r>
       <r>    47.7241     0.0016    12.0000 </r>
       <r>    47.9057     0.0000    12.0000 </r>
       <r>    48.0874     0.0000    12.0000 </r>
       <r>    48.2690     0.0000    12.0000 </r>
       <r>    48.4506     0.0000    12.0000 </r>
       <r>    48.6322     0.0000    12.0000 </r>
       <r>    48.8138     0.0000    12.0000 </r>
       <r>    48.9954     0.0000    12.0000 </r>
       <r>    49.1770     0.0000    12.0000 </r>
       <r>    49.3586     0.0000    12.0000 </r>
       <r>    49.5402     0.0000    12.0000 </r>
       <r>    49.7218     0.0000    12.0000 </r>
       <r>    49.9034     0.0000    12.0000 </r>
       <r>    50.0850     0.0000    12.0000 </r>
       <r>    50.2666     0.0000    12.0000 </r>
       <r>    50.4482     0.0000    12.0000 </r>
       <r>    50.6298     0.0000    12.0000 </r>
       <r>    50.8114     0.0000    12.0000 </r>
       <r>    50.9930     0.0000    12.0000 </r>
       <r>    51.1746     0.0000    12.0000 </r>
       <r>    51.3562     0.0000    12.0000 </r>
       <r>    51.5378     0.0000    12.0000 </r>
       <r>    51.7194     0.0000    12.0000 </r>
       <r>    51.9010     0.0000    12.0000 </r>
       <r>    52.0826     0.0000    12.0000 </r>
       <r>    52.2642     0.0000    12.0000 </r>
       <r>    52.4458     0.0000    12.0000 </r>
       <r>    52.6274     0.0000    12.0000 </r>
       <r>    52.8090     0.0000    12.0000 </r>
       <r>    52.9906     0.0000    12.0000 </r>
       <r>    53.1722     0.0000    12.0000 </r>
       <r>    53.3538     0.0000    12.0000 </r>
       <r>    53.5354     0.0000    12.0000 </r>
      </set>
      <set comment="spin 2">
       <r>    -0.9451     0.0000     0.0000 </r>
       <r>    -0.7635     0.0000     0.0000 </r>
       <r>    -0.5819     0.0000     0.0000 </r>
       <r>    -0.4003     0.0000     0.0000 </r>
       <r>    -0.2187     0.0000     0.0000 </r>
       <r>    -0.0371     0.0000     0.0000 </r>
       <r>     0.1445     0.0000     0.0000 </r>
       <r>     0.3261     0.0000     0.0000 </r>
       <r>     0.5077     0.0000     0.0000 </r>
       <r>     0.6893     0.0000     0.0000 </r>
       <r>     0.8709     0.0000     0.0000 </r>
       <r>     1.0525     0.0000     0.0000 </r>
       <r>     1.2341     0.0000     0.0000 </r>
       <r>     1.4157     0.0000     0.0000 </r>
       <r>     1.5973     0.0208     0.0038 </r>
       <r>     1.7789     0.0007     0.0039 </r>
       <r>     1.9605     0.0452     0.0121 </r>
       <r>     2.1421     0.0193     0.0156 </r>
       <r>     2.3237     0.0202     0.0193 </r>
       <r>     2.5053     0.0443     0.0273 </r>
       <r>     2.6869     0.0099     0.0291 </r>
       <r>     2.8685     0.0761     0.0430 </r>
       <r>     3.0501     0.0069     0.0442 </r>
       <r>     3.2317     0.1221     0.0664 </r>
       <r>     3.4133     0.0063     0.0675 </r>
       <r>     3.5949     0.0583     0.0781 </r>
       <r>     3.7765     0.0137     0.0806 </r>
       <r>     3.9581     0.1153     0.1016 </r>
       <r>     4.1397     0.0808     0.1162 </r>
       <r>     4.3213     0.1128     0.1367 </r>
       <r>     4.5029     0.0569     0.1471 </r>
       <r>     4.6845     0.0204     0.1508 </r>
       <r>     4.8661     0.1343     0.1752 </r>
       <r>     5.0477     0.1687     0.2058 </r>
       <r>     5.2293     0.0297     0.2112 </r>
       <r>     5.4109     0.1800     0.2439 </r>
       <r>     5.5925     0.0770     0.2579 </r>
       <r>     5.7741     0.1379     0.2829 </r>
       <r>     5.9557     0.3166     0.3404 </r>
       <r>     6.1373     0.1596     0.3694 </r>
       <r>     6.3189     0.4093     0.4437 </r>
       <r>     6.5005     0.4171     0.5194 </r>
       <r>     6.6821     0.4009     0.5922 </r>
       <r>     6.8637     0.5048     0.6839 </r>
       <r>     7.0453     0.4488     0.7654 </r>
       <r>     7.2270     0.7929     0.9094 </r>
       <r>     7.4086     0.5326     1.0061 </r>
       <r>     7.5902     1.0199     1.1913 </r>
       <r>     7.7718     0.5422     1.2898 </r>
       <r>     7.9534     0.8084     1.4366 </r>
       <r>     8.1350     0.7053     1.5647 </r>
       <r>     8.3166     0.5763     1.6693 </r>
       <r>     8.4982     0.9859     1.8484 </r>
       <r>     8.6798     1.0149     2.0327 </r>
       <r>     8.8614     0.8173     2.1811 </r>
       <r>     9.0430     1.1289     2.3861 </r>
       <r>     9.2246     0.8963     2.5489 </r>
       <r>     9.4062     1.2464     2.7752 </r>
       <r>     9.5878     1.2327     2.9991 </r>
       <r>     9.7694     0.9949     3.1798 </r>
       <r>     9.9510     0.7194     3.3104 </r>
       <r>    10.1326     0.7742     3.4510 </r>
       <r>    10.3142     0.9119     3.6166 </r>
       <r>    10.4958     1.1311     3.8220 </r>
       <r>    10.6774     0.8253     3.9719 </r>
       <r>    10.8590     1.3558     4.2181 </r>
       <r>    11.0406     0.5965     4.3264 </r>
       <r>    11.2222     1.3375     4.5693 </r>
       <r>    11.4038     1.1911     4.7856 </r>
       <r>    11.5854     2.0553     5.1589 </r>
       <r>    11.7670     0.6942     5.2850 </r>
       <r>    11.9486     0.0472     5.2935 </r>
       <r>    12.1302     0.3919     5.3647 </r>
       <r>    12.3118     0.2800     5.4156 </r>
       <r>    12.4934     0.1774     5.4478 </r>
       <r>    12.6750     0.0176     5.4510 </r>
       <r>    12.8566     0.1431     5.4770 </r>
       <r>    13.0382     0.2253     5.5179 </r>
       <r>    13.2198     0.2104     5.5561 </r>
       <r>    13.4014     0.2356     5.5989 </r>
       <r>    13.5830     0.0826     5.6139 </r>
       <r>    13.7646     0.1274     5.6370 </r>
       <r>    13.9462     0.1742     5.6687 </r>
       <r>    14.1278     0.2110     5.7070 </r>
       <r>    14.3094     0.0003     5.7070 </r>
       <r>    14.4910     0.1434     5.7331 </r>
       <r>    14.6726     0.1152     5.7540 </r>
       <r>    14.8542     0.2410     5.7978 </r>
       <r>    15.0358     0.0167     5.8008 </r>
       <r>    15.2174     0.1818     5.8338 </r>
       <r>    15.3990     0.0620     5.8451 </r>
       <r>    15.5806     0.0164     5.8481 </r>
       <r>    15.7622     0.2527     5.8939 </r>
       <r>    15.9438     0.0104     5.8958 </r>
       <r>    16.1254     0.1219     5.9180 </r>
       <r>    16.3070     0.0000     5.9180 </r>
       <r>    16.4886     0.0053     5.9189 </r>
       <r>    16.6702     0.1797     5.9516 </r>
       <r>    16.8518     0.0095     5.9533 </r>
       <r>    17.0334     0.1277     5.9765 </r>
       <r>    17.2150     0.0005     5.9766 </r>
       <r>    17.3966     0.0000     5.9766 </r>
       <r>    17.5783     0.0603     5.9875 </r>
       <r>    17.7599     0.2395     6.0310 </r>
       <r>    17.9415     0.1582     6.0597 </r>
       <r>    18.1231     0.1941     6.0950 </r>
       <r>    18.3047     0.1280     6.1182 </r>
       <r>    18.4863     0.2528     6.1641 </r>
       <r>    18.6679     0.0384     6.1711 </r>
       <r>    18.8495     0.2501     6.2165 </r>
       <r>    19.0311     0.1197     6.2383 </r>
       <r>    19.2127     0.0015     6.2385 </r>
       <r>    19.3943     0.2838     6.2901 </r>
       <r>    19.5759     0.1281     6.3133 </r>
       <r>    19.7575     0.0748     6.3269 </r>
       <r>    19.9391     0.1645     6.3568 </r>
       <r>    20.1207     0.1217     6.3789 </r>
       <r>    20.3023     0.0120     6.3811 </r>
       <r>    20.4839     0.1589     6.4099 </r>
       <r>    20.6655     0.0868     6.4257 </r>
       <r>    20.8471     0.1391     6.4510 </r>
       <r>    21.0287     0.1211     6.4730 </r>
       <r>    21.2103     0.1381     6.4980 </r>
       <r>    21.3919     0.2412     6.5418 </r>
       <r>    21.5735     0.2042     6.5789 </r>
       <r>    21.7551     0.2113     6.6173 </r>
       <r>    21.9367     0.2800     6.6681 </r>
       <r>    22.1183     0.1453     6.6945 </r>
       <r>    22.2999     0.1292     6.7180 </r>
       <r>    22.4815     0.1658     6.7481 </r>
       <r>    22.6631     0.0973     6.7657 </r>
       <r>    22.8447     0.0243     6.7701 </r>
       <r>    23.0263     0.3675     6.8369 </r>
       <r>    23.2079     0.3219     6.8953 </r>
       <r>    23.3895     0.1498     6.9225 </r>
       <r>    23.5711     0.1203     6.9444 </r>
       <r>    23.7527     0.2398     6.9879 </r>
       <r>    23.9343     0.3762     7.0562 </r>
       <r>    24.1159     0.0471     7.0648 </r>
       <r>    24.2975     0.2612     7.1122 </r>
       <r>    24.4791     0.1133     7.1328 </r>
       <r>    24.6607     0.0602     7.1437 </r>
       <r>    24.8423     0.2952     7.1974 </r>
       <r>    25.0239     0.4184     7.2733 </r>
       <r>    25.2055     0.1276     7.2965 </r>
       <r>    25.3871     0.3223     7.3550 </r>
       <r>    25.5687     0.0994     7.3731 </r>
       <r>    25.7503     0.1976     7.4090 </r>
       <r>    25.9319     0.2995     7.4634 </r>
       <r>    26.1135     0.0512     7.4727 </r>
       <r>    26.2951     0.1777     7.5049 </r>
       <r>    26.4767     0.3764     7.5733 </r>
       <r>    26.6583     0.2653     7.6215 </r>
       <r>    26.8399     0.0931     7.6384 </r>
       <r>    27.0215     0.2133     7.6771 </r>
       <r>    27.2031     0.3147     7.7343 </r>
       <r>    27.3847     0.2829     7.7857 </r>
       <r>    27.5663     0.0873     7.8015 </r>
       <r>    27.7480     0.3534     7.8657 </r>
       <r>    27.9296     0.1586     7.8945 </r>
       <r>    28.1112     0.2132     7.9332 </r>
       <r>    28.2928     0.0453     7.9414 </r>
       <r>    28.4744     0.2068     7.9790 </r>
       <r>    28.6560     0.2019     8.0157 </r>
       <r>    28.8376     0.1877     8.0497 </r>
       <r>    29.0192     0.1589     8.0786 </r>
       <r>    29.2008     0.1683     8.1092 </r>
       <r>    29.3824     0.2854     8.1610 </r>
       <r>    29.5640     0.2319     8.2031 </r>
       <r>    29.7456     0.1563     8.2315 </r>
       <r>    29.9272     0.1020     8.2500 </r>
       <r>    30.1088     0.0438     8.2580 </r>
       <r>    30.2904     0.2169     8.2973 </r>
       <r>    30.4720     0.3513     8.3611 </r>
       <r>    30.6536     0.0983     8.3790 </r>
       <r>    30.8352     0.2323     8.4212 </r>
       <r>    31.0168     0.0562     8.4314 </r>
       <r>    31.1984     0.0993     8.4494 </r>
       <r>    31.3800     0.3591     8.5146 </r>
       <r>    31.5616     0.0952     8.5319 </r>
       <r>    31.7432     0.2237     8.5725 </r>
       <r>    31.9248     0.2747     8.6224 </r>
       <r>    32.1064     0.1442     8.6486 </r>
       <r>    32.2880     0.2575     8.6953 </r>
       <r>    32.4696     0.1505     8.7227 </r>
       <r>    32.6512     0.2578     8.7695 </r>
       <r>    32.8328     0.1956     8.8050 </r>
       <r>    33.0144     0.2419     8.8490 </r>
       <r>    33.1960     0.2496     8.8943 </r>
       <r>    33.3776     0.2934     8.9476 </r>
       <r>    33.5592     0.3684     9.0145 </r>
       <r>    33.7408     0.1665     9.0447 </r>
       <r>    33.9224     0.2437     9.0890 </r>
       <r>    34.1040     0.2047     9.1261 </r>
       <r>    34.2856     0.3056     9.1816 </r>
       <r>    34.4672     0.2239     9.2223 </r>
       <r>    34.6488     0.3311     9.2824 </r>
       <r>    34.8304     0.2860     9.3344 </r>
       <r>    35.0120     0.1196     9.3561 </r>
       <r>    35.1936     0.1901     9.3906 </r>
       <r>    35.3752     0.1673     9.4210 </r>
       <r>    35.5568     0.3125     9.4777 </r>
       <r>    35.7384     0.3893     9.5485 </r>
       <r>    35.9200     0.2695     9.5974 </r>
       <r>    36.1016     0.1688     9.6280 </r>
       <r>    36.2832     0.2166     9.6674 </r>
       <r>    36.4648     0.3260     9.7266 </r>
       <r>    36.6464     0.2902     9.7793 </r>
       <r>    36.8280     0.2896     9.8319 </r>
       <r>    37.0096     0.1143     9.8526 </r>
       <r>    37.1912     0.0587     9.8633 </r>
       <r>    37.3728     0.0738     9.8767 </r>
       <r>    37.5544     0.2572     9.9234 </r>
       <r>    37.7360     0.2694     9.9723 </r>
       <r>    37.9177     0.1524    10.0000 </r>
       <r>    38.0993     0.0900    10.0163 </r>
       <r>    38.2809     0.0391    10.0234 </r>
       <r>    38.4625     0.0175    10.0266 </r>
       <r>    38.6441     0.3248    10.0856 </r>
       <r>    38.8257     0.2327    10.1279 </r>
       <r>    39.0073     0.1760    10.1598 </r>
       <r>    39.1889     0.1523    10.1875 </r>
       <r>    39.3705     0.0875    10.2034 </r>
       <r>    39.5521     0.0619    10.2146 </r>
       <r>    39.7337     0.2829    10.2660 </r>
       <r>    39.9153     0.1913    10.3007 </r>
       <r>    40.0969     0.2986    10.3549 </r>
       <r>    40.2785     0.3730    10.4227 </r>
       <r>    40.4601     0.7666    10.5619 </r>
       <r>    40.6417     0.4191    10.6380 </r>
       <r>    40.8233     0.1160    10.6591 </r>
       <r>    41.0049     0.1350    10.6836 </r>
       <r>    41.1865     0.1682    10.7141 </r>
       <r>    41.3681     0.2284    10.7556 </r>
       <r>    41.5497     0.1632    10.7853 </r>
       <r>    41.7313     0.2528    10.8312 </r>
       <r>    41.9129     0.4861    10.9195 </r>
       <r>    42.0945     0.1928    10.9545 </r>
       <r>    42.2761     0.1216    10.9766 </r>
       <r>    42.4577     0.0062    10.9777 </r>
       <r>    42.6393     0.3607    11.0432 </r>
       <r>    42.8209     0.2198    11.0831 </r>
       <r>    43.0025     0.5175    11.1771 </r>
       <r>    43.1841     0.0143    11.1797 </r>
       <r>    43.3657     0.1694    11.2105 </r>
       <r>    43.5473     0.1022    11.2290 </r>
       <r>    43.7289     0.1805    11.2618 </r>
       <r>    43.9105     0.3770    11.3302 </r>
       <r>    44.0921     0.1629    11.3598 </r>
       <r>    44.2737     0.1085    11.3795 </r>
       <r>    44.4553     0.2926    11.4327 </r>
       <r>    44.6369     0.0571    11.4430 </r>
       <r>    44.8185     0.0341    11.4492 </r>
       <r>    45.0001     0.1241    11.4718 </r>
       <r>    45.1817     0.1087    11.4915 </r>
       <r>    45.3633     0.2672    11.5400 </r>
       <r>    45.5449     0.1454    11.5665 </r>
       <r>    45.7265     0.1998    11.6027 </r>
       <r>    45.9081     0.1233    11.6251 </r>
       <r>    46.0897     0.1831    11.6584 </r>
       <r>    46.2713     0.1850    11.6920 </r>
       <r>    46.4529     0.1395    11.7173 </r>
       <r>    46.6345     0.1407    11.7429 </r>
       <r>    46.8161     0.1253    11.7656 </r>
       <r>    46.9977     0.0024    11.7660 </r>
       <r>    47.1793     0.1970    11.8018 </r>
       <r>    47.3609     0.1233    11.8242 </r>
       <r>    47.5425     0.1367    11.8490 </r>
       <r>    47.7241     0.0570    11.8594 </r>
       <r>    47.9057     0.0000    11.8594 </r>
       <r>    48.0874     0.0319    11.8652 </r>
       <r>    48.2690     0.0971    11.8828 </r>
       <r>    48.4506     0.0000    11.8828 </r>
       <r>    48.6322     0.0000    11.8828 </r>
       <r>    48.8138     0.0000    11.8828 </r>
       <r>    48.9954     0.0623    11.8941 </r>
       <r>    49.1770     0.1312    11.9180 </r>
       <r>    49.3586     0.0646    11.9297 </r>
       <r>    49.5402     0.0000    11.9297 </r>
       <r>    49.7218     0.0000    11.9297 </r>
       <r>    49.9034     0.0000    11.9297 </r>
       <r>    50.0850     0.0089    11.9313 </r>
       <r>    50.2666     0.0556    11.9414 </r>
       <r>    50.4482     0.1233    11.9638 </r>
       <r>    50.6298     0.0057    11.9648 </r>
       <r>    50.8114     0.0429    11.9726 </r>
       <r>    50.9930     0.0802    11.9872 </r>
       <r>    51.1746     0.0704    12.0000 </r>
       <r>    51.3562     0.0000    12.0000 </r>
       <r>    51.5378     0.0000    12.0000 </r>
       <r>    51.7194     0.0000    12.0000 </r>
       <r>    51.9010     0.0000    12.0000 </r>
       <r>    52.0826     0.0000    12.0000 </r>
       <r>    52.2642     0.0000    12.0000 </r>
       <r>    52.4458     0.0000    12.0000 </r>
       <r>    52.6274     0.0000    12.0000 </r>
       <r>    52.8090     0.0000    12.0000 </r>
       <r>    52.9906     0.0000    12.0000 </r>
       <r>    53.1722     0.0000    12.0000 </r>
       <r>    53.3538     0.0000    12.0000 </r>
       <r>    53.5354     0.0000    12.0000 </r>
      </set>
     </set>
    </array>
   </total>
  </dos>
 </calculation>
 <structure name="finalpos" >
  <crystal>
   <varray name="basis" >
    <v>       0.00000000       1.75500000       1.75500000 </v>
    <v>       1.75500000       0.00000000       1.75500000 </v>
    <v>       1.75500000       1.75500000       0.00000000 </v>
   </varray>
   <i name="volume">     10.81088775 </i>
   <varray name="rec_basis" >
    <v>      -0.28490028       0.28490028       0.28490028 </v>
    <v>       0.28490028      -0.28490028       0.28490028 </v>
    <v>       0.28490028       0.28490028      -0.28490028 </v>
   </varray>
  </crystal>
  <varray name="positions" >
   <v>       0.00000000       0.00000000       0.00000000 </v>
  </varray>
 </structure>
</modeling>
