Pt-hcc                                  
   1.00000000000000     
     2.752972    0.000000    0.000000
    -1.376486    2.384144    0.000000
     0.000000    0.000000    4.769460
   Pt
     2
Direct
  0.000000  0.000000  0.000000
  0.333333  0.666667  0.500000
 
   40   40   72
 0.27402314320E+03 0.27369472764E+03 0.27211257662E+03 0.26769863675E+03 0.25848739528E+03
 0.24289245629E+03 0.22041094069E+03 0.19197917721E+03 0.15988140037E+03 0.12717967901E+03
 0.96935783939E+02 0.71445713254E+02 0.51810805266E+02 0.37872630687E+02 0.28536420232E+02
 0.22232580311E+02 0.17925422931E+02 0.15129129933E+02 0.13423608200E+02 0.12520540413E+02
 0.12235889748E+02 0.12520581071E+02 0.13423503142E+02 0.15129388019E+02 0.17924768013E+02
 0.22234942659E+02 0.28533339752E+02 0.37873940640E+02 0.51810737002E+02 0.71445777154E+02
 0.96935603997E+02 0.12717992460E+03 0.15988114445E+03 0.19197943988E+03 0.22041068550E+03
 0.24289286121E+03 0.25848715643E+03 0.26769882789E+03 0.27211254139E+03 0.27369453083E+03
 0.27369453083E+03 0.27369476649E+03 0.27273252170E+03 0.26970065722E+03 0.26279731509E+03
 0.25022253676E+03 0.23092692367E+03 0.20515863555E+03 0.17458597893E+03 0.14195620810E+03
 0.11039126587E+03 0.82595213948E+02 0.60249944833E+02 0.43771578708E+02 0.32469184989E+02
 0.24926807152E+02 0.19749978075E+02 0.16286094643E+02 0.14102634200E+02 0.12837819633E+02
 0.12264560984E+02 0.12263390518E+02 0.12839049170E+02 0.14101215355E+02 0.16287805763E+02
 0.19747618297E+02 0.24928054535E+02 0.32470173205E+02 0.43770302996E+02 0.60250633104E+02
 0.82594663513E+02 0.11039177376E+03 0.14195569775E+03 0.17458654891E+03 0.20515816643E+03
 0.23092739362E+03 0.25022240260E+03 0.26279743338E+03 0.26970066471E+03 0.27273274645E+03
 0.27211254139E+03 0.27273964326E+03 0.27211211634E+03 0.26970066370E+03 0.26411265156E+03
 0.25364659644E+03 0.23699602528E+03 0.21388399925E+03 0.18537233236E+03 0.15373592397E+03
 0.12191554848E+03 0.92777945248E+02 0.68413023402E+02 0.49759025924E+02 0.36560851343E+02
 0.27699451230E+02 0.21661852799E+02 0.17528311227E+02 0.14843372041E+02 0.13202906658E+02
 0.12332976870E+02 0.12058549050E+02 0.12332950217E+02 0.13202897145E+02 0.14843398975E+02
 0.17528108311E+02 0.21663509332E+02 0.27696633370E+02 0.36563031374E+02 0.49757582893E+02
 0.68414188072E+02 0.92777145897E+02 0.12191602435E+03 0.15373547608E+03 0.18537252846E+03
 0.21388399046E+03 0.23699582741E+03 0.25364698743E+03 0.26411276315E+03 0.26970066471E+03
 0.26769882789E+03 0.26971818227E+03 0.26971860046E+03 0.26769886564E+03 0.26279734986E+03
 0.25364664362E+03 0.23896758877E+03 0.21819812549E+03 0.19191171993E+03 0.16187850235E+03
 0.13070050278E+03 0.10118204229E+03 0.75629420967E+02 0.55367472445E+02 0.40563922678E+02
 0.30429492764E+02 0.23564749867E+02 0.18803745142E+02 0.15619371393E+02 0.13604817680E+02
 0.12435654968E+02 0.11903526624E+02 0.11902653547E+02 0.12436562415E+02 0.13603707524E+02
 0.15620689968E+02 0.18801464019E+02 0.23567252900E+02 0.30428069117E+02 0.40564657582E+02
 0.55367343812E+02 0.75629143062E+02 0.10118217942E+03 0.13070046121E+03 0.16187858843E+03
 0.19191169665E+03 0.21819861462E+03 0.23896748598E+03 0.25364698743E+03 0.26279743338E+03
 0.25848715643E+03 0.26282621149E+03 0.26415227360E+03 0.26282576840E+03 0.25848692524E+03
 0.25022225666E+03 0.23699635745E+03 0.21819794832E+03 0.19409826184E+03 0.16602543497E+03
 0.13618421527E+03 0.10715626792E+03 0.81278214992E+02 0.60107213144E+02 0.44160025725E+02
 0.32963718490E+02 0.25352205541E+02 0.20040257308E+02 0.16396797323E+02 0.14022962034E+02
 0.12567102854E+02 0.11789826245E+02 0.11545470212E+02 0.11789624049E+02 0.12567480133E+02
 0.14022346356E+02 0.16397929061E+02 0.20039347849E+02 0.25352168815E+02 0.32964449820E+02
 0.44158973537E+02 0.60108099367E+02 0.81277716884E+02 0.10715661786E+03 0.13618365775E+03
 0.16602586085E+03 0.19409737103E+03 0.21819861462E+03 0.23699582741E+03 0.25022240260E+03
 0.24289286121E+03 0.25025624556E+03 0.25370270063E+03 0.25370246513E+03 0.25025689555E+03
 0.24289277126E+03 0.23092728955E+03 0.21388345516E+03 0.19191230436E+03 0.16602501957E+03
 0.13804611591E+03 0.11025455731E+03 0.84873134568E+02 0.63541600089E+02 0.47018043879E+02
 0.35110474751E+02 0.26908460093E+02 0.21159478666E+02 0.17130157728E+02 0.14434551995E+02
 0.12714764533E+02 0.11712320858E+02 0.11251299611E+02 0.11251819192E+02 0.11711774037E+02
 0.12715255232E+02 0.14433868651E+02 0.17130386457E+02 0.21160150840E+02 0.26907374139E+02
 0.35111620017E+02 0.47017334436E+02 0.63542135306E+02 0.84872533228E+02 0.11025504676E+03
 0.13804565672E+03 0.16602586085E+03 0.19191169665E+03 0.21388399046E+03 0.23092739362E+03
 0.22041068550E+03 0.23095928152E+03 0.23705562734E+03 0.23903781575E+03 0.23705563624E+03
 0.23095901260E+03 0.22041086000E+03 0.20515852010E+03 0.18537309243E+03 0.16187812165E+03
 0.13618447183E+03 0.11025489072E+03 0.86105572874E+02 0.65345220801E+02 0.48858160775E+02
 0.36675548798E+02 0.28123248461E+02 0.22083324355E+02 0.17770000844E+02 0.14812091258E+02
 0.12865072706E+02 0.11663401234E+02 0.11012713579E+02 0.10809250382E+02 0.11012701464E+02
 0.11663466766E+02 0.12865088347E+02 0.14812454715E+02 0.17769024237E+02 0.22084427077E+02
 0.28122371892E+02 0.36676070814E+02 0.48857763097E+02 0.65345411586E+02 0.86105528169E+02
 0.11025504676E+03 0.13618365775E+03 0.16187858843E+03 0.18537252846E+03 0.20515816643E+03
 0.19197943988E+03 0.20517948124E+03 0.21393066243E+03 0.21826189616E+03 0.21826193335E+03
 0.21393051945E+03 0.20517977562E+03 0.19197949312E+03 0.17458621231E+03 0.15373514545E+03
 0.13070110262E+03 0.10715579969E+03 0.84872919947E+02 0.65345378105E+02 0.49493110912E+02
 0.37501183812E+02 0.28899210401E+02 0.22742788215E+02 0.18268684828E+02 0.15126723085E+02
 0.13003734951E+02 0.11634797371E+02 0.10824551588E+02 0.10449121030E+02 0.10449308338E+02
 0.10824324388E+02 0.11634965457E+02 0.13003280523E+02 0.15127585330E+02 0.18267860247E+02
 0.22743366017E+02 0.28898929057E+02 0.37501296111E+02 0.49493281146E+02 0.65345411586E+02
 0.84872533228E+02 0.10715661786E+03 0.13070046121E+03 0.15373547608E+03 0.17458654891E+03
 0.15988114445E+03 0.17459070570E+03 0.18539232025E+03 0.19194704983E+03 0.19413965473E+03
 0.19194747463E+03 0.18539274798E+03 0.17459062829E+03 0.15988130930E+03 0.14195630239E+03
 0.12191637345E+03 0.10118152820E+03 0.81278320270E+02 0.63541830790E+02 0.48857798842E+02
 0.37501621187E+02 0.29165904512E+02 0.23086987879E+02 0.18585126089E+02 0.15353790352E+02
 0.13114859698E+02 0.11621126709E+02 0.10680641636E+02 0.10165729673E+02 0.10001364367E+02
 0.10165794735E+02 0.10680653705E+02 0.11621367624E+02 0.13114342146E+02 0.15354165754E+02
 0.18584916055E+02 0.23086871814E+02 0.29166133586E+02 0.37501296111E+02 0.48857763097E+02
 0.63542135306E+02 0.81277716884E+02 0.10118217942E+03 0.12191602435E+03 0.14195569775E+03
 0.12717992460E+03 0.14194104024E+03 0.15372030502E+03 0.16187019678E+03 0.16602333187E+03
 0.16602291701E+03 0.16186965426E+03 0.15371993097E+03 0.14194131542E+03 0.12717988346E+03
 0.11039120146E+03 0.92776777319E+02 0.75630241569E+02 0.60107064743E+02 0.47017619192E+02
 0.36675889598E+02 0.28898712047E+02 0.23087110381E+02 0.18693710495E+02 0.15472587054E+02
 0.13187207277E+02 0.11615391540E+02 0.10579530433E+02 0.99535387816E+01 0.96590855379E+01
 0.96589868767E+01 0.99535876156E+01 0.10579343354E+02 0.11615806128E+02 0.13186969237E+02
 0.15472656009E+02 0.18693846461E+02 0.23086871814E+02 0.28898929057E+02 0.36676070814E+02
 0.47017334436E+02 0.60108099367E+02 0.75629143062E+02 0.92777145897E+02 0.11039177376E+03
 0.96935603997E+02 0.11035983396E+03 0.12186608482E+03 0.13064308774E+03 0.13612546535E+03
 0.13798761642E+03 0.13612611016E+03 0.13064390556E+03 0.12186653890E+03 0.11035950406E+03
 0.96935565539E+02 0.82595307096E+02 0.68414135760E+02 0.55365958765E+02 0.44160469376E+02
 0.35110894558E+02 0.28122720987E+02 0.22743530985E+02 0.18584743885E+02 0.15472891696E+02
 0.13211980284E+02 0.11613993813E+02 0.10518930872E+02 0.98122272551E+01 0.94155340481E+01
 0.92883655697E+01 0.94155918300E+01 0.98123385847E+01 0.10518685970E+02 0.11614071663E+02
 0.13211980417E+02 0.15472656009E+02 0.18584916055E+02 0.22743366017E+02 0.28122371892E+02
 0.35111620017E+02 0.44158973537E+02 0.55367343812E+02 0.68414188072E+02 0.82594663513E+02
 0.71445777154E+02 0.82551630128E+02 0.92700104204E+02 0.10108295567E+03 0.10704467799E+03
 0.11013775673E+03 0.11013755898E+03 0.10704379998E+03 0.10108189744E+03 0.92699659030E+02
 0.82552004362E+02 0.71445898614E+02 0.60249824494E+02 0.49757740771E+02 0.40565847770E+02
 0.32962525827E+02 0.26908653087E+02 0.22083523588E+02 0.18268121121E+02 0.15354067714E+02
 0.13186962093E+02 0.11613930546E+02 0.10498977145E+02 0.97410929234E+01 0.92697513079E+01
 0.90436731789E+01 0.90437240707E+01 0.92695952832E+01 0.97414270970E+01 0.10498849164E+02
 0.11614071663E+02 0.13186969237E+02 0.15354165754E+02 0.18267860247E+02 0.22084427077E+02
 0.26907374139E+02 0.32964449820E+02 0.40564657582E+02 0.49757582893E+02 0.60250633104E+02
 0.51810737002E+02 0.60201804887E+02 0.68322310307E+02 0.75501785941E+02 0.81126033104E+02
 0.84706107697E+02 0.85934898717E+02 0.84706498691E+02 0.81126997691E+02 0.75503009282E+02
 0.68322466542E+02 0.60201107892E+02 0.51809937525E+02 0.43771746183E+02 0.36562262420E+02
 0.30427169218E+02 0.25353988626E+02 0.21158691775E+02 0.17770306793E+02 0.15127039992E+02
 0.13114704364E+02 0.11615657761E+02 0.10518909939E+02 0.97412778528E+01 0.92208171803E+01
 0.89222915980E+01 0.88241051832E+01 0.89224117558E+01 0.92205319362E+01 0.97414270970E+01
 0.10518685970E+02 0.11615806128E+02 0.13114342146E+02 0.15127585330E+02 0.17769024237E+02
 0.21160150840E+02 0.25352168815E+02 0.30428069117E+02 0.36563031374E+02 0.43770302996E+02
 0.37873940640E+02 0.43723790754E+02 0.49663609960E+02 0.55230822247E+02 0.59937117529E+02
 0.63347776707E+02 0.65138958570E+02 0.65138900651E+02 0.63347048318E+02 0.59935967833E+02
 0.55229145755E+02 0.49663755551E+02 0.43725111045E+02 0.37874672569E+02 0.32467468986E+02
 0.27698894558E+02 0.23567060731E+02 0.20038229000E+02 0.17131525213E+02 0.14811176530E+02
 0.13003936522E+02 0.11620812138E+02 0.10579668856E+02 0.98118879573E+01 0.92699129053E+01
 0.89218924810E+01 0.87518655360E+01 0.87515176936E+01 0.89224117558E+01 0.92695952832E+01
 0.98123385847E+01 0.10579343354E+02 0.11621367624E+02 0.13003280523E+02 0.14812454715E+02
 0.17130386457E+02 0.20039347849E+02 0.23567252900E+02 0.27696633370E+02 0.32470173205E+02
 0.28533339752E+02 0.32428811477E+02 0.36475734820E+02 0.40433431721E+02 0.43988931938E+02
 0.46817456742E+02 0.48638781025E+02 0.49267998955E+02 0.48639092210E+02 0.46818100051E+02
 0.43990603211E+02 0.40434865097E+02 0.36474992286E+02 0.32426275080E+02 0.28534668570E+02
 0.24930121047E+02 0.21660565054E+02 0.18802861256E+02 0.16398024471E+02 0.14433613320E+02
 0.12865812927E+02 0.11634731653E+02 0.10680870236E+02 0.99535581618E+01 0.94157645843E+01
 0.90437155452E+01 0.88243605528E+01 0.87518655360E+01 0.88241051832E+01 0.90437240707E+01
 0.94155918300E+01 0.99535876156E+01 0.10680653705E+02 0.11634965457E+02 0.12865088347E+02
 0.14433868651E+02 0.16397929061E+02 0.18801464019E+02 0.21663509332E+02 0.24928054535E+02
 0.22234942659E+02 0.24894034671E+02 0.27622808422E+02 0.30314794927E+02 0.32812626496E+02
 0.34927028929E+02 0.36467751755E+02 0.37280555692E+02 0.37280558571E+02 0.36467275673E+02
 0.34926029780E+02 0.32810630265E+02 0.30313753373E+02 0.27625071195E+02 0.24895970591E+02
 0.22232081394E+02 0.19747740847E+02 0.17530027066E+02 0.15619659324E+02 0.14022319632E+02
 0.12715345192E+02 0.11662767882E+02 0.10824534940E+02 0.10165519133E+02 0.96590764998E+01
 0.92881282930E+01 0.90437155452E+01 0.89218924810E+01 0.89222915980E+01 0.90436731789E+01
 0.92883655697E+01 0.96589868767E+01 0.10165794735E+02 0.10824324388E+02 0.11663466766E+02
 0.12715255232E+02 0.14022346356E+02 0.15620689968E+02 0.17528108311E+02 0.19747618297E+02
 0.17924768013E+02 0.19720705506E+02 0.21604366270E+02 0.23474609026E+02 0.25224260076E+02
 0.26747414577E+02 0.27938078313E+02 0.28699269453E+02 0.28961168643E+02 0.28699328231E+02
 0.27938830999E+02 0.26748809639E+02 0.25226291897E+02 0.23474498531E+02 0.21601518171E+02
 0.19720892764E+02 0.17926952661E+02 0.16287257381E+02 0.14842148466E+02 0.13604489931E+02
 0.12567552660E+02 0.11711838716E+02 0.11013322638E+02 0.10449197530E+02 0.10001594885E+02
 0.96590764998E+01 0.94157645843E+01 0.92699129053E+01 0.92208171803E+01 0.92697513079E+01
 0.94155340481E+01 0.96590855379E+01 0.10001364367E+02 0.10449308338E+02 0.11012701464E+02
 0.11711774037E+02 0.12567480133E+02 0.13603707524E+02 0.14843398975E+02 0.16287805763E+02
 0.15129388019E+02 0.16267065335E+02 0.17482495098E+02 0.18728691162E+02 0.19937907380E+02
 0.21032014408E+02 0.21934959800E+02 0.22578481084E+02 0.22913675623E+02 0.22913646921E+02
 0.22578253725E+02 0.21933839680E+02 0.21030408989E+02 0.19936688535E+02 0.18729989078E+02
 0.17484355497E+02 0.16266463302E+02 0.15127960666E+02 0.14101783596E+02 0.13203982714E+02
 0.12435941191E+02 0.11789492903E+02 0.11251618362E+02 0.10808624711E+02 0.10449197530E+02
 0.10165519133E+02 0.99535581618E+01 0.98118879573E+01 0.97412778528E+01 0.97410929234E+01
 0.98122272551E+01 0.99535387816E+01 0.10165729673E+02 0.10449121030E+02 0.10809250382E+02
 0.11251819192E+02 0.11789624049E+02 0.12436562415E+02 0.13202897145E+02 0.14101215355E+02
 0.13423503142E+02 0.14085128296E+02 0.14808402555E+02 0.15564800679E+02 0.16319890726E+02
 0.17031558327E+02 0.17651461801E+02 0.18134780677E+02 0.18441770317E+02 0.18547143232E+02
 0.18441922561E+02 0.18135266323E+02 0.17652997712E+02 0.17032737387E+02 0.16320137205E+02
 0.15563781980E+02 0.14807192649E+02 0.14085697669E+02 0.13424720544E+02 0.12838461132E+02
 0.12331958554E+02 0.11903114716E+02 0.11545640702E+02 0.11251618362E+02 0.11013322638E+02
 0.10824534940E+02 0.10680870236E+02 0.10579668856E+02 0.10518909939E+02 0.10498977145E+02
 0.10518930872E+02 0.10579530433E+02 0.10680641636E+02 0.10824551588E+02 0.11012713579E+02
 0.11251299611E+02 0.11545470212E+02 0.11902653547E+02 0.12332950217E+02 0.12839049170E+02
 0.12520581071E+02 0.12826092097E+02 0.13175544742E+02 0.13560803685E+02 0.13963400920E+02
 0.14359411821E+02 0.14723514903E+02 0.15026706523E+02 0.15245275255E+02 0.15359660607E+02
 0.15359580522E+02 0.15244945448E+02 0.15025837399E+02 0.14722147437E+02 0.14359012018E+02
 0.13963278224E+02 0.13561505612E+02 0.13176586874E+02 0.12825476241E+02 0.12519480353E+02
 0.12263921702E+02 0.12059463372E+02 0.11903114716E+02 0.11789492903E+02 0.11711838716E+02
 0.11662767882E+02 0.11634731653E+02 0.11620812138E+02 0.11615657761E+02 0.11613930546E+02
 0.11613993813E+02 0.11615391540E+02 0.11621126709E+02 0.11634797371E+02 0.11663401234E+02
 0.11712320858E+02 0.11789826245E+02 0.11903526624E+02 0.12058549050E+02 0.12263390518E+02
 0.12235889748E+02 0.12251938746E+02 0.12309980669E+02 0.12402127851E+02 0.12521700404E+02
 0.12658820356E+02 0.12798752217E+02 0.12928975537E+02 0.13033983143E+02 0.13102451691E+02
 0.13126259358E+02 0.13102619798E+02 0.13034692587E+02 0.12929714917E+02 0.12799658319E+02
 0.12658931797E+02 0.12521870303E+02 0.12401485492E+02 0.12309024054E+02 0.12252462235E+02
 0.12236885575E+02 0.12263921702E+02 0.12331958554E+02 0.12435941191E+02 0.12567552660E+02
 0.12715345192E+02 0.12865812927E+02 0.13003936522E+02 0.13114704364E+02 0.13186962093E+02
 0.13211980284E+02 0.13187207277E+02 0.13114859698E+02 0.13003734951E+02 0.12865072706E+02
 0.12714764533E+02 0.12567102854E+02 0.12435654968E+02 0.12332976870E+02 0.12264560984E+02
 0.12520540413E+02 0.12253093470E+02 0.12037095649E+02 0.11872419823E+02 0.11751828776E+02
 0.11667393522E+02 0.11613642502E+02 0.11580935785E+02 0.11564010253E+02 0.11556267130E+02
 0.11553530897E+02 0.11553495806E+02 0.11555746713E+02 0.11563380445E+02 0.11580511452E+02
 0.11612863690E+02 0.11667356944E+02 0.11751638296E+02 0.11872847697E+02 0.12037996114E+02
 0.12252462235E+02 0.12519480353E+02 0.12838461132E+02 0.13203982714E+02 0.13604489931E+02
 0.14022319632E+02 0.14433613320E+02 0.14811176530E+02 0.15127039992E+02 0.15354067714E+02
 0.15472891696E+02 0.15472587054E+02 0.15353790352E+02 0.15126723085E+02 0.14812091258E+02
 0.14434551995E+02 0.14022962034E+02 0.13604817680E+02 0.13202906658E+02 0.12837819633E+02
 0.13423608200E+02 0.12824848039E+02 0.12309982405E+02 0.11873269710E+02 0.11510083989E+02
 0.11213216329E+02 0.10972191056E+02 0.10783078423E+02 0.10639223459E+02 0.10538354680E+02
 0.10478447016E+02 0.10458530868E+02 0.10478831101E+02 0.10538781913E+02 0.10639676867E+02
 0.10783354651E+02 0.10972971949E+02 0.11213015759E+02 0.11510359011E+02 0.11872847697E+02
 0.12309024054E+02 0.12825476241E+02 0.13424720544E+02 0.14101783596E+02 0.14842148466E+02
 0.15619659324E+02 0.16398024471E+02 0.17131525213E+02 0.17770306793E+02 0.18268121121E+02
 0.18584743885E+02 0.18693710495E+02 0.18585126089E+02 0.18268684828E+02 0.17770000844E+02
 0.17130157728E+02 0.16396797323E+02 0.15619371393E+02 0.14843372041E+02 0.14102634200E+02
 0.15129129933E+02 0.14086510086E+02 0.13175504463E+02 0.12401182076E+02 0.11751996462E+02
 0.11212748762E+02 0.10772078289E+02 0.10414687583E+02 0.10134352064E+02 0.99254153677E+01
 0.97862607341E+01 0.97167056980E+01 0.97163211680E+01 0.97860326622E+01 0.99251310257E+01
 0.10134020571E+02 0.10414433607E+02 0.10771400404E+02 0.11213015759E+02 0.11751638296E+02
 0.12401485492E+02 0.13176586874E+02 0.14085697669E+02 0.15127960666E+02 0.16287257381E+02
 0.17530027066E+02 0.18802861256E+02 0.20038229000E+02 0.21158691775E+02 0.22083523588E+02
 0.22743530985E+02 0.23087110381E+02 0.23086987879E+02 0.22742788215E+02 0.22083324355E+02
 0.21159478666E+02 0.20040257308E+02 0.18803745142E+02 0.17528311227E+02 0.16286094643E+02
 0.17925422931E+02 0.16265355588E+02 0.14808349389E+02 0.13561860247E+02 0.12521298220E+02
 0.11667854279E+02 0.10972218768E+02 0.10414345122E+02 0.99728711502E+01 0.96364987024E+01
 0.93983300863E+01 0.92555814772E+01 0.92084422198E+01 0.92558442012E+01 0.93985121132E+01
 0.96367083692E+01 0.99732867488E+01 0.10414433607E+02 0.10972971949E+02 0.11667356944E+02
 0.12521870303E+02 0.13561505612E+02 0.14807192649E+02 0.16266463302E+02 0.17926952661E+02
 0.19747740847E+02 0.21660565054E+02 0.23567060731E+02 0.25353988626E+02 0.26908653087E+02
 0.28122720987E+02 0.28898712047E+02 0.29165904512E+02 0.28899210401E+02 0.28123248461E+02
 0.26908460093E+02 0.25352205541E+02 0.23564749867E+02 0.21661852799E+02 0.19749978075E+02
 0.22232580311E+02 0.19723051701E+02 0.17482653377E+02 0.15563460295E+02 0.13963947082E+02
 0.12658379807E+02 0.11613533545E+02 0.10783491452E+02 0.10134249720E+02 0.96370113178E+01
 0.92738389143E+01 0.90353685095E+01 0.89162762307E+01 0.89165101360E+01 0.90350783220E+01
 0.92738379628E+01 0.96367083692E+01 0.10134020571E+02 0.10783354651E+02 0.11612863690E+02
 0.12658931797E+02 0.13963278224E+02 0.15563781980E+02 0.17484355497E+02 0.19720892764E+02
 0.22232081394E+02 0.24930121047E+02 0.27698894558E+02 0.30427169218E+02 0.32962525827E+02
 0.35110894558E+02 0.36675889598E+02 0.37501621187E+02 0.37501183812E+02 0.36675548798E+02
 0.35110474751E+02 0.32963718490E+02 0.30429492764E+02 0.27699451230E+02 0.24926807152E+02
 0.28536420232E+02 0.24892780224E+02 0.21602791131E+02 0.18730958668E+02 0.16318808391E+02
 0.14359987383E+02 0.12798794666E+02 0.11580596604E+02 0.10639344210E+02 0.99249932337E+01
 0.93983716878E+01 0.90348898222E+01 0.88213732332E+01 0.87505073127E+01 0.88212009003E+01
 0.90350783220E+01 0.93985121132E+01 0.99251310257E+01 0.10639676867E+02 0.11580511452E+02
 0.12799658319E+02 0.14359012018E+02 0.16320137205E+02 0.18729989078E+02 0.21601518171E+02
 0.24895970591E+02 0.28534668570E+02 0.32467468986E+02 0.36562262420E+02 0.40565847770E+02
 0.44160469376E+02 0.47017619192E+02 0.48857798842E+02 0.49493110912E+02 0.48858160775E+02
 0.47018043879E+02 0.44160025725E+02 0.40563922678E+02 0.36560851343E+02 0.32469184989E+02
 0.37872630687E+02 0.32427940404E+02 0.27625590224E+02 0.23472163196E+02 0.19938739255E+02
 0.17031430038E+02 0.14723079201E+02 0.12929618422E+02 0.11563660343E+02 0.10538963947E+02
 0.97860628251E+01 0.92561408017E+01 0.89162379928E+01 0.87505703569E+01 0.87505073127E+01
 0.89165101360E+01 0.92558442012E+01 0.97860326622E+01 0.10538781913E+02 0.11563380445E+02
 0.12929714917E+02 0.14722147437E+02 0.17032737387E+02 0.19936688535E+02 0.23474498531E+02
 0.27625071195E+02 0.32426275080E+02 0.37874672569E+02 0.43771746183E+02 0.49757740771E+02
 0.55365958765E+02 0.60107064743E+02 0.63541830790E+02 0.65345378105E+02 0.65345220801E+02
 0.63541600089E+02 0.60107213144E+02 0.55367472445E+02 0.49759025924E+02 0.43771578708E+02
 0.51810805266E+02 0.43724979147E+02 0.36473610302E+02 0.30316252615E+02 0.25224470243E+02
 0.21031284115E+02 0.17652517705E+02 0.15025623840E+02 0.13034704739E+02 0.11555429083E+02
 0.10478949737E+02 0.97159845137E+01 0.92087168606E+01 0.89162379928E+01 0.88213732332E+01
 0.89162762307E+01 0.92084422198E+01 0.97163211680E+01 0.10478831101E+02 0.11555746713E+02
 0.13034692587E+02 0.15025837399E+02 0.17652997712E+02 0.21030408989E+02 0.25226291897E+02
 0.30313753373E+02 0.36474992286E+02 0.43725111045E+02 0.51809937525E+02 0.60249824494E+02
 0.68414135760E+02 0.75630241569E+02 0.81278320270E+02 0.84872919947E+02 0.86105572874E+02
 0.84873134568E+02 0.81278214992E+02 0.75629420967E+02 0.68413023402E+02 0.60249944833E+02
 0.71445713254E+02 0.60201170099E+02 0.49665103132E+02 0.40432857166E+02 0.32811773664E+02
 0.26748646857E+02 0.21933659405E+02 0.18135960754E+02 0.15244460353E+02 0.13103329456E+02
 0.11552961159E+02 0.10459317176E+02 0.97159845137E+01 0.92561408017E+01 0.90348898222E+01
 0.90353685095E+01 0.92555814772E+01 0.97167056980E+01 0.10458530868E+02 0.11553495806E+02
 0.13102619798E+02 0.15244945448E+02 0.18135266323E+02 0.21933839680E+02 0.26748809639E+02
 0.32810630265E+02 0.40434865097E+02 0.49663755551E+02 0.60201107892E+02 0.71445898614E+02
 0.82595307096E+02 0.92776777319E+02 0.10118152820E+03 0.10715579969E+03 0.11025489072E+03
 0.11025455731E+03 0.10715626792E+03 0.10118204229E+03 0.92777945248E+02 0.82595213948E+02
 0.96935783939E+02 0.82552036386E+02 0.68321255309E+02 0.55230724014E+02 0.43990167130E+02
 0.34925798011E+02 0.27939239237E+02 0.22577498151E+02 0.18442338337E+02 0.15358990344E+02
 0.13126646923E+02 0.11552961159E+02 0.10478949737E+02 0.97860628251E+01 0.93983716878E+01
 0.92738389143E+01 0.93983300863E+01 0.97862607341E+01 0.10478447016E+02 0.11553530897E+02
 0.13126259358E+02 0.15359580522E+02 0.18441922561E+02 0.22578253725E+02 0.27938830999E+02
 0.34926029780E+02 0.43990603211E+02 0.55229145755E+02 0.68322466542E+02 0.82552004362E+02
 0.96935565539E+02 0.11039120146E+03 0.12191637345E+03 0.13070110262E+03 0.13618447183E+03
 0.13804611591E+03 0.13618421527E+03 0.13070050278E+03 0.12191554848E+03 0.11039126587E+03
 0.12717967901E+03 0.11035954599E+03 0.92700665317E+02 0.75502249746E+02 0.59936059134E+02
 0.46818547697E+02 0.36466720187E+02 0.28700148137E+02 0.22913048499E+02 0.18547839252E+02
 0.15358990344E+02 0.13103329456E+02 0.11555429083E+02 0.10538963947E+02 0.99249932337E+01
 0.96370113178E+01 0.96364987024E+01 0.99254153677E+01 0.10538354680E+02 0.11556267130E+02
 0.13102451691E+02 0.15359660607E+02 0.18547143232E+02 0.22913646921E+02 0.28699328231E+02
 0.36467275673E+02 0.46818100051E+02 0.59935967833E+02 0.75503009282E+02 0.92699659030E+02
 0.11035950406E+03 0.12717988346E+03 0.14195630239E+03 0.15373514545E+03 0.16187812165E+03
 0.16602501957E+03 0.16602543497E+03 0.16187850235E+03 0.15373592397E+03 0.14195620810E+03
 0.15988140037E+03 0.14194121032E+03 0.12186569258E+03 0.10108247316E+03 0.81126863738E+02
 0.63346691764E+02 0.48639709553E+02 0.37279861441E+02 0.28961622516E+02 0.22913048499E+02
 0.18442338337E+02 0.15244460353E+02 0.13034704739E+02 0.11563660343E+02 0.10639344210E+02
 0.10134249720E+02 0.99728711502E+01 0.10134352064E+02 0.10639223459E+02 0.11564010253E+02
 0.13033983143E+02 0.15245275255E+02 0.18441770317E+02 0.22913675623E+02 0.28961168643E+02
 0.37280558571E+02 0.48639092210E+02 0.63347048318E+02 0.81126997691E+02 0.10108189744E+03
 0.12186653890E+03 0.14194131542E+03 0.15988130930E+03 0.17458621231E+03 0.18537309243E+03
 0.19191230436E+03 0.19409826184E+03 0.19191171993E+03 0.18537233236E+03 0.17458597893E+03
 0.19197917721E+03 0.17459064971E+03 0.15372037441E+03 0.13064363600E+03 0.10704366605E+03
 0.84707283392E+02 0.65138150497E+02 0.49268767560E+02 0.37279861441E+02 0.28700148137E+02
 0.22577498151E+02 0.18135960754E+02 0.15025623840E+02 0.12929618422E+02 0.11580596604E+02
 0.10783491452E+02 0.10414345122E+02 0.10414687583E+02 0.10783078423E+02 0.11580935785E+02
 0.12928975537E+02 0.15026706523E+02 0.18134780677E+02 0.22578481084E+02 0.28699269453E+02
 0.37280555692E+02 0.49267998955E+02 0.65138900651E+02 0.84706498691E+02 0.10704379998E+03
 0.13064390556E+03 0.15371993097E+03 0.17459062829E+03 0.19197949312E+03 0.20515852010E+03
 0.21388345516E+03 0.21819794832E+03 0.21819812549E+03 0.21388399925E+03 0.20515863555E+03
 0.22041094069E+03 0.20517952207E+03 0.18539226922E+03 0.16186971307E+03 0.13612621794E+03
 0.11013682134E+03 0.85935490725E+02 0.65138150497E+02 0.48639709553E+02 0.36466720187E+02
 0.27939239237E+02 0.21933659405E+02 0.17652517705E+02 0.14723079201E+02 0.12798794666E+02
 0.11613533545E+02 0.10972218768E+02 0.10772078289E+02 0.10972191056E+02 0.11613642502E+02
 0.12798752217E+02 0.14723514903E+02 0.17651461801E+02 0.21934959800E+02 0.27938078313E+02
 0.36467751755E+02 0.48638781025E+02 0.65138958570E+02 0.85934898717E+02 0.11013755898E+03
 0.13612611016E+03 0.16186965426E+03 0.18539274798E+03 0.20517977562E+03 0.22041086000E+03
 0.23092728955E+03 0.23699635745E+03 0.23896758877E+03 0.23699602528E+03 0.23092692367E+03
 0.24289245629E+03 0.23095941891E+03 0.21393062755E+03 0.19194764624E+03 0.16602245904E+03
 0.13798855664E+03 0.11013682134E+03 0.84707283392E+02 0.63346691764E+02 0.46818547697E+02
 0.34925798011E+02 0.26748646857E+02 0.21031284115E+02 0.17031430038E+02 0.14359987383E+02
 0.12658379807E+02 0.11667854279E+02 0.11212748762E+02 0.11213216329E+02 0.11667393522E+02
 0.12658820356E+02 0.14359411821E+02 0.17031558327E+02 0.21032014408E+02 0.26747414577E+02
 0.34927028929E+02 0.46817456742E+02 0.63347776707E+02 0.84706107697E+02 0.11013775673E+03
 0.13798761642E+03 0.16602291701E+03 0.19194747463E+03 0.21393051945E+03 0.23095901260E+03
 0.24289277126E+03 0.25022225666E+03 0.25364664362E+03 0.25364659644E+03 0.25022253676E+03
 0.25848739528E+03 0.25025667431E+03 0.23705549821E+03 0.21826179494E+03 0.19414002754E+03
 0.16602245904E+03 0.13612621794E+03 0.10704366605E+03 0.81126863738E+02 0.59936059134E+02
 0.43990167130E+02 0.32811773664E+02 0.25224470243E+02 0.19938739255E+02 0.16318808391E+02
 0.13963947082E+02 0.12521298220E+02 0.11751996462E+02 0.11510083989E+02 0.11751828776E+02
 0.12521700404E+02 0.13963400920E+02 0.16319890726E+02 0.19937907380E+02 0.25224260076E+02
 0.32812626496E+02 0.43988931938E+02 0.59937117529E+02 0.81126033104E+02 0.10704467799E+03
 0.13612546535E+03 0.16602333187E+03 0.19413965473E+03 0.21826193335E+03 0.23705563624E+03
 0.25025689555E+03 0.25848692524E+03 0.26279734986E+03 0.26411265156E+03 0.26279731509E+03
 0.26769863675E+03 0.26282589884E+03 0.25370289919E+03 0.23903808598E+03 0.21826179494E+03
 0.19194764624E+03 0.16186971307E+03 0.13064363600E+03 0.10108247316E+03 0.75502249746E+02
 0.55230724014E+02 0.40432857166E+02 0.30316252615E+02 0.23472163196E+02 0.18730958668E+02
 0.15563460295E+02 0.13561860247E+02 0.12401182076E+02 0.11873269710E+02 0.11872419823E+02
 0.12402127851E+02 0.13560803685E+02 0.15564800679E+02 0.18728691162E+02 0.23474609026E+02
 0.30314794927E+02 0.40433431721E+02 0.55230822247E+02 0.75501785941E+02 0.10108295567E+03
 0.13064308774E+03 0.16187019678E+03 0.19194704983E+03 0.21826189616E+03 0.23903781575E+03
 0.25370246513E+03 0.26282576840E+03 0.26769886564E+03 0.26970066370E+03 0.26970065722E+03
 0.27211257662E+03 0.26971880394E+03 0.26415221034E+03 0.25370289919E+03 0.23705549821E+03
 0.21393062755E+03 0.18539226922E+03 0.15372037441E+03 0.12186569258E+03 0.92700665317E+02
 0.68321255309E+02 0.49665103132E+02 0.36473610302E+02 0.27625590224E+02 0.21602791131E+02
 0.17482653377E+02 0.14808349389E+02 0.13175504463E+02 0.12309982405E+02 0.12037095649E+02
 0.12309980669E+02 0.13175544742E+02 0.14808402555E+02 0.17482495098E+02 0.21604366270E+02
 0.27622808422E+02 0.36475734820E+02 0.49663609960E+02 0.68322310307E+02 0.92700104204E+02
 0.12186608482E+03 0.15372030502E+03 0.18539232025E+03 0.21393066243E+03 0.23705562734E+03
 0.25370270063E+03 0.26415227360E+03 0.26971860046E+03 0.27211211634E+03 0.27273252170E+03
 0.27369472764E+03 0.27273919662E+03 0.26971880394E+03 0.26282589884E+03 0.25025667431E+03
 0.23095941891E+03 0.20517952207E+03 0.17459064971E+03 0.14194121032E+03 0.11035954599E+03
 0.82552036386E+02 0.60201170099E+02 0.43724979147E+02 0.32427940404E+02 0.24892780224E+02
 0.19723051701E+02 0.16265355588E+02 0.14086510086E+02 0.12824848039E+02 0.12253093470E+02
 0.12251938746E+02 0.12826092097E+02 0.14085128296E+02 0.16267065335E+02 0.19720705506E+02
 0.24894034671E+02 0.32428811477E+02 0.43723790754E+02 0.60201804887E+02 0.82551630128E+02
 0.11035983396E+03 0.14194104024E+03 0.17459070570E+03 0.20517948124E+03 0.23095928152E+03
 0.25025624556E+03 0.26282621149E+03 0.26971818227E+03 0.27273964326E+03 0.27369476649E+03
 0.27387702279E+03 0.27347873415E+03 0.27169985706E+03 0.26699962187E+03 0.25746734990E+03
 0.24158081788E+03 0.21889385423E+03 0.19038270267E+03 0.15834154901E+03 0.12581397875E+03
 0.95819978992E+02 0.70605154434E+02 0.51224182446E+02 0.37486562432E+02 0.28283269471E+02
 0.22053940841E+02 0.17795632636E+02 0.15031417291E+02 0.13344749760E+02 0.12451497389E+02
 0.12169808541E+02 0.12451516037E+02 0.13344694799E+02 0.15031589697E+02 0.17795125521E+02
 0.22056042920E+02 0.28280203178E+02 0.37488169057E+02 0.51223906008E+02 0.70605208629E+02