    2    2  100    1
  0.1565213E+02  0.2752972E-09  0.2752972E-09  0.4769460E-09  0.5000000E-15
  1.000000000000000E-004
  CAR 
 Pt-hcc                                  
     32     70     24
 
  0.0000000E+00  0.0000000E+00  0.0000000E+00  0.1250000E-02
      1        -41.339066   1.000000
      2        -41.155805   1.000000
      3        -41.155804   1.000000
      4        -41.113859   1.000000
      5        -41.113858   1.000000
      6        -40.996219   1.000000
      7          1.497475   1.000000
      8          4.159109   1.000000
      9          7.332217   1.000000
     10          7.837042   1.000000
     11          7.837042   1.000000
     12          8.210663   1.000000
     13          8.210663   1.000000
     14          9.482104   1.000000
     15          9.482105   1.000000
     16         10.568485   1.000000
     17         11.093999   1.000000
     18         11.093999   1.000000
     19         16.068081   0.000000
     20         26.380886   0.000000
     21         27.011888   0.000000
     22         28.559896   0.000000
     23         32.423800   0.000000
     24         32.423800   0.000000
 
  0.1000000E+00  0.1387779E-16  0.0000000E+00  0.7500000E-02
      1        -41.326057   1.000000
      2        -41.192304   1.000000
      3        -41.165910   1.000000
      4        -41.151481   1.000000
      5        -41.121216   1.000000
      6        -40.998698   1.000000
      7          1.861520   1.000000
      8          4.489300   1.000000
      9          7.262650   1.000000
     10          7.849302   1.000000
     11          8.060645   1.000000
     12          8.116625   1.000000
     13          8.476201   1.000000
     14          8.892829   1.000000
     15          9.309201   1.000000
     16          9.461164   1.000000
     17         11.158729   0.999978
     18         12.862985   0.000000
     19         16.030900   0.000000
     20         26.829436   0.000000
     21         27.542169   0.000000
     22         28.909582   0.000000
     23         30.778425   0.000000
     24         30.912424   0.000000
 
  0.2000000E+00  0.2775558E-16  0.0000000E+00  0.7500000E-02
      1        -41.292118   1.000000
      2        -41.289607   1.000000
      3        -41.249392   1.000000
      4        -41.193542   1.000000
      5        -41.141234   1.000000
      6        -41.007611   1.000000
      7          2.853236   1.000000
      8          5.213354   1.000000
      9          7.030128   1.000000
     10          7.516083   1.000000
     11          7.564283   1.000000
     12          8.479762   1.000000
     13          8.907209   1.000000
     14          8.925398   1.000000
     15          8.943564   1.000000
     16          9.222545   1.000000
     17         11.261422   0.880880
     18         15.053459   0.000000
     19         15.958341   0.000000
     20         25.394797   0.000000
     21         28.148679   0.000000
     22         28.471918   0.000000
     23         29.320133   0.000000
     24         29.526143   0.000000
 
  0.3000000E+00  0.0000000E+00  0.0000000E+00  0.7500000E-02
      1        -41.409656   1.000000
      2        -41.368556   1.000000
      3        -41.244877   1.000000
      4        -41.227335   1.000000
      5        -41.166771   1.000000
      6        -41.024296   1.000000
      7          4.064089   1.000000
      8          5.335934   1.000000
      9          6.448910   1.000000
     10          7.298102   1.000000
     11          7.661253   1.000000
     12          8.429512   1.000000
     13          8.529867   1.000000
     14          9.642260   1.000000
     15         10.043053   1.000000
     16         10.279419   1.000000
     17         11.317320   0.343971
     18         16.073060   0.000000
     19         17.280742   0.000000
     20         21.669831   0.000000
     21         26.072671   0.000000
     22         26.591171   0.000000
     23         28.281735   0.000000
     24         29.341980   0.000000
 
  0.4000000E+00  0.0000000E+00  0.0000000E+00  0.7500000E-02
      1        -41.507285   1.000000
      2        -41.463041   1.000000
      3        -41.254152   1.000000
      4        -41.197398   1.000000
      5        -41.188472   1.000000
      6        -41.047444   1.000000
      7          4.724040   1.000000
      8          5.018689   1.000000
      9          5.787648   1.000000
     10          7.823352   1.000000
     11          8.053040   1.000000
     12          8.248245   1.000000
     13          8.475587   1.000000
     14         11.139194   0.999998
     15         11.320575   0.310755
     16         11.330081   0.222859
     17         11.531781   0.000000
     18         16.867379   0.000000
     19         18.021940   0.000000
     20         19.254595   0.000000
     21         23.806418   0.000000
     22         24.146317   0.000000
     23         25.254437   0.000000
     24         28.065540   0.000000
 
  0.5000000E+00  0.0000000E+00  0.0000000E+00  0.3750000E-02
      1        -41.543976   1.000000
      2        -41.499157   1.000000
      3        -41.264583   1.000000
      4        -41.196648   1.000000
      5        -41.173894   1.000000
      6        -41.062051   1.000000
      7          4.810131   1.000000
      8          4.893673   1.000000
      9          5.563658   1.000000
     10          7.916919   1.000000
     11          8.147425   1.000000
     12          8.353425   1.000000
     13          8.677082   1.000000
     14         11.329405   0.228606
     15         11.601261   0.000000
     16         11.806734   0.000000
     17         13.591958   0.000000
     18         15.079323   0.000000
     19         18.622804   0.000000
     20         20.204362   0.000000
     21         20.899349   0.000000
     22         23.357670   0.000000
     23         24.623251   0.000000
     24         27.481991   0.000000
 
  0.1000000E+00  0.1000000E+00  0.0000000E+00  0.7500000E-02
      1        -41.302912   1.000000
      2        -41.253154   1.000000
      3        -41.226375   1.000000
      4        -41.178883   1.000000
      5        -41.140236   1.000000
      6        -41.004489   1.000000
      7          2.547893   1.000000
      8          5.065081   1.000000
      9          6.989411   1.000000
     10          7.762335   1.000000
     11          7.923138   1.000000
     12          8.074251   1.000000
     13          8.706966   1.000000
     14          8.721182   1.000000
     15          9.070629   1.000000
     16          9.373333   1.000000
     17         11.181697   0.999703
     18         14.475717   0.000000
     19         15.978021   0.000000
     20         26.788388   0.000000
     21         27.434240   0.000000
     22         28.448265   0.000000
     23         29.459173   0.000000
     24         30.222650   0.000000
 
  0.2000000E+00  0.1000000E+00  0.0000000E+00  0.1500000E-01
      1        -41.353910   1.000000
      2        -41.327099   1.000000
      3        -41.262185   1.000000
      4        -41.218202   1.000000
      5        -41.170836   1.000000
      6        -41.017588   1.000000
      7          3.724429   1.000000
      8          5.678014   1.000000
      9          6.808890   1.000000
     10          6.863509   1.000000
     11          7.489861   1.000000
     12          8.221904   1.000000
     13          8.692467   1.000000
     14          9.003181   1.000000
     15          9.775445   1.000000
     16         10.185524   1.000000
     17         11.183834   0.999629
     18         16.019098   0.000000
     19         16.577629   0.000000
     20         23.573737   0.000000
     21         25.473990   0.000000
     22         27.587211   0.000000
     23         29.510178   0.000000
     24         30.201404   0.000000
 
  0.3000000E+00  0.1000000E+00  0.0000000E+00  0.1500000E-01
      1        -41.458603   1.000000
      2        -41.421931   1.000000
      3        -41.258209   1.000000
      4        -41.213605   1.000000
      5        -41.200002   1.000000
      6        -41.038581   1.000000
      7          4.784746   1.000000
      8          5.435323   1.000000
      9          6.081636   1.000000
     10          7.311670   1.000000
     11          7.922944   1.000000
     12          7.941170   1.000000
     13          8.508636   1.000000
     14          9.802870   1.000000
     15         10.871523   1.000000
     16         11.171825   0.999898
     17         11.624692   0.000000
     18         16.607727   0.000000
     19         18.721512   0.000000
     20         19.735705   0.000000
     21         23.353177   0.000000
     22         26.139339   0.000000
     23         26.514589   0.000000
     24         28.488390   0.000000
 
  0.4000000E+00  0.1000000E+00  0.0000000E+00  0.1500000E-01
      1        -41.523320   1.000000
      2        -41.479514   1.000000
      3        -41.282888   1.000000
      4        -41.218062   1.000000
      5        -41.173711   1.000000
      6        -41.061318   1.000000
      7          5.088644   1.000000
      8          5.179999   1.000000
      9          5.674607   1.000000
     10          7.868306   1.000000
     11          8.102914   1.000000
     12          8.107966   1.000000
     13          8.443026   1.000000
     14         11.050414   1.000000
     15         11.154984   0.999986
     16         11.434169   0.000105
     17         13.341385   0.000000
     18         16.313700   0.000000
     19         18.287027   0.000000
     20         20.394233   0.000000
     21         21.156835   0.000000
     22         23.510343   0.000000
     23         25.096111   0.000000
     24         27.405338   0.000000
 
  0.2000000E+00  0.2000000E+00  0.0000000E+00  0.7500000E-02
      1        -41.413321   1.000000
      2        -41.411972   1.000000
      3        -41.263212   1.000000
      4        -41.222059   1.000000
      5        -41.219067   1.000000
      6        -41.035591   1.000000
      7          4.940456   1.000000
      8          6.286369   1.000000
      9          6.286457   1.000000
     10          6.354043   1.000000
     11          7.708102   1.000000
     12          7.729968   1.000000
     13          8.703420   1.000000
     14          9.057600   1.000000
     15         10.855840   1.000000
     16         11.002594   1.000000
     17         11.706075   0.000000
     18         16.585473   0.000000
     19         18.599733   0.000000
     20         21.188404   0.000000
     21         22.099559   0.000000
     22         26.887990   0.000000
     23         28.157047   0.000000
     24         28.634572   0.000000
 
  0.3000000E+00  0.2000000E+00  0.0000000E+00  0.1500000E-01
      1        -41.476543   1.000000
      2        -41.446328   1.000000
      3        -41.316467   1.000000
      4        -41.266226   1.000000
      5        -41.173950   1.000000
      6        -41.060964   1.000000
      7          5.724769   1.000000
      8          5.896350   1.000000
      9          5.937776   1.000000
     10          7.096463   1.000000
     11          7.583872   1.000000
     12          8.212240   1.000000
     13          8.261648   1.000000
     14          9.857870   1.000000
     15         10.863722   1.000000
     16         11.302208   0.510290
     17         13.395235   0.000000
     18         17.581701   0.000000
     19         18.515933   0.000000
     20         20.131489   0.000000
     21         20.694755   0.000000
     22         25.117271   0.000000
     23         26.126682   0.000000
     24         27.141846   0.000000
 
  0.4000000E+00  0.2000000E+00  0.0000000E+00  0.7500000E-02
      1        -41.499580   1.000000
      2        -41.455356   1.000000
      3        -41.341519   1.000000
      4        -41.282683   1.000000
      5        -41.148179   1.000000
      6        -41.079270   1.000000
      7          5.758894   1.000000
      8          5.784087   1.000000
      9          5.841953   1.000000
     10          7.674373   1.000000
     11          7.722707   1.000000
     12          7.832899   1.000000
     13          8.531515   1.000000
     14         10.628224   1.000000
     15         10.813265   1.000000
     16         11.107786   1.000000
     17         14.991951   0.000000
     18         15.519250   0.000000
     19         18.829335   0.000000
     20         20.427626   0.000000
     21         21.906753   0.000000
     22         22.946545   0.000000
     23         25.361628   0.000000
     24         26.611380   0.000000
 
  0.3000000E+00  0.3000000E+00  0.0000000E+00  0.7500000E-02
      1        -41.462402   1.000000
      2        -41.428550   1.000000
      3        -41.380482   1.000000
      4        -41.337682   1.000000
      5        -41.133837   1.000000
      6        -41.090921   1.000000
      7          5.852164   1.000000
      8          6.277950   1.000000
      9          6.535143   1.000000
     10          6.979768   1.000000
     11          7.536088   1.000000
     12          7.807834   1.000000
     13          8.623144   1.000000
     14         10.222817   1.000000
     15         10.644879   1.000000
     16         10.946158   1.000000
     17         15.008192   0.000000
     18         16.273864   0.000000
     19         17.697566   0.000000
     20         21.272229   0.000000
     21         22.840090   0.000000
     22         24.070412   0.000000
     23         24.893555   0.000000
     24         25.272982   0.000000
 
  0.0000000E+00  0.0000000E+00  0.1250000E+00  0.2500000E-02
      1        -41.325499   1.000000
      2        -41.153444   1.000000
      3        -41.153443   1.000000
      4        -41.115179   1.000000
      5        -41.115178   1.000000
      6        -41.009180   1.000000
      7          1.632754   1.000000
      8          4.140587   1.000000
      9          7.298301   1.000000
     10          7.817661   1.000000
     11          7.817662   1.000000
     12          8.171337   1.000000
     13          8.171338   1.000000
     14          9.582351   1.000000
     15          9.582351   1.000000
     16          9.951563   1.000000
     17         11.067172   1.000000
     18         11.067172   1.000000
     19         16.935519   0.000000
     20         25.929411   0.000000
     21         27.523172   0.000000
     22         28.270871   0.000000
     23         31.845569   0.000000
     24         31.845569   0.000000
 
  0.1000000E+00  0.1387779E-16  0.1250000E+00  0.1500000E-01
      1        -41.314763   1.000000
      2        -41.189935   1.000000
      3        -41.164264   1.000000
      4        -41.153818   1.000000
      5        -41.122843   1.000000
      6        -41.010502   1.000000
      7          1.994122   1.000000
      8          4.476855   1.000000
      9          7.265696   1.000000
     10          7.761050   1.000000
     11          7.954996   1.000000
     12          8.087441   1.000000
     13          8.432236   1.000000
     14          8.843038   1.000000
     15          9.427529   1.000000
     16          9.461896   1.000000
     17         11.119982   1.000000
     18         12.327533   0.000000
     19         17.020018   0.000000
     20         26.439838   0.000000
     21         27.956633   0.000000
     22         28.670071   0.000000
     23         30.160971   0.000000
     24         30.824783   0.000000
 
  0.2000000E+00  0.2775558E-16  0.1250000E+00  0.1500000E-01
      1        -41.304548   1.000000
      2        -41.266373   1.000000
      3        -41.251653   1.000000
      4        -41.191576   1.000000
      5        -41.143196   1.000000
      6        -41.016829   1.000000
      7          2.970167   1.000000
      8          5.224057   1.000000
      9          7.062034   1.000000
     10          7.259072   1.000000
     11          7.568402   1.000000
     12          8.363375   1.000000
     13          8.741191   1.000000
     14          9.092980   1.000000
     15          9.159497   1.000000
     16          9.270421   1.000000
     17         11.200460   0.998156
     18         13.870805   0.000000
     19         17.420877   0.000000
     20         25.490949   0.000000
     21         27.936760   0.000000
     22         28.628703   0.000000
     23         28.809602   0.000000
     24         29.952602   0.000000
 
  0.3000000E+00  0.0000000E+00  0.1250000E+00  0.1500000E-01
      1        -41.412164   1.000000
      2        -41.372328   1.000000
      3        -41.232504   1.000000
      4        -41.225034   1.000000
      5        -41.169260   1.000000
      6        -41.030724   1.000000
      7          4.117201   1.000000
      8          5.365177   1.000000
      9          6.430135   1.000000
     10          7.130504   1.000000
     11          7.687203   1.000000
     12          8.538163   1.000000
     13          8.592297   1.000000
     14          9.696965   1.000000
     15         10.064937   1.000000
     16         10.230170   1.000000
     17         11.246034   0.946805
     18         14.977477   0.000000
     19         18.402831   0.000000
     20         21.944846   0.000000
     21         26.315225   0.000000
     22         26.350191   0.000000
     23         27.939860   0.000000
     24         29.815884   0.000000
 
  0.4000000E+00  0.0000000E+00  0.1250000E+00  0.1500000E-01
      1        -41.508024   1.000000
      2        -41.467041   1.000000
      3        -41.251587   1.000000
      4        -41.190922   1.000000
      5        -41.188238   1.000000
      6        -41.050824   1.000000
      7          4.657358   1.000000
      8          5.026424   1.000000
      9          5.946956   1.000000
     10          7.180634   1.000000
     11          8.274984   1.000000
     12          8.334304   1.000000
     13          9.030447   1.000000
     14         11.062380   1.000000
     15         11.155176   0.999986
     16         11.424368   0.000302
     17         11.443367   0.000036
     18         16.003141   0.000000
     19         18.066134   0.000000
     20         20.077046   0.000000
     21         23.529885   0.000000
     22         24.426907   0.000000
     23         25.582501   0.000000
     24         28.287656   0.000000
 
  0.5000000E+00  0.0000000E+00  0.1250000E+00  0.7500000E-02
      1        -41.544805   1.000000
      2        -41.502679   1.000000
      3        -41.261753   1.000000
      4        -41.199034   1.000000
      5        -41.166042   1.000000
      6        -41.063364   1.000000
      7          4.733115   1.000000
      8          4.840682   1.000000
      9          5.792897   1.000000
     10          7.244282   1.000000
     11          8.239138   1.000000
     12          8.427041   1.000000
     13          9.484338   1.000000
     14         11.148569   0.999994
     15         11.622080   0.000000
     16         11.800475   0.000000
     17         13.351504   0.000000
     18         14.965592   0.000000
     19         18.485413   0.000000
     20         19.242694   0.000000
     21         22.116448   0.000000
     22         23.652431   0.000000
     23         24.756765   0.000000
     24         27.763840   0.000000
 
  0.1000000E+00  0.1000000E+00  0.1250000E+00  0.1500000E-01
      1        -41.298418   1.000000
      2        -41.245385   1.000000
      3        -41.228139   1.000000
      4        -41.178741   1.000000
      5        -41.142207   1.000000
      6        -41.014579   1.000000
      7          2.672187   1.000000
      8          5.067952   1.000000
      9          7.021180   1.000000
     10          7.476110   1.000000
     11          7.844058   1.000000
     12          8.072161   1.000000
     13          8.637086   1.000000
     14          8.860796   1.000000
     15          9.158587   1.000000
     16          9.446290   1.000000
     17         11.129844   1.000000
     18         13.513218   0.000000
     19         17.269381   0.000000
     20         26.737809   0.000000
     21         27.499995   0.000000
     22         28.357750   0.000000
     23         29.005484   0.000000
     24         30.486039   0.000000
 
  0.2000000E+00  0.1000000E+00  0.1250000E+00  0.3000000E-01
      1        -41.358020   1.000000
      2        -41.330162   1.000000
      3        -41.247389   1.000000
      4        -41.216906   1.000000
      5        -41.172800   1.000000
      6        -41.024856   1.000000
      7          3.815774   1.000000
      8          5.713476   1.000000
      9          6.683625   1.000000
     10          6.876222   1.000000
     11          7.458212   1.000000
     12          8.122024   1.000000
     13          8.841185   1.000000
     14          8.991570   1.000000
     15          9.887907   1.000000
     16         10.132074   1.000000
     17         11.132157   0.999999
     18         14.701813   0.000000
     19         18.059466   0.000000
     20         23.755352   0.000000
     21         25.604911   0.000000
     22         27.516183   0.000000
     23         28.920979   0.000000
     24         30.784685   0.000000
 
  0.3000000E+00  0.1000000E+00  0.1250000E+00  0.3000000E-01
      1        -41.460268   1.000000
      2        -41.425672   1.000000
      3        -41.257064   1.000000
      4        -41.206308   1.000000
      5        -41.199045   1.000000
      6        -41.042712   1.000000
      7          4.766712   1.000000
      8          5.470756   1.000000
      9          6.148414   1.000000
     10          7.031366   1.000000
     11          7.896673   1.000000
     12          8.280311   1.000000
     13          8.523339   1.000000
     14          9.819283   1.000000
     15         10.919133   1.000000
     16         10.978741   1.000000
     17         11.686286   0.000000
     18         15.799955   0.000000
     19         18.978226   0.000000
     20         20.504512   0.000000
     21         23.471443   0.000000
     22         25.657177   0.000000
     23         26.816284   0.000000
     24         28.696900   0.000000
 
  0.4000000E+00  0.1000000E+00  0.1250000E+00  0.3000000E-01
      1        -41.524173   1.000000
      2        -41.483395   1.000000
      3        -41.281103   1.000000
      4        -41.220829   1.000000
      5        -41.165605   1.000000
      6        -41.063001   1.000000
      7          4.963674   1.000000
      8          5.164804   1.000000
      9          5.937394   1.000000
     10          7.184907   1.000000
     11          7.977359   1.000000
     12          8.551684   1.000000
     13          8.956138   1.000000
     14         10.939436   1.000000
     15         11.056173   1.000000
     16         11.477650   0.000000
     17         13.293437   0.000000
     18         16.115271   0.000000
     19         17.937106   0.000000
     20         20.290048   0.000000
     21         21.654527   0.000000
     22         23.777932   0.000000
     23         25.309286   0.000000
     24         27.497420   0.000000
 
  0.2000000E+00  0.2000000E+00  0.1250000E+00  0.1500000E-01
      1        -41.415892   1.000000
      2        -41.414546   1.000000
      3        -41.263587   1.000000
      4        -41.227306   1.000000
      5        -41.205293   1.000000
      6        -41.039760   1.000000
      7          4.973935   1.000000
      8          6.121999   1.000000
      9          6.372774   1.000000
     10          6.454540   1.000000
     11          7.713782   1.000000
     12          7.717738   1.000000
     13          8.583389   1.000000
     14          9.210754   1.000000
     15         10.784977   1.000000
     16         10.968114   1.000000
     17         11.779815   0.000000
     18         15.799245   0.000000
     19         19.215157   0.000000
     20         21.640530   0.000000
     21         22.264834   0.000000
     22         26.739057   0.000000
     23         27.312280   0.000000
     24         29.296402   0.000000
 
  0.3000000E+00  0.2000000E+00  0.1250000E+00  0.3000000E-01
      1        -41.477138   1.000000
      2        -41.449895   1.000000
      3        -41.316466   1.000000
      4        -41.269507   1.000000
      5        -41.165387   1.000000
      6        -41.062071   1.000000
      7          5.560486   1.000000
      8          5.950424   1.000000
      9          6.121826   1.000000
     10          6.892629   1.000000
     11          7.726293   1.000000
     12          8.108121   1.000000
     13          8.401213   1.000000
     14          9.919660   1.000000
     15         10.658005   1.000000
     16         11.406519   0.001725
     17         13.439408   0.000000
     18         17.605095   0.000000
     19         17.844743   0.000000
     20         20.213426   0.000000
     21         21.515642   0.000000
     22         24.616365   0.000000
     23         26.127556   0.000000
     24         27.221921   0.000000
 
  0.4000000E+00  0.2000000E+00  0.1250000E+00  0.1500000E-01
      1        -41.499781   1.000000
      2        -41.459150   1.000000
      3        -41.341362   1.000000
      4        -41.286069   1.000000
      5        -41.141676   1.000000
      6        -41.078352   1.000000
      7          5.503165   1.000000
      8          5.830952   1.000000
      9          6.214726   1.000000
     10          7.114962   1.000000
     11          7.583808   1.000000
     12          8.301005   1.000000
     13          8.698974   1.000000
     14         10.599641   1.000000
     15         10.653985   1.000000
     16         11.184532   0.999602
     17         15.071778   0.000000
     18         15.553182   0.000000
     19         18.915412   0.000000
     20         20.108744   0.000000
     21         21.080129   0.000000
     22         24.054064   0.000000
     23         25.628438   0.000000
     24         25.862798   0.000000
 
  0.3000000E+00  0.3000000E+00  0.1250000E+00  0.1500000E-01
      1        -41.461252   1.000000
      2        -41.432290   1.000000
      3        -41.382343   1.000000
      4        -41.341001   1.000000
      5        -41.128246   1.000000
      6        -41.088742   1.000000
      7          5.887714   1.000000
      8          6.256660   1.000000
      9          6.568595   1.000000
     10          6.862823   1.000000
     11          7.665067   1.000000
     12          7.707473   1.000000
     13          8.632255   1.000000
     14         10.316259   1.000000
     15         10.429661   1.000000
     16         11.041489   1.000000
     17         15.104994   0.000000
     18         16.418726   0.000000
     19         17.953884   0.000000
     20         20.396653   0.000000
     21         23.040266   0.000000
     22         23.131160   0.000000
     23         25.002171   0.000000
     24         26.300163   0.000000
 
  0.0000000E+00  0.0000000E+00  0.2500000E+00  0.2500000E-02
      1        -41.288959   1.000000
      2        -41.148969   1.000000
      3        -41.148968   1.000000
      4        -41.119581   1.000000
      5        -41.119580   1.000000
      6        -41.046143   1.000000
      7          2.021606   1.000000
      8          4.046133   1.000000
      9          7.221156   1.000000
     10          7.786090   1.000000
     11          7.786090   1.000000
     12          8.070082   1.000000
     13          8.070082   1.000000
     14          8.798671   1.000000
     15          9.841529   1.000000
     16          9.841529   1.000000
     17         10.972066   1.000000
     18         10.972066   1.000000
     19         18.855692   0.000000
     20         25.416607   0.000000
     21         27.649980   0.000000
     22         27.841394   0.000000
     23         31.322123   0.000000
     24         31.322123   0.000000
 
  0.1000000E+00  0.1387779E-16  0.2500000E+00  0.1500000E-01
      1        -41.282627   1.000000
      2        -41.182292   1.000000
      3        -41.160535   1.000000
      4        -41.159312   1.000000
      5        -41.127618   1.000000
      6        -41.043649   1.000000
      7          2.376255   1.000000
      8          4.397191   1.000000
      9          7.250396   1.000000
     10          7.605702   1.000000
     11          7.682844   1.000000
     12          8.041949   1.000000
     13          8.324944   1.000000
     14          8.440341   1.000000
     15          9.720210   1.000000
     16          9.723321   1.000000
     17         10.995432   1.000000
     18         11.608520   0.000000
     19         19.007273   0.000000
     20         25.928418   0.000000
     21         28.061305   0.000000
     22         28.224173   0.000000
     23         29.881425   0.000000
     24         30.766641   0.000000
 
  0.2000000E+00  0.2775558E-16  0.2500000E+00  0.1500000E-01
      1        -41.306991   1.000000
      2        -41.262647   1.000000
      3        -41.226757   1.000000
      4        -41.186133   1.000000
      5        -41.148947   1.000000
      6        -41.043326   1.000000
      7          3.308686   1.000000
      8          5.200430   1.000000
      9          6.877054   1.000000
     10          7.172573   1.000000
     11          7.337997   1.000000
     12          8.163093   1.000000
     13          8.657344   1.000000
     14          9.020232   1.000000
     15          9.578771   1.000000
     16          9.604579   1.000000
     17         11.020211   1.000000
     18         12.636398   0.000000
     19         19.455752   0.000000
     20         25.770984   0.000000
     21         27.387238   0.000000
     22         28.147364   0.000000
     23         29.102166   0.000000
     24         30.113021   0.000000
 
  0.3000000E+00  0.0000000E+00  0.2500000E+00  0.1500000E-01
      1        -41.415304   1.000000
      2        -41.382420   1.000000
      3        -41.218306   1.000000
      4        -41.200568   1.000000
      5        -41.175766   1.000000
      6        -41.049184   1.000000
      7          4.278567   1.000000