<?xml version="1.0" encoding="ISO-8859-1"?>
<modeling>
 <generator>
  <i name="program" type="string">vasp </i>
  <i name="version" type="string">6.3.2  </i>
  <i name="subversion" type="string">27Jun22 (build Aug 12 2022 00:53:59) complex                          parallel </i>
  <i name="platform" type="string">tv2STD </i>
  <i name="date" type="string">2024 11 30 </i>
  <i name="time" type="string">17:15:43 </i>
 </generator>
 <incar>
  <i type="string" name="SYSTEM">Pt-hcc</i>
  <i type="int" name="ISTART">     0</i>
  <i type="string" name="PREC">Accurate      normal | accurate</i>
  <i type="string" name="ALGO">Normal     Normal, Fast, Very_Fast</i>
  <i type="logical" name="ADDGRID"> F  </i>
  <i type="int" name="ICHARG">     2</i>
  <i type="int" name="INIWAV">     1</i>
  <i type="int" name="NELM">   100</i>
  <i type="int" name="IBRION">     2</i>
  <i name="EDIFF">      0.00000100</i>
  <i name="EDIFFG">     -0.02000000</i>
  <i type="int" name="NSW">   100</i>
  <i type="int" name="ISIF">     2</i>
  <i type="int" name="ISYM">     1</i>
  <i name="ENCUT">    450.00000000</i>
  <i type="logical" name="LREAL"> F  </i>
  <i type="int" name="ISMEAR">     0</i>
  <i name="SIGMA">      0.05000000</i>
  <i type="int" name="NWRITE">     2</i>
  <i type="logical" name="LWAVE"> T  </i>
  <i type="logical" name="LCHARG"> T  </i>
  <i type="int" name="LORBIT">    11</i>
 </incar>
 <primitive_cell>
  <structure name="primitive_cell" >
   <crystal>
    <varray name="basis" >
     <v>       2.75297212       0.00000000       0.00000000 </v>
     <v>      -1.37648606       2.38414379       0.00000000 </v>
     <v>       0.00000000       0.00000000       4.76946004 </v>
    </varray>
    <i name="volume">     31.30426228 </i>
    <varray name="rec_basis" >
     <v>       0.36324378       0.20971889       0.00000000 </v>
     <v>       0.00000000       0.41943779       0.00000000 </v>
     <v>       0.00000000       0.00000000       0.20966734 </v>
    </varray>
   </crystal>
   <varray name="positions" >
    <v>       0.00000000       0.00000000       0.00000000 </v>
    <v>       0.33333333       0.66666667       0.50000000 </v>
   </varray>
  </structure>
  <varray name="primitive_index" >
   <v type="int" >        1 </v>
   <v type="int" >        2 </v>
  </varray>
 </primitive_cell>
 <kpoints>
  <generation param="Gamma">
   <v type="int" name="divisions">      10       10        8 </v>
   <v name="usershift">      0.00000000       0.00000000       0.00000000 </v>
   <v name="genvec1">      0.10000000      -0.00000000       0.00000000 </v>
   <v name="genvec2">      0.00000000       0.10000000       0.00000000 </v>
   <v name="genvec3">      0.00000000       0.00000000       0.12500000 </v>
   <v name="shift">      0.00000000       0.00000000       0.00000000 </v>
  </generation>
  <varray name="kpointlist" >
   <v>       0.00000000       0.00000000       0.00000000 </v>
   <v>       0.10000000       0.00000000       0.00000000 </v>
   <v>       0.20000000       0.00000000       0.00000000 </v>
   <v>       0.30000000       0.00000000       0.00000000 </v>
   <v>       0.40000000       0.00000000       0.00000000 </v>
   <v>       0.50000000       0.00000000       0.00000000 </v>
   <v>       0.10000000       0.10000000       0.00000000 </v>
   <v>       0.20000000       0.10000000       0.00000000 </v>
   <v>       0.30000000       0.10000000       0.00000000 </v>
   <v>       0.40000000       0.10000000       0.00000000 </v>
   <v>       0.20000000       0.20000000       0.00000000 </v>
   <v>       0.30000000       0.20000000       0.00000000 </v>
   <v>       0.40000000       0.20000000       0.00000000 </v>
   <v>       0.30000000       0.30000000       0.00000000 </v>
   <v>       0.00000000       0.00000000       0.12500000 </v>
   <v>       0.10000000       0.00000000       0.12500000 </v>
   <v>       0.20000000       0.00000000       0.12500000 </v>
   <v>       0.30000000       0.00000000       0.12500000 </v>
   <v>       0.40000000       0.00000000       0.12500000 </v>
   <v>       0.50000000       0.00000000       0.12500000 </v>
   <v>       0.10000000       0.10000000       0.12500000 </v>
   <v>       0.20000000       0.10000000       0.12500000 </v>
   <v>       0.30000000       0.10000000       0.12500000 </v>
   <v>       0.40000000       0.10000000       0.12500000 </v>
   <v>       0.20000000       0.20000000       0.12500000 </v>
   <v>       0.30000000       0.20000000       0.12500000 </v>
   <v>       0.40000000       0.20000000       0.12500000 </v>
   <v>       0.30000000       0.30000000       0.12500000 </v>
   <v>       0.00000000       0.00000000       0.25000000 </v>
   <v>       0.10000000       0.00000000       0.25000000 </v>
   <v>       0.20000000       0.00000000       0.25000000 </v>
   <v>       0.30000000       0.00000000       0.25000000 </v>
   <v>       0.40000000       0.00000000       0.25000000 </v>
   <v>       0.50000000       0.00000000       0.25000000 </v>
   <v>       0.10000000       0.10000000       0.25000000 </v>
   <v>       0.20000000       0.10000000       0.25000000 </v>
   <v>       0.30000000       0.10000000       0.25000000 </v>
   <v>       0.40000000       0.10000000       0.25000000 </v>
   <v>       0.20000000       0.20000000       0.25000000 </v>
   <v>       0.30000000       0.20000000       0.25000000 </v>
   <v>       0.40000000       0.20000000       0.25000000 </v>
   <v>       0.30000000       0.30000000       0.25000000 </v>
   <v>       0.00000000       0.00000000       0.37500000 </v>
   <v>       0.10000000       0.00000000       0.37500000 </v>
   <v>       0.20000000       0.00000000       0.37500000 </v>
   <v>       0.30000000       0.00000000       0.37500000 </v>
   <v>       0.40000000       0.00000000       0.37500000 </v>
   <v>       0.50000000       0.00000000       0.37500000 </v>
   <v>       0.10000000       0.10000000       0.37500000 </v>
   <v>       0.20000000       0.10000000       0.37500000 </v>
   <v>       0.30000000       0.10000000       0.37500000 </v>
   <v>       0.40000000       0.10000000       0.37500000 </v>
   <v>       0.20000000       0.20000000       0.37500000 </v>
   <v>       0.30000000       0.20000000       0.37500000 </v>
   <v>       0.40000000       0.20000000       0.37500000 </v>
   <v>       0.30000000       0.30000000       0.37500000 </v>
   <v>       0.00000000       0.00000000       0.50000000 </v>
   <v>       0.10000000       0.00000000       0.50000000 </v>
   <v>       0.20000000       0.00000000       0.50000000 </v>
   <v>       0.30000000       0.00000000       0.50000000 </v>
   <v>       0.40000000       0.00000000       0.50000000 </v>
   <v>       0.50000000       0.00000000       0.50000000 </v>
   <v>       0.10000000       0.10000000       0.50000000 </v>
   <v>       0.20000000       0.10000000       0.50000000 </v>
   <v>       0.30000000       0.10000000       0.50000000 </v>
   <v>       0.40000000       0.10000000       0.50000000 </v>
   <v>       0.20000000       0.20000000       0.50000000 </v>
   <v>       0.30000000       0.20000000       0.50000000 </v>
   <v>       0.40000000       0.20000000       0.50000000 </v>
   <v>       0.30000000       0.30000000       0.50000000 </v>
  </varray>
  <varray name="weights" >
   <v>       0.00125000 </v>
   <v>       0.00750000 </v>
   <v>       0.00750000 </v>
   <v>       0.00750000 </v>
   <v>       0.00750000 </v>
   <v>       0.00375000 </v>
   <v>       0.00750000 </v>
   <v>       0.01500000 </v>
   <v>       0.01500000 </v>
   <v>       0.01500000 </v>
   <v>       0.00750000 </v>
   <v>       0.01500000 </v>
   <v>       0.00750000 </v>
   <v>       0.00750000 </v>
   <v>       0.00250000 </v>
   <v>       0.01500000 </v>
   <v>       0.01500000 </v>
   <v>       0.01500000 </v>
   <v>       0.01500000 </v>
   <v>       0.00750000 </v>
   <v>       0.01500000 </v>
   <v>       0.03000000 </v>
   <v>       0.03000000 </v>
   <v>       0.03000000 </v>
   <v>       0.01500000 </v>
   <v>       0.03000000 </v>
   <v>       0.01500000 </v>
   <v>       0.01500000 </v>
   <v>       0.00250000 </v>
   <v>       0.01500000 </v>
   <v>       0.01500000 </v>
   <v>       0.01500000 </v>
   <v>       0.01500000 </v>
   <v>       0.00750000 </v>
   <v>       0.01500000 </v>
   <v>       0.03000000 </v>
   <v>       0.03000000 </v>
   <v>       0.03000000 </v>
   <v>       0.01500000 </v>
   <v>       0.03000000 </v>
   <v>       0.01500000 </v>
   <v>       0.01500000 </v>
   <v>       0.00250000 </v>
   <v>       0.01500000 </v>
   <v>       0.01500000 </v>
   <v>       0.01500000 </v>
   <v>       0.01500000 </v>
   <v>       0.00750000 </v>
   <v>       0.01500000 </v>
   <v>       0.03000000 </v>
   <v>       0.03000000 </v>
   <v>       0.03000000 </v>
   <v>       0.01500000 </v>
   <v>       0.03000000 </v>
   <v>       0.01500000 </v>
   <v>       0.01500000 </v>
   <v>       0.00125000 </v>
   <v>       0.00750000 </v>
   <v>       0.00750000 </v>
   <v>       0.00750000 </v>
   <v>       0.00750000 </v>
   <v>       0.00375000 </v>
   <v>       0.00750000 </v>
   <v>       0.01500000 </v>
   <v>       0.01500000 </v>
   <v>       0.01500000 </v>
   <v>       0.00750000 </v>
   <v>       0.01500000 </v>
   <v>       0.00750000 </v>
   <v>       0.00750000 </v>
  </varray>
 </kpoints>
 <parameters>
  <separator name="general" >
   <i type="string" name="SYSTEM">Pt-hcc</i>
   <i type="logical" name="LCOMPAT"> F  </i>
  </separator>
  <separator name="electronic" >
   <i type="string" name="PREC">accura</i>
   <i name="ENMAX">    450.00000000</i>
   <i name="ENAUG">    527.01400000</i>
   <i name="EDIFF">      0.00000100</i>
   <i type="int" name="IALGO">    38</i>
   <i type="int" name="IWAVPR">    11</i>
   <i type="int" name="NBANDS">    24</i>
   <i type="int" name="NBANDSLOW">    -1</i>
   <i type="int" name="NBANDSHIGH">    -1</i>
   <i name="NELECT">     32.00000000</i>
   <i type="int" name="TURBO">     0</i>
   <i type="int" name="IRESTART">     0</i>
   <i type="int" name="NREBOOT">     0</i>
   <i type="int" name="NMIN">     0</i>
   <i name="EREF">      0.00000000</i>
   <separator name="electronic smearing" >
    <i type="int" name="ISMEAR">     0</i>
    <i name="SIGMA">      0.05000000</i>
    <i name="KSPACING">      0.50000000</i>
    <i type="logical" name="KGAMMA"> T  </i>
    <i type="logical" name="KBLOWUP"> T  </i>
   </separator>
   <separator name="electronic projectors" >
    <i type="logical" name="LREAL"> F  </i>
    <v name="ROPT">      0.00000000</v>
    <i type="int" name="LMAXPAW">  -100</i>
    <i type="int" name="LMAXMIX">     2</i>
    <i type="logical" name="NLSPLINE"> F  </i>
   </separator>
   <separator name="electronic startup" >
    <i type="int" name="ISTART">     0</i>
    <i type="int" name="ICHARG">     2</i>
    <i type="int" name="INIWAV">     1</i>
   </separator>
   <separator name="electronic spin" >
    <i type="int" name="ISPIN">     1</i>
    <i type="logical" name="LNONCOLLINEAR"> F  </i>
    <v name="MAGMOM">      1.00000000      1.00000000</v>
    <i name="NUPDOWN">     -1.00000000</i>
    <i type="logical" name="LSORBIT"> F  </i>
    <v name="SAXIS">      0.00000000      0.00000000      1.00000000</v>
    <i type="logical" name="LSPIRAL"> F  </i>
    <v name="QSPIRAL">      0.00000000      0.00000000      0.00000000</v>
    <i type="logical" name="LZEROZ"> F  </i>
   </separator>
   <separator name="electronic exchange-correlation" >
    <i type="logical" name="LASPH"> F  </i>
    <i type="logical" name="LMETAGGA"> F  </i>
   </separator>
   <separator name="electronic convergence" >
    <i type="int" name="NELM">   100</i>
    <i type="int" name="NELMDL">    -5</i>
    <i type="int" name="NELMIN">     2</i>
    <i name="ENINI">    450.00000000</i>
    <separator name="electronic convergence detail" >
     <i type="logical" name="LDIAG"> T  </i>
     <i type="logical" name="LSUBROT"> F  </i>
     <i name="WEIMIN">      0.00100000</i>
     <i name="EBREAK">      0.00000001</i>
     <i name="DEPER">      0.30000000</i>
     <i type="int" name="NRMM">     4</i>
     <i name="TIME">      0.40000000</i>
    </separator>
   </separator>
   <separator name="electronic mixer" >
    <i name="AMIX">      0.40000000</i>
    <i name="BMIX">      1.00000000</i>
    <i name="AMIN">      0.10000000</i>
    <i name="AMIX_MAG">      1.60000000</i>
    <i name="BMIX_MAG">      1.00000000</i>
    <separator name="electronic mixer details" >
     <i type="int" name="IMIX">     4</i>
     <i type="logical" name="MIXFIRST"> F  </i>
     <i type="int" name="MAXMIX">   -45</i>
     <i name="WC">    100.00000000</i>
     <i type="int" name="INIMIX">     1</i>
     <i type="int" name="MIXPRE">     1</i>
     <i type="int" name="MREMOVE">     5</i>
    </separator>
   </separator>
   <separator name="electronic dipolcorrection" >
    <i type="logical" name="LDIPOL"> F  </i>
    <i type="logical" name="LMONO"> F  </i>
    <i type="int" name="IDIPOL">     0</i>
    <i name="EPSILON">      1.00000000</i>
    <v name="DIPOL">   -100.00000000   -100.00000000   -100.00000000</v>
    <i name="EFIELD">      0.00000000</i>
   </separator>
  </separator>
  <separator name="grids" >
   <i type="int" name="NGX">    20</i>
   <i type="int" name="NGY">    20</i>
   <i type="int" name="NGZ">    36</i>
   <i type="int" name="NGXF">    40</i>
   <i type="int" name="NGYF">    40</i>
   <i type="int" name="NGZF">    72</i>
   <i type="logical" name="ADDGRID"> F  </i>
  </separator>
  <separator name="ionic" >
   <i type="int" name="NSW">   100</i>
   <i type="int" name="IBRION">     2</i>
   <i type="int" name="MDALGO">     0</i>
   <i type="int" name="ISIF">     2</i>
   <i name="PSTRESS">      0.00000000</i>
   <i name="EDIFFG">     -0.02000000</i>
   <i type="int" name="NFREE">     1</i>
   <i name="POTIM">      0.50000000</i>
   <i name="SMASS">     -3.00000000</i>
   <i name="SCALEE">      1.00000000</i>
  </separator>
  <separator name="ionic md" >
   <i name="TEBEG">      0.00010000</i>
   <i name="TEEND">      0.00010000</i>
   <i type="int" name="NBLOCK">     1</i>
   <i type="int" name="KBLOCK">   100</i>
   <i type="int" name="NPACO">   256</i>
   <i name="APACO">     10.00000000</i>
  </separator>
  <separator name="symmetry" >
   <i type="int" name="ISYM">     1</i>
   <i name="SYMPREC">      0.00001000</i>
  </separator>
  <separator name="dos" >
   <i type="int" name="LORBIT">    11</i>
   <v name="RWIGS">     -1.00000000</v>
   <i type="int" name="NEDOS">   301</i>
   <i name="EMIN">     10.00000000</i>
   <i name="EMAX">    -10.00000000</i>
   <i name="EFERMI">      0.00000000</i>
  </separator>
  <separator name="writing" >
   <i type="int" name="NWRITE">     2</i>
   <i type="logical" name="LWAVE"> T  </i>
   <i type="logical" name="LDOWNSAMPLE"> F  </i>
   <i type="logical" name="LCHARG"> T  </i>
   <i type="logical" name="LPARD"> F  </i>
   <i type="logical" name="LVTOT"> F  </i>
   <i type="logical" name="LVHAR"> F  </i>
   <i type="logical" name="LELF"> F  </i>
   <i type="logical" name="LOPTICS"> F  </i>
   <v name="STM">      0.00000000      0.00000000      0.00000000      0.00000000      0.00000000      0.00000000      0.00000000</v>
  </separator>
  <separator name="performance" >
   <i type="int" name="NPAR">    24</i>
   <i type="int" name="NSIM">     4</i>
   <i type="int" name="NBLK">    -1</i>
   <i type="logical" name="LPLANE"> T  </i>
   <i type="logical" name="LSCALAPACK"> T  </i>
   <i type="logical" name="LSCAAWARE"> F  </i>
   <i type="logical" name="LSCALU"> F  </i>
   <i type="logical" name="LASYNC"> F  </i>
   <i type="logical" name="LORBITALREAL"> F  </i>
  </separator>
  <separator name="miscellaneous" >
   <i type="int" name="IDIOT">     3</i>
   <i type="int" name="PHON_NSTRUCT">    -1</i>
   <i type="logical" name="LMUSIC"> F  </i>
   <v name="POMASS">    195.08000000</v>
   <v name="DARWINR">      0.00000000</v>
   <v name="DARWINV">      1.00000000</v>
   <i type="logical" name="LCORR"> T  </i>
  </separator>
  <i type="logical" name="GGA_COMPAT"> T  </i>
  <i type="logical" name="LBERRY"> F  </i>
  <i type="int" name="ICORELEVEL">     0</i>
  <i type="logical" name="LDAU"> F  </i>
  <i type="int" name="I_CONSTRAINED_M">     0</i>
  <separator name="electronic exchange-correlation" >
   <i type="string" name="GGA">--</i>
   <i type="int" name="VOSKOWN">     0</i>
   <i type="logical" name="LHFCALC"> F  </i>
   <i type="string" name="PRECFOCK"></i>
   <i type="logical" name="LSYMGRAD"> F  </i>
   <i type="logical" name="LHFONE"> F  </i>
   <i type="logical" name="LRHFCALC"> F  </i>
   <i type="logical" name="LTHOMAS"> F  </i>
   <i type="logical" name="LMODELHF"> F  </i>
   <i type="logical" name="LFOCKACE"> F  </i>
   <i name="ENCUT4O">     -1.00000000</i>
   <i type="int" name="EXXOEP">     0</i>
   <i type="int" name="FOURORBIT">     0</i>
   <i name="AEXX">      0.00000000</i>
   <i name="HFALPHA">      0.00000000</i>
   <i name="MCALPHA">      0.00000000</i>
   <i name="ALDAX">      1.00000000</i>
   <i name="AGGAX">      1.00000000</i>
   <i name="ALDAC">      1.00000000</i>
   <i name="AGGAC">      1.00000000</i>
   <i type="int" name="NKREDX">     1</i>
   <i type="int" name="NKREDY">     1</i>
   <i type="int" name="NKREDZ">     1</i>
   <i type="logical" name="SHIFTRED"> F  </i>
   <i type="logical" name="ODDONLY"> F  </i>
   <i type="logical" name="EVENONLY"> F  </i>
   <i type="int" name="LMAXFOCK">     0</i>
   <i type="int" name="NMAXFOCKAE">     0</i>
   <i type="logical" name="LFOCKAEDFT"> F  </i>
   <i name="HFSCREEN">      0.00000000</i>
   <i name="HFSCREENC">      0.00000000</i>
   <i type="int" name="NBANDSGWLOW">     0</i>
  </separator>
  <separator name="vdW DFT" >
   <i type="logical" name="LUSE_VDW"> F  </i>
   <i name="Zab_VDW">     -0.84910000</i>
   <i name="PARAM1">      0.12340000</i>
   <i name="PARAM2">      1.00000000</i>
   <i name="PARAM3">      0.00000000</i>
  </separator>
  <separator name="model GW" >
   <i type="int" name="MODEL_GW">     0</i>
   <i name="MODEL_EPS0">      9.39127868</i>
   <i name="MODEL_ALPHA">      1.00000000</i>
  </separator>
  <separator name="linear response parameters" >
   <i type="logical" name="LEPSILON"> F  </i>
   <i type="logical" name="LRPA"> F  </i>
   <i type="logical" name="LNABLA"> F  </i>
   <i type="logical" name="LVEL"> F  </i>
   <i name="CSHIFT">      0.10000000</i>
   <i name="OMEGAMAX">     -1.00000000</i>
   <i name="DEG_THRESHOLD">      0.00200000</i>
   <i name="RTIME">     -0.10000000</i>
   <i name="WPLASMAI">      0.00000000</i>
   <v name="DFIELD">      0.00000000      0.00000000      0.00000000</v>
   <v name="WPLASMA">      0.00000000      0.00000000      0.00000000      0.00000000      0.00000000      0.00000000      0.00000000      0.00000000      0.00000000</v>
  </separator>
  <separator name="orbital magnetization" >
   <i type="logical" name="NUCIND"> F  </i>
   <v name="MAGPOS">      0.00000000      0.00000000      0.00000000</v>
   <i type="logical" name="LNICSALL"> T  </i>
   <i type="logical" name="ORBITALMAG"> F  </i>
   <i type="logical" name="LMAGBLOCH"> F  </i>
   <i type="logical" name="LCHIMAG"> F  </i>
   <i type="logical" name="LGAUGE"> T  </i>
   <i type="int" name="MAGATOM">     0</i>
   <v name="MAGDIPOL">      0.00000000      0.00000000      0.00000000</v>
   <v name="AVECCONST">      0.00000000      0.00000000      0.00000000</v>
  </separator>
  <separator name="response functions" >
   <i type="logical" name="LFINITE_TEMPERATURE"> F  </i>
   <i type="logical" name="LADDER"> F  </i>
   <i type="logical" name="LRPAFORCE"> F  </i>
   <i type="logical" name="LFXC"> F  </i>
   <i type="logical" name="LHARTREE"> T  </i>
   <i type="int" name="IBSE">     0</i>
   <v type="int" name="KPOINT">    -1     0     0     0</v>
   <i type="logical" name="LTCTC"> F  </i>
   <i type="logical" name="LTCTE"> F  </i>
   <i type="logical" name="LTETE"> F  </i>
   <i type="logical" name="LTRIPLET"> F  </i>
   <i type="logical" name="LFXCEPS"> F  </i>
   <i type="logical" name="LFXHEG"> F  </i>
   <i type="int" name="NATURALO">     2</i>
   <i type="logical" name="LHOLEGF"> F  </i>
   <i type="logical" name="L2ORDER"> F  </i>
   <i type="logical" name="LDMP1"> F  </i>
   <i type="logical" name="LMP2LT"> F  </i>
   <i type="logical" name="LSMP2LT"> F  </i>
   <i type="logical" name="LGWLF"> F  </i>
   <i name="ENCUTGW">     -2.00000000</i>
   <i name="ENCUTGWSOFT">     -2.00000000</i>
   <i name="ENCUTLF">     -1.00000000</i>
   <i type="logical" name="LESF_SPLINES"> F  </i>
   <i type="int" name="LMAXMP2">    -1</i>
   <i name="SCISSOR">      0.00000000</i>
   <i type="int" name="NOMEGA">     0</i>
   <i type="int" name="NOMEGAR">     0</i>
   <i type="int" name="NBANDSGW">    -1</i>
   <i type="int" name="NBANDSO">    -1</i>
   <i type="int" name="NBANDSV">    -1</i>
   <i type="int" name="NELMGW">     1</i>
   <i type="int" name="NELMHF">     1</i>
   <i type="int" name="DIM">     3</i>
   <i type="int" name="IESPILON">     4</i>
   <i type="int" name="ANTIRES">     0</i>
   <i name="OMEGAMAX">    -30.00000000</i>
   <i name="OMEGAMIN">    -30.00000000</i>
   <i name="OMEGATL">   -200.00000000</i>
   <i type="int" name="OMEGAGRID">     0</i>
   <i name="CSHIFT">     -0.10000000</i>
   <i type="logical" name="LSELFENERGY"> F  </i>
   <i type="logical" name="LSPECTRAL"> F  </i>
   <i type="logical" name="LSPECTRALGW"> F  </i>
   <i type="logical" name="LSINGLES"> F  </i>
   <i type="logical" name="LFERMIGW"> F  </i>
   <i type="logical" name="ODDONLYGW"> F  </i>
   <i type="logical" name="EVENONLYGW"> F  </i>
   <i type="int" name="NKREDLFX">     1</i>
   <i type="int" name="NKREDLFY">     1</i>
   <i type="int" name="NKREDLFZ">     1</i>
   <i type="int" name="MAXMEM">  2800</i>
   <i type="int" name="TELESCOPE">     0</i>
   <i type="int" name="NTAUPAR">    -1</i>
   <i type="int" name="NOMEGAPAR">    -1</i>
   <i name="DAMP_NEWTON">      0.80000001</i>
   <i name="LAMBDA">      1.00000000</i>
  </separator>
  <separator name="External order field" >
   <i name="OFIELD_KAPPA">      0.00000000</i>
   <v name="OFIELD_K">      0.00000000      0.00000000      0.00000000</v>
   <i name="OFIELD_Q6_NEAR">      0.00000000</i>
   <i name="OFIELD_Q6_FAR">      0.00000000</i>
   <i name="OFIELD_A">      0.00000000</i>
  </separator>
  <separator name="optional k-points parameters" >
   <i type="int" name="KPOINTS_OPT_MODE">     1</i>
   <i type="logical" name="LKPOINTS_OPT"> F  </i>
  </separator>
 </parameters>
 <atominfo>
  <atoms>       2 </atoms>
  <types>       1 </types>
  <array name="atoms" >
   <dimension dim="1">ion</dimension>
   <field type="string">element</field>
   <field type="int">atomtype</field>
   <set>
    <rc><c>Pt</c><c>   1</c></rc>
    <rc><c>Pt</c><c>   1</c></rc>
   </set>
  </array>
  <array name="atomtypes" >
   <dimension dim="1">type</dimension>
   <field type="int">atomspertype</field>
   <field type="string">element</field>
   <field>mass</field>
   <field>valence</field>
   <field type="string">pseudopotential</field>
   <set>
    <rc><c>   2</c><c>Pt</c><c>    195.08000000</c><c>     16.00000000</c><c>  PAW_PBE Pt_pv 12Dec2005               </c></rc>
   </set>
  </array>
 </atominfo>
 <structure name="initialpos" >
  <crystal>
   <varray name="basis" >
    <v>       2.75297212       0.00000000       0.00000000 </v>
    <v>      -1.37648606       2.38414379       0.00000000 </v>
    <v>       0.00000000       0.00000000       4.76946004 </v>
   </varray>
   <i name="volume">     31.30426228 </i>
   <varray name="rec_basis" >
    <v>       0.36324378       0.20971889       0.00000000 </v>
    <v>       0.00000000       0.41943779       0.00000000 </v>
    <v>       0.00000000       0.00000000       0.20966734 </v>
   </varray>
  </crystal>
  <varray name="positions" >
   <v>       0.00000000       0.00000000       0.00000000 </v>
   <v>       0.33333333       0.66666667       0.50000000 </v>
  </varray>
 </structure>
 <calculation>
  <scstep>
   <time name="dav">    0.31    0.32</time>
   <time name="total">    0.32    0.32</time>
   <energy>
    <i name="alphaZ">    306.58043162 </i>
    <i name="ewald">  -4254.12912055 </i>
    <i name="hartreedc">   -813.12838363 </i>
    <i name="XCdc">    127.41893810 </i>
    <i name="pawpsdc">   4131.50523274 </i>
    <i name="pawaedc">  -4061.67189606 </i>
    <i name="eentropy">     -0.00058491 </i>
    <i name="bandstr">   -149.07575194 </i>
    <i name="atom">   4856.42966544 </i>
    <i name="e_fr_energy">    143.92853081 </i>
    <i name="e_wo_entrp">    143.92911573 </i>
    <i name="e_0_energy">    143.92882327 </i>
   </energy>
  </scstep>
  <scstep>
   <time name="dav">    0.35    0.35</time>
   <time name="total">    0.35    0.35</time>
   <energy>
    <i name="e_fr_energy">    -11.39177428 </i>
    <i name="e_wo_entrp">    -11.38747299 </i>
    <i name="e_0_energy">    -11.38962364 </i>
   </energy>
  </scstep>
  <scstep>
   <time name="dav">    0.45    0.45</time>
   <time name="total">    0.45    0.45</time>
   <energy>
    <i name="e_fr_energy">    -12.74043501 </i>
    <i name="e_wo_entrp">    -12.73614179 </i>
    <i name="e_0_energy">    -12.73828840 </i>
   </energy>
  </scstep>
  <scstep>
   <time name="dav">    0.62    0.63</time>
   <time name="total">    0.62    0.63</time>
   <energy>
    <i name="e_fr_energy">    -12.74505918 </i>
    <i name="e_wo_entrp">    -12.74075161 </i>
    <i name="e_0_energy">    -12.74290539 </i>
   </energy>
  </scstep>
  <scstep>
   <time name="dav">    0.51    0.51</time>
   <time name="total">    0.53    0.53</time>
   <energy>
    <i name="e_fr_energy">    -12.74506002 </i>
    <i name="e_wo_entrp">    -12.74075245 </i>
    <i name="e_0_energy">    -12.74290623 </i>
   </energy>
  </scstep>
  <scstep>
   <time name="dav">    0.33    0.33</time>
   <time name="total">    0.36    0.36</time>
   <energy>
    <i name="e_fr_energy">    -12.07493593 </i>
    <i name="e_wo_entrp">    -12.07051585 </i>
    <i name="e_0_energy">    -12.07272589 </i>
   </energy>
  </scstep>
  <scstep>
   <time name="dav">    0.50    0.51</time>
   <time name="total">    0.53    0.53</time>
   <energy>
    <i name="e_fr_energy">    -12.04095290 </i>
    <i name="e_wo_entrp">    -12.03631048 </i>
    <i name="e_0_energy">    -12.03863169 </i>
   </energy>
  </scstep>
  <scstep>
   <time name="dav">    0.34    0.34</time>
   <time name="total">    0.37    0.37</time>
   <energy>
    <i name="e_fr_energy">    -12.03862606 </i>
    <i name="e_wo_entrp">    -12.03393931 </i>
    <i name="e_0_energy">    -12.03628268 </i>
   </energy>
  </scstep>
  <scstep>
   <time name="dav">    0.52    0.52</time>
   <time name="total">    0.55    0.55</time>
   <energy>
    <i name="e_fr_energy">    -12.03844993 </i>
    <i name="e_wo_entrp">    -12.03378682 </i>
    <i name="e_0_energy">    -12.03611838 </i>
   </energy>
  </scstep>
  <scstep>
   <time name="dav">    0.42    0.42</time>
   <time name="total">    0.45    0.45</time>
   <energy>
    <i name="e_fr_energy">    -12.03846384 </i>
    <i name="e_wo_entrp">    -12.03380430 </i>
    <i name="e_0_energy">    -12.03613407 </i>
   </energy>
  </scstep>
  <scstep>
   <time name="dav">    0.38    0.38</time>
   <time name="total">    0.39    0.39</time>
   <energy>
    <i name="alphaZ">    306.58043162 </i>
    <i name="ewald">  -4254.12912055 </i>
    <i name="hartreedc">   -774.54463842 </i>
    <i name="XCdc">    125.72034261 </i>
    <i name="pawpsdc">   4654.39947943 </i>
    <i name="pawaedc">  -4589.63148331 </i>
    <i name="eentropy">     -0.00466022 </i>
    <i name="bandstr">   -336.85848001 </i>
    <i name="atom">   4856.42966544 </i>
    <i name="e_fr_energy">    -12.03846340 </i>
    <i name="e_wo_entrp">    -12.03380318 </i>
    <i name="e_0_energy">    -12.03613329 </i>
   </energy>
  </scstep>
  <structure>
   <crystal>
    <varray name="basis" >
     <v>       2.75297212       0.00000000       0.00000000 </v>
     <v>      -1.37648606       2.38414379       0.00000000 </v>
     <v>       0.00000000       0.00000000       4.76946004 </v>
    </varray>
    <i name="volume">     31.30426228 </i>
    <varray name="rec_basis" >
     <v>       0.36324378       0.20971889       0.00000000 </v>
     <v>       0.00000000       0.41943779       0.00000000 </v>
     <v>       0.00000000       0.00000000       0.20966734 </v>
    </varray>
   </crystal>
   <varray name="positions" >
    <v>       0.00000000       0.00000000       0.00000000 </v>
    <v>       0.33333333       0.66666667       0.50000000 </v>
   </varray>
  </structure>
  <varray name="forces" >
   <v>       0.00000000       0.00000000       0.00000000 </v>
   <v>      -0.00000000       0.00000000       0.00000000 </v>
  </varray>
  <varray name="stress" >
   <v>      -0.56270972       0.00000000       0.00000000 </v>
   <v>      -0.00000000      -0.56270972       0.00000000 </v>
   <v>      -0.00000000       0.00000000      -1.37259999 </v>
  </varray>
  <energy>
   <i name="e_fr_energy">    -12.03846340 </i>
   <i name="e_wo_entrp">    -12.03380318 </i>
   <i name="e_0_energy">    -12.03613329 </i>
  </energy>
  <time name="totalsc">    5.28    5.43</time>
  <eigenvalues>
   <array>
    <dimension dim="1">band</dimension>
    <dimension dim="2">kpoint</dimension>
    <dimension dim="3">spin</dimension>
    <field>eigene</field>
    <field>occ</field>
    <set>
     <set comment="spin 1">
      <set comment="kpoint 1">
       <r>  -41.3391    1.0000 </r>
       <r>  -41.1558    1.0000 </r>
       <r>  -41.1558    1.0000 </r>
       <r>  -41.1139    1.0000 </r>
       <r>  -41.1139    1.0000 </r>
       <r>  -40.9962    1.0000 </r>
       <r>    1.4975    1.0000 </r>
       <r>    4.1591    1.0000 </r>
       <r>    7.3322    1.0000 </r>
       <r>    7.8370    1.0000 </r>
       <r>    7.8370    1.0000 </r>
       <r>    8.2107    1.0000 </r>
       <r>    8.2107    1.0000 </r>
       <r>    9.4821    1.0000 </r>
       <r>    9.4821    1.0000 </r>
       <r>   10.5685    1.0000 </r>
       <r>   11.0940    1.0000 </r>
       <r>   11.0940    1.0000 </r>
       <r>   16.0681    0.0000 </r>
       <r>   26.3809    0.0000 </r>
       <r>   27.0119    0.0000 </r>
       <r>   28.5599    0.0000 </r>
       <r>   32.4238    0.0000 </r>
       <r>   32.4238    0.0000 </r>
      </set>
      <set comment="kpoint 2">
       <r>  -41.3261    1.0000 </r>
       <r>  -41.1923    1.0000 </r>
       <r>  -41.1659    1.0000 </r>
       <r>  -41.1515    1.0000 </r>
       <r>  -41.1212    1.0000 </r>
       <r>  -40.9987    1.0000 </r>
       <r>    1.8615    1.0000 </r>
       <r>    4.4893    1.0000 </r>
       <r>    7.2627    1.0000 </r>
       <r>    7.8493    1.0000 </r>
       <r>    8.0606    1.0000 </r>
       <r>    8.1166    1.0000 </r>
       <r>    8.4762    1.0000 </r>
       <r>    8.8928    1.0000 </r>
       <r>    9.3092    1.0000 </r>
       <r>    9.4612    1.0000 </r>
       <r>   11.1587    1.0000 </r>
       <r>   12.8630    0.0000 </r>
       <r>   16.0309    0.0000 </r>
       <r>   26.8294    0.0000 </r>
       <r>   27.5422    0.0000 </r>
       <r>   28.9096    0.0000 </r>
       <r>   30.7784    0.0000 </r>
       <r>   30.9124    0.0000 </r>
      </set>
      <set comment="kpoint 3">
       <r>  -41.2921    1.0000 </r>
       <r>  -41.2896    1.0000 </r>
       <r>  -41.2494    1.0000 </r>
       <r>  -41.1935    1.0000 </r>
       <r>  -41.1412    1.0000 </r>
       <r>  -41.0076    1.0000 </r>
       <r>    2.8532    1.0000 </r>
       <r>    5.2134    1.0000 </r>
       <r>    7.0301    1.0000 </r>
       <r>    7.5161    1.0000 </r>
       <r>    7.5643    1.0000 </r>
       <r>    8.4798    1.0000 </r>
       <r>    8.9072    1.0000 </r>
       <r>    8.9254    1.0000 </r>
       <r>    8.9436    1.0000 </r>
       <r>    9.2225    1.0000 </r>
       <r>   11.2614    0.8809 </r>
       <r>   15.0535    0.0000 </r>
       <r>   15.9583    0.0000 </r>
       <r>   25.3948    0.0000 </r>
       <r>   28.1487    0.0000 </r>
       <r>   28.4719    0.0000 </r>
       <r>   29.3201    0.0000 </r>
       <r>   29.5261    0.0000 </r>
      </set>
      <set comment="kpoint 4">
       <r>  -41.4097    1.0000 </r>
       <r>  -41.3686    1.0000 </r>
       <r>  -41.2449    1.0000 </r>
       <r>  -41.2273    1.0000 </r>
       <r>  -41.1668    1.0000 </r>
       <r>  -41.0243    1.0000 </r>
       <r>    4.0641    1.0000 </r>
       <r>    5.3359    1.0000 </r>
       <r>    6.4489    1.0000 </r>
       <r>    7.2981    1.0000 </r>
       <r>    7.6613    1.0000 </r>
       <r>    8.4295    1.0000 </r>
       <r>    8.5299    1.0000 </r>
       <r>    9.6423    1.0000 </r>
       <r>   10.0431    1.0000 </r>
       <r>   10.2794    1.0000 </r>
       <r>   11.3173    0.3440 </r>
       <r>   16.0731    0.0000 </r>
       <r>   17.2807    0.0000 </r>
       <r>   21.6698    0.0000 </r>
       <r>   26.0727    0.0000 </r>
       <r>   26.5912    0.0000 </r>
       <r>   28.2817    0.0000 </r>
       <r>   29.3420    0.0000 </r>
      </set>
      <set comment="kpoint 5">
       <r>  -41.5073    1.0000 </r>
       <r>  -41.4630    1.0000 </r>
       <r>  -41.2542    1.0000 </r>
       <r>  -41.1974    1.0000 </r>
       <r>  -41.1885    1.0000 </r>
       <r>  -41.0474    1.0000 </r>
       <r>    4.7240    1.0000 </r>
       <r>    5.0187    1.0000 </r>
       <r>    5.7876    1.0000 </r>
       <r>    7.8234    1.0000 </r>
       <r>    8.0530    1.0000 </r>
       <r>    8.2482    1.0000 </r>
       <r>    8.4756    1.0000 </r>
       <r>   11.1392    1.0000 </r>
       <r>   11.3206    0.3108 </r>
       <r>   11.3301    0.2229 </r>
       <r>   11.5318    0.0000 </r>
       <r>   16.8674    0.0000 </r>
       <r>   18.0219    0.0000 </r>
       <r>   19.2546    0.0000 </r>
       <r>   23.8064    0.0000 </r>
       <r>   24.1463    0.0000 </r>
       <r>   25.2544    0.0000 </r>
       <r>   28.0655    0.0000 </r>
      </set>
      <set comment="kpoint 6">
       <r>  -41.5440    1.0000 </r>
       <r>  -41.4992    1.0000 </r>
       <r>  -41.2646    1.0000 </r>
       <r>  -41.1966    1.0000 </r>
       <r>  -41.1739    1.0000 </r>
       <r>  -41.0621    1.0000 </r>
       <r>    4.8101    1.0000 </r>
       <r>    4.8937    1.0000 </r>
       <r>    5.5637    1.0000 </r>
       <r>    7.9169    1.0000 </r>
       <r>    8.1474    1.0000 </r>
       <r>    8.3534    1.0000 </r>
       <r>    8.6771    1.0000 </r>
       <r>   11.3294    0.2286 </r>
       <r>   11.6013    0.0000 </r>
       <r>   11.8067    0.0000 </r>
       <r>   13.5920    0.0000 </r>
       <r>   15.0793    0.0000 </r>
       <r>   18.6228    0.0000 </r>
       <r>   20.2044    0.0000 </r>
       <r>   20.8993    0.0000 </r>
       <r>   23.3577    0.0000 </r>
       <r>   24.6233    0.0000 </r>
       <r>   27.4820    0.0000 </r>
      </set>
      <set comment="kpoint 7">
       <r>  -41.3029    1.0000 </r>
       <r>  -41.2532    1.0000 </r>
       <r>  -41.2264    1.0000 </r>
       <r>  -41.1789    1.0000 </r>
       <r>  -41.1402    1.0000 </r>
       <r>  -41.0045    1.0000 </r>
       <r>    2.5479    1.0000 </r>
       <r>    5.0651    1.0000 </r>
       <r>    6.9894    1.0000 </r>
       <r>    7.7623    1.0000 </r>
       <r>    7.9231    1.0000 </r>
       <r>    8.0743    1.0000 </r>
       <r>    8.7070    1.0000 </r>
       <r>    8.7212    1.0000 </r>
       <r>    9.0706    1.0000 </r>
       <r>    9.3733    1.0000 </r>
       <r>   11.1817    0.9997 </r>
       <r>   14.4757    0.0000 </r>
       <r>   15.9780    0.0000 </r>
       <r>   26.7884    0.0000 </r>
       <r>   27.4342    0.0000 </r>
       <r>   28.4483    0.0000 </r>
       <r>   29.4592    0.0000 </r>
       <r>   30.2226    0.0000 </r>
      </set>
      <set comment="kpoint 8">
       <r>  -41.3539    1.0000 </r>
       <r>  -41.3271    1.0000 </r>
       <r>  -41.2622    1.0000 </r>
       <r>  -41.2182    1.0000 </r>
       <r>  -41.1708    1.0000 </r>
       <r>  -41.0176    1.0000 </r>
       <r>    3.7244    1.0000 </r>
       <r>    5.6780    1.0000 </r>
       <r>    6.8089    1.0000 </r>
       <r>    6.8635    1.0000 </r>
       <r>    7.4899    1.0000 </r>
       <r>    8.2219    1.0000 </r>
       <r>    8.6925    1.0000 </r>
       <r>    9.0032    1.0000 </r>
       <r>    9.7754    1.0000 </r>
       <r>   10.1855    1.0000 </r>
       <r>   11.1838    0.9996 </r>
       <r>   16.0191    0.0000 </r>
       <r>   16.5776    0.0000 </r>
       <r>   23.5737    0.0000 </r>
       <r>   25.4740    0.0000 </r>
       <r>   27.5872    0.0000 </r>
       <r>   29.5102    0.0000 </r>
       <r>   30.2014    0.0000 </r>
      </set>
      <set comment="kpoint 9">
       <r>  -41.4586    1.0000 </r>
       <r>  -41.4219    1.0000 </r>
       <r>  -41.2582    1.0000 </r>
       <r>  -41.2136    1.0000 </r>
       <r>  -41.2000    1.0000 </r>
       <r>  -41.0386    1.0000 </r>
       <r>    4.7847    1.0000 </r>
       <r>    5.4353    1.0000 </r>
       <r>    6.0816    1.0000 </r>
       <r>    7.3117    1.0000 </r>
       <r>    7.9229    1.0000 </r>
       <r>    7.9412    1.0000 </r>
       <r>    8.5086    1.0000 </r>
       <r>    9.8029    1.0000 </r>
       <r>   10.8715    1.0000 </r>
       <r>   11.1718    0.9999 </r>
       <r>   11.6247    0.0000 </r>
       <r>   16.6077    0.0000 </r>
       <r>   18.7215    0.0000 </r>
       <r>   19.7357    0.0000 </r>
       <r>   23.3532    0.0000 </r>
       <r>   26.1393    0.0000 </r>
       <r>   26.5146    0.0000 </r>
       <r>   28.4884    0.0000 </r>
      </set>
      <set comment="kpoint 10">
       <r>  -41.5233    1.0000 </r>
       <r>  -41.4795    1.0000 </r>
       <r>  -41.2829    1.0000 </r>
       <r>  -41.2181    1.0000 </r>
       <r>  -41.1737    1.0000 </r>
       <r>  -41.0613    1.0000 </r>
       <r>    5.0886    1.0000 </r>
       <r>    5.1800    1.0000 </r>
       <r>    5.6746    1.0000 </r>
       <r>    7.8683    1.0000 </r>
       <r>    8.1029    1.0000 </r>
       <r>    8.1080    1.0000 </r>
       <r>    8.4430    1.0000 </r>
       <r>   11.0504    1.0000 </r>
       <r>   11.1550    1.0000 </r>
       <r>   11.4342    0.0001 </r>
       <r>   13.3414    0.0000 </r>
       <r>   16.3137    0.0000 </r>
       <r>   18.2870    0.0000 </r>
       <r>   20.3942    0.0000 </r>
       <r>   21.1568    0.0000 </r>
       <r>   23.5103    0.0000 </r>
       <r>   25.0961    0.0000 </r>
       <r>   27.4053    0.0000 </r>
      </set>
      <set comment="kpoint 11">
       <r>  -41.4133    1.0000 </r>
       <r>  -41.4120    1.0000 </r>
       <r>  -41.2632    1.0000 </r>
       <r>  -41.2221    1.0000 </r>
       <r>  -41.2191    1.0000 </r>
       <r>  -41.0356    1.0000 </r>
       <r>    4.9405    1.0000 </r>
       <r>    6.2864    1.0000 </r>
       <r>    6.2865    1.0000 </r>
       <r>    6.3540    1.0000 </r>
       <r>    7.7081    1.0000 </r>
       <r>    7.7300    1.0000 </r>
       <r>    8.7034    1.0000 </r>
       <r>    9.0576    1.0000 </r>
       <r>   10.8558    1.0000 </r>
       <r>   11.0026    1.0000 </r>
       <r>   11.7061    0.0000 </r>
       <r>   16.5855    0.0000 </r>
       <r>   18.5997    0.0000 </r>
       <r>   21.1884    0.0000 </r>
       <r>   22.0996    0.0000 </r>
       <r>   26.8880    0.0000 </r>
       <r>   28.1570    0.0000 </r>
       <r>   28.6346    0.0000 </r>
      </set>
      <set comment="kpoint 12">
       <r>  -41.4765    1.0000 </r>
       <r>  -41.4463    1.0000 </r>
       <r>  -41.3165    1.0000 </r>
       <r>  -41.2662    1.0000 </r>
       <r>  -41.1740    1.0000 </r>
       <r>  -41.0610    1.0000 </r>
       <r>    5.7248    1.0000 </r>
       <r>    5.8963    1.0000 </r>
       <r>    5.9378    1.0000 </r>
       <r>    7.0965    1.0000 </r>
       <r>    7.5839    1.0000 </r>
       <r>    8.2122    1.0000 </r>
       <r>    8.2616    1.0000 </r>
       <r>    9.8579    1.0000 </r>
       <r>   10.8637    1.0000 </r>
       <r>   11.3022    0.5103 </r>
       <r>   13.3952    0.0000 </r>
       <r>   17.5817    0.0000 </r>
       <r>   18.5159    0.0000 </r>
       <r>   20.1315    0.0000 </r>
       <r>   20.6948    0.0000 </r>
       <r>   25.1173    0.0000 </r>
       <r>   26.1267    0.0000 </r>
       <r>   27.1418    0.0000 </r>
      </set>
      <set comment="kpoint 13">
       <r>  -41.4996    1.0000 </r>
       <r>  -41.4554    1.0000 </r>
       <r>  -41.3415    1.0000 </r>
       <r>  -41.2827    1.0000 </r>
       <r>  -41.1482    1.0000 </r>
       <r>  -41.0793    1.0000 </r>
       <r>    5.7589    1.0000 </r>
       <r>    5.7841    1.0000 </r>
       <r>    5.8420    1.0000 </r>
       <r>    7.6744    1.0000 </r>
       <r>    7.7227    1.0000 </r>
       <r>    7.8329    1.0000 </r>
       <r>    8.5315    1.0000 </r>
       <r>   10.6282    1.0000 </r>
       <r>   10.8133    1.0000 </r>
       <r>   11.1078    1.0000 </r>
       <r>   14.9920    0.0000 </r>
       <r>   15.5192    0.0000 </r>
       <r>   18.8293    0.0000 </r>
       <r>   20.4276    0.0000 </r>
       <r>   21.9068    0.0000 </r>
       <r>   22.9465    0.0000 </r>
       <r>   25.3616    0.0000 </r>
       <r>   26.6114    0.0000 </r>
      </set>
      <set comment="kpoint 14">
       <r>  -41.4624    1.0000 </r>
       <r>  -41.4286    1.0000 </r>
       <r>  -41.3805    1.0000 </r>
       <r>  -41.3377    1.0000 </r>
       <r>  -41.1338    1.0000 </r>
       <r>  -41.0909    1.0000 </r>
       <r>    5.8522    1.0000 </r>
       <r>    6.2779    1.0000 </r>
       <r>    6.5351    1.0000 </r>
       <r>    6.9798    1.0000 </r>
       <r>    7.5361    1.0000 </r>
       <r>    7.8078    1.0000 </r>
       <r>    8.6231    1.0000 </r>
       <r>   10.2228    1.0000 </r>
       <r>   10.6449    1.0000 </r>
       <r>   10.9462    1.0000 </r>
       <r>   15.0082    0.0000 </r>
       <r>   16.2739    0.0000 </r>
       <r>   17.6976    0.0000 </r>
       <r>   21.2722    0.0000 </r>
       <r>   22.8401    0.0000 </r>
       <r>   24.0704    0.0000 </r>
       <r>   24.8936    0.0000 </r>
       <r>   25.2730    0.0000 </r>
      </set>
      <set comment="kpoint 15">
       <r>  -41.3255    1.0000 </r>
       <r>  -41.1534    1.0000 </r>
       <r>  -41.1534    1.0000 </r>
       <r>  -41.1152    1.0000 </r>
       <r>  -41.1152    1.0000 </r>
       <r>  -41.0092    1.0000 </r>
       <r>    1.6328    1.0000 </r>
       <r>    4.1406    1.0000 </r>
       <r>    7.2983    1.0000 </r>
       <r>    7.8177    1.0000 </r>
       <r>    7.8177    1.0000 </r>
       <r>    8.1713    1.0000 </r>
       <r>    8.1713    1.0000 </r>
       <r>    9.5824    1.0000 </r>
       <r>    9.5824    1.0000 </r>
       <r>    9.9516    1.0000 </r>
       <r>   11.0672    1.0000 </r>
       <r>   11.0672    1.0000 </r>
       <r>   16.9355    0.0000 </r>
       <r>   25.9294    0.0000 </r>
       <r>   27.5232    0.0000 </r>
       <r>   28.2709    0.0000 </r>
       <r>   31.8456    0.0000 </r>
       <r>   31.8456    0.0000 </r>
      </set>
      <set comment="kpoint 16">
       <r>  -41.3148    1.0000 </r>
       <r>  -41.1899    1.0000 </r>
       <r>  -41.1643    1.0000 </r>
       <r>  -41.1538    1.0000 </r>
       <r>  -41.1228    1.0000 </r>
       <r>  -41.0105    1.0000 </r>
       <r>    1.9941    1.0000 </r>
       <r>    4.4769    1.0000 </r>
       <r>    7.2657    1.0000 </r>
       <r>    7.7610    1.0000 </r>
       <r>    7.9550    1.0000 </r>
       <r>    8.0874    1.0000 </r>
       <r>    8.4322    1.0000 </r>
       <r>    8.8430    1.0000 </r>
       <r>    9.4275    1.0000 </r>
       <r>    9.4619    1.0000 </r>
       <r>   11.1200    1.0000 </r>
       <r>   12.3275    0.0000 </r>
       <r>   17.0200    0.0000 </r>
       <r>   26.4398    0.0000 </r>
       <r>   27.9566    0.0000 </r>
       <r>   28.6701    0.0000 </r>
       <r>   30.1610    0.0000 </r>
       <r>   30.8248    0.0000 </r>
      </set>
      <set comment="kpoint 17">
       <r>  -41.3045    1.0000 </r>
       <r>  -41.2664    1.0000 </r>
       <r>  -41.2517    1.0000 </r>
       <r>  -41.1916    1.0000 </r>
       <r>  -41.1432    1.0000 </r>
       <r>  -41.0168    1.0000 </r>
       <r>    2.9702    1.0000 </r>
       <r>    5.2241    1.0000 </r>
       <r>    7.0620    1.0000 </r>
       <r>    7.2591    1.0000 </r>
       <r>    7.5684    1.0000 </r>
       <r>    8.3634    1.0000 </r>
       <r>    8.7412    1.0000 </r>
       <r>    9.0930    1.0000 </r>
       <r>    9.1595    1.0000 </r>
       <r>    9.2704    1.0000 </r>
       <r>   11.2005    0.9982 </r>
       <r>   13.8708    0.0000 </r>
       <r>   17.4209    0.0000 </r>
       <r>   25.4909    0.0000 </r>
       <r>   27.9368    0.0000 </r>
       <r>   28.6287    0.0000 </r>
       <r>   28.8096    0.0000 </r>
       <r>   29.9526    0.0000 </r>
      </set>
      <set comment="kpoint 18">
       <r>  -41.4122    1.0000 </r>
       <r>  -41.3723    1.0000 </r>
       <r>  -41.2325    1.0000 </r>
       <r>  -41.2250    1.0000 </r>
       <r>  -41.1693    1.0000 </r>
       <r>  -41.0307    1.0000 </r>
       <r>    4.1172    1.0000 </r>
       <r>    5.3652    1.0000 </r>
       <r>    6.4301    1.0000 </r>
       <r>    7.1305    1.0000 </r>
       <r>    7.6872    1.0000 </r>
       <r>    8.5382    1.0000 </r>
       <r>    8.5923    1.0000 </r>
       <r>    9.6970    1.0000 </r>
       <r>   10.0649    1.0000 </r>
       <r>   10.2302    1.0000 </r>
       <r>   11.2460    0.9468 </r>
       <r>   14.9775    0.0000 </r>
       <r>   18.4028    0.0000 </r>
       <r>   21.9448    0.0000 </r>
       <r>   26.3152    0.0000 </r>
       <r>   26.3502    0.0000 </r>
       <r>   27.9399    0.0000 </r>
       <r>   29.8159    0.0000 </r>
      </set>
      <set comment="kpoint 19">
       <r>  -41.5080    1.0000 </r>
       <r>  -41.4670    1.0000 </r>
       <r>  -41.2516    1.0000 </r>
       <r>  -41.1909    1.0000 </r>
       <r>  -41.1882    1.0000 </r>
       <r>  -41.0508    1.0000 </r>
       <r>    4.6574    1.0000 </r>
       <r>    5.0264    1.0000 </r>
       <r>    5.9470    1.0000 </r>
       <r>    7.1806    1.0000 </r>
       <r>    8.2750    1.0000 </r>
       <r>    8.3343    1.0000 </r>
       <r>    9.0304    1.0000 </r>
       <r>   11.0624    1.0000 </r>
       <r>   11.1552    1.0000 </r>
       <r>   11.4244    0.0003 </r>
       <r>   11.4434    0.0000 </r>
       <r>   16.0031    0.0000 </r>
       <r>   18.0661    0.0000 </r>
       <r>   20.0770    0.0000 </r>
       <r>   23.5299    0.0000 </r>
       <r>   24.4269    0.0000 </r>
       <r>   25.5825    0.0000 </r>
       <r>   28.2877    0.0000 </r>
      </set>
      <set comment="kpoint 20">
       <r>  -41.5448    1.0000 </r>
       <r>  -41.5027    1.0000 </r>
       <r>  -41.2618    1.0000 </r>
       <r>  -41.1990    1.0000 </r>
       <r>  -41.1660    1.0000 </r>
       <r>  -41.0634    1.0000 </r>
       <r>    4.7331    1.0000 </r>
       <r>    4.8407    1.0000 </r>
       <r>    5.7929    1.0000 </r>
       <r>    7.2443    1.0000 </r>
       <r>    8.2391    1.0000 </r>
       <r>    8.4270    1.0000 </r>
       <r>    9.4843    1.0000 </r>
       <r>   11.1486    1.0000 </r>
       <r>   11.6221    0.0000 </r>
       <r>   11.8005    0.0000 </r>
       <r>   13.3515    0.0000 </r>
       <r>   14.9656    0.0000 </r>
       <r>   18.4854    0.0000 </r>
       <r>   19.2427    0.0000 </r>
       <r>   22.1164    0.0000 </r>
       <r>   23.6524    0.0000 </r>
       <r>   24.7568    0.0000 </r>
       <r>   27.7638    0.0000 </r>
      </set>
      <set comment="kpoint 21">
       <r>  -41.2984    1.0000 </r>
       <r>  -41.2454    1.0000 </r>
       <r>  -41.2281    1.0000 </r>
       <r>  -41.1787    1.0000 </r>
       <r>  -41.1422    1.0000 </r>
       <r>  -41.0146    1.0000 </r>
       <r>    2.6722    1.0000 </r>
       <r>    5.0680    1.0000 </r>
       <r>    7.0212    1.0000 </r>
       <r>    7.4761    1.0000 </r>
       <r>    7.8441    1.0000 </r>
       <r>    8.0722    1.0000 </r>
       <r>    8.6371    1.0000 </r>
       <r>    8.8608    1.0000 </r>
       <r>    9.1586    1.0000 </r>
       <r>    9.4463    1.0000 </r>
       <r>   11.1298    1.0000 </r>
       <r>   13.5132    0.0000 </r>
       <r>   17.2694    0.0000 </r>
       <r>   26.7378    0.0000 </r>
       <r>   27.5000    0.0000 </r>
       <r>   28.3578    0.0000 </r>
       <r>   29.0055    0.0000 </r>
       <r>   30.4860    0.0000 </r>
      </set>
      <set comment="kpoint 22">
       <r>  -41.3580    1.0000 </r>
       <r>  -41.3302    1.0000 </r>
       <r>  -41.2474    1.0000 </r>
       <r>  -41.2169    1.0000 </r>
       <r>  -41.1728    1.0000 </r>
       <r>  -41.0249    1.0000 </r>
       <r>    3.8158    1.0000 </r>
       <r>    5.7135    1.0000 </r>
       <r>    6.6836    1.0000 </r>
       <r>    6.8762    1.0000 </r>
       <r>    7.4582    1.0000 </r>
       <r>    8.1220    1.0000 </r>
       <r>    8.8412    1.0000 </r>
       <r>    8.9916    1.0000 </r>
       <r>    9.8879    1.0000 </r>
       <r>   10.1321    1.0000 </r>
       <r>   11.1322    1.0000 </r>
       <r>   14.7018    0.0000 </r>
       <r>   18.0595    0.0000 </r>
       <r>   23.7554    0.0000 </r>
       <r>   25.6049    0.0000 </r>
       <r>   27.5162    0.0000 </r>
       <r>   28.9210    0.0000 </r>
       <r>   30.7847    0.0000 </r>
      </set>
      <set comment="kpoint 23">
       <r>  -41.4603    1.0000 </r>
       <r>  -41.4257    1.0000 </r>
       <r>  -41.2571    1.0000 </r>
       <r>  -41.2063    1.0000 </r>
       <r>  -41.1990    1.0000 </r>
       <r>  -41.0427    1.0000 </r>
       <r>    4.7667    1.0000 </r>
       <r>    5.4708    1.0000 </r>
       <r>    6.1484    1.0000 </r>
       <r>    7.0314    1.0000 </r>
       <r>    7.8967    1.0000 </r>
       <r>    8.2803    1.0000 </r>
       <r>    8.5233    1.0000 </r>
       <r>    9.8193    1.0000 </r>
       <r>   10.9191    1.0000 </r>
       <r>   10.9787    1.0000 </r>
       <r>   11.6863    0.0000 </r>
       <r>   15.8000    0.0000 </r>
       <r>   18.9782    0.0000 </r>
       <r>   20.5045    0.0000 </r>
       <r>   23.4714    0.0000 </r>
       <r>   25.6572    0.0000 </r>
       <r>   26.8163    0.0000 </r>
       <r>   28.6969    0.0000 </r>
      </set>
      <set comment="kpoint 24">
       <r>  -41.5242    1.0000 </r>
       <r>  -41.4834    1.0000 </r>
       <r>  -41.2811    1.0000 </r>
       <r>  -41.2208    1.0000 </r>
       <r>  -41.1656    1.0000 </r>
       <r>  -41.0630    1.0000 </r>
       <r>    4.9637    1.0000 </r>
       <r>    5.1648    1.0000 </r>
       <r>    5.9374    1.0000 </r>
       <r>    7.1849    1.0000 </r>
       <r>    7.9774    1.0000 </r>
       <r>    8.5517    1.0000 </r>
       <r>    8.9561    1.0000 </r>
       <r>   10.9394    1.0000 </r>
       <r>   11.0562    1.0000 </r>
       <r>   11.4777    0.0000 </r>
       <r>   13.2934    0.0000 </r>
       <r>   16.1153    0.0000 </r>
       <r>   17.9371    0.0000 </r>
       <r>   20.2900    0.0000 </r>
       <r>   21.6545    0.0000 </r>
       <r>   23.7779    0.0000 </r>
       <r>   25.3093    0.0000 </r>
       <r>   27.4974    0.0000 </r>
      </set>
      <set comment="kpoint 25">
       <r>  -41.4159    1.0000 </r>
       <r>  -41.4145    1.0000 </r>
       <r>  -41.2636    1.0000 </r>
       <r>  -41.2273    1.0000 </r>
       <r>  -41.2053    1.0000 </r>
       <r>  -41.0398    1.0000 </r>
       <r>    4.9739    1.0000 </r>
       <r>    6.1220    1.0000 </r>
       <r>    6.3728    1.0000 </r>
       <r>    6.4545    1.0000 </r>
       <r>    7.7138    1.0000 </r>
       <r>    7.7177    1.0000 </r>
       <r>    8.5834    1.0000 </r>
       <r>    9.2108    1.0000 </r>
       <r>   10.7850    1.0000 </r>
       <r>   10.9681    1.0000 </r>
       <r>   11.7798    0.0000 </r>
       <r>   15.7992    0.0000 </r>
       <r>   19.2152    0.0000 </r>
       <r>   21.6405    0.0000 </r>
       <r>   22.2648    0.0000 </r>
       <r>   26.7391    0.0000 </r>
       <r>   27.3123    0.0000 </r>
       <r>   29.2964    0.0000 </r>
      </set>
      <set comment="kpoint 26">
       <r>  -41.4771    1.0000 </r>
       <r>  -41.4499    1.0000 </r>
       <r>  -41.3165    1.0000 </r>
       <r>  -41.2695    1.0000 </r>
       <r>  -41.1654    1.0000 </r>
       <r>  -41.0621    1.0000 </r>
       <r>    5.5605    1.0000 </r>
       <r>    5.9504    1.0000 </r>
       <r>    6.1218    1.0000 </r>
       <r>    6.8926    1.0000 </r>
       <r>    7.7263    1.0000 </r>
       <r>    8.1081    1.0000 </r>
       <r>    8.4012    1.0000 </r>
       <r>    9.9197    1.0000 </r>
       <r>   10.6580    1.0000 </r>
       <r>   11.4065    0.0017 </r>
       <r>   13.4394    0.0000 </r>
       <r>   17.6051    0.0000 </r>
       <r>   17.8447    0.0000 </r>
       <r>   20.2134    0.0000 </r>
       <r>   21.5156    0.0000 </r>
       <r>   24.6164    0.0000 </r>
       <r>   26.1276    0.0000 </r>
       <r>   27.2219    0.0000 </r>
      </set>
      <set comment="kpoint 27">
       <r>  -41.4998    1.0000 </r>
       <r>  -41.4592    1.0000 </r>
       <r>  -41.3414    1.0000 </r>
       <r>  -41.2861    1.0000 </r>
       <r>  -41.1417    1.0000 </r>
       <r>  -41.0784    1.0000 </r>
       <r>    5.5032    1.0000 </r>
       <r>    5.8310    1.0000 </r>
       <r>    6.2147    1.0000 </r>
       <r>    7.1150    1.0000 </r>
       <r>    7.5838    1.0000 </r>
       <r>    8.3010    1.0000 </r>
       <r>    8.6990    1.0000 </r>
       <r>   10.5996    1.0000 </r>
       <r>   10.6540    1.0000 </r>
       <r>   11.1845    0.9996 </r>
       <r>   15.0718    0.0000 </r>
       <r>   15.5532    0.0000 </r>
       <r>   18.9154    0.0000 </r>
       <r>   20.1087    0.0000 </r>
       <r>   21.0801    0.0000 </r>
       <r>   24.0541    0.0000 </r>
       <r>   25.6284    0.0000 </r>
       <r>   25.8628    0.0000 </r>
      </set>
      <set comment="kpoint 28">
       <r>  -41.4613    1.0000 </r>
       <r>  -41.4323    1.0000 </r>
       <r>  -41.3823    1.0000 </r>
       <r>  -41.3410    1.0000 </r>
       <r>  -41.1282    1.0000 </r>
       <r>  -41.0887    1.0000 </r>
       <r>    5.8877    1.0000 </r>
       <r>    6.2567    1.0000 </r>
       <r>    6.5686    1.0000 </r>
       <r>    6.8628    1.0000 </r>
       <r>    7.6651    1.0000 </r>
       <r>    7.7075    1.0000 </r>
       <r>    8.6323    1.0000 </r>
       <r>   10.3163    1.0000 </r>
       <r>   10.4297    1.0000 </r>
       <r>   11.0415    1.0000 </r>
       <r>   15.1050    0.0000 </r>
       <r>   16.4187    0.0000 </r>
       <r>   17.9539    0.0000 </r>
       <r>   20.3967    0.0000 </r>
       <r>   23.0403    0.0000 </r>
       <r>   23.1312    0.0000 </r>
       <r>   25.0022    0.0000 </r>
       <r>   26.3002    0.0000 </r>
      </set>
      <set comment="kpoint 29">
       <r>  -41.2890    1.0000 </r>
       <r>  -41.1490    1.0000 </r>
       <r>  -41.1490    1.0000 </r>
       <r>  -41.1196    1.0000 </r>
       <r>  -41.1196    1.0000 </r>
       <r>  -41.0461    1.0000 </r>
       <r>    2.0216    1.0000 </r>
       <r>    4.0461    1.0000 </r>
       <r>    7.2212    1.0000 </r>
       <r>    7.7861    1.0000 </r>
       <r>    7.7861    1.0000 </r>
       <r>    8.0701    1.0000 </r>
       <r>    8.0701    1.0000 </r>
       <r>    8.7987    1.0000 </r>
       <r>    9.8415    1.0000 </r>
       <r>    9.8415    1.0000 </r>
       <r>   10.9721    1.0000 </r>
       <r>   10.9721    1.0000 </r>
       <r>   18.8557    0.0000 </r>
       <r>   25.4166    0.0000 </r>
       <r>   27.6500    0.0000 </r>
       <r>   27.8414    0.0000 </r>
       <r>   31.3221    0.0000 </r>
       <r>   31.3221    0.0000 </r>
      </set>
      <set comment="kpoint 30">
       <r>  -41.2826    1.0000 </r>
       <r>  -41.1823    1.0000 </r>
       <r>  -41.1605    1.0000 </r>
       <r>  -41.1593    1.0000 </r>
       <r>  -41.1276    1.0000 </r>
       <r>  -41.0436    1.0000 </r>
       <r>    2.3763    1.0000 </r>
       <r>    4.3972    1.0000 </r>
       <r>    7.2504    1.0000 </r>
       <r>    7.6057    1.0000 </r>
       <r>    7.6828    1.0000 </r>
       <r>    8.0419    1.0000 </r>
       <r>    8.3249    1.0000 </r>
       <r>    8.4403    1.0000 </r>
       <r>    9.7202    1.0000 </r>
       <r>    9.7233    1.0000 </r>
       <r>   10.9954    1.0000 </r>
       <r>   11.6085    0.0000 </r>
       <r>   19.0073    0.0000 </r>
       <r>   25.9284    0.0000 </r>
       <r>   28.0613    0.0000 </r>
       <r>   28.2242    0.0000 </r>
       <r>   29.8814    0.0000 </r>
       <r>   30.7666    0.0000 </r>
      </set>
      <set comment="kpoint 31">
       <r>  -41.3070    1.0000 </r>
       <r>  -41.2626    1.0000 </r>
       <r>  -41.2268    1.0000 </r>
       <r>  -41.1861    1.0000 </r>
       <r>  -41.1489    1.0000 </r>
       <r>  -41.0433    1.0000 </r>
       <r>    3.3087    1.0000 </r>
       <r>    5.2004    1.0000 </r>
       <r>    6.8771    1.0000 </r>
       <r>    7.1726    1.0000 </r>
       <r>    7.3380    1.0000 </r>
       <r>    8.1631    1.0000 </r>
       <r>    8.6573    1.0000 </r>
       <r>    9.0202    1.0000 </r>
       <r>    9.5788    1.0000 </r>
       <r>    9.6046    1.0000 </r>
       <r>   11.0202    1.0000 </r>
       <r>   12.6364    0.0000 </r>
       <r>   19.4558    0.0000 </r>
       <r>   25.7710    0.0000 </r>
       <r>   27.3872    0.0000 </r>
       <r>   28.1474    0.0000 </r>
       <r>   29.1022    0.0000 </r>
       <r>   30.1130    0.0000 </r>
      </set>
      <set comment="kpoint 32">
       <r>  -41.4153    1.0000 </r>
       <r>  -41.3824    1.0000 </r>
       <r>  -41.2183    1.0000 </r>
       <r>  -41.2006    1.0000 </r>
       <r>  -41.1758    1.0000 </r>
       <r>  -41.0492    1.0000 </r>
       <r>    4.2786    1.0000 </r>
       <r>    5.3979    1.0000 </r>
       <r>    6.3189    1.0000 </r>
       <r>    6.8712    1.0000 </r>
       <r>    7.8111    1.0000 </r>
       <r>    8.6329    1.0000 </r>
       <r>    8.7732    1.0000 </r>
       <r>    9.9305    1.0000 </r>
       <r>    9.9912    1.0000 </r>
       <r>   10.2237    1.0000 </r>
       <r>   11.0603    1.0000 </r>
       <r>   13.5560    0.0000 </r>
       <r>   19.8948    0.0000 </r>
       <r>   22.7441    0.0000 </r>
       <r>   25.4777    0.0000 </r>
       <r>   27.0117    0.0000 </r>
       <r>   27.9116    0.0000 </r>
       <r>   29.2859    0.0000 </r>
      </set>
      <set comment="kpoint 33">
       <r>  -41.5097    1.0000 </r>
       <r>  -41.4776    1.0000 </r>
       <r>  -41.2444    1.0000 </r>
       <r>  -41.1979    1.0000 </r>
       <r>  -41.1652    1.0000 </r>
       <r>  -41.0613    1.0000 </r>
       <r>    4.5753    1.0000 </r>
       <r>    5.0593    1.0000 </r>
       <r>    6.1565    1.0000 </r>
       <r>    6.5580    1.0000 </r>
       <r>    8.5549    1.0000 </r>
       <r>    8.5866    1.0000 </r>
       <r>    9.8984    1.0000 </r>
       <r>   10.6236    1.0000 </r>
       <r>   11.1864    0.9995 </r>
       <r>   11.1939    0.9990 </r>
       <r>   11.4278    0.0002 </r>
       <r>   14.5374    0.0000 </r>
       <r>   18.4041    0.0000 </r>
       <r>   20.8368    0.0000 </r>
       <r>   23.4814    0.0000 </r>
       <r>   25.2115    0.0000 </r>
       <r>   26.1564    0.0000 </r>
       <r>   28.6803    0.0000 </r>
      </set>
      <set comment="kpoint 34">
       <r>  -41.5463    1.0000 </r>
       <r>  -41.5131    1.0000 </r>
       <r>  -41.2542    1.0000 </r>
       <r>  -41.2065    1.0000 </r>
       <r>  -41.1475    1.0000 </r>
       <r>  -41.0700    1.0000 </r>
       <r>    4.5633    1.0000 </r>
       <r>    4.8984    1.0000 </r>
       <r>    6.0765    1.0000 </r>
       <r>    6.5068    1.0000 </r>
       <r>    8.5069    1.0000 </r>
       <r>    8.7493    1.0000 </r>
       <r>   10.6309    1.0000 </r>
       <r>   10.6944    1.0000 </r>
       <r>   11.6521    0.0000 </r>
       <r>   11.7823    0.0000 </r>
       <r>   12.6677    0.0000 </r>
       <r>   14.5965    0.0000 </r>
       <r>   18.1818    0.0000 </r>
       <r>   18.4047    0.0000 </r>
       <r>   23.6400    0.0000 </r>
       <r>   24.4665    0.0000 </r>
       <r>   25.0964    0.0000 </r>
       <r>   28.5037    0.0000 </r>
      </set>
      <set comment="kpoint 35">
       <r>  -41.2867    1.0000 </r>
       <r>  -41.2332    1.0000 </r>
       <r>  -41.2213    1.0000 </r>
       <r>  -41.1765    1.0000 </r>
       <r>  -41.1470    1.0000 </r>
       <r>  -41.0424    1.0000 </r>
       <r>    3.0320    1.0000 </r>
       <r>    5.0236    1.0000 </r>
       <r>    7.0739    1.0000 </r>
       <r>    7.1197    1.0000 </r>
       <r>    7.4644    1.0000 </r>
       <r>    8.0570    1.0000 </r>
       <r>    8.5285    1.0000 </r>
       <r>    8.8229    1.0000 </r>
       <r>    9.5914    1.0000 </r>
       <r>    9.6669    1.0000 </r>
       <r>   10.9725    1.0000 </r>
       <r>   12.3948    0.0000 </r>
       <r>   19.3215    0.0000 </r>
       <r>   26.5297    0.0000 </r>
       <r>   27.7290    0.0000 </r>
       <r>   28.2260    0.0000 </r>
       <r>   28.3884    0.0000 </r>
       <r>   29.9429    0.0000 </r>
      </set>
      <set comment="kpoint 36">
       <r>  -41.3634    1.0000 </r>
       <r>  -41.3376    1.0000 </r>
       <r>  -41.2170    1.0000 </r>
       <r>  -41.2090    1.0000 </r>
       <r>  -41.1775    1.0000 </r>
       <r>  -41.0456    1.0000 </r>
       <r>    4.0810    1.0000 </r>
       <r>    5.7561    1.0000 </r>
       <r>    6.3953    1.0000 </r>
       <r>    6.9630    1.0000 </r>
       <r>    7.2981    1.0000 </r>
       <r>    7.9809    1.0000 </r>
       <r>    8.8041    1.0000 </r>
       <r>    9.3819    1.0000 </r>
       <r>   10.0252    1.0000 </r>
       <r>   10.1115    1.0000 </r>
       <r>   10.9896    1.0000 </r>
       <r>   13.3291    0.0000 </r>
       <r>   19.9082    0.0000 </r>
       <r>   24.2812    0.0000 </r>
       <r>   25.8554    0.0000 </r>
       <r>   27.2430    0.0000 </r>
       <r>   28.3793    0.0000 </r>
       <r>   29.0959    0.0000 </r>
      </set>
      <set comment="kpoint 37">
       <r>  -41.4629    1.0000 </r>
       <r>  -41.4353    1.0000 </r>
       <r>  -41.2523    1.0000 </r>
       <r>  -41.2108    1.0000 </r>
       <r>  -41.1746    1.0000 </r>
       <r>  -41.0555    1.0000 </r>
       <r>    4.7722    1.0000 </r>
       <r>    5.5237    1.0000 </r>
       <r>    6.1703    1.0000 </r>
       <r>    6.7555    1.0000 </r>
       <r>    7.9417    1.0000 </r>
       <r>    8.5680    1.0000 </r>
       <r>    8.7277    1.0000 </r>
       <r>    9.9360    1.0000 </r>
       <r>   10.5054    1.0000 </r>
       <r>   11.1411    1.0000 </r>
       <r>   11.7189    0.0000 </r>
       <r>   14.3987    0.0000 </r>
       <r>   19.5383    0.0000 </r>
       <r>   21.9046    0.0000 </r>
       <r>   23.5265    0.0000 </r>
       <r>   25.3495    0.0000 </r>
       <r>   27.1326    0.0000 </r>
       <r>   28.4099    0.0000 </r>
      </set>
      <set comment="kpoint 38">
       <r>  -41.5256    1.0000 </r>
       <r>  -41.4938    1.0000 </r>
       <r>  -41.2756    1.0000 </r>
       <r>  -41.2291    1.0000 </r>
       <r>  -41.1458    1.0000 </r>
       <r>  -41.0683    1.0000 </r>
       <r>    4.8029    1.0000 </r>
       <r>    5.2278    1.0000 </r>
       <r>    6.2557    1.0000 </r>
       <r>    6.5331    1.0000 </r>
       <r>    7.9807    1.0000 </r>
       <r>    9.0049    1.0000 </r>
       <r>    9.6482    1.0000 </r>
       <r>   10.4723    1.0000 </r>
       <r>   11.0046    1.0000 </r>
       <r>   11.5827    0.0000 </r>
       <r>   13.1833    0.0000 </r>
       <r>   15.4051    0.0000 </r>
       <r>   17.7260    0.0000 </r>
       <r>   19.7950    0.0000 </r>
       <r>   22.7506    0.0000 </r>
       <r>   24.5137    0.0000 </r>
       <r>   25.7863    0.0000 </r>
       <r>   27.3661    0.0000 </r>
      </set>
      <set comment="kpoint 39">
       <r>  -41.4227    1.0000 </r>
       <r>  -41.4182    1.0000 </r>
       <r>  -41.2623    1.0000 </r>
       <r>  -41.2341    1.0000 </r>
       <r>  -41.1767    1.0000 </r>
       <r>  -41.0529    1.0000 </r>
       <r>    5.0760    1.0000 </r>
       <r>    5.9406    1.0000 </r>
       <r>    6.4497    1.0000 </r>
       <r>    6.6213    1.0000 </r>
       <r>    7.6259    1.0000 </r>
       <r>    7.6746    1.0000 </r>
       <r>    8.4483    1.0000 </r>
       <r>    9.6534    1.0000 </r>
       <r>   10.3439    1.0000 </r>
       <r>   11.1970    0.9987 </r>
       <r>   11.8639    0.0000 </r>
       <r>   14.4511    0.0000 </r>
       <r>   20.2398    0.0000 </r>
       <r>   22.6844    0.0000 </r>
       <r>   22.7557    0.0000 </r>
       <r>   26.2084    0.0000 </r>
       <r>   26.3765    0.0000 </r>
       <r>   28.9482    0.0000 </r>
      </set>
      <set comment="kpoint 40">
       <r>  -41.4785    1.0000 </r>
       <r>  -41.4584    1.0000 </r>
       <r>  -41.3151    1.0000 </r>
       <r>  -41.2781    1.0000 </r>
       <r>  -41.1438    1.0000 </r>
       <r>  -41.0665    1.0000 </r>
       <r>    5.4251    1.0000 </r>
       <r>    6.0861    1.0000 </r>
       <r>    6.1121    1.0000 </r>
       <r>    6.8993    1.0000 </r>
       <r>    7.5779    1.0000 </r>
       <r>    8.1756    1.0000 </r>
       <r>    8.6128    1.0000 </r>
       <r>   10.0376    1.0000 </r>
       <r>   10.3020    1.0000 </r>
       <r>   11.6016    0.0000 </r>
       <r>   13.5503    0.0000 </r>
       <r>   16.3209    0.0000 </r>
       <r>   18.2455    0.0000 </r>
       <r>   20.6360    0.0000 </r>
       <r>   22.2725    0.0000 </r>
       <r>   24.2833    0.0000 </r>
       <r>   25.5912    0.0000 </r>
       <r>   27.7281    0.0000 </r>
      </set>
      <set comment="kpoint 41">
       <r>  -41.4998    1.0000 </r>
       <r>  -41.4693    1.0000 </r>
       <r>  -41.3391    1.0000 </r>
       <r>  -41.2953    1.0000 </r>
       <r>  -41.1250    1.0000 </r>
       <r>  -41.0775    1.0000 </r>
       <r>    5.3519    1.0000 </r>
       <r>    5.9476    1.0000 </r>
       <r>    6.5320    1.0000 </r>
       <r>    6.7047    1.0000 </r>
       <r>    7.3223    1.0000 </r>
       <r>    8.6206    1.0000 </r>
       <r>    9.0234    1.0000 </r>
       <r>   10.0957    1.0000 </r>
       <r>   10.7516    1.0000 </r>
       <r>   11.3374    0.1661 </r>
       <r>   15.3090    0.0000 </r>
       <r>   15.6563    0.0000 </r>
       <r>   18.6693    0.0000 </r>
       <r>   19.3532    0.0000 </r>
       <r>   20.8459    0.0000 </r>
       <r>   24.8657    0.0000 </r>
       <r>   25.5132    0.0000 </r>
       <r>   26.2697    0.0000 </r>
      </set>
      <set comment="kpoint 42">
       <r>  -41.4587    1.0000 </r>
       <r>  -41.4405    1.0000 </r>
       <r>  -41.3851    1.0000 </r>
       <r>  -41.3500    1.0000 </r>
       <r>  -41.1137    1.0000 </r>
       <r>  -41.0843    1.0000 </r>
       <r>    5.9536    1.0000 </r>
       <r>    6.1739    1.0000 </r>
       <r>    6.6830    1.0000 </r>
       <r>    6.7589    1.0000 </r>
       <r>    7.5163    1.0000 </r>
       <r>    7.8088    1.0000 </r>
       <r>    8.6540    1.0000 </r>
       <r>    9.8989    1.0000 </r>
       <r>   10.5893    1.0000 </r>
       <r>   11.2232    0.9881 </r>
       <r>   15.3942    0.0000 </r>
       <r>   16.8647    0.0000 </r>
       <r>   18.6034    0.0000 </r>
       <r>   19.0467    0.0000 </r>
       <r>   21.6512    0.0000 </r>
       <r>   22.6371    0.0000 </r>
       <r>   26.0205    0.0000 </r>
       <r>   27.6109    0.0000 </r>
      </set>
      <set comment="kpoint 43">
       <r>  -41.2334    1.0000 </r>
       <r>  -41.1420    1.0000 </r>
       <r>  -41.1420    1.0000 </r>
       <r>  -41.1264    1.0000 </r>
       <r>  -41.1264    1.0000 </r>
       <r>  -41.1023    1.0000 </r>
       <r>    2.6043    1.0000 </r>
       <r>    3.7728    1.0000 </r>
       <r>    7.1787    1.0000 </r>
       <r>    7.7880    1.0000 </r>
       <r>    7.7880    1.0000 </r>
       <r>    7.8345    1.0000 </r>
       <r>    7.9471    1.0000 </r>
       <r>    7.9471    1.0000 </r>
       <r>   10.1771    1.0000 </r>
       <r>   10.1771    1.0000 </r>
       <r>   10.7880    1.0000 </r>
       <r>   10.7880    1.0000 </r>
       <r>   21.1272    0.0000 </r>
       <r>   24.7930    0.0000 </r>
       <r>   27.0679    0.0000 </r>
       <r>   27.2672    0.0000 </r>
       <r>   31.2616    0.0000 </r>
       <r>   31.2616    0.0000 </r>
      </set>
      <set comment="kpoint 44">
       <r>  -41.2372    1.0000 </r>
       <r>  -41.1735    1.0000 </r>
       <r>  -41.1680    1.0000 </r>
       <r>  -41.1518    1.0000 </r>
       <r>  -41.1348    1.0000 </r>
       <r>  -41.0913    1.0000 </r>
       <r>    2.9531    1.0000 </r>
       <r>    4.1309    1.0000 </r>
       <r>    7.1559    1.0000 </r>
       <r>    7.3168    1.0000 </r>
       <r>    7.5962    1.0000 </r>
       <r>    8.0121    1.0000 </r>
       <r>    8.0368    1.0000 </r>
       <r>    8.1979    1.0000 </r>
       <r>   10.0893    1.0000 </r>
       <r>   10.1464    1.0000 </r>
       <r>   10.7728    1.0000 </r>
       <r>   11.0732    1.0000 </r>
       <r>   21.2851    0.0000 </r>
       <r>   25.1820    0.0000 </r>
       <r>   27.5116    0.0000 </r>
       <r>   27.6344    0.0000 </r>
       <r>   29.9296    0.0000 </r>
       <r>   30.9531    0.0000 </r>
      </set>
      <set comment="kpoint 45">
       <r>  -41.3008    1.0000 </r>
       <r>  -41.2750    1.0000 </r>
       <r>  -41.1812    1.0000 </r>
       <r>  -41.1776    1.0000 </r>
       <r>  -41.1576    1.0000 </r>
       <r>  -41.0833    1.0000 </r>
       <r>    3.8272    1.0000 </r>
       <r>    4.9623    1.0000 </r>
       <r>    6.6572    1.0000 </r>
       <r>    7.0171    1.0000 </r>
       <r>    7.3539    1.0000 </r>
       <r>    7.8938    1.0000 </r>
       <r>    8.6650    1.0000 </r>
       <r>    8.8807    1.0000 </r>
       <r>    9.9687    1.0000 </r>
       <r>   10.1770    1.0000 </r>
       <r>   10.7337    1.0000 </r>
       <r>   11.6557    0.0000 </r>
       <r>   21.6329    0.0000 </r>
       <r>   25.7437    0.0000 </r>
       <r>   26.5178    0.0000 </r>
       <r>   27.5258    0.0000 </r>
       <r>   29.3156    0.0000 </r>
       <r>   29.8914    0.0000 </r>
      </set>
      <set comment="kpoint 46">
       <r>  -41.4144    1.0000 </r>
       <r>  -41.3956    1.0000 </r>
       <r>  -41.2086    1.0000 </r>
       <r>  -41.1855    1.0000 </r>
       <r>  -41.1595    1.0000 </r>
       <r>  -41.0790    1.0000 </r>
       <r>    4.5471    1.0000 </r>
       <r>    5.2478    1.0000 </r>
       <r>    6.2695    1.0000 </r>
       <r>    6.6580    1.0000 </r>
       <r>    8.0479    1.0000 </r>
       <r>    8.5460    1.0000 </r>
       <r>    9.0501    1.0000 </r>
       <r>    9.7210    1.0000 </r>
       <r>   10.3729    1.0000 </r>
       <r>   10.4353    1.0000 </r>
       <r>   10.8206    1.0000 </r>
       <r>   12.2800    0.0000 </r>
       <r>   21.3242    0.0000 </r>
       <r>   23.6642    0.0000 </r>
       <r>   24.5677    0.0000 </r>
       <r>   27.0571    0.0000 </r>
       <r>   28.0811    0.0000 </r>
       <r>   29.3477    0.0000 </r>
      </set>
      <set comment="kpoint 47">
       <r>  -41.5088    1.0000 </r>
       <r>  -41.4907    1.0000 </r>
       <r>  -41.2336    1.0000 </r>
       <r>  -41.2086    1.0000 </r>
       <r>  -41.1351    1.0000 </r>
       <r>  -41.0796    1.0000 </r>
       <r>    4.6136    1.0000 </r>
       <r>    4.9954    1.0000 </r>
       <r>    6.1212    1.0000 </r>
       <r>    6.2947    1.0000 </r>
       <r>    8.9863    1.0000 </r>
       <r>    9.1315    1.0000 </r>
       <r>   10.0712    1.0000 </r>
       <r>   10.4314    1.0000 </r>
       <r>   11.0896    1.0000 </r>
       <r>   11.2521    0.9256 </r>
       <r>   11.3843    0.0108 </r>
       <r>   13.1404    0.0000 </r>
       <r>   18.9839    0.0000 </r>
       <r>   20.4941    0.0000 </r>
       <r>   24.3811    0.0000 </r>
       <r>   26.2618    0.0000 </r>
       <r>   26.3613    0.0000 </r>
       <r>   29.0614    0.0000 </r>
      </set>
      <set comment="kpoint 48">
       <r>  -41.5447    1.0000 </r>
       <r>  -41.5265    1.0000 </r>
       <r>  -41.2431    1.0000 </r>
       <r>  -41.2169    1.0000 </r>
       <r>  -41.1236    1.0000 </r>
       <r>  -41.0816    1.0000 </r>
       <r>    4.5523    1.0000 </r>
       <r>    4.8685    1.0000 </r>
       <r>    6.0945    1.0000 </r>
       <r>    6.1345    1.0000 </r>
       <r>    8.9338    1.0000 </r>
       <r>    9.4521    1.0000 </r>
       <r>   10.0997    1.0000 </r>
       <r>   11.4161    0.0007 </r>
       <r>   11.6850    0.0000 </r>
       <r>   11.7538    0.0000 </r>
       <r>   12.0491    0.0000 </r>
       <r>   13.9338    0.0000 </r>
       <r>   17.9177    0.0000 </r>
       <r>   17.9621    0.0000 </r>
       <r>   24.8898    0.0000 </r>
       <r>   25.4575    0.0000 </r>
       <r>   25.6354    0.0000 </r>
       <r>   28.2670    0.0000 </r>
      </set>
      <set comment="kpoint 49">
       <r>  -41.2720    1.0000 </r>
       <r>  -41.2429    1.0000 </r>
       <r>  -41.1829    1.0000 </r>
       <r>  -41.1715    1.0000 </r>
       <r>  -41.1540    1.0000 </r>
       <r>  -41.0844    1.0000 </r>
       <r>    3.5825    1.0000 </r>
       <r>    4.7681    1.0000 </r>
       <r>    6.8070    1.0000 </r>
       <r>    7.1042    1.0000 </r>
       <r>    7.2914    1.0000 </r>
       <r>    7.8185    1.0000 </r>
       <r>    8.5218    1.0000 </r>
       <r>    8.7031    1.0000 </r>
       <r>    9.9991    1.0000 </r>
       <r>   10.1608    1.0000 </r>
       <r>   10.7122    1.0000 </r>
       <r>   11.5209    0.0000 </r>
       <r>   21.5628    0.0000 </r>
       <r>   25.7179    0.0000 </r>
       <r>   27.8059    0.0000 </r>
       <r>   27.9029    0.0000 </r>
       <r>   28.1560    0.0000 </r>
       <r>   28.9883    0.0000 </r>
      </set>
      <set comment="kpoint 50">
       <r>  -41.3634    1.0000 </r>
       <r>  -41.3476    1.0000 </r>
       <r>  -41.2075    1.0000 </r>
       <r>  -41.1906    1.0000 </r>
       <r>  -41.1634    1.0000 </r>
       <r>  -41.0787    1.0000 </r>
       <r>    4.4922    1.0000 </r>
       <r>    5.5024    1.0000 </r>
       <r>    6.3663    1.0000 </r>
       <r>    6.9101    1.0000 </r>
       <r>    7.2390    1.0000 </r>
       <r>    7.7427    1.0000 </r>
       <r>    8.9507    1.0000 </r>
       <r>    9.4801    1.0000 </r>
       <r>   10.3037    1.0000 </r>
       <r>   10.3719    1.0000 </r>
       <r>   10.7873    1.0000 </r>
       <r>   12.1409    0.0000 </r>
       <r>   21.8371    0.0000 </r>
       <r>   25.0675    0.0000 </r>
       <r>   25.3894    0.0000 </r>
       <r>   27.2338    0.0000 </r>
       <r>   27.2789    0.0000 </r>
       <r>   28.1516    0.0000 </r>
      </set>
      <set comment="kpoint 51">
       <r>  -41.4624    1.0000 </r>
       <r>  -41.4469    1.0000 </r>
       <r>  -41.2439    1.0000 </r>
       <r>  -41.2210    1.0000 </r>
       <r>  -41.1403    1.0000 </r>
       <r>  -41.0768    1.0000 </r>
       <r>    4.8793    1.0000 </r>
       <r>    5.3914    1.0000 </r>
       <r>    6.1885    1.0000 </r>
       <r>    6.6093    1.0000 </r>
       <r>    8.1624    1.0000 </r>
       <r>    8.5891    1.0000 </r>
       <r>    9.0223    1.0000 </r>
       <r>    9.8101    1.0000 </r>
       <r>   10.5781    1.0000 </r>
       <r>   11.3366    0.1715 </r>
       <r>   11.6979    0.0000 </r>
       <r>   13.0383    0.0000 </r>
       <r>   20.3627    0.0000 </r>
       <r>   22.2619    0.0000 </r>
       <r>   24.0579    0.0000 </r>
       <r>   25.8565    0.0000 </r>
       <r>   27.0284    0.0000 </r>
       <r>   27.2546    0.0000 </r>
      </set>
      <set comment="kpoint 52">
       <r>  -41.5241    1.0000 </r>
       <r>  -41.5067    1.0000 </r>
       <r>  -41.2661    1.0000 </r>
       <r>  -41.2408    1.0000 </r>
       <r>  -41.1208    1.0000 </r>
       <r>  -41.0795    1.0000 </r>
       <r>    4.8034    1.0000 </r>
       <r>    5.1820    1.0000 </r>
       <r>    6.1567    1.0000 </r>
       <r>    6.3597    1.0000 </r>
       <r>    8.3281    1.0000 </r>
       <r>    9.5026    1.0000 </r>
       <r>    9.6734    1.0000 </r>
       <r>   10.2295    1.0000 </r>
       <r>   11.0306    1.0000 </r>
       <r>   11.5766    0.0000 </r>
       <r>   13.2260    0.0000 </r>
       <r>   14.4754    0.0000 </r>
       <r>   17.9612    0.0000 </r>
       <r>   19.1156    0.0000 </r>
       <r>   24.0300    0.0000 </r>
       <r>   25.3710    0.0000 </r>
       <r>   26.1494    0.0000 </r>
       <r>   26.5744    0.0000 </r>
      </set>
      <set comment="kpoint 53">
       <r>  -41.4274    1.0000 </r>
       <r>  -41.4231    1.0000 </r>
       <r>  -41.2586    1.0000 </r>
       <r>  -41.2427    1.0000 </r>
       <r>  -41.1409    1.0000 </r>
       <r>  -41.0750    1.0000 </r>
       <r>    5.2469    1.0000 </r>
       <r>    5.7188    1.0000 </r>
       <r>    6.6014    1.0000 </r>
       <r>    6.7616    1.0000 </r>
       <r>    7.4667    1.0000 </r>
       <r>    7.4681    1.0000 </r>
       <r>    8.6411    1.0000 </r>
       <r>    9.6217    1.0000 </r>
       <r>   10.5682    1.0000 </r>
       <r>   11.3846    0.0106 </r>
       <r>   11.9016    0.0000 </r>
       <r>   13.1184    0.0000 </r>
       <r>   21.4127    0.0000 </r>
       <r>   23.0557    0.0000 </r>
       <r>   24.0205    0.0000 </r>
       <r>   25.1447    0.0000 </r>
       <r>   26.0041    0.0000 </r>
       <r>   27.5708    0.0000 </r>
      </set>
      <set comment="kpoint 54">
       <r>  -41.4786    1.0000 </r>
       <r>  -41.4680    1.0000 </r>
       <r>  -41.3100    1.0000 </r>
       <r>  -41.2894    1.0000 </r>
       <r>  -41.1178    1.0000 </r>
       <r>  -41.0768    1.0000 </r>
       <r>    5.4193    1.0000 </r>
       <r>    5.8039    1.0000 </r>
       <r>    6.3509    1.0000 </r>
       <r>    6.9436    1.0000 </r>
       <r>    7.5975    1.0000 </r>
       <r>    8.1696    1.0000 </r>
       <r>    8.7926    1.0000 </r>
       <r>    9.4982    1.0000 </r>
       <r>   10.7879    1.0000 </r>
       <r>   11.6535    0.0000 </r>
       <r>   13.7546    0.0000 </r>
       <r>   15.0809    0.0000 </r>
       <r>   18.9953    0.0000 </r>
       <r>   20.6570    0.0000 </r>
       <r>   22.5417    0.0000 </r>
       <r>   24.1042    0.0000 </r>
       <r>   25.7542    0.0000 </r>
       <r>   27.5756    0.0000 </r>
      </set>
      <set comment="kpoint 55">
       <r>  -41.4975    1.0000 </r>
       <r>  -41.4813    1.0000 </r>
       <r>  -41.3321    1.0000 </r>
       <r>  -41.3078    1.0000 </r>
       <r>  -41.1058    1.0000 </r>
       <r>  -41.0805    1.0000 </r>
       <r>    5.3635    1.0000 </r>
       <r>    5.8615    1.0000 </r>
       <r>    6.3375    1.0000 </r>
       <r>    6.8695    1.0000 </r>
       <r>    7.4347    1.0000 </r>
       <r>    8.5559    1.0000 </r>
       <r>    9.3024    1.0000 </r>
       <r>    9.6437    1.0000 </r>
       <r>   10.9573    1.0000 </r>
       <r>   11.3832    0.0118 </r>
       <r>   15.6679    0.0000 </r>
       <r>   15.8145    0.0000 </r>
       <r>   18.0597    0.0000 </r>
       <r>   18.5003    0.0000 </r>
       <r>   21.6113    0.0000 </r>
       <r>   23.8068    0.0000 </r>
       <r>   26.6662    0.0000 </r>
       <r>   26.8992    0.0000 </r>
      </set>
      <set comment="kpoint 56">
       <r>  -41.4567    1.0000 </r>
       <r>  -41.4490    1.0000 </r>
       <r>  -41.3833    1.0000 </r>
       <r>  -41.3621    1.0000 </r>
       <r>  -41.0985    1.0000 </r>
       <r>  -41.0828    1.0000 </r>
       <r>    5.9866    1.0000 </r>
       <r>    6.0663    1.0000 </r>
       <r>    6.7766    1.0000 </r>
       <r>    6.8310    1.0000 </r>
       <r>    7.4410    1.0000 </r>
       <r>    7.7969    1.0000 </r>
       <r>    8.7189    1.0000 </r>
[...]
       </set>
       <set comment="band 12">
        <r>  0.0187  0.0130  0.0000  0.0049  0.1086  0.0000  0.4208  0.0000  0.0851 </r>
        <r>  0.0000  0.0000  0.0000  0.0000  0.0000  0.0467  0.0000  0.0422  0.0000 </r>
       </set>
       <set comment="band 13">
        <r>  0.0000  0.0000  0.0002  0.0000  0.0000  0.2089  0.0000  0.5126  0.0000 </r>
        <r>  0.0040  0.0011  0.0000  0.0004  0.0664  0.0000  0.0012  0.0000  0.0487 </r>
       </set>
       <set comment="band 14">
        <r>  0.0040  0.0011  0.0000  0.0004  0.0664  0.0000  0.0012  0.0000  0.0487 </r>
        <r>  0.0000  0.0000  0.0002  0.0000  0.0000  0.2089  0.0000  0.5126  0.0000 </r>
       </set>
       <set comment="band 15">
        <r>  0.0000  0.0000  0.0023  0.0000  0.0000  0.1950  0.0000  0.1435  0.0000 </r>
        <r>  0.0057  0.0001  0.0000  0.0000  0.1706  0.0000  0.3519  0.0000  0.0610 </r>
       </set>
       <set comment="band 16">
        <r>  0.0057  0.0001  0.0000  0.0000  0.1706  0.0000  0.3519  0.0000  0.0610 </r>
        <r>  0.0000  0.0000  0.0023  0.0000  0.0000  0.1950  0.0000  0.1435  0.0000 </r>
       </set>
       <set comment="band 17">
        <r>  0.0000  0.0000  0.0116  0.0000  0.0000  0.1279  0.0000  0.0461  0.0000 </r>
        <r>  0.0882  0.0229  0.0000  0.0078  0.3134  0.0000  0.0069  0.0000  0.1122 </r>
       </set>
       <set comment="band 18">
        <r>  0.0882  0.0229  0.0000  0.0078  0.3134  0.0000  0.0069  0.0000  0.1122 </r>
        <r>  0.0000  0.0000  0.0116  0.0000  0.0000  0.1279  0.0000  0.0461  0.0000 </r>
       </set>
       <set comment="band 19">
        <r>  0.0000  0.0000  0.0346  0.0000  0.0000  0.0206  0.0000  0.0469  0.0000 </r>
        <r>  0.2659  0.0532  0.0000  0.0188  0.0101  0.0000  0.0090  0.0000  0.0043 </r>
       </set>
       <set comment="band 20">
        <r>  0.2659  0.0532  0.0000  0.0188  0.0101  0.0000  0.0090  0.0000  0.0043 </r>
        <r>  0.0000  0.0000  0.0346  0.0000  0.0000  0.0206  0.0000  0.0469  0.0000 </r>
       </set>
       <set comment="band 21">
        <r>  0.0000  0.0000  0.0818  0.0000  0.0000  0.0087  0.0000  0.0176  0.0000 </r>
        <r>  0.0007  0.0450  0.0000  0.0673  0.0333  0.0000  0.0478  0.0000  0.0996 </r>
       </set>
       <set comment="band 22">
        <r>  0.0007  0.0450  0.0000  0.0673  0.0333  0.0000  0.0478  0.0000  0.0996 </r>
        <r>  0.0000  0.0000  0.0818  0.0000  0.0000  0.0087  0.0000  0.0176  0.0000 </r>
       </set>
       <set comment="band 23">
        <r>  0.0000  0.0000  0.0363  0.0000  0.0000  0.0712  0.0000  0.0282  0.0000 </r>
        <r>  0.0002  0.0458  0.0000  0.0361  0.0171  0.0000  0.0557  0.0000  0.0509 </r>
       </set>
       <set comment="band 24">
        <r>  0.0002  0.0458  0.0000  0.0361  0.0171  0.0000  0.0557  0.0000  0.0509 </r>
        <r>  0.0000  0.0000  0.0363  0.0000  0.0000  0.0712  0.0000  0.0282  0.0000 </r>
       </set>
      </set>
      <set comment="kpoint 68">
       <set comment="band 1">
        <r>  0.0000  0.0000  0.0442  0.0000  0.0000  0.0000  0.0000  0.0000  0.0000 </r>
        <r>  0.0000  0.4868  0.0000  0.4539  0.0000  0.0000  0.0000  0.0000  0.0000 </r>
       </set>
       <set comment="band 2">
        <r>  0.0000  0.4868  0.0000  0.4539  0.0000  0.0000  0.0000  0.0000  0.0000 </r>
        <r>  0.0000  0.0000  0.0442  0.0000  0.0000  0.0000  0.0000  0.0000  0.0000 </r>
       </set>
       <set comment="band 3">
        <r>  0.0000  0.0000  0.0297  0.0000  0.0000  0.0000  0.0000  0.0000  0.0000 </r>
        <r>  0.0000  0.4638  0.0000  0.4973  0.0000  0.0000  0.0000  0.0000  0.0000 </r>
       </set>
       <set comment="band 4">
        <r>  0.0000  0.4638  0.0000  0.4973  0.0000  0.0000  0.0000  0.0000  0.0000 </r>
        <r>  0.0000  0.0000  0.0297  0.0000  0.0000  0.0000  0.0000  0.0000  0.0000 </r>
       </set>
       <set comment="band 5">
        <r>  0.0000  0.0000  0.9172  0.0000  0.0000  0.0000  0.0000  0.0000  0.0000 </r>
        <r>  0.0000  0.0379  0.0000  0.0374  0.0000  0.0000  0.0000  0.0000  0.0000 </r>
       </set>
       <set comment="band 6">
        <r>  0.0000  0.0379  0.0000  0.0374  0.0000  0.0000  0.0000  0.0000  0.0000 </r>
        <r>  0.0000  0.0000  0.9172  0.0000  0.0000  0.0000  0.0000  0.0000  0.0000 </r>
       </set>
       <set comment="band 7">
        <r>  0.0000  0.0000  0.0025  0.0000  0.0000  0.1951  0.0000  0.1795  0.0000 </r>
        <r>  0.0654  0.0058  0.0000  0.0019  0.0944  0.0000  0.0574  0.0000  0.0379 </r>
       </set>
       <set comment="band 8">
        <r>  0.0654  0.0058  0.0000  0.0019  0.0944  0.0000  0.0574  0.0000  0.0379 </r>
        <r>  0.0000  0.0000  0.0025  0.0000  0.0000  0.1951  0.0000  0.1795  0.0000 </r>
       </set>
       <set comment="band 9">
        <r>  0.0000  0.0000  0.0028  0.0000  0.0000  0.0703  0.0000  0.0315  0.0000 </r>
        <r>  0.0080  0.0072  0.0000  0.0048  0.2687  0.0000  0.1274  0.0000  0.2132 </r>
       </set>
       <set comment="band 10">
        <r>  0.0080  0.0072  0.0000  0.0048  0.2687  0.0000  0.1274  0.0000  0.2132 </r>
        <r>  0.0000  0.0000  0.0028  0.0000  0.0000  0.0703  0.0000  0.0315  0.0000 </r>
       </set>
       <set comment="band 11">
        <r>  0.0000  0.0000  0.0042  0.0000  0.0000  0.0969  0.0000  0.1572  0.0000 </r>
        <r>  0.0162  0.0111  0.0000  0.0201  0.0585  0.0000  0.1436  0.0000  0.1708 </r>
       </set>
       <set comment="band 12">
        <r>  0.0162  0.0111  0.0000  0.0201  0.0585  0.0000  0.1436  0.0000  0.1708 </r>
        <r>  0.0000  0.0000  0.0042  0.0000  0.0000  0.0969  0.0000  0.1572  0.0000 </r>
       </set>
       <set comment="band 13">
        <r>  0.0000  0.0000  0.0004  0.0000  0.0000  0.2156  0.0000  0.2653  0.0000 </r>
        <r>  0.0141  0.0017  0.0000  0.0043  0.0749  0.0000  0.0372  0.0000  0.2137 </r>
       </set>
       <set comment="band 14">
        <r>  0.0141  0.0017  0.0000  0.0043  0.0749  0.0000  0.0372  0.0000  0.2137 </r>
        <r>  0.0000  0.0000  0.0004  0.0000  0.0000  0.2156  0.0000  0.2653  0.0000 </r>
       </set>
       <set comment="band 15">
        <r>  0.0000  0.0000  0.0021  0.0000  0.0000  0.1773  0.0000  0.1290  0.0000 </r>
        <r>  0.0037  0.0016  0.0000  0.0005  0.0909  0.0000  0.4825  0.0000  0.0379 </r>
       </set>
       <set comment="band 16">
        <r>  0.0037  0.0016  0.0000  0.0005  0.0909  0.0000  0.4825  0.0000  0.0379 </r>
        <r>  0.0000  0.0000  0.0021  0.0000  0.0000  0.1773  0.0000  0.1290  0.0000 </r>
       </set>
       <set comment="band 17">
        <r>  0.0000  0.0000  0.0188  0.0000  0.0000  0.0629  0.0000  0.0215  0.0000 </r>
        <r>  0.1009  0.0322  0.0000  0.0227  0.2701  0.0000  0.0061  0.0000  0.1253 </r>
       </set>
       <set comment="band 18">
        <r>  0.1009  0.0322  0.0000  0.0227  0.2701  0.0000  0.0061  0.0000  0.1253 </r>
        <r>  0.0000  0.0000  0.0188  0.0000  0.0000  0.0629  0.0000  0.0215  0.0000 </r>
       </set>
       <set comment="band 19">
        <r>  0.0000  0.0000  0.0143  0.0000  0.0000  0.0139  0.0000  0.0854  0.0000 </r>
        <r>  0.3021  0.0251  0.0000  0.0413  0.0172  0.0000  0.0247  0.0000  0.0305 </r>
       </set>
       <set comment="band 20">
        <r>  0.3021  0.0251  0.0000  0.0413  0.0172  0.0000  0.0247  0.0000  0.0305 </r>
        <r>  0.0000  0.0000  0.0143  0.0000  0.0000  0.0139  0.0000  0.0854  0.0000 </r>
       </set>
       <set comment="band 21">
        <r>  0.0000  0.0000  0.0444  0.0000  0.0000  0.0442  0.0000  0.0150  0.0000 </r>
        <r>  0.0240  0.0769  0.0000  0.0535  0.0511  0.0000  0.0067  0.0000  0.1069 </r>
       </set>
       <set comment="band 22">
        <r>  0.0240  0.0769  0.0000  0.0535  0.0511  0.0000  0.0067  0.0000  0.1069 </r>
        <r>  0.0000  0.0000  0.0444  0.0000  0.0000  0.0442  0.0000  0.0150  0.0000 </r>
       </set>
       <set comment="band 23">
        <r>  0.0000  0.0000  0.0874  0.0000  0.0000  0.0434  0.0000  0.0253  0.0000 </r>
        <r>  0.0059  0.0339  0.0000  0.0267  0.0115  0.0000  0.0235  0.0000  0.0171 </r>
       </set>
       <set comment="band 24">
        <r>  0.0059  0.0339  0.0000  0.0267  0.0115  0.0000  0.0235  0.0000  0.0171 </r>
        <r>  0.0000  0.0000  0.0874  0.0000  0.0000  0.0434  0.0000  0.0253  0.0000 </r>
       </set>
      </set>
      <set comment="kpoint 69">
       <set comment="band 1">
        <r>  0.0000  0.0000  0.0411  0.0000  0.0000  0.0000  0.0000  0.0000  0.0000 </r>
        <r>  0.0000  0.2371  0.0000  0.7062  0.0000  0.0000  0.0000  0.0000  0.0000 </r>
       </set>
       <set comment="band 2">
        <r>  0.0000  0.2371  0.0000  0.7062  0.0000  0.0000  0.0000  0.0000  0.0000 </r>
        <r>  0.0000  0.0000  0.0411  0.0000  0.0000  0.0000  0.0000  0.0000  0.0000 </r>
       </set>
       <set comment="band 3">
        <r>  0.0000  0.0000  0.0287  0.0000  0.0000  0.0000  0.0000  0.0000  0.0000 </r>
        <r>  0.0000  0.7173  0.0000  0.2441  0.0001  0.0000  0.0000  0.0000  0.0000 </r>
       </set>
       <set comment="band 4">
        <r>  0.0000  0.7173  0.0000  0.2441  0.0001  0.0000  0.0000  0.0000  0.0000 </r>
        <r>  0.0000  0.0000  0.0287  0.0000  0.0000  0.0000  0.0000  0.0000  0.0000 </r>
       </set>
       <set comment="band 5">
        <r>  0.0000  0.0000  0.9215  0.0000  0.0000  0.0000  0.0000  0.0000  0.0000 </r>
        <r>  0.0000  0.0349  0.0000  0.0363  0.0000  0.0000  0.0000  0.0000  0.0000 </r>
       </set>
       <set comment="band 6">
        <r>  0.0000  0.0349  0.0000  0.0363  0.0000  0.0000  0.0000  0.0000  0.0000 </r>
        <r>  0.0000  0.0000  0.9215  0.0000  0.0000  0.0000  0.0000  0.0000  0.0000 </r>
       </set>
       <set comment="band 7">
        <r>  0.0000  0.0000  0.0009  0.0000  0.0000  0.0923  0.0000  0.2676  0.0000 </r>
        <r>  0.0570  0.0050  0.0000  0.0026  0.1340  0.0000  0.0495  0.0000  0.0460 </r>
       </set>
       <set comment="band 8">
        <r>  0.0570  0.0050  0.0000  0.0026  0.1340  0.0000  0.0495  0.0000  0.0460 </r>
        <r>  0.0000  0.0000  0.0009  0.0000  0.0000  0.0923  0.0000  0.2676  0.0000 </r>
       </set>
       <set comment="band 9">
        <r>  0.0000  0.0000  0.0008  0.0000  0.0000  0.0702  0.0000  0.0803  0.0000 </r>
        <r>  0.0001  0.0078  0.0000  0.0029  0.2995  0.0000  0.1833  0.0000  0.1011 </r>
       </set>
       <set comment="band 10">
        <r>  0.0001  0.0078  0.0000  0.0029  0.2995  0.0000  0.1833  0.0000  0.1011 </r>
        <r>  0.0000  0.0000  0.0008  0.0000  0.0000  0.0702  0.0000  0.0803  0.0000 </r>
       </set>
       <set comment="band 11">
        <r>  0.0000  0.0000  0.0048  0.0000  0.0000  0.3342  0.0000  0.1538  0.0000 </r>
        <r>  0.0105  0.0058  0.0000  0.0173  0.0588  0.0000  0.0187  0.0000  0.0929 </r>
       </set>
       <set comment="band 12">
        <r>  0.0105  0.0058  0.0000  0.0173  0.0588  0.0000  0.0187  0.0000  0.0929 </r>
        <r>  0.0000  0.0000  0.0048  0.0000  0.0000  0.3342  0.0000  0.1538  0.0000 </r>
       </set>
       <set comment="band 13">
        <r>  0.0000  0.0000  0.0023  0.0000  0.0000  0.1517  0.0000  0.0757  0.0000 </r>
        <r>  0.0003  0.0060  0.0000  0.0175  0.1410  0.0000  0.0072  0.0000  0.3908 </r>
       </set>
       <set comment="band 14">
        <r>  0.0003  0.0060  0.0000  0.0175  0.1410  0.0000  0.0072  0.0000  0.3908 </r>
        <r>  0.0000  0.0000  0.0023  0.0000  0.0000  0.1517  0.0000  0.0757  0.0000 </r>
       </set>
       <set comment="band 15">
        <r>  0.0000  0.0000  0.0007  0.0000  0.0000  0.1203  0.0000  0.1556  0.0000 </r>
        <r>  0.0000  0.0006  0.0000  0.0002  0.0320  0.0000  0.5967  0.0000  0.0254 </r>
       </set>
       <set comment="band 16">
        <r>  0.0000  0.0006  0.0000  0.0002  0.0320  0.0000  0.5967  0.0000  0.0254 </r>
        <r>  0.0000  0.0000  0.0007  0.0000  0.0000  0.1203  0.0000  0.1556  0.0000 </r>
       </set>
       <set comment="band 17">
        <r>  0.0000  0.0000  0.0351  0.0000  0.0000  0.0234  0.0000  0.0117  0.0000 </r>
        <r>  0.0320  0.0252  0.0000  0.0720  0.0943  0.0000  0.0148  0.0000  0.2090 </r>
       </set>
       <set comment="band 18">
        <r>  0.0320  0.0252  0.0000  0.0720  0.0943  0.0000  0.0148  0.0000  0.2090 </r>
        <r>  0.0000  0.0000  0.0351  0.0000  0.0000  0.0234  0.0000  0.0117  0.0000 </r>
       </set>
       <set comment="band 19">
        <r>  0.0000  0.0000  0.0001  0.0000  0.0000  0.0458  0.0000  0.1030  0.0000 </r>
        <r>  0.3978  0.0055  0.0000  0.0150  0.0697  0.0000  0.0201  0.0000  0.0407 </r>
       </set>
       <set comment="band 20">
        <r>  0.3978  0.0055  0.0000  0.0150  0.0697  0.0000  0.0201  0.0000  0.0407 </r>
        <r>  0.0000  0.0000  0.0001  0.0000  0.0000  0.0458  0.0000  0.1030  0.0000 </r>
       </set>
       <set comment="band 21">
        <r>  0.0000  0.0000  0.0319  0.0000  0.0000  0.0515  0.0000  0.0209  0.0000 </r>
        <r>  0.0379  0.1007  0.0000  0.0386  0.0978  0.0000  0.0014  0.0000  0.0355 </r>
       </set>
       <set comment="band 22">
        <r>  0.0379  0.1007  0.0000  0.0386  0.0978  0.0000  0.0014  0.0000  0.0355 </r>
        <r>  0.0000  0.0000  0.0319  0.0000  0.0000  0.0515  0.0000  0.0209  0.0000 </r>
       </set>
       <set comment="band 23">
        <r>  0.0000  0.0000  0.0973  0.0000  0.0000  0.0241  0.0000  0.0276  0.0000 </r>
        <r>  0.0064  0.0178  0.0000  0.0418  0.0163  0.0000  0.0065  0.0000  0.0159 </r>
       </set>
       <set comment="band 24">
        <r>  0.0064  0.0178  0.0000  0.0418  0.0163  0.0000  0.0065  0.0000  0.0159 </r>
        <r>  0.0000  0.0000  0.0973  0.0000  0.0000  0.0241  0.0000  0.0276  0.0000 </r>
       </set>
      </set>
      <set comment="kpoint 70">
       <set comment="band 1">
        <r>  0.0000  0.0000  0.0476  0.0000  0.0000  0.0000  0.0000  0.0000  0.0000 </r>
        <r>  0.0000  0.6936  0.0000  0.2444  0.0000  0.0000  0.0000  0.0000  0.0000 </r>
       </set>
       <set comment="band 2">
        <r>  0.0000  0.6936  0.0000  0.2444  0.0000  0.0000  0.0000  0.0000  0.0000 </r>
        <r>  0.0000  0.0000  0.0476  0.0000  0.0000  0.0000  0.0000  0.0000  0.0000 </r>
       </set>
       <set comment="band 3">
        <r>  0.0000  0.0000  0.0241  0.0000  0.0000  0.0000  0.0000  0.0000  0.0000 </r>
        <r>  0.0000  0.2569  0.0000  0.7075  0.0000  0.0000  0.0000  0.0000  0.0001 </r>
       </set>
       <set comment="band 4">
        <r>  0.0000  0.2569  0.0000  0.7075  0.0000  0.0000  0.0000  0.0000  0.0001 </r>
        <r>  0.0000  0.0000  0.0241  0.0000  0.0000  0.0000  0.0000  0.0000  0.0000 </r>
       </set>
       <set comment="band 5">
        <r>  0.0000  0.0000  0.9196  0.0000  0.0000  0.0000  0.0000  0.0000  0.0000 </r>
        <r>  0.0000  0.0367  0.0000  0.0364  0.0000  0.0000  0.0000  0.0000  0.0000 </r>
       </set>
       <set comment="band 6">
        <r>  0.0000  0.0367  0.0000  0.0364  0.0000  0.0000  0.0000  0.0000  0.0000 </r>
        <r>  0.0000  0.0000  0.9196  0.0000  0.0000  0.0000  0.0000  0.0000  0.0000 </r>
       </set>
       <set comment="band 7">
        <r>  0.0000  0.0000  0.0003  0.0000  0.0000  0.3169  0.0000  0.1372  0.0000 </r>
        <r>  0.0462  0.0022  0.0000  0.0022  0.0159  0.0000  0.1470  0.0000  0.0213 </r>
       </set>
       <set comment="band 8">
        <r>  0.0462  0.0022  0.0000  0.0022  0.0159  0.0000  0.1470  0.0000  0.0213 </r>
        <r>  0.0000  0.0000  0.0003  0.0000  0.0000  0.3169  0.0000  0.1372  0.0000 </r>
       </set>
       <set comment="band 9">
        <r>  0.0000  0.0000  0.0008  0.0000  0.0000  0.0734  0.0000  0.1958  0.0000 </r>
        <r>  0.0047  0.0072  0.0000  0.0152  0.0912  0.0000  0.0479  0.0000  0.2471 </r>
       </set>
       <set comment="band 10">
        <r>  0.0047  0.0072  0.0000  0.0152  0.0912  0.0000  0.0479  0.0000  0.2471 </r>
        <r>  0.0000  0.0000  0.0008  0.0000  0.0000  0.0734  0.0000  0.1958  0.0000 </r>
       </set>
       <set comment="band 11">
        <r>  0.0000  0.0000  0.0061  0.0000  0.0000  0.0404  0.0000  0.0756  0.0000 </r>
        <r>  0.0021  0.0214  0.0000  0.0111  0.2621  0.0000  0.0296  0.0000  0.2345 </r>
       </set>
       <set comment="band 12">
        <r>  0.0021  0.0214  0.0000  0.0111  0.2621  0.0000  0.0296  0.0000  0.2345 </r>
        <r>  0.0000  0.0000  0.0061  0.0000  0.0000  0.0404  0.0000  0.0756  0.0000 </r>
       </set>
       <set comment="band 13">
        <r>  0.0000  0.0000  0.0002  0.0000  0.0000  0.1559  0.0000  0.2186  0.0000 </r>
        <r>  0.0053  0.0052  0.0000  0.0020  0.2628  0.0000  0.0133  0.0000  0.1655 </r>
       </set>
       <set comment="band 14">
        <r>  0.0053  0.0052  0.0000  0.0020  0.2628  0.0000  0.0133  0.0000  0.1655 </r>
        <r>  0.0000  0.0000  0.0002  0.0000  0.0000  0.1559  0.0000  0.2186  0.0000 </r>
       </set>
       <set comment="band 15">
        <r>  0.0000  0.0000  0.0004  0.0000  0.0000  0.1467  0.0000  0.1216  0.0000 </r>
        <r>  0.0007  0.0006  0.0000  0.0002  0.0220  0.0000  0.6307  0.0000  0.0085 </r>
       </set>
       <set comment="band 16">
        <r>  0.0007  0.0006  0.0000  0.0002  0.0220  0.0000  0.6307  0.0000  0.0085 </r>
        <r>  0.0000  0.0000  0.0004  0.0000  0.0000  0.1467  0.0000  0.1216  0.0000 </r>
       </set>
       <set comment="band 17">
        <r>  0.0000  0.0000  0.0312  0.0000  0.0000  0.0519  0.0000  0.0194  0.0000 </r>
        <r>  0.1519  0.0449  0.0000  0.0179  0.1895  0.0000  0.0078  0.0000  0.0767 </r>
       </set>
       <set comment="band 18">
        <r>  0.1519  0.0449  0.0000  0.0179  0.1895  0.0000  0.0078  0.0000  0.0767 </r>
        <r>  0.0000  0.0000  0.0312  0.0000  0.0000  0.0519  0.0000  0.0194  0.0000 </r>
       </set>
       <set comment="band 19">
        <r>  0.0000  0.0000  0.0178  0.0000  0.0000  0.0467  0.0000  0.0683  0.0000 </r>
        <r>  0.3304  0.0343  0.0000  0.0152  0.0248  0.0000  0.0143  0.0000  0.0182 </r>
       </set>
       <set comment="band 20">
        <r>  0.3304  0.0343  0.0000  0.0152  0.0248  0.0000  0.0143  0.0000  0.0182 </r>
        <r>  0.0000  0.0000  0.0178  0.0000  0.0000  0.0467  0.0000  0.0683  0.0000 </r>
       </set>
       <set comment="band 21">
        <r>  0.0000  0.0000  0.0179  0.0000  0.0000  0.0426  0.0000  0.0475  0.0000 </r>
        <r>  0.0007  0.0470  0.0000  0.0916  0.0711  0.0000  0.0014  0.0000  0.1642 </r>
       </set>
       <set comment="band 22">
        <r>  0.0007  0.0470  0.0000  0.0916  0.0711  0.0000  0.0014  0.0000  0.1642 </r>
        <r>  0.0000  0.0000  0.0179  0.0000  0.0000  0.0426  0.0000  0.0475  0.0000 </r>
       </set>
       <set comment="band 23">
        <r>  0.0000  0.0000  0.1236  0.0000  0.0000  0.0231  0.0000  0.0173  0.0000 </r>
        <r>  0.0021  0.0485  0.0000  0.0239  0.0229  0.0000  0.0038  0.0000  0.0186 </r>
       </set>
       <set comment="band 24">
        <r>  0.0021  0.0485  0.0000  0.0239  0.0229  0.0000  0.0038  0.0000  0.0186 </r>
        <r>  0.0000  0.0000  0.1236  0.0000  0.0000  0.0231  0.0000  0.0173  0.0000 </r>
       </set>
      </set>
     </set>
    </set>
   </array>
  </projected>
 </calculation>
 <structure name="finalpos" >
  <crystal>
   <varray name="basis" >
    <v>       2.75297212       0.00000000       0.00000000 </v>
    <v>      -1.37648606       2.38414379       0.00000000 </v>
    <v>       0.00000000       0.00000000       4.76946004 </v>
   </varray>
   <i name="volume">     31.30426228 </i>
   <varray name="rec_basis" >
    <v>       0.36324378       0.20971889       0.00000000 </v>
    <v>       0.00000000       0.41943779       0.00000000 </v>
    <v>       0.00000000       0.00000000       0.20966734 </v>
   </varray>
  </crystal>
  <varray name="positions" >
   <v>       0.00000000       0.00000000       0.00000000 </v>
   <v>       0.33333333       0.66666667       0.50000000 </v>
  </varray>
 </structure>
</modeling>
