Pt-hcc                                  
           1
     2.752972    0.000000    0.000000
    -1.376486    2.384144    0.000000
     0.000000    0.000000    4.769460
   Pt
     2
Direct configuration=     1
   0.00000000  0.00000000  0.00000000
   0.33333333  0.66666667  0.50000000
