   1   1   1   0
  0.1549772E+02  0.2798515E-09  0.2798515E-09  0.2798515E-09  0.5000000E-15
  1.000000000000000E-004
  CAR 
 Pt-fcc                                  
     68.73713244    -46.58059330  301     11.55126340      1.00000000
    -46.581  0.0000E+00  0.0000E+00
    -46.196  0.0000E+00  0.0000E+00
    -45.812  0.0000E+00  0.0000E+00
    -45.427  0.0000E+00  0.0000E+00
    -45.043  0.0000E+00  0.0000E+00
    -44.659  0.0000E+00  0.0000E+00
    -44.274  0.0000E+00  0.0000E+00
    -43.890  0.0000E+00  0.0000E+00
    -43.505  0.0000E+00  0.0000E+00
    -43.121  0.0000E+00  0.0000E+00
    -42.737  0.0000E+00  0.0000E+00
    -42.352  0.0000E+00  0.0000E+00
    -41.968  0.0000E+00  0.0000E+00
    -41.583  0.1005E-14  0.3862E-15
    -41.199  0.4031E-01  0.1550E-01
    -40.815  0.1127E+00  0.6000E-01
    -40.430  0.0000E+00  0.6000E-01
    -40.046  0.0000E+00  0.6000E-01
    -39.662  0.0000E+00  0.6000E-01
    -39.277  0.0000E+00  0.6000E-01
    -38.893  0.0000E+00  0.6000E-01
    -38.508  0.0000E+00  0.6000E-01
    -38.124  0.0000E+00  0.6000E-01
    -37.740  0.0000E+00  0.6000E-01
    -37.355  0.0000E+00  0.6000E-01
    -36.971  0.0000E+00  0.6000E-01
    -36.586  0.0000E+00  0.6000E-01
    -36.202  0.0000E+00  0.6000E-01
    -35.818  0.0000E+00  0.6000E-01
    -35.433  0.0000E+00  0.6000E-01
    -35.049  0.0000E+00  0.6000E-01
    -34.664  0.0000E+00  0.6000E-01
    -34.280  0.0000E+00  0.6000E-01
    -33.896  0.0000E+00  0.6000E-01
    -33.511  0.0000E+00  0.6000E-01
    -33.127  0.0000E+00  0.6000E-01
    -32.742  0.0000E+00  0.6000E-01
    -32.358  0.0000E+00  0.6000E-01
    -31.974  0.0000E+00  0.6000E-01
    -31.589  0.0000E+00  0.6000E-01
    -31.205  0.0000E+00  0.6000E-01
    -30.821  0.0000E+00  0.6000E-01
    -30.436  0.0000E+00  0.6000E-01
    -30.052  0.0000E+00  0.6000E-01
    -29.667  0.0000E+00  0.6000E-01
    -29.283  0.0000E+00  0.6000E-01
    -28.899  0.0000E+00  0.6000E-01
    -28.514  0.0000E+00  0.6000E-01
    -28.130  0.0000E+00  0.6000E-01
    -27.745  0.0000E+00  0.6000E-01
    -27.361  0.0000E+00  0.6000E-01
    -26.977  0.0000E+00  0.6000E-01
    -26.592  0.0000E+00  0.6000E-01
    -26.208  0.0000E+00  0.6000E-01
    -25.823  0.0000E+00  0.6000E-01
    -25.439  0.0000E+00  0.6000E-01
    -25.055  0.0000E+00  0.6000E-01
    -24.670  0.0000E+00  0.6000E-01
    -24.286  0.0000E+00  0.6000E-01
    -23.901  0.0000E+00  0.6000E-01
    -23.517  0.0000E+00  0.6000E-01
    -23.133  0.0000E+00  0.6000E-01
    -22.748  0.0000E+00  0.6000E-01
    -22.364  0.0000E+00  0.6000E-01
    -21.979  0.0000E+00  0.6000E-01
    -21.595  0.0000E+00  0.6000E-01
    -21.211  0.0000E+00  0.6000E-01
    -20.826  0.0000E+00  0.6000E-01
    -20.442  0.0000E+00  0.6000E-01
    -20.058  0.0000E+00  0.6000E-01
    -19.673  0.0000E+00  0.6000E-01
    -19.289  0.0000E+00  0.6000E-01
    -18.904  0.0000E+00  0.6000E-01
    -18.520  0.0000E+00  0.6000E-01
    -18.136  0.0000E+00  0.6000E-01
    -17.751  0.0000E+00  0.6000E-01
    -17.367  0.0000E+00  0.6000E-01
    -16.982  0.0000E+00  0.6000E-01
    -16.598  0.0000E+00  0.6000E-01
    -16.214  0.0000E+00  0.6000E-01
    -15.829  0.0000E+00  0.6000E-01
    -15.445  0.0000E+00  0.6000E-01
    -15.060  0.0000E+00  0.6000E-01
    -14.676  0.0000E+00  0.6000E-01
    -14.292  0.0000E+00  0.6000E-01
    -13.907  0.0000E+00  0.6000E-01
    -13.523  0.0000E+00  0.6000E-01
    -13.138  0.0000E+00  0.6000E-01
    -12.754  0.0000E+00  0.6000E-01
    -12.370  0.0000E+00  0.6000E-01
    -11.985  0.0000E+00  0.6000E-01
    -11.601  0.0000E+00  0.6000E-01
    -11.216  0.0000E+00  0.6000E-01
    -10.832  0.0000E+00  0.6000E-01
    -10.448  0.0000E+00  0.6000E-01
    -10.063  0.0000E+00  0.6000E-01
     -9.679  0.0000E+00  0.6000E-01
     -9.295  0.0000E+00  0.6000E-01
     -8.910  0.0000E+00  0.6000E-01
     -8.526  0.0000E+00  0.6000E-01
     -8.141  0.0000E+00  0.6000E-01
     -7.757  0.0000E+00  0.6000E-01
     -7.373  0.0000E+00  0.6000E-01
     -6.988  0.0000E+00  0.6000E-01
     -6.604  0.0000E+00  0.6000E-01
     -6.219  0.0000E+00  0.6000E-01
     -5.835  0.0000E+00  0.6000E-01
     -5.451  0.0000E+00  0.6000E-01
     -5.066  0.0000E+00  0.6000E-01
     -4.682  0.0000E+00  0.6000E-01
     -4.297  0.0000E+00  0.6000E-01
     -3.913  0.0000E+00  0.6000E-01
     -3.529  0.0000E+00  0.6000E-01
     -3.144  0.0000E+00  0.6000E-01
     -2.760  0.0000E+00  0.6000E-01
     -2.375  0.0000E+00  0.6000E-01
     -1.991  0.0000E+00  0.6000E-01
     -1.607  0.0000E+00  0.6000E-01
     -1.222  0.0000E+00  0.6000E-01
     -0.838  0.0000E+00  0.6000E-01
     -0.454  0.0000E+00  0.6000E-01
     -0.069  0.0000E+00  0.6000E-01
      0.315  0.0000E+00  0.6000E-01
      0.700  0.0000E+00  0.6000E-01
      1.084  0.0000E+00  0.6000E-01
      1.468  0.7468E-13  0.6000E-01
      1.853  0.1059E-03  0.6004E-01
      2.237  0.5904E-03  0.6027E-01
      2.622  0.4535E-03  0.6045E-01
      3.006  0.8993E-03  0.6080E-01
      3.390  0.1461E-02  0.6136E-01
      3.775  0.9081E-03  0.6175E-01
      4.159  0.1665E-02  0.6245E-01
      4.544  0.3586E-02  0.6390E-01
      4.928  0.5337E-02  0.6600E-01
      5.312  0.1077E-01  0.7016E-01
      5.697  0.1378E-01  0.7549E-01
      6.081  0.1397E-01  0.8086E-01
      6.466  0.1066E-01  0.8511E-01
      6.850  0.1232E-01  0.8987E-01
      7.234  0.1325E-01  0.9514E-01
      7.619  0.1656E-01  0.1015E+00
      8.003  0.1462E-01  0.1074E+00
      8.388  0.2466E-01  0.1169E+00
      8.772  0.1437E-01  0.1226E+00
      9.156  0.1136E-01  0.1270E+00
      9.541  0.1249E-01  0.1319E+00
      9.925  0.1455E-01  0.1376E+00
     10.309  0.1442E-01  0.1432E+00
     10.694  0.1055E-01  0.1473E+00
     11.078  0.1059E-01  0.1514E+00
     11.463  0.1801E-01  0.1584E+00
     11.847  0.1622E-01  0.1648E+00
     12.231  0.3945E-02  0.1664E+00
     12.616  0.4092E-02  0.1680E+00
     13.000  0.1775E-02  0.1688E+00
     13.385  0.2460E-02  0.1698E+00
     13.769  0.3236E-02  0.1711E+00
     14.153  0.2773E-02  0.1721E+00
     14.538  0.2726E-02  0.1732E+00
     14.922  0.2907E-02  0.1743E+00
     15.307  0.2102E-02  0.1752E+00
     15.691  0.2166E-02  0.1760E+00
     16.075  0.2223E-02  0.1769E+00
     16.460  0.2493E-02  0.1779E+00
     16.844  0.1556E-02  0.1785E+00
     17.229  0.5479E-02  0.1806E+00
     17.613  0.1264E-02  0.1811E+00
     17.997  0.5380E-02  0.1832E+00
     18.382  0.2019E-02  0.1839E+00
     18.766  0.2088E-02  0.1848E+00
     19.151  0.4649E-02  0.1866E+00
     19.535  0.2060E-02  0.1874E+00
     19.919  0.3594E-02  0.1888E+00
     20.304  0.4487E-02  0.1905E+00
     20.688  0.1293E-02  0.1910E+00
     21.072  0.2202E-02  0.1919E+00
     21.457  0.3998E-02  0.1934E+00
     21.841  0.4844E-02  0.1953E+00
     22.226  0.1727E-02  0.1960E+00
     22.610  0.4584E-02  0.1978E+00
     22.994  0.3235E-02  0.1990E+00
     23.379  0.3898E-02  0.2005E+00
     23.763  0.5866E-02  0.2028E+00
     24.148  0.4971E-02  0.2047E+00
     24.532  0.3563E-02  0.2061E+00
     24.916  0.5529E-02  0.2083E+00
     25.301  0.5180E-02  0.2103E+00
     25.685  0.4122E-02  0.2119E+00
     26.070  0.6695E-02  0.2145E+00
     26.454  0.4906E-02  0.2165E+00
     26.838  0.9312E-02  0.2200E+00
     27.223  0.8782E-02  0.2234E+00
     27.607  0.4479E-02  0.2252E+00
     27.992  0.6822E-02  0.2278E+00
     28.376  0.6141E-02  0.2302E+00
     28.760  0.8010E-02  0.2333E+00
     29.145  0.2990E-02  0.2345E+00
     29.529  0.3490E-02  0.2359E+00
     29.913  0.2942E-02  0.2371E+00
     30.298  0.6012E-02  0.2395E+00
     30.682  0.5303E-02  0.2415E+00
     31.067  0.6532E-02  0.2441E+00
     31.451  0.9569E-02  0.2478E+00
     31.835  0.6032E-02  0.2502E+00
     32.220  0.7947E-02  0.2532E+00
     32.604  0.6103E-02  0.2557E+00
     32.989  0.4253E-02  0.2573E+00
     33.373  0.4651E-02  0.2591E+00
     33.757  0.2231E-02  0.2601E+00
     34.142  0.3144E-02  0.2613E+00
     34.526  0.5467E-02  0.2635E+00
     34.911  0.4766E-02  0.2653E+00
     35.295  0.2765E-02  0.2665E+00
     35.679  0.5803E-02  0.2687E+00
     36.064  0.4266E-02  0.2704E+00
     36.448  0.8950E-02  0.2738E+00
     36.833  0.2154E-02  0.2747E+00
     37.217  0.6030E-02  0.2770E+00
     37.601  0.4733E-02  0.2789E+00
     37.986  0.9170E-02  0.2824E+00
     38.370  0.6498E-02  0.2850E+00
     38.755  0.9157E-02  0.2885E+00
     39.139  0.1207E-01  0.2933E+00
     39.523  0.1198E-01  0.2980E+00
     39.908  0.9739E-02  0.3018E+00
     40.292  0.1001E-01  0.3057E+00
     40.676  0.6466E-02  0.3083E+00
     41.061  0.5065E-02  0.3102E+00
     41.445  0.3978E-02  0.3118E+00
     41.830  0.7729E-02  0.3148E+00
     42.214  0.8130E-02  0.3179E+00
     42.598  0.1046E-01  0.3220E+00
     42.983  0.6387E-02  0.3246E+00
     43.367  0.8328E-02  0.3279E+00
     43.752  0.5223E-02  0.3300E+00
     44.136  0.8479E-02  0.3333E+00
     44.520  0.4545E-02  0.3352E+00
     44.905  0.5527E-02  0.3373E+00
     45.289  0.4756E-02  0.3392E+00
     45.674  0.7279E-02  0.3420E+00
     46.058  0.7238E-02  0.3448E+00
     46.442  0.6329E-02  0.3473E+00
     46.827  0.9202E-02  0.3510E+00
     47.211  0.1143E-01  0.3554E+00
     47.596  0.1175E-01  0.3600E+00
     47.980  0.1090E-01  0.3643E+00
     48.364  0.9208E-02  0.3678E+00
     48.749  0.9590E-02  0.3715E+00
     49.133  0.1079E-01  0.3758E+00
     49.518  0.8185E-02  0.3790E+00
     49.902  0.7974E-02  0.3822E+00
     50.286  0.6303E-02  0.3846E+00
     50.671  0.5907E-02  0.3869E+00
     51.055  0.6842E-02  0.3896E+00
     51.439  0.7212E-02  0.3925E+00
     51.824  0.9434E-02  0.3962E+00
     52.208  0.8326E-02  0.3994E+00
     52.593  0.5982E-01  0.4226E+00
     52.977  0.9595E-02  0.4263E+00
     53.361  0.7562E-02  0.4293E+00
     53.746  0.8759E-02  0.4328E+00
     54.130  0.6855E-02  0.4355E+00
     54.515  0.7599E-02  0.4385E+00
     54.899  0.8236E-02  0.4417E+00
     55.283  0.7043E-02  0.4445E+00
     55.668  0.9477E-02  0.4481E+00
     56.052  0.9232E-02  0.4517E+00
     56.437  0.9224E-02  0.4553E+00
     56.821  0.8186E-02  0.4586E+00
     57.205  0.7099E-02  0.4614E+00
     57.590  0.8427E-02  0.4648E+00
     57.974  0.7683E-02  0.4678E+00
     58.359  0.5543E-02  0.4700E+00
     58.743  0.5490E-02  0.4721E+00
     59.127  0.6039E-02  0.4744E+00
     59.512  0.3590E-02  0.4758E+00
     59.896  0.1674E-02  0.4765E+00
     60.280  0.2277E-02  0.4774E+00
     60.665  0.2428E-02  0.4783E+00
     61.049  0.1848E-02  0.4790E+00
     61.434  0.3577E-03  0.4792E+00
     61.818  0.1203E-02  0.4796E+00
     62.202  0.0000E+00  0.4796E+00
     62.587  0.5276E-03  0.4798E+00
     62.971  0.0000E+00  0.4799E+00
     63.356  0.1202E-07  0.4799E+00
     63.740  0.3122E-03  0.4800E+00
     64.124  0.0000E+00  0.4800E+00
     64.509  0.0000E+00  0.4800E+00
     64.893  0.0000E+00  0.4800E+00
     65.278  0.0000E+00  0.4800E+00
     65.662  0.0000E+00  0.4800E+00
     66.046  0.0000E+00  0.4800E+00
     66.431  0.0000E+00  0.4800E+00
     66.815  0.0000E+00  0.4800E+00
     67.200  0.0000E+00  0.4800E+00
     67.584  0.0000E+00  0.4800E+00
     67.968  0.0000E+00  0.4800E+00
     68.353  0.0000E+00  0.4800E+00
     68.737  0.0000E+00  0.4800E+00
     68.73713244    -46.58059330  301     11.55126340      1.00000000
    -46.581  0.0000E+00  0.0000E+00  0.0000E+00  0.0000E+00  0.0000E+00  0.0000E+00  0.0000E+00  0.0000E+00  0.0000E+00
    -46.196  0.0000E+00  0.0000E+00  0.0000E+00  0.0000E+00  0.0000E+00  0.0000E+00  0.0000E+00  0.0000E+00  0.0000E+00
    -45.812  0.0000E+00  0.0000E+00  0.0000E+00  0.0000E+00  0.0000E+00  0.0000E+00  0.0000E+00  0.0000E+00  0.0000E+00
    -45.427  0.0000E+00  0.0000E+00  0.0000E+00  0.0000E+00  0.0000E+00  0.0000E+00  0.0000E+00  0.0000E+00  0.0000E+00
    -45.043  0.0000E+00  0.0000E+00  0.0000E+00  0.0000E+00  0.0000E+00  0.0000E+00  0.0000E+00  0.0000E+00  0.0000E+00
    -44.659  0.0000E+00  0.0000E+00  0.0000E+00  0.0000E+00  0.0000E+00  0.0000E+00  0.0000E+00  0.0000E+00  0.0000E+00
    -44.274  0.0000E+00  0.0000E+00  0.0000E+00  0.0000E+00  0.0000E+00  0.0000E+00  0.0000E+00  0.0000E+00  0.0000E+00
    -43.890  0.0000E+00  0.0000E+00  0.0000E+00  0.0000E+00  0.0000E+00  0.0000E+00  0.0000E+00  0.0000E+00  0.0000E+00
    -43.505  0.0000E+00  0.0000E+00  0.0000E+00  0.0000E+00  0.0000E+00  0.0000E+00  0.0000E+00  0.0000E+00  0.0000E+00
    -43.121  0.0000E+00  0.0000E+00  0.0000E+00  0.0000E+00  0.0000E+00  0.0000E+00  0.0000E+00  0.0000E+00  0.0000E+00
    -42.737  0.0000E+00  0.0000E+00  0.0000E+00  0.0000E+00  0.0000E+00  0.0000E+00  0.0000E+00  0.0000E+00  0.0000E+00
    -42.352  0.0000E+00  0.0000E+00  0.0000E+00  0.0000E+00  0.0000E+00  0.0000E+00  0.0000E+00  0.0000E+00  0.0000E+00
    -41.968  0.0000E+00  0.0000E+00  0.0000E+00  0.0000E+00  0.0000E+00  0.0000E+00  0.0000E+00  0.0000E+00  0.0000E+00
    -41.583  0.2175E-18  0.3290E-13  0.3290E-13  0.3290E-13  0.1106E-18  0.1106E-18  0.8184E-19  0.1106E-18  0.8184E-19
    -41.199  0.1040E-03  0.1324E+01  0.1324E+01  0.1324E+01  0.3112E-04  0.3112E-04  0.1383E-04  0.3112E-04  0.1383E-04
    -40.815  0.1175E-03  0.3727E+01  0.3727E+01  0.3727E+01  0.9138E-04  0.9138E-04  0.5083E-04  0.9138E-04  0.5083E-04
    -40.430  0.0000E+00  0.0000E+00  0.0000E+00  0.0000E+00  0.0000E+00  0.0000E+00  0.0000E+00  0.0000E+00  0.0000E+00
    -40.046  0.0000E+00  0.0000E+00  0.0000E+00  0.0000E+00  0.0000E+00  0.0000E+00  0.0000E+00  0.0000E+00  0.0000E+00
    -39.662  0.0000E+00  0.0000E+00  0.0000E+00  0.0000E+00  0.0000E+00  0.0000E+00  0.0000E+00  0.0000E+00  0.0000E+00
    -39.277  0.0000E+00  0.0000E+00  0.0000E+00  0.0000E+00  0.0000E+00  0.0000E+00  0.0000E+00  0.0000E+00  0.0000E+00
    -38.893  0.0000E+00  0.0000E+00  0.0000E+00  0.0000E+00  0.0000E+00  0.0000E+00  0.0000E+00  0.0000E+00  0.0000E+00
    -38.508  0.0000E+00  0.0000E+00  0.0000E+00  0.0000E+00  0.0000E+00  0.0000E+00  0.0000E+00  0.0000E+00  0.0000E+00
    -38.124  0.0000E+00  0.0000E+00  0.0000E+00  0.0000E+00  0.0000E+00  0.0000E+00  0.0000E+00  0.0000E+00  0.0000E+00
    -37.740  0.0000E+00  0.0000E+00  0.0000E+00  0.0000E+00  0.0000E+00  0.0000E+00  0.0000E+00  0.0000E+00  0.0000E+00
    -37.355  0.0000E+00  0.0000E+00  0.0000E+00  0.0000E+00  0.0000E+00  0.0000E+00  0.0000E+00  0.0000E+00  0.0000E+00
    -36.971  0.0000E+00  0.0000E+00  0.0000E+00  0.0000E+00  0.0000E+00  0.0000E+00  0.0000E+00  0.0000E+00  0.0000E+00
    -36.586  0.0000E+00  0.0000E+00  0.0000E+00  0.0000E+00  0.0000E+00  0.0000E+00  0.0000E+00  0.0000E+00  0.0000E+00
    -36.202  0.0000E+00  0.0000E+00  0.0000E+00  0.0000E+00  0.0000E+00  0.0000E+00  0.0000E+00  0.0000E+00  0.0000E+00
    -35.818  0.0000E+00  0.0000E+00  0.0000E+00  0.0000E+00  0.0000E+00  0.0000E+00  0.0000E+00  0.0000E+00  0.0000E+00
    -35.433  0.0000E+00  0.0000E+00  0.0000E+00  0.0000E+00  0.0000E+00  0.0000E+00  0.0000E+00  0.0000E+00  0.0000E+00
    -35.049  0.0000E+00  0.0000E+00  0.0000E+00  0.0000E+00  0.0000E+00  0.0000E+00  0.0000E+00  0.0000E+00  0.0000E+00
    -34.664  0.0000E+00  0.0000E+00  0.0000E+00  0.0000E+00  0.0000E+00  0.0000E+00  0.0000E+00  0.0000E+00  0.0000E+00
    -34.280  0.0000E+00  0.0000E+00  0.0000E+00  0.0000E+00  0.0000E+00  0.0000E+00  0.0000E+00  0.0000E+00  0.0000E+00
    -33.896  0.0000E+00  0.0000E+00  0.0000E+00  0.0000E+00  0.0000E+00  0.0000E+00  0.0000E+00  0.0000E+00  0.0000E+00
    -33.511  0.0000E+00  0.0000E+00  0.0000E+00  0.0000E+00  0.0000E+00  0.0000E+00  0.0000E+00  0.0000E+00  0.0000E+00
    -33.127  0.0000E+00  0.0000E+00  0.0000E+00  0.0000E+00  0.0000E+00  0.0000E+00  0.0000E+00  0.0000E+00  0.0000E+00
    -32.742  0.0000E+00  0.0000E+00  0.0000E+00  0.0000E+00  0.0000E+00  0.0000E+00  0.0000E+00  0.0000E+00  0.0000E+00
    -32.358  0.0000E+00  0.0000E+00  0.0000E+00  0.0000E+00  0.0000E+00  0.0000E+00  0.0000E+00  0.0000E+00  0.0000E+00
    -31.974  0.0000E+00  0.0000E+00  0.0000E+00  0.0000E+00  0.0000E+00  0.0000E+00  0.0000E+00  0.0000E+00  0.0000E+00
    -31.589  0.0000E+00  0.0000E+00  0.0000E+00  0.0000E+00  0.0000E+00  0.0000E+00  0.0000E+00  0.0000E+00  0.0000E+00
    -31.205  0.0000E+00  0.0000E+00  0.0000E+00  0.0000E+00  0.0000E+00  0.0000E+00  0.0000E+00  0.0000E+00  0.0000E+00
    -30.821  0.0000E+00  0.0000E+00  0.0000E+00  0.0000E+00  0.0000E+00  0.0000E+00  0.0000E+00  0.0000E+00  0.0000E+00
    -30.436  0.0000E+00  0.0000E+00  0.0000E+00  0.0000E+00  0.0000E+00  0.0000E+00  0.0000E+00  0.0000E+00  0.0000E+00
    -30.052  0.0000E+00  0.0000E+00  0.0000E+00  0.0000E+00  0.0000E+00  0.0000E+00  0.0000E+00  0.0000E+00  0.0000E+00
    -29.667  0.0000E+00  0.0000E+00  0.0000E+00  0.0000E+00  0.0000E+00  0.0000E+00  0.0000E+00  0.0000E+00  0.0000E+00
    -29.283  0.0000E+00  0.0000E+00  0.0000E+00  0.0000E+00  0.0000E+00  0.0000E+00  0.0000E+00  0.0000E+00  0.0000E+00
    -28.899  0.0000E+00  0.0000E+00  0.0000E+00  0.0000E+00  0.0000E+00  0.0000E+00  0.0000E+00  0.0000E+00  0.0000E+00
    -28.514  0.0000E+00  0.0000E+00  0.0000E+00  0.0000E+00  0.0000E+00  0.0000E+00  0.0000E+00  0.0000E+00  0.0000E+00
    -28.130  0.0000E+00  0.0000E+00  0.0000E+00  0.0000E+00  0.0000E+00  0.0000E+00  0.0000E+00  0.0000E+00  0.0000E+00
    -27.745  0.0000E+00  0.0000E+00  0.0000E+00  0.0000E+00  0.0000E+00  0.0000E+00  0.0000E+00  0.0000E+00  0.0000E+00
    -27.361  0.0000E+00  0.0000E+00  0.0000E+00  0.0000E+00  0.0000E+00  0.0000E+00  0.0000E+00  0.0000E+00  0.0000E+00
    -26.977  0.0000E+00  0.0000E+00  0.0000E+00  0.0000E+00  0.0000E+00  0.0000E+00  0.0000E+00  0.0000E+00  0.0000E+00
    -26.592  0.0000E+00  0.0000E+00  0.0000E+00  0.0000E+00  0.0000E+00  0.0000E+00  0.0000E+00  0.0000E+00  0.0000E+00
    -26.208  0.0000E+00  0.0000E+00  0.0000E+00  0.0000E+00  0.0000E+00  0.0000E+00  0.0000E+00  0.0000E+00  0.0000E+00
    -25.823  0.0000E+00  0.0000E+00  0.0000E+00  0.0000E+00  0.0000E+00  0.0000E+00  0.0000E+00  0.0000E+00  0.0000E+00
    -25.439  0.0000E+00  0.0000E+00  0.0000E+00  0.0000E+00  0.0000E+00  0.0000E+00  0.0000E+00  0.0000E+00  0.0000E+00
    -25.055  0.0000E+00  0.0000E+00  0.0000E+00  0.0000E+00  0.0000E+00  0.0000E+00  0.0000E+00  0.0000E+00  0.0000E+00
    -24.670  0.0000E+00  0.0000E+00  0.0000E+00  0.0000E+00  0.0000E+00  0.0000E+00  0.0000E+00  0.0000E+00  0.0000E+00
    -24.286  0.0000E+00  0.0000E+00  0.0000E+00  0.0000E+00  0.0000E+00  0.0000E+00  0.0000E+00  0.0000E+00  0.0000E+00
    -23.901  0.0000E+00  0.0000E+00  0.0000E+00  0.0000E+00  0.0000E+00  0.0000E+00  0.0000E+00  0.0000E+00  0.0000E+00
    -23.517  0.0000E+00  0.0000E+00  0.0000E+00  0.0000E+00  0.0000E+00  0.0000E+00  0.0000E+00  0.0000E+00  0.0000E+00
    -23.133  0.0000E+00  0.0000E+00  0.0000E+00  0.0000E+00  0.0000E+00  0.0000E+00  0.0000E+00  0.0000E+00  0.0000E+00
    -22.748  0.0000E+00  0.0000E+00  0.0000E+00  0.0000E+00  0.0000E+00  0.0000E+00  0.0000E+00  0.0000E+00  0.0000E+00
    -22.364  0.0000E+00  0.0000E+00  0.0000E+00  0.0000E+00  0.0000E+00  0.0000E+00  0.0000E+00  0.0000E+00  0.0000E+00
    -21.979  0.0000E+00  0.0000E+00  0.0000E+00  0.0000E+00  0.0000E+00  0.0000E+00  0.0000E+00  0.0000E+00  0.0000E+00
    -21.595  0.0000E+00  0.0000E+00  0.0000E+00  0.0000E+00  0.0000E+00  0.0000E+00  0.0000E+00  0.0000E+00  0.0000E+00
    -21.211  0.0000E+00  0.0000E+00  0.0000E+00  0.0000E+00  0.0000E+00  0.0000E+00  0.0000E+00  0.0000E+00  0.0000E+00
    -20.826  0.0000E+00  0.0000E+00  0.0000E+00  0.0000E+00  0.0000E+00  0.0000E+00  0.0000E+00  0.0000E+00  0.0000E+00
    -20.442  0.0000E+00  0.0000E+00  0.0000E+00  0.0000E+00  0.0000E+00  0.0000E+00  0.0000E+00  0.0000E+00  0.0000E+00
    -20.058  0.0000E+00  0.0000E+00  0.0000E+00  0.0000E+00  0.0000E+00  0.0000E+00  0.0000E+00  0.0000E+00  0.0000E+00
    -19.673  0.0000E+00  0.0000E+00  0.0000E+00  0.0000E+00  0.0000E+00  0.0000E+00  0.0000E+00  0.0000E+00  0.0000E+00
    -19.289  0.0000E+00  0.0000E+00  0.0000E+00  0.0000E+00  0.0000E+00  0.0000E+00  0.0000E+00  0.0000E+00  0.0000E+00
    -18.904  0.0000E+00  0.0000E+00  0.0000E+00  0.0000E+00  0.0000E+00  0.0000E+00  0.0000E+00  0.0000E+00  0.0000E+00
    -18.520  0.0000E+00  0.0000E+00  0.0000E+00  0.0000E+00  0.0000E+00  0.0000E+00  0.0000E+00  0.0000E+00  0.0000E+00
    -18.136  0.0000E+00  0.0000E+00  0.0000E+00  0.0000E+00  0.0000E+00  0.0000E+00  0.0000E+00  0.0000E+00  0.0000E+00
    -17.751  0.0000E+00  0.0000E+00  0.0000E+00  0.0000E+00  0.0000E+00  0.0000E+00  0.0000E+00  0.0000E+00  0.0000E+00
    -17.367  0.0000E+00  0.0000E+00  0.0000E+00  0.0000E+00  0.0000E+00  0.0000E+00  0.0000E+00  0.0000E+00  0.0000E+00
    -16.982  0.0000E+00  0.0000E+00  0.0000E+00  0.0000E+00  0.0000E+00  0.0000E+00  0.0000E+00  0.0000E+00  0.0000E+00
    -16.598  0.0000E+00  0.0000E+00  0.0000E+00  0.0000E+00  0.0000E+00  0.0000E+00  0.0000E+00  0.0000E+00  0.0000E+00
    -16.214  0.0000E+00  0.0000E+00  0.0000E+00  0.0000E+00  0.0000E+00  0.0000E+00  0.0000E+00  0.0000E+00  0.0000E+00
    -15.829  0.0000E+00  0.0000E+00  0.0000E+00  0.0000E+00  0.0000E+00  0.0000E+00  0.0000E+00  0.0000E+00  0.0000E+00
    -15.445  0.0000E+00  0.0000E+00  0.0000E+00  0.0000E+00  0.0000E+00  0.0000E+00  0.0000E+00  0.0000E+00  0.0000E+00
    -15.060  0.0000E+00  0.0000E+00  0.0000E+00  0.0000E+00  0.0000E+00  0.0000E+00  0.0000E+00  0.0000E+00  0.0000E+00
    -14.676  0.0000E+00  0.0000E+00  0.0000E+00  0.0000E+00  0.0000E+00  0.0000E+00  0.0000E+00  0.0000E+00  0.0000E+00
    -14.292  0.0000E+00  0.0000E+00  0.0000E+00  0.0000E+00  0.0000E+00  0.0000E+00  0.0000E+00  0.0000E+00  0.0000E+00
    -13.907  0.0000E+00  0.0000E+00  0.0000E+00  0.0000E+00  0.0000E+00  0.0000E+00  0.0000E+00  0.0000E+00  0.0000E+00
    -13.523  0.0000E+00  0.0000E+00  0.0000E+00  0.0000E+00  0.0000E+00  0.0000E+00  0.0000E+00  0.0000E+00  0.0000E+00
    -13.138  0.0000E+00  0.0000E+00  0.0000E+00  0.0000E+00  0.0000E+00  0.0000E+00  0.0000E+00  0.0000E+00  0.0000E+00
    -12.754  0.0000E+00  0.0000E+00  0.0000E+00  0.0000E+00  0.0000E+00  0.0000E+00  0.0000E+00  0.0000E+00  0.0000E+00
    -12.370  0.0000E+00  0.0000E+00  0.0000E+00  0.0000E+00  0.0000E+00  0.0000E+00  0.0000E+00  0.0000E+00  0.0000E+00
    -11.985  0.0000E+00  0.0000E+00  0.0000E+00  0.0000E+00  0.0000E+00  0.0000E+00  0.0000E+00  0.0000E+00  0.0000E+00
    -11.601  0.0000E+00  0.0000E+00  0.0000E+00  0.0000E+00  0.0000E+00  0.0000E+00  0.0000E+00  0.0000E+00  0.0000E+00
    -11.216  0.0000E+00  0.0000E+00  0.0000E+00  0.0000E+00  0.0000E+00  0.0000E+00  0.0000E+00  0.0000E+00  0.0000E+00
    -10.832  0.0000E+00  0.0000E+00  0.0000E+00  0.0000E+00  0.0000E+00  0.0000E+00  0.0000E+00  0.0000E+00  0.0000E+00
    -10.448  0.0000E+00  0.0000E+00  0.0000E+00  0.0000E+00  0.0000E+00  0.0000E+00  0.0000E+00  0.0000E+00  0.0000E+00
    -10.063  0.0000E+00  0.0000E+00  0.0000E+00  0.0000E+00  0.0000E+00  0.0000E+00  0.0000E+00  0.0000E+00  0.0000E+00
     -9.679  0.0000E+00  0.0000E+00  0.0000E+00  0.0000E+00  0.0000E+00  0.0000E+00  0.0000E+00  0.0000E+00  0.0000E+00
     -9.295  0.0000E+00  0.0000E+00  0.0000E+00  0.0000E+00  0.0000E+00  0.0000E+00  0.0000E+00  0.0000E+00  0.0000E+00
     -8.910  0.0000E+00  0.0000E+00  0.0000E+00  0.0000E+00  0.0000E+00  0.0000E+00  0.0000E+00  0.0000E+00  0.0000E+00
     -8.526  0.0000E+00  0.0000E+00  0.0000E+00  0.0000E+00  0.0000E+00  0.0000E+00  0.0000E+00  0.0000E+00  0.0000E+00
     -8.141  0.0000E+00  0.0000E+00  0.0000E+00  0.0000E+00  0.0000E+00  0.0000E+00  0.0000E+00  0.0000E+00  0.0000E+00
     -7.757  0.0000E+00  0.0000E+00  0.0000E+00  0.0000E+00  0.0000E+00  0.0000E+00  0.0000E+00  0.0000E+00  0.0000E+00
     -7.373  0.0000E+00  0.0000E+00  0.0000E+00  0.0000E+00  0.0000E+00  0.0000E+00  0.0000E+00  0.0000E+00  0.0000E+00
     -6.988  0.0000E+00  0.0000E+00  0.0000E+00  0.0000E+00  0.0000E+00  0.0000E+00  0.0000E+00  0.0000E+00  0.0000E+00
     -6.604  0.0000E+00  0.0000E+00  0.0000E+00  0.0000E+00  0.0000E+00  0.0000E+00  0.0000E+00  0.0000E+00  0.0000E+00
     -6.219  0.0000E+00  0.0000E+00  0.0000E+00  0.0000E+00  0.0000E+00  0.0000E+00  0.0000E+00  0.0000E+00  0.0000E+00
     -5.835  0.0000E+00  0.0000E+00  0.0000E+00  0.0000E+00  0.0000E+00  0.0000E+00  0.0000E+00  0.0000E+00  0.0000E+00
     -5.451  0.0000E+00  0.0000E+00  0.0000E+00  0.0000E+00  0.0000E+00  0.0000E+00  0.0000E+00  0.0000E+00  0.0000E+00
     -5.066  0.0000E+00  0.0000E+00  0.0000E+00  0.0000E+00  0.0000E+00  0.0000E+00  0.0000E+00  0.0000E+00  0.0000E+00
     -4.682  0.0000E+00  0.0000E+00  0.0000E+00  0.0000E+00  0.0000E+00  0.0000E+00  0.0000E+00  0.0000E+00  0.0000E+00
     -4.297  0.0000E+00  0.0000E+00  0.0000E+00  0.0000E+00  0.0000E+00  0.0000E+00  0.0000E+00  0.0000E+00  0.0000E+00
     -3.913  0.0000E+00  0.0000E+00  0.0000E+00  0.0000E+00  0.0000E+00  0.0000E+00  0.0000E+00  0.0000E+00  0.0000E+00
     -3.529  0.0000E+00  0.0000E+00  0.0000E+00  0.0000E+00  0.0000E+00  0.0000E+00  0.0000E+00  0.0000E+00  0.0000E+00
     -3.144  0.0000E+00  0.0000E+00  0.0000E+00  0.0000E+00  0.0000E+00  0.0000E+00  0.0000E+00  0.0000E+00  0.0000E+00
     -2.760  0.0000E+00  0.0000E+00  0.0000E+00  0.0000E+00  0.0000E+00  0.0000E+00  0.0000E+00  0.0000E+00  0.0000E+00
     -2.375  0.0000E+00  0.0000E+00  0.0000E+00  0.0000E+00  0.0000E+00  0.0000E+00  0.0000E+00  0.0000E+00  0.0000E+00
     -1.991  0.0000E+00  0.0000E+00  0.0000E+00  0.0000E+00  0.0000E+00  0.0000E+00  0.0000E+00  0.0000E+00  0.0000E+00
     -1.607  0.0000E+00  0.0000E+00  0.0000E+00  0.0000E+00  0.0000E+00  0.0000E+00  0.0000E+00  0.0000E+00  0.0000E+00
     -1.222  0.0000E+00  0.0000E+00  0.0000E+00  0.0000E+00  0.0000E+00  0.0000E+00  0.0000E+00  0.0000E+00  0.0000E+00
     -0.838  0.0000E+00  0.0000E+00  0.0000E+00  0.0000E+00  0.0000E+00  0.0000E+00  0.0000E+00  0.0000E+00  0.0000E+00
     -0.454  0.0000E+00  0.0000E+00  0.0000E+00  0.0000E+00  0.0000E+00  0.0000E+00  0.0000E+00  0.0000E+00  0.0000E+00
     -0.069  0.0000E+00  0.0000E+00  0.0000E+00  0.0000E+00  0.0000E+00  0.0000E+00  0.0000E+00  0.0000E+00  0.0000E+00
      0.315  0.0000E+00  0.0000E+00  0.0000E+00  0.0000E+00  0.0000E+00  0.0000E+00  0.0000E+00  0.0000E+00  0.0000E+00
      0.700  0.0000E+00  0.0000E+00  0.0000E+00  0.0000E+00  0.0000E+00  0.0000E+00  0.0000E+00  0.0000E+00  0.0000E+00
      1.084  0.0000E+00  0.0000E+00  0.0000E+00  0.0000E+00  0.0000E+00  0.0000E+00  0.0000E+00  0.0000E+00  0.0000E+00
      1.468  0.2908E-11  0.3211E-14  0.3211E-14  0.3211E-14  0.1897E-15  0.1897E-15  0.5644E-28  0.1897E-15  0.5644E-28
      1.853  0.4121E-02  0.4752E-05  0.4752E-05  0.4752E-05  0.2939E-06  0.2939E-06  0.2457E-07  0.2939E-06  0.2457E-07
      2.237  0.2249E-01  0.1204E-03  0.1204E-03  0.1204E-03  0.3028E-04  0.3028E-04  0.7649E-05  0.3028E-04  0.7649E-05
      2.622  0.1681E-01  0.1687E-03  0.1687E-03  0.1687E-03  0.5058E-04  0.5058E-04  0.4881E-04  0.5058E-04  0.4881E-04
      3.006  0.3254E-01  0.4278E-03  0.4278E-03  0.4278E-03  0.3403E-03  0.3403E-03  0.7815E-04  0.3403E-03  0.7815E-04
      3.390  0.5035E-01  0.9713E-03  0.9713E-03  0.9713E-03  0.9409E-03  0.9409E-03  0.5841E-03  0.9409E-03  0.5841E-03
      3.775  0.2963E-01  0.7016E-03  0.7016E-03  0.7016E-03  0.1383E-02  0.1383E-02  0.3188E-03  0.1383E-02  0.3188E-03
      4.159  0.5019E-01  0.1367E-02  0.1367E-02  0.1367E-02  0.3758E-02  0.3758E-02  0.2142E-02  0.3758E-02  0.2142E-02
      4.544  0.8752E-01  0.2417E-02  0.2417E-02  0.2417E-02  0.2464E-01  0.2464E-01  0.2637E-02  0.2464E-01  0.2637E-02
      4.928  0.9092E-01  0.2558E-02  0.2558E-02  0.2558E-02  0.4728E-01  0.4728E-01  0.2829E-01  0.4728E-01  0.2829E-01
      5.312  0.1286E+00  0.4774E-02  0.4774E-02  0.4774E-02  0.8669E-01  0.8669E-01  0.1187E+00  0.8669E-01  0.1187E+00
      5.697  0.9928E-01  0.5000E-02  0.5000E-02  0.5000E-02  0.1776E+00  0.1776E+00  0.1239E+00  0.1776E+00  0.1239E+00
      6.081  0.5918E-01  0.5363E-02  0.5363E-02  0.5363E-02  0.2027E+00  0.2027E+00  0.1326E+00  0.2027E+00  0.1326E+00
      6.466  0.1967E-01  0.5186E-02  0.5186E-02  0.5186E-02  0.1586E+00  0.1586E+00  0.1149E+00  0.1586E+00  0.1149E+00
      6.850  0.1047E-01  0.7851E-02  0.7851E-02  0.7851E-02  0.1832E+00  0.1832E+00  0.1383E+00  0.1832E+00  0.1383E+00
      7.234  0.8534E-02  0.7217E-02  0.7217E-02  0.7217E-02  0.1771E+00  0.1771E+00  0.1960E+00  0.1771E+00  0.1960E+00
      7.619  0.1969E-01  0.9560E-02  0.9560E-02  0.9560E-02  0.2666E+00  0.2666E+00  0.1839E+00  0.2666E+00  0.1839E+00
      8.003  0.2106E-01  0.7596E-02  0.7596E-02  0.7596E-02  0.2064E+00  0.2064E+00  0.2200E+00  0.2064E+00  0.2200E+00
      8.388  0.2904E-01  0.1409E-01  0.1409E-01  0.1409E-01  0.4261E+00  0.4261E+00  0.2719E+00  0.4261E+00  0.2719E+00
      8.772  0.1407E-01  0.8667E-02  0.8667E-02  0.8667E-02  0.2254E+00  0.2254E+00  0.1998E+00  0.2254E+00  0.1998E+00
      9.156  0.1323E-01  0.6789E-02  0.6789E-02  0.6789E-02  0.1460E+00  0.1460E+00  0.2108E+00  0.1460E+00  0.2108E+00
      9.541  0.7697E-02  0.5681E-02  0.5681E-02  0.5681E-02  0.1265E+00  0.1265E+00  0.3090E+00  0.1265E+00  0.3090E+00
      9.925  0.1142E-01  0.6445E-02  0.6445E-02  0.6445E-02  0.1156E+00  0.1156E+00  0.4117E+00  0.1156E+00  0.4117E+00
     10.309  0.1277E-01  0.4909E-02  0.4909E-02  0.4909E-02  0.1630E+00  0.1630E+00  0.3573E+00  0.1630E+00  0.3573E+00
     10.694  0.2829E-02  0.3880E-02  0.3880E-02  0.3880E-02  0.1426E+00  0.1426E+00  0.2374E+00  0.1426E+00  0.2374E+00
     11.078  0.7953E-02  0.2999E-02  0.2999E-02  0.2999E-02  0.1524E+00  0.1524E+00  0.2318E+00  0.1524E+00  0.2318E+00
     11.463  0.6696E-02  0.2099E-02  0.2099E-02  0.2099E-02  0.3417E+00  0.3417E+00  0.3101E+00  0.3417E+00  0.3101E+00
     11.847  0.1481E-01  0.3299E-02  0.3299E-02  0.3299E-02  0.3646E+00  0.3646E+00  0.1860E+00  0.3646E+00  0.1860E+00
     12.231  0.4364E-02  0.7141E-03  0.7141E-03  0.7141E-03  0.1043E+00  0.1043E+00  0.2350E-01  0.1043E+00  0.2350E-01
     12.616  0.2293E-01  0.4838E-02  0.4838E-02  0.4838E-02  0.6036E-01  0.6036E-01  0.5344E-01  0.6036E-01  0.5344E-01
     13.000  0.9758E-02  0.3647E-02  0.3647E-02  0.3647E-02  0.2306E-01  0.2306E-01  0.1721E-01  0.2306E-01  0.1721E-01
     13.385  0.1900E-01  0.3772E-02  0.3772E-02  0.3772E-02  0.3341E-01  0.3341E-01  0.2749E-01  0.3341E-01  0.2749E-01