Co-fcc                                  
   1.00000000000000     
     0.000000    1.684097    1.684097
     1.684097    0.000000    1.684097
     1.684097    1.684097    0.000000
   Co
     1
Direct
  0.000000  0.000000  0.000000
 
   32   32   32
 0.90296069411E+02 0.88455098316E+02 0.83166488869E+02 0.75075327524E+02 0.65087943554E+02
 0.54189176277E+02 0.43288095060E+02 0.33126879022E+02 0.24249724058E+02 0.17003463674E+02
 0.11541503370E+02 0.78220919515E+01 0.56133096185E+01 0.45245135981E+01 0.40737021680E+01
 0.38463531750E+01 0.37686317618E+01 0.38463531750E+01 0.40737021680E+01 0.45245135981E+01
 0.56133096185E+01 0.78220919515E+01 0.11541503370E+02 0.17003463674E+02 0.24249724058E+02
 0.33126879022E+02 0.43288095060E+02 0.54189176277E+02 0.65087943554E+02 0.75075327524E+02
 0.83166488869E+02 0.88455098316E+02 0.88455098316E+02 0.84891316748E+02 0.78208766215E+02
 0.69190612449E+02 0.58787758805E+02 0.47947659999E+02 0.37492026900E+02 0.28058524987E+02
 0.20088500438E+02 0.13830262536E+02 0.93387403585E+01 0.64745544782E+01 0.49206085733E+01
 0.42320527326E+01 0.39280142508E+01 0.37753858276E+01 0.37753859723E+01 0.39280145814E+01
 0.42320529795E+01 0.49206084143E+01 0.64745536786E+01 0.93387388893E+01 0.13830260622E+02
 0.20088498515E+02 0.28058523580E+02 0.37492026455E+02 0.47947660729E+02 0.58787760599E+02
 0.69190614883E+02 0.78208768661E+02 0.84891318547E+02 0.88455098976E+02 0.83166488869E+02
 0.78208766215E+02 0.70615889945E+02 0.61230554213E+02 0.50973755467E+02 0.40702941953E+02
 0.31125941042E+02 0.22767743290E+02 0.15965251025E+02 0.10865871704E+02 0.74237017144E+01
 0.54057359412E+01 0.44258598456E+01 0.40137326943E+01 0.37944265338E+01 0.37197395909E+01
 0.37944270680E+01 0.40137333964E+01 0.44258601315E+01 0.54057352518E+01 0.74236997639E+01
 0.10865868643E+02 0.15965247450E+02 0.22767740096E+02 0.31125939144E+02 0.40702941990E+02
 0.50973757564E+02 0.61230557904E+02 0.70615894278E+02 0.78208770014E+02 0.83166491079E+02
 0.84891318547E+02 0.75075327524E+02 0.69190612449E+02 0.61230554213E+02 0.52023372458E+02
 0.42405992415E+02 0.33118265164E+02 0.24746857895E+02 0.17704752177E+02 0.12223660294E+02
 0.83470266910E+01 0.59290621845E+01 0.46556263365E+01 0.40982806723E+01 0.38223865251E+01
 0.36812358963E+01 0.36812363266E+01 0.38223875614E+01 0.40982816518E+01 0.46556264503E+01
 0.59290608106E+01 0.83470236751E+01 0.12223656075E+02 0.17704747699E+02 0.24746854341E+02
 0.33118263575E+02 0.42405993336E+02 0.52023375729E+02 0.61230558971E+02 0.69190617365E+02
 0.75075331191E+02 0.78208770014E+02 0.78208768661E+02 0.65087943554E+02 0.58787758805E+02
 0.50973755467E+02 0.42405992415E+02 0.33809128774E+02 0.25798475136E+02 0.18841925662E+02
 0.13241526386E+02 0.91208926273E+01 0.64182550178E+01 0.48969520820E+01 0.41857518965E+01
 0.38545361076E+01 0.36588230482E+01 0.35928617929E+01 0.36588240461E+01 0.38545375717E+01
 0.41857529659E+01 0.48969518992E+01 0.64182530751E+01 0.91208890004E+01 0.13241521769E+02
 0.18841921180E+02 0.25798472003E+02 0.33809127889E+02 0.42405994055E+02 0.50973759162E+02
 0.58787763457E+02 0.65087947760E+02 0.69190617365E+02 0.70615894278E+02 0.69190614883E+02
 0.54189176277E+02 0.47947659999E+02 0.40702941953E+02 0.33118265164E+02 0.25798475136E+02
 0.19237382163E+02 0.13786728583E+02 0.96356267064E+01 0.67973979019E+01 0.51115019112E+01
 0.42718250749E+01 0.38857796815E+01 0.36491841989E+01 0.35295923104E+01 0.35295928893E+01
 0.36491856676E+01 0.38857813338E+01 0.42718260278E+01 0.51115014360E+01 0.67973957123E+01
 0.96356230972E+01 0.13786724369E+02 0.19237378437E+02 0.25798472916E+02 0.33118265053E+02
 0.40702943931E+02 0.47947663405E+02 0.54189180008E+02 0.58787763457E+02 0.61230558971E+02
 0.61230557904E+02 0.58787760599E+02 0.43288095060E+02 0.37492026900E+02 0.31125941042E+02
 0.24746857895E+02 0.18841925662E+02 0.13786728583E+02 0.98160985300E+01 0.70043569813E+01
 0.52597870724E+01 0.43425663254E+01 0.39115585860E+01 0.36477736094E+01 0.34883887399E+01
 0.34354410134E+01 0.34883897876E+01 0.36477752678E+01 0.39115601368E+01 0.43425670286E+01
 0.52597864378E+01 0.70043549584E+01 0.98160955497E+01 0.13786725431E+02 0.18841923232E+02
 0.24746856889E+02 0.31125941736E+02 0.37492029042E+02 0.43288097940E+02 0.47947663405E+02
 0.50973759162E+02 0.52023375729E+02 0.50973757564E+02 0.47947660729E+02 0.33126879022E+02
 0.28058524987E+02 0.22767743290E+02 0.17704752177E+02 0.13241526386E+02 0.96356267064E+01
 0.70043569813E+01 0.53127581821E+01 0.43827302222E+01 0.39286843609E+01 0.36499682258E+01
 0.34643589981E+01 0.33727169539E+01 0.33727174290E+01 0.34643602452E+01 0.36499697745E+01
 0.39286856155E+01 0.43827306770E+01 0.53127576073E+01 0.70043555167E+01 0.96356248275E+01
 0.13241524751E+02 0.17704751406E+02 0.22767743754E+02 0.28058526667E+02 0.33126881501E+02
 0.37492029042E+02 0.40702943931E+02 0.42405994055E+02 0.42405993336E+02 0.40702941990E+02
 0.37492026455E+02 0.24249724058E+02 0.20088500438E+02 0.15965251025E+02 0.12223660294E+02
 0.91208926273E+01 0.67973979019E+01 0.52597870724E+01 0.43827302222E+01 0.39347848484E+01
 0.36520801778E+01 0.34524458001E+01 0.33356499906E+01 0.32974546305E+01 0.33356507198E+01
 0.34524470079E+01 0.36520814551E+01 0.39347857808E+01 0.43827305473E+01 0.52597867879E+01
 0.67973972796E+01 0.91208921316E+01 0.12223660421E+02 0.15965252124E+02 0.20088502572E+02
 0.24249726949E+02 0.28058526667E+02 0.31125941736E+02 0.33118265053E+02 0.33809127889E+02
 0.33118263575E+02 0.31125939144E+02 0.28058523580E+02 0.17003463674E+02 0.13830262536E+02
 0.10865871704E+02 0.83470266910E+01 0.64182550178E+01 0.51115019112E+01 0.43425663254E+01
 0.39286843609E+01 0.36520801778E+01 0.34489283980E+01 0.33187534735E+01 0.32559625398E+01
 0.32559628463E+01 0.33187542927E+01 0.34489294682E+01 0.36520811823E+01 0.39286850603E+01
 0.43425666657E+01 0.51115020690E+01 0.64182553542E+01 0.83470276348E+01 0.10865873591E+02
 0.13830265464E+02 0.17003467425E+02 0.20088502572E+02 0.22767743754E+02 0.24746856889E+02
 0.25798472916E+02 0.25798472003E+02 0.24746854341E+02 0.22767740096E+02 0.20088498515E+02
 0.11541503370E+02 0.93387403585E+01 0.74237017144E+01 0.59290621845E+01 0.48969520820E+01
 0.42718250749E+01 0.39115585860E+01 0.36499682258E+01 0.34524458001E+01 0.33187534735E+01
 0.32428182596E+01 0.32183582434E+01 0.32428187566E+01 0.33187543071E+01 0.34524467201E+01
 0.36499690047E+01 0.39115591335E+01 0.42718255018E+01 0.48969526947E+01 0.59290633909E+01
 0.74237038814E+01 0.93387436592E+01 0.11541507671E+02 0.13830265464E+02 0.15965252124E+02
 0.17704751406E+02 0.18841923232E+02 0.19237378437E+02 0.18841921180E+02 0.17704747699E+02
 0.15965247450E+02 0.13830260622E+02 0.78220919515E+01 0.64745544782E+01 0.54057359412E+01
 0.46556263365E+01 0.41857518965E+01 0.38857796815E+01 0.36477736094E+01 0.34643589981E+01
 0.33356499906E+01 0.32559625398E+01 0.32183582434E+01 0.32183584604E+01 0.32559631167E+01
 0.33356507373E+01 0.34643596996E+01 0.36477741322E+01 0.38857800627E+01 0.41857523640E+01
 0.46556272594E+01 0.54057377092E+01 0.64745573508E+01 0.78220959324E+01 0.93387436592E+01
 0.10865873591E+02 0.12223660421E+02 0.13241524751E+02 0.13786725431E+02 0.13786724369E+02
 0.13241521769E+02 0.12223656075E+02 0.10865868643E+02 0.93387388893E+01 0.56133096185E+01
 0.49206085733E+01 0.44258598456E+01 0.40982806723E+01 0.38545361076E+01 0.36491841989E+01
 0.34883887399E+01 0.33727169539E+01 0.32974546305E+01 0.32559628463E+01 0.32428187566E+01
 0.32559631167E+01 0.32974550645E+01 0.33727173889E+01 0.34883890435E+01 0.36491843468E+01
 0.38545362323E+01 0.40982810465E+01 0.44258608055E+01 0.49206104078E+01 0.56133124410E+01
 0.64745573508E+01 0.74237038814E+01 0.83470276348E+01 0.91208921316E+01 0.96356248275E+01
 0.98160955497E+01 0.96356230972E+01 0.91208890004E+01 0.83470236751E+01 0.74236997639E+01
 0.64745536786E+01 0.45245135981E+01 0.42320527326E+01 0.40137326943E+01 0.38223865251E+01
 0.36588230482E+01 0.35295923104E+01 0.34354410134E+01 0.33727174290E+01 0.33356507198E+01
 0.33187542927E+01 0.33187543071E+01 0.33356507373E+01 0.33727173889E+01 0.34354408576E+01
 0.35295920317E+01 0.36588227222E+01 0.38223863143E+01 0.40137328186E+01 0.42320534000E+01
 0.45245149366E+01 0.49206104078E+01 0.54057377092E+01 0.59290633909E+01 0.64182553542E+01
 0.67973972796E+01 0.70043555167E+01 0.70043549584E+01 0.67973957123E+01 0.64182530751E+01
 0.59290608106E+01 0.54057352518E+01 0.49206084143E+01 0.40737021680E+01 0.39280142508E+01
 0.37944265338E+01 0.36812358963E+01 0.35928617929E+01 0.35295928893E+01 0.34883897876E+01
 0.34643602452E+01 0.34524470079E+01 0.34489294682E+01 0.34524467201E+01 0.34643596996E+01
 0.34883890435E+01 0.35295920317E+01 0.35928609274E+01 0.36812351387E+01 0.37944259911E+01
 0.39280140070E+01 0.40737022645E+01 0.42320534000E+01 0.44258608055E+01 0.46556272594E+01
 0.48969526947E+01 0.51115020690E+01 0.52597867879E+01 0.53127576073E+01 0.52597864378E+01
 0.51115014360E+01 0.48969518992E+01 0.46556264503E+01 0.44258601315E+01 0.42320529795E+01
 0.38463531750E+01 0.37753858276E+01 0.37197395909E+01 0.36812363266E+01 0.36588240461E+01
 0.36491856676E+01 0.36477752678E+01 0.36499697745E+01 0.36520814551E+01 0.36520811823E+01
 0.36499690047E+01 0.36477741322E+01 0.36491843468E+01 0.36588227222E+01 0.36812351387E+01
 0.37197386098E+01 0.37753850489E+01 0.38463525386E+01 0.39280140070E+01 0.40137328186E+01
 0.40982810465E+01 0.41857523640E+01 0.42718255018E+01 0.43425666657E+01 0.43827305473E+01
 0.43827306770E+01 0.43425670286E+01 0.42718260278E+01 0.41857529659E+01 0.40982816518E+01
 0.40137333964E+01 0.39280145814E+01 0.37686317618E+01 0.37753859723E+01 0.37944270680E+01
 0.38223875614E+01 0.38545375717E+01 0.38857813338E+01 0.39115601368E+01 0.39286856155E+01
 0.39347857808E+01 0.39286850603E+01 0.39115591335E+01 0.38857800627E+01 0.38545362323E+01
 0.38223863143E+01 0.37944259911E+01 0.37753850489E+01 0.37686308991E+01 0.37753850489E+01
 0.37944259911E+01 0.38223863143E+01 0.38545362323E+01 0.38857800627E+01 0.39115591335E+01
 0.39286850603E+01 0.39347857808E+01 0.39286856155E+01 0.39115601368E+01 0.38857813338E+01
 0.38545375717E+01 0.38223875614E+01 0.37944270680E+01 0.37753859723E+01 0.38463531750E+01
 0.39280145814E+01 0.40137333964E+01 0.40982816518E+01 0.41857529659E+01 0.42718260278E+01
 0.43425670286E+01 0.43827306770E+01 0.43827305473E+01 0.43425666657E+01 0.42718255018E+01
 0.41857523640E+01 0.40982810465E+01 0.40137328186E+01 0.39280140070E+01 0.38463525386E+01
 0.37753850489E+01 0.37197386098E+01 0.36812351387E+01 0.36588227222E+01 0.36491843468E+01
 0.36477741322E+01 0.36499690047E+01 0.36520811823E+01 0.36520814551E+01 0.36499697745E+01
 0.36477752678E+01 0.36491856676E+01 0.36588240461E+01 0.36812363266E+01 0.37197395909E+01
 0.37753858276E+01 0.40737021680E+01 0.42320529795E+01 0.44258601315E+01 0.46556264503E+01
 0.48969518992E+01 0.51115014360E+01 0.52597864378E+01 0.53127576073E+01 0.52597867879E+01
 0.51115020690E+01 0.48969526947E+01 0.46556272594E+01 0.44258608055E+01 0.42320534000E+01
 0.40737022645E+01 0.39280140070E+01 0.37944259911E+01 0.36812351387E+01 0.35928609274E+01
 0.35295920317E+01 0.34883890435E+01 0.34643596996E+01 0.34524467201E+01 0.34489294682E+01
 0.34524470079E+01 0.34643602452E+01 0.34883897876E+01 0.35295928893E+01 0.35928617929E+01
 0.36812358963E+01 0.37944265338E+01 0.39280142508E+01 0.45245135981E+01 0.49206084143E+01
 0.54057352518E+01 0.59290608106E+01 0.64182530751E+01 0.67973957123E+01 0.70043549584E+01
 0.70043555167E+01 0.67973972796E+01 0.64182553542E+01 0.59290633909E+01 0.54057377092E+01
 0.49206104078E+01 0.45245149366E+01 0.42320534000E+01 0.40137328186E+01 0.38223863143E+01
 0.36588227222E+01 0.35295920317E+01 0.34354408576E+01 0.33727173889E+01 0.33356507373E+01
 0.33187543071E+01 0.33187542927E+01 0.33356507198E+01 0.33727174290E+01 0.34354410134E+01
 0.35295923104E+01 0.36588230482E+01 0.38223865251E+01 0.40137326943E+01 0.42320527326E+01
 0.56133096185E+01 0.64745536786E+01 0.74236997639E+01 0.83470236751E+01 0.91208890004E+01
 0.96356230972E+01 0.98160955497E+01 0.96356248275E+01 0.91208921316E+01 0.83470276348E+01
 0.74237038814E+01 0.64745573508E+01 0.56133124410E+01 0.49206104078E+01 0.44258608055E+01
 0.40982810465E+01 0.38545362323E+01 0.36491843468E+01 0.34883890435E+01 0.33727173889E+01
 0.32974550645E+01 0.32559631167E+01 0.32428187566E+01 0.32559628463E+01 0.32974546305E+01
 0.33727169539E+01 0.34883887399E+01 0.36491841989E+01 0.38545361076E+01 0.40982806723E+01
 0.44258598456E+01 0.49206085733E+01 0.78220919515E+01 0.93387388893E+01 0.10865868643E+02
 0.12223656075E+02 0.13241521769E+02 0.13786724369E+02 0.13786725431E+02 0.13241524751E+02
 0.12223660421E+02 0.10865873591E+02 0.93387436592E+01 0.78220959324E+01 0.64745573508E+01
 0.54057377092E+01 0.46556272594E+01 0.41857523640E+01 0.38857800627E+01 0.36477741322E+01
 0.34643596996E+01 0.33356507373E+01 0.32559631167E+01 0.32183584604E+01 0.32183582434E+01
 0.32559625398E+01 0.33356499906E+01 0.34643589981E+01 0.36477736094E+01 0.38857796815E+01
 0.41857518965E+01 0.46556263365E+01 0.54057359412E+01 0.64745544782E+01 0.11541503370E+02
 0.13830260622E+02 0.15965247450E+02 0.17704747699E+02 0.18841921180E+02 0.19237378437E+02
 0.18841923232E+02 0.17704751406E+02 0.15965252124E+02 0.13830265464E+02 0.11541507671E+02
 0.93387436592E+01 0.74237038814E+01 0.59290633909E+01 0.48969526947E+01 0.42718255018E+01
 0.39115591335E+01 0.36499690047E+01 0.34524467201E+01 0.33187543071E+01 0.32428187566E+01
 0.32183582434E+01 0.32428182596E+01 0.33187534735E+01 0.34524458001E+01 0.36499682258E+01
 0.39115585860E+01 0.42718250749E+01 0.48969520820E+01 0.59290621845E+01 0.74237017144E+01
 0.93387403585E+01 0.17003463674E+02 0.20088498515E+02 0.22767740096E+02 0.24746854341E+02
 0.25798472003E+02 0.25798472916E+02 0.24746856889E+02 0.22767743754E+02 0.20088502572E+02
 0.17003467425E+02 0.13830265464E+02 0.10865873591E+02 0.83470276348E+01 0.64182553542E+01
 0.51115020690E+01 0.43425666657E+01 0.39286850603E+01 0.36520811823E+01 0.34489294682E+01
 0.33187542927E+01 0.32559628463E+01 0.32559625398E+01 0.33187534735E+01 0.34489283980E+01
 0.36520801778E+01 0.39286843609E+01 0.43425663254E+01 0.51115019112E+01 0.64182550178E+01
 0.83470266910E+01 0.10865871704E+02 0.13830262536E+02 0.24249724058E+02 0.28058523580E+02
 0.31125939144E+02 0.33118263575E+02 0.33809127889E+02 0.33118265053E+02 0.31125941736E+02
 0.28058526667E+02 0.24249726949E+02 0.20088502572E+02 0.15965252124E+02 0.12223660421E+02
 0.91208921316E+01 0.67973972796E+01 0.52597867879E+01 0.43827305473E+01 0.39347857808E+01
 0.36520814551E+01 0.34524470079E+01 0.33356507198E+01 0.32974546305E+01 0.33356499906E+01
 0.34524458001E+01 0.36520801778E+01 0.39347848484E+01 0.43827302222E+01 0.52597870724E+01
 0.67973979019E+01 0.91208926273E+01 0.12223660294E+02 0.15965251025E+02 0.20088500438E+02
 0.33126879022E+02 0.37492026455E+02 0.40702941990E+02 0.42405993336E+02 0.42405994055E+02
 0.40702943931E+02 0.37492029042E+02 0.33126881501E+02 0.28058526667E+02 0.22767743754E+02
 0.17704751406E+02 0.13241524751E+02 0.96356248275E+01 0.70043555167E+01 0.53127576073E+01
 0.43827306770E+01 0.39286856155E+01 0.36499697745E+01 0.34643602452E+01 0.33727174290E+01
 0.33727169539E+01 0.34643589981E+01 0.36499682258E+01 0.39286843609E+01 0.43827302222E+01
 0.53127581821E+01 0.70043569813E+01 0.96356267064E+01 0.13241526386E+02 0.17704752177E+02
 0.22767743290E+02 0.28058524987E+02 0.43288095060E+02 0.47947660729E+02 0.50973757564E+02
 0.52023375729E+02 0.50973759162E+02 0.47947663405E+02 0.43288097940E+02 0.37492029042E+02
 0.31125941736E+02 0.24746856889E+02 0.18841923232E+02 0.13786725431E+02 0.98160955497E+01
 0.70043549584E+01 0.52597864378E+01 0.43425670286E+01 0.39115601368E+01 0.36477752678E+01
 0.34883897876E+01 0.34354410134E+01 0.34883887399E+01 0.36477736094E+01 0.39115585860E+01
 0.43425663254E+01 0.52597870724E+01 0.70043569813E+01 0.98160985300E+01 0.13786728583E+02
 0.18841925662E+02 0.24746857895E+02 0.31125941042E+02 0.37492026900E+02 0.54189176277E+02
 0.58787760599E+02 0.61230557904E+02 0.61230558971E+02 0.58787763457E+02 0.54189180008E+02
 0.47947663405E+02 0.40702943931E+02 0.33118265053E+02 0.25798472916E+02 0.19237378437E+02
 0.13786724369E+02 0.96356230972E+01 0.67973957123E+01 0.51115014360E+01 0.42718260278E+01
 0.38857813338E+01 0.36491856676E+01 0.35295928893E+01 0.35295923104E+01 0.36491841989E+01
 0.38857796815E+01 0.42718250749E+01 0.51115019112E+01 0.67973979019E+01 0.96356267064E+01
 0.13786728583E+02 0.19237382163E+02 0.25798475136E+02 0.33118265164E+02 0.40702941953E+02
 0.47947659999E+02 0.65087943554E+02 0.69190614883E+02 0.70615894278E+02 0.69190617365E+02
 0.65087947760E+02 0.58787763457E+02 0.50973759162E+02 0.42405994055E+02 0.33809127889E+02
 0.25798472003E+02 0.18841921180E+02 0.13241521769E+02 0.91208890004E+01 0.64182530751E+01
 0.48969518992E+01 0.41857529659E+01 0.38545375717E+01 0.36588240461E+01 0.35928617929E+01
 0.36588230482E+01 0.38545361076E+01 0.41857518965E+01 0.48969520820E+01 0.64182550178E+01
 0.91208926273E+01 0.13241526386E+02 0.18841925662E+02 0.25798475136E+02 0.33809128774E+02
 0.42405992415E+02 0.50973755467E+02 0.58787758805E+02 0.75075327524E+02 0.78208768661E+02
 0.78208770014E+02 0.75075331191E+02 0.69190617365E+02 0.61230558971E+02 0.52023375729E+02
 0.42405993336E+02 0.33118263575E+02 0.24746854341E+02 0.17704747699E+02 0.12223656075E+02
 0.83470236751E+01 0.59290608106E+01 0.46556264503E+01 0.40982816518E+01 0.38223875614E+01
 0.36812363266E+01 0.36812358963E+01 0.38223865251E+01 0.40982806723E+01 0.46556263365E+01
 0.59290621845E+01 0.83470266910E+01 0.12223660294E+02 0.17704752177E+02 0.24746857895E+02
 0.33118265164E+02 0.42405992415E+02 0.52023372458E+02 0.61230554213E+02 0.69190612449E+02
 0.83166488869E+02 0.84891318547E+02 0.83166491079E+02 0.78208770014E+02 0.70615894278E+02
 0.61230557904E+02 0.50973757564E+02 0.40702941990E+02 0.31125939144E+02 0.22767740096E+02
 0.15965247450E+02 0.10865868643E+02 0.74236997639E+01 0.54057352518E+01 0.44258601315E+01
 0.40137333964E+01 0.37944270680E+01 0.37197395909E+01 0.37944265338E+01 0.40137326943E+01
 0.44258598456E+01 0.54057359412E+01 0.74237017144E+01 0.10865871704E+02 0.15965251025E+02
 0.22767743290E+02 0.31125941042E+02 0.40702941953E+02 0.50973755467E+02 0.61230554213E+02
 0.70615889945E+02 0.78208766215E+02 0.88455098316E+02 0.88455098976E+02 0.84891318547E+02
 0.78208768661E+02 0.69190614883E+02 0.58787760599E+02 0.47947660729E+02 0.37492026455E+02
 0.28058523580E+02 0.20088498515E+02 0.13830260622E+02 0.93387388893E+01 0.64745536786E+01
 0.49206084143E+01 0.42320529795E+01 0.39280145814E+01 0.37753859723E+01 0.37753858276E+01
 0.39280142508E+01 0.42320527326E+01 0.49206085733E+01 0.64745544782E+01 0.93387403585E+01
 0.13830262536E+02 0.20088500438E+02 0.28058524987E+02 0.37492026900E+02 0.47947659999E+02
 0.58787758805E+02 0.69190612449E+02 0.78208766215E+02 0.84891316748E+02 0.88455098316E+02
 0.84891316748E+02 0.78208766215E+02 0.69190612449E+02 0.58787758805E+02 0.47947659999E+02
 0.37492026900E+02 0.28058524987E+02 0.20088500438E+02 0.13830262536E+02 0.93387403585E+01
 0.64745544782E+01 0.49206085733E+01 0.42320527326E+01 0.39280142508E+01 0.37753858276E+01
 0.37753859723E+01 0.39280145814E+01 0.42320529795E+01 0.49206084143E+01 0.64745536786E+01
 0.93387388893E+01 0.13830260622E+02 0.20088498515E+02 0.28058523580E+02 0.37492026455E+02
 0.47947660729E+02 0.58787760599E+02 0.69190614883E+02 0.78208768661E+02 0.84891318547E+02
 0.88455098976E+02 0.84891316748E+02 0.79831879622E+02 0.72084748059E+02 0.62510997219E+02
 0.52050326775E+02 0.41575803488E+02 0.31806428780E+02 0.23274468253E+02 0.16321629390E+02
 0.11098794464E+02 0.75624090208E+01 0.54801030247E+01 0.44639676504E+01 0.40392413692E+01
 0.38170206564E+01 0.37412487407E+01 0.38170211787E+01 0.40392420737E+01 0.44639679972E+01
 0.54801025038E+01 0.75624073861E+01 0.11098791884E+02 0.16321626450E+02 0.23274465810E+02
 0.31806427691E+02 0.41575804328E+02 0.52050329610E+02 0.62511001534E+02 0.72084752875E+02
 0.79831883747E+02 0.84891319121E+02 0.86651726496E+02 0.78208766215E+02 0.72084748059E+02
 0.63804090256E+02 0.54229370734E+02 0.44229273106E+02 0.34568537459E+02 0.25851282045E+02
 0.18502411889E+02 0.12762299969E+02 0.86807336059E+01 0.61152503457E+01 0.47505957946E+01
 0.41519601237E+01 0.38671754666E+01 0.37219546841E+01 0.37219550890E+01 0.38671764655E+01
 0.41519611565E+01 0.47505961886E+01 0.61152496056E+01 0.86807316545E+01 0.12762297246E+02
 0.18502409262E+02 0.25851280552E+02 0.34568537968E+02 0.44229275991E+02 0.54229375699E+02
 0.63804096354E+02 0.72084753928E+02 0.78208770446E+02 0.81470521633E+02 0.81470520093E+02
 0.69190612449E+02 0.62510997219E+02 0.54229370734E+02 0.45149783267E+02 0.36034906825E+02
 0.27529137208E+02 0.20121526852E+02 0.14129922407E+02 0.96899913103E+01 0.67477983552E+01
 0.50684202974E+01 0.42746965350E+01 0.39204816964E+01 0.37164711478E+01 0.36474907766E+01
 0.37164720447E+01 0.39204830931E+01 0.42746977964E+01 0.50684208107E+01 0.67477977962E+01
 0.96899898140E+01 0.14129920577E+02 0.20121525594E+02 0.27529137433E+02 0.36034909125E+02
 0.45149787669E+02 0.54229376617E+02 0.62511003441E+02 0.69190617642E+02 0.73541987248E+02
 0.75054001618E+02 0.73541984296E+02 0.58787758805E+02 0.52050326775E+02 0.44229273106E+02
 0.36034906825E+02 0.28111617733E+02 0.20984288703E+02 0.15029012265E+02 0.10454167387E+02
 0.72869473056E+01 0.53731714749E+01 0.44033450556E+01 0.39711140779E+01 0.37215508237E+01
 0.35946373748E+01 0.35946378357E+01 0.37215520429E+01 0.39711156275E+01 0.44033464117E+01
 0.53731722278E+01 0.72869473371E+01 0.10454166944E+02 0.15029011903E+02 0.20984289102E+02
 0.28111619459E+02 0.36034910102E+02 0.44229277688E+02 0.52050331960E+02 0.58787763601E+02
 0.63752762827E+02 0.66390818390E+02 0.66390817167E+02 0.63752759439E+02 0.47947659999E+02
 0.41575803488E+02 0.34568537459E+02 0.27529137208E+02 0.20984288703E+02 0.15342514426E+02
 0.10865829637E+02 0.76494278172E+01 0.56137907695E+01 0.45198566330E+01 0.40146941955E+01
 0.37326181911E+01 0.35611400150E+01 0.35039237197E+01 0.35611406934E+01 0.37326193701E+01
 0.40146955865E+01 0.45198579465E+01 0.56137918267E+01 0.76494286242E+01 0.10865830390E+02
 0.15342515444E+02 0.20984290307E+02 0.27529139587E+02 0.34568540570E+02 0.41575807025E+02
 0.47947663444E+02 0.53067722024E+02 0.56392605276E+02 0.57545890133E+02 0.56392603747E+02
 0.53067719274E+02 0.37492026900E+02 0.31806428780E+02 0.25851282045E+02 0.20121526852E+02
 0.15029012265E+02 0.10865829637E+02 0.77771813532E+01 0.57465897072E+01 0.46017736638E+01
 0.40485512483E+01 0.37448241070E+01 0.35426031035E+01 0.34420509294E+01 0.34420511060E+01
 0.35426036138E+01 0.37448249000E+01 0.40485522602E+01 0.46017748418E+01 0.57465910269E+01
 0.77771828248E+01 0.10865831294E+02 0.15029014137E+02 0.20121528937E+02 0.25851284282E+02
 0.31806431040E+02 0.37492028995E+02 0.42379394747E+02 0.45970931247E+02 0.47875052049E+02
 0.47875051657E+02 0.45970930123E+02 0.42379393036E+02 0.28058524987E+02 0.23274468253E+02
 0.18502411889E+02 0.14129922407E+02 0.10454167387E+02 0.76494278172E+01 0.57465897072E+01
 0.46313114784E+01 0.40675229675E+01 0.37540045168E+01 0.35339513096E+01 0.34039729955E+01
 0.33612669466E+01 0.34039730142E+01 0.35339514136E+01 0.37540048176E+01 0.40675235855E+01
 0.46313125029E+01 0.57465911641E+01 0.76494296557E+01 0.10454169487E+02 0.14129924603E+02
 0.18502414006E+02 0.23274470141E+02 0.28058526539E+02 0.32418331663E+02 0.35920070079E+02
 0.38191078551E+02 0.38978059146E+02 0.38191078175E+02 0.35920069315E+02 0.32418330499E+02
 0.20088500438E+02 0.16321629390E+02 0.12762299969E+02 0.96899913103E+01 0.72869473056E+01
 0.56137907695E+01 0.46017736638E+01 0.40675229675E+01 0.37573873903E+01 0.35308582247E+01
 0.33840293175E+01 0.33127208616E+01 0.33127207724E+01 0.33840291027E+01 0.35308580261E+01
 0.37573873990E+01 0.40675233667E+01 0.46017745775E+01 0.56137922260E+01 0.72869492287E+01
 0.96899935396E+01 0.12762302296E+02 0.16321631607E+02 0.20088502375E+02 0.23721411337E+02
 0.26859375658E+02 0.29169413125E+02 0.30394576767E+02 0.30394576550E+02 0.29169412469E+02
 0.26859374554E+02 0.23721409790E+02 0.13830262536E+02 0.11098794464E+02 0.86807336059E+01
 0.67477983552E+01 0.53731714749E+01 0.45198566330E+01 0.40485512483E+01 0.37540045168E+01
 0.35308582247E+01 0.33779134656E+01 0.32903067429E+01 0.32619642723E+01 0.32903066215E+01
 0.33779132850E+01 0.35308580970E+01 0.37540045832E+01 0.40485516516E+01 0.45198574887E+01
 0.53731728483E+01 0.67478002413E+01 0.86807359275E+01 0.11098797072E+02 0.13830265228E+02
 0.16630855877E+02 0.19218616608E+02 0.21313480907E+02 0.22677544122E+02 0.23151009207E+02
 0.22677543295E+02 0.21313479335E+02 0.19218614446E+02 0.16630853333E+02 0.93387403585E+01
 0.75624090208E+01 0.61152503457E+01 0.50684202974E+01 0.44033450556E+01 0.40146941955E+01
 0.37448241070E+01 0.35339513096E+01 0.33840293175E+01 0.32903067429E+01 0.32458037785E+01
 0.32458038377E+01 0.32903069061E+01 0.33840295541E+01 0.35339515985E+01 0.37448244696E+01
 0.40146947154E+01 0.44033458727E+01 0.50684215787E+01 0.61152522259E+01 0.75624115448E+01
 0.93387434331E+01 0.11296831521E+02 0.13238263681E+02 0.14945561903E+02 0.16216134082E+02
 0.16893869092E+02 0.16893868434E+02 0.16216132212E+02 0.14945559113E+02 0.13238260379E+02
 0.11296828144E+02 0.64745544782E+01 0.54801030247E+01 0.47505957946E+01 0.42746965350E+01
 0.39711140779E+01 0.37326181911E+01 0.35426031035E+01 0.34039729955E+01 0.33127208616E+01
 0.32619642723E+01 0.32458038377E+01 0.32619646698E+01 0.33127215434E+01 0.34039737844E+01
 0.35426038391E+01 0.37326188074E+01 0.39711146537E+01 0.42746972803E+01 0.47505969928E+01
 0.54801049238E+01 0.64745571837E+01 0.76753877404E+01 0.89675849379E+01 0.10202381640E+02
 0.11224416156E+02 0.11898854053E+02 0.12134415367E+02 0.11898852503E+02 0.11224413343E+02
 0.10202378067E+02 0.89675811890E+01 0.76753843402E+01 0.49206085733E+01 0.44639676504E+01
 0.41519601237E+01 0.39204816964E+01 0.37215508237E+01 0.35611400150E+01 0.34420509294E+01
 0.33612669466E+01 0.33127207724E+01 0.32903066215E+01 0.32903069061E+01 0.33127215434E+01
 0.33612679895E+01 0.34420519798E+01 0.35611408682E+01 0.37215514175E+01 0.39204821529E+01
 0.41519607115E+01 0.44639686933E+01 0.49206103287E+01 0.55340051689E+01 0.62641426956E+01
 0.70309154696E+01 0.77330229929E+01 0.82695125323E+01 0.85599598112E+01 0.85599590705E+01
 0.82695104629E+01 0.77330200072E+01 0.70309121274E+01 0.62641395512E+01 0.55340026312E+01
 0.42320527326E+01 0.40392413692E+01 0.38671754666E+01 0.37164711478E+01 0.35946373748E+01
 0.35039237197E+01 0.34420511060E+01 0.34039730142E+01 0.33840291027E+01 0.33779132850E+01
 0.33840295541E+01 0.34039737844E+01 0.34420519798E+01 0.35039244791E+01 0.35946378849E+01
 0.37164714091E+01 0.38671756229E+01 0.40392416621E+01 0.42320534087E+01 0.44838040835E+01
 0.48118813888E+01 0.51963604772E+01 0.55897295864E+01 0.59314816961E+01 0.61639913442E+01
 0.62464006046E+01 0.61639903730E+01 0.59314799649E+01 0.55897274572E+01 0.51963583581E+01
 0.48118796231E+01 0.44838028623E+01 0.39280142508E+01 0.38170206564E+01 0.37219546841E+01
 0.36474907766E+01 0.35946378357E+01 0.35611406934E+01 0.35426036138E+01 0.35339514136E+01
 0.35308580261E+01 0.35308580970E+01 0.35339515985E+01 0.35426038391E+01 0.35611408682E+01
 0.35946378849E+01 0.36474906733E+01 0.37219544631E+01 0.38170204038E+01 0.39280140810E+01
 0.40471592742E+01 0.41721643728E+01 0.43181190475E+01 0.44829811634E+01 0.46459386809E+01
 0.47777646790E+01 0.48515922997E+01 0.48515921465E+01 0.47777642598E+01 0.46459381052E+01
 0.44829805758E+01 0.43181185855E+01 0.41721641254E+01 0.40471592602E+01 0.37753858276E+01
 0.37412487407E+01 0.37219550890E+01 0.37164720447E+01 0.37215520429E+01 0.37326193701E+01
 0.37448249000E+01 0.37540048176E+01 0.37573873990E+01 0.37540045832E+01 0.37448244696E+01
 0.37326188074E+01 0.37215514175E+01 0.37164714091E+01 0.37219544631E+01 0.37412481108E+01
 0.37753851560E+01 0.38227546259E+01 0.38793141920E+01 0.39394144999E+01 0.39972518525E+01
 0.40520745701E+01 0.41013817804E+01 0.41366337694E+01 0.41495014316E+01 0.41366341263E+01
 0.41013824372E+01 0.40520754276E+01 0.39972527971E+01 0.39394154307E+01 0.38793150445E+01
 0.38227553793E+01 0.37753859723E+01 0.38170211787E+01 0.38671764655E+01 0.39204830931E+01
 0.39711156275E+01 0.40146955865E+01 0.40485522602E+01 0.40675235855E+01 0.40675233667E+01
 0.40485516516E+01 0.40146947154E+01 0.39711146537E+01 0.39204821529E+01 0.38671756229E+01
 0.38170204038E+01 0.37753851560E+01 0.37461344133E+01 0.37308727771E+01 0.37287309423E+01
 0.37367450639E+01 0.37506720547E+01 0.37659585267E+01 0.37785888153E+01 0.37856566654E+01
 0.37856570714E+01 0.37785899566E+01 0.37659601956E+01 0.37506739700E+01 0.37367469453E+01
 0.37287325823E+01 0.37308740841E+01 0.37461354165E+01 0.39280145814E+01 0.40392420737E+01
 0.41519611565E+01 0.42746977964E+01 0.44033464117E+01 0.45198579465E+01 0.46017748418E+01
 0.46313125029E+01 0.46017745775E+01 0.45198574887E+01 0.44033458727E+01 0.42746972803E+01
 0.41519607115E+01 0.40392416621E+01 0.39280140810E+01 0.38227546259E+01 0.37308727771E+01
 0.36572351291E+01 0.36035027913E+01 0.35682937469E+01 0.35480226764E+01 0.35381062504E+01
 0.35342078331E+01 0.35332738834E+01 0.35342087500E+01 0.35381079137E+01 0.35480247905E+01
 0.35682959670E+01 0.36035048115E+01 0.36572367472E+01 0.37308739298E+01 0.38227553793E+01
 0.42320529795E+01 0.44639679972E+01 0.47505961886E+01 0.50684208107E+01 0.53731722278E+01
 0.56137918267E+01 0.57465910269E+01 0.57465911641E+01 0.56137922260E+01 0.53731728483E+01
 0.50684215787E+01 0.47505969928E+01 0.44639686933E+01 0.42320534087E+01 0.40471592742E+01
 0.38793141920E+01 0.37287309423E+01 0.36035027913E+01 0.35071392652E+01 0.34387924904E+01
 0.33945183973E+01 0.33690720040E+01 0.33577286719E+01 0.33577290542E+01 0.33690730845E+01
 0.33945199914E+01 0.34387943349E+01 0.35071410738E+01 0.36035043086E+01 0.37287319925E+01