       N       E                     dE             d eps       ncg     rms          rms(c)
DAV:   1     0.220437509964E+02    0.22044E+02   -0.35719E+03  3024   0.819E+02
DAV:   2    -0.684140058509E+01   -0.28885E+02   -0.26812E+02  3120   0.138E+02
DAV:   3    -0.752339723860E+01   -0.68200E+00   -0.68028E+00  3388   0.241E+01
DAV:   4    -0.752951660770E+01   -0.61194E-02   -0.61174E-02  3512   0.204E+00
DAV:   5    -0.752962188157E+01   -0.10527E-03   -0.10527E-03  3816   0.241E-01    0.133E+01
DAV:   6    -0.698708258864E+01    0.54254E+00   -0.88528E+00  3752   0.402E+01    0.372E+00
DAV:   7    -0.690997918693E+01    0.77103E-01   -0.70103E-01  3548   0.103E+01    0.252E+00
DAV:   8    -0.689261505690E+01    0.17364E-01   -0.15169E-02  3992   0.107E+00    0.130E+00
DAV:   9    -0.688858708185E+01    0.40280E-02   -0.26720E-03  4704   0.374E-01    0.219E-01
DAV:  10    -0.688828625489E+01    0.30083E-03   -0.92265E-05  3700   0.100E-01    0.249E-02
DAV:  11    -0.688829011832E+01   -0.38634E-05   -0.15500E-05  3684   0.376E-02    0.335E-02
DAV:  12    -0.688828680908E+01    0.33092E-05   -0.91671E-07  3136   0.127E-02    0.316E-03
DAV:  13    -0.688828669539E+01    0.11369E-06   -0.29203E-08  2108   0.179E-03
   1 F= -.68882867E+01 E0= -.68878011E+01  d E =-.688829E+01  mag=     1.5700
