PROCAR lm decomposed
# of k-points:   60         # of bands:   12         # of ions:    1

 k-point     1 :    0.06250000 0.06250000 0.06250000     weight = 0.00390625

band     1 # energy    2.66462575 # occ.  1.00000000
 
ion      s     py     pz     px    dxy    dyz    dz2    dxz  x2-y2    tot
    1  0.828  0.004  0.004  0.004  0.000  0.000  0.000  0.000  0.000  0.842
 
band     2 # energy    9.28596423 # occ.  1.00000000
 
ion      s     py     pz     px    dxy    dyz    dz2    dxz  x2-y2    tot
    1  0.000  0.001  0.001  0.001  0.327  0.327  0.000  0.327  0.000  0.983
 
band     3 # energy    9.38583187 # occ.  1.00000000
 
ion      s     py     pz     px    dxy    dyz    dz2    dxz  x2-y2    tot
    1  0.000  0.000  0.000  0.000  0.525  0.394  0.001  0.064  0.000  0.985
 
band     4 # energy    9.38583187 # occ.  1.00000000
 
ion      s     py     pz     px    dxy    dyz    dz2    dxz  x2-y2    tot
    1  0.000  0.000  0.000  0.000  0.131  0.262  0.000  0.591  0.001  0.985
 
band     5 # energy   10.66400803 # occ.  1.00000000
 
ion      s     py     pz     px    dxy    dyz    dz2    dxz  x2-y2    tot
    1  0.000  0.000  0.000  0.000  0.000  0.001  0.369  0.000  0.619  0.989
 
band     6 # energy   10.66400803 # occ.  1.00000000
 
ion      s     py     pz     px    dxy    dyz    dz2    dxz  x2-y2    tot
    1  0.000  0.000  0.000  0.000  0.001  0.000  0.619  0.000  0.369  0.989
 
band     7 # energy   36.14135119 # occ.  0.00000000
 
ion      s     py     pz     px    dxy    dyz    dz2    dxz  x2-y2    tot
    1  0.000  0.003  0.003  0.003  0.045  0.045  0.000  0.045  0.000  0.144
 
band     8 # energy   39.86081246 # occ.  0.00000000
 
ion      s     py     pz     px    dxy    dyz    dz2    dxz  x2-y2    tot
    1  0.023  0.077  0.077  0.077  0.048  0.048  0.000  0.048  0.000  0.398
 
band     9 # energy   41.52271508 # occ.  0.00000000
 
ion      s     py     pz     px    dxy    dyz    dz2    dxz  x2-y2    tot
    1  0.000  0.100  0.084  0.074  0.045  0.040  0.011  0.053  0.012  0.418
 
band    10 # energy   41.52271508 # occ.  0.00000000
 
ion      s     py     pz     px    dxy    dyz    dz2    dxz  x2-y2    tot
    1  0.000  0.072  0.088  0.098  0.047  0.052  0.012  0.038  0.011  0.418
 
band    11 # energy   45.96871728 # occ.  0.00000000
 
ion      s     py     pz     px    dxy    dyz    dz2    dxz  x2-y2    tot
    1  0.000  0.000  0.000  0.001  0.432  0.605  0.003  0.375  0.004  1.421
 
band    12 # energy   45.96903468 # occ.  0.00000000
 
ion      s     py     pz     px    dxy    dyz    dz2    dxz  x2-y2    tot
    1  0.000  0.001  0.000  0.000  0.492  0.323  0.004  0.597  0.003  1.421
 

 k-point     2 :    0.18750000 0.06250000 0.06250000     weight = 0.01171875

band     1 # energy    3.54305563 # occ.  1.00000000
 
ion      s     py     pz     px    dxy    dyz    dz2    dxz  x2-y2    tot
    1  0.757  0.037  0.037  0.004  0.001  0.006  0.000  0.001  0.001  0.844
 
band     2 # energy    9.02160689 # occ.  1.00000000
 
ion      s     py     pz     px    dxy    dyz    dz2    dxz  x2-y2    tot
    1  0.001  0.001  0.001  0.009  0.465  0.034  0.000  0.465  0.000  0.976
 
band     3 # energy    9.57879499 # occ.  1.00000000
 
ion      s     py     pz     px    dxy    dyz    dz2    dxz  x2-y2    tot
    1  0.001  0.003  0.003  0.000  0.017  0.855  0.022  0.017  0.065  0.982
 
band     4 # energy    9.58338012 # occ.  1.00000000
 
ion      s     py     pz     px    dxy    dyz    dz2    dxz  x2-y2    tot
    1  0.000  0.000  0.000  0.000  0.481  0.000  0.016  0.481  0.005  0.983
 
band     5 # energy   10.46902129 # occ.  1.00000000
 
ion      s     py     pz     px    dxy    dyz    dz2    dxz  x2-y2    tot
    1  0.000  0.000  0.000  0.000  0.010  0.000  0.722  0.010  0.241  0.984
 
band     6 # energy   10.76934457 # occ.  1.00000000
 
ion      s     py     pz     px    dxy    dyz    dz2    dxz  x2-y2    tot
    1  0.001  0.001  0.001  0.000  0.002  0.082  0.225  0.002  0.675  0.987
 
band     7 # energy   33.77250675 # occ.  0.00000000
 
ion      s     py     pz     px    dxy    dyz    dz2    dxz  x2-y2    tot
    1  0.022  0.038  0.038  0.105  0.213  0.091  0.001  0.213  0.002  0.722
 
band     8 # energy   36.46965515 # occ.  0.00000000
 
ion      s     py     pz     px    dxy    dyz    dz2    dxz  x2-y2    tot
    1  0.042  0.070  0.070  0.013  0.050  0.144  0.008  0.050  0.024  0.472
 
band     9 # energy   40.21450204 # occ.  0.00000000
 
ion      s     py     pz     px    dxy    dyz    dz2    dxz  x2-y2    tot
    1  0.000  0.008  0.008  0.230  0.029  0.088  0.002  0.029  0.007  0.403
 
band    10 # energy   42.61177700 # occ.  0.00000000
 
ion      s     py     pz     px    dxy    dyz    dz2    dxz  x2-y2    tot
    1  0.000  0.083  0.083  0.000  0.083  0.000  0.179  0.083  0.060  0.570
 
band    11 # energy   44.43289412 # occ.  0.00000000
 
ion      s     py     pz     px    dxy    dyz    dz2    dxz  x2-y2    tot
    1  0.000  0.069  0.069  0.009  0.000  0.394  0.012  0.000  0.035  0.587
 
band    12 # energy   46.03033171 # occ.  0.00000000
 
ion      s     py     pz     px    dxy    dyz    dz2    dxz  x2-y2    tot
    1  0.000  0.005  0.005  0.000  0.597  0.000  0.075  0.597  0.025  1.304
 

 k-point     3 :    0.31250000 0.06250000 0.06250000     weight = 0.01171875

band     1 # energy    5.33483483 # occ.  1.00000000
 
ion      s     py     pz     px    dxy    dyz    dz2    dxz  x2-y2    tot
    1  0.560  0.070  0.070  0.019  0.038  0.064  0.001  0.038  0.003  0.864
 
band     2 # energy    8.88832262 # occ.  1.00000000
 
ion      s     py     pz     px    dxy    dyz    dz2    dxz  x2-y2    tot
    1  0.029  0.030  0.030  0.043  0.378  0.057  0.001  0.378  0.002  0.948
 
band     3 # energy    9.51495431 # occ.  1.00000000
 
ion      s     py     pz     px    dxy    dyz    dz2    dxz  x2-y2    tot
    1  0.000  0.004  0.004  0.000  0.035  0.483  0.104  0.035  0.311  0.977
 
band     4 # energy    9.60728918 # occ.  1.00000000
 
ion      s     py     pz     px    dxy    dyz    dz2    dxz  x2-y2    tot
    1  0.000  0.000  0.000  0.000  0.276  0.000  0.320  0.276  0.107  0.979
 
band     5 # energy   10.71669174 # occ.  1.00000000
 
ion      s     py     pz     px    dxy    dyz    dz2    dxz  x2-y2    tot
    1  0.000  0.001  0.001  0.000  0.215  0.000  0.413  0.215  0.138  0.981
 
band     6 # energy   11.24891899 # occ.  1.00000000
 
ion      s     py     pz     px    dxy    dyz    dz2    dxz  x2-y2    tot
    1  0.011  0.007  0.007  0.000  0.017  0.364  0.140  0.017  0.421  0.984
 
band     7 # energy   27.54201971 # occ.  0.00000000
 
ion      s     py     pz     px    dxy    dyz    dz2    dxz  x2-y2    tot
    1  0.123  0.078  0.078  0.137  0.168  0.134  0.001  0.168  0.004  0.891
 
band     8 # energy   35.24997314 # occ.  0.00000000
 
ion      s     py     pz     px    dxy    dyz    dz2    dxz  x2-y2    tot
    1  0.024  0.017  0.017  0.086  0.114  0.051  0.018  0.114  0.055  0.496
 
band     9 # energy   39.18875050 # occ.  0.00000000
 
ion      s     py     pz     px    dxy    dyz    dz2    dxz  x2-y2    tot
    1  0.002  0.074  0.074  0.151  0.013  0.198  0.004  0.013  0.011  0.540
 
band    10 # energy   42.47198484 # occ.  0.00000000
 
ion      s     py     pz     px    dxy    dyz    dz2    dxz  x2-y2    tot
    1  0.000  0.087  0.087  0.000  0.275  0.000  0.223  0.275  0.074  1.023
 
band    11 # energy   43.67756266 # occ.  0.00000000
 
ion      s     py     pz     px    dxy    dyz    dz2    dxz  x2-y2    tot
    1  0.000  0.131  0.131  0.000  0.026  0.000  0.426  0.026  0.142  0.882
 
band    12 # energy   44.42873642 # occ.  0.00000000
 
ion      s     py     pz     px    dxy    dyz    dz2    dxz  x2-y2    tot
    1  0.108  0.058  0.058  0.011  0.010  0.008  0.071  0.010  0.214  0.547
 

 k-point     4 :    0.43750000 0.06250000 0.06250000     weight = 0.01171875

band     1 # energy    6.42230863 # occ.  1.00000000
 
ion      s     py     pz     px    dxy    dyz    dz2    dxz  x2-y2    tot
    1  0.255  0.023  0.023  0.002  0.203  0.220  0.000  0.203  0.001  0.932
 
band     2 # energy    9.23501146 # occ.  1.00000000
 
ion      s     py     pz     px    dxy    dyz    dz2    dxz  x2-y2    tot
    1  0.000  0.004  0.004  0.000  0.045  0.291  0.146  0.045  0.437  0.972
 
band     3 # energy    9.35832228 # occ.  1.00000000
 
ion      s     py     pz     px    dxy    dyz    dz2    dxz  x2-y2    tot
    1  0.000  0.000  0.000  0.000  0.189  0.000  0.448  0.189  0.149  0.976
 
band     4 # energy   10.12505432 # occ.  1.00000000
 
ion      s     py     pz     px    dxy    dyz    dz2    dxz  x2-y2    tot
    1  0.067  0.126  0.126  0.126  0.179  0.022  0.016  0.179  0.049  0.890
 
band     5 # energy   11.39201905 # occ.  1.00000000
 
ion      s     py     pz     px    dxy    dyz    dz2    dxz  x2-y2    tot
    1  0.000  0.001  0.001  0.000  0.303  0.000  0.284  0.303  0.095  0.987
 
band     6 # energy   12.14522879 # occ.  0.98695464
 
ion      s     py     pz     px    dxy    dyz    dz2    dxz  x2-y2    tot
    1  0.040  0.054  0.054  0.032  0.014  0.422  0.083  0.014  0.248  0.959
 
band     7 # energy   21.94765382 # occ.  0.00000000
 
ion      s     py     pz     px    dxy    dyz    dz2    dxz  x2-y2    tot
    1  0.303  0.046  0.046  0.101  0.159  0.130  0.001  0.159  0.002  0.946
 
band     8 # energy   34.51819144 # occ.  0.00000000
 
ion      s     py     pz     px    dxy    dyz    dz2    dxz  x2-y2    tot
    1  0.009  0.001  0.001  0.082  0.055  0.030  0.026  0.055  0.077  0.335
 
band     9 # energy   38.04547961 # occ.  0.00000000
 
ion      s     py     pz     px    dxy    dyz    dz2    dxz  x2-y2    tot
    1  0.019  0.106  0.106  0.214  0.028  0.052  0.009  0.028  0.028  0.590
 
band    10 # energy   40.27432660 # occ.  0.00000000
 
ion      s     py     pz     px    dxy    dyz    dz2    dxz  x2-y2    tot
    1  0.000  0.241  0.241  0.000  0.001  0.000  0.192  0.001  0.064  0.739
 
band    11 # energy   42.73118692 # occ.  0.00000000
 
ion      s     py     pz     px    dxy    dyz    dz2    dxz  x2-y2    tot
    1  0.000  0.034  0.034  0.000  0.248  0.000  0.481  0.248  0.160  1.206
 
band    12 # energy   44.30912575 # occ.  0.00000000
 
ion      s     py     pz     px    dxy    dyz    dz2    dxz  x2-y2    tot
    1  0.091  0.017  0.017  0.013  0.000  0.234  0.158  0.000  0.474  1.004
 

 k-point     5 :   -0.43750000 0.06250000 0.06250000     weight = 0.01171875

band     1 # energy    6.51938754 # occ.  1.00000000
 
ion      s     py     pz     px    dxy    dyz    dz2    dxz  x2-y2    tot
    1  0.187  0.000  0.000  0.008  0.244  0.266  0.000  0.244  0.000  0.949
 
band     2 # energy    9.11791034 # occ.  1.00000000
 
ion      s     py     pz     px    dxy    dyz    dz2    dxz  x2-y2    tot
    1  0.000  0.003  0.003  0.000  0.064  0.201  0.159  0.064  0.476  0.970
 
band     3 # energy    9.29355740 # occ.  1.00000000
 
ion      s     py     pz     px    dxy    dyz    dz2    dxz  x2-y2    tot
    1  0.000  0.001  0.001  0.000  0.187  0.000  0.452  0.187  0.151  0.976
 
band     4 # energy   10.80645638 # occ.  1.00000000
 
ion      s     py     pz     px    dxy    dyz    dz2    dxz  x2-y2    tot
    1  0.003  0.106  0.106  0.105  0.056  0.329  0.039  0.056  0.116  0.915
 
band     5 # energy   11.73976435 # occ.  1.00000000
 
ion      s     py     pz     px    dxy    dyz    dz2    dxz  x2-y2    tot
    1  0.000  0.000  0.000  0.000  0.308  0.000  0.283  0.308  0.094  0.992
 
band     6 # energy   12.88813824 # occ.  0.00000000
 
ion      s     py     pz     px    dxy    dyz    dz2    dxz  x2-y2    tot
    1  0.006  0.147  0.147  0.166  0.060  0.113  0.048  0.060  0.144  0.891
 
band     7 # energy   19.74123159 # occ.  0.00000000
 
ion      s     py     pz     px    dxy    dyz    dz2    dxz  x2-y2    tot
    1  0.453  0.011  0.011  0.000  0.163  0.177  0.000  0.163  0.000  0.978
 
band     8 # energy   34.43970236 # occ.  0.00000000
 
ion      s     py     pz     px    dxy    dyz    dz2    dxz  x2-y2    tot
    1  0.000  0.003  0.003  0.037  0.008  0.044  0.026  0.008  0.078  0.208
 
band     9 # energy   38.23997479 # occ.  0.00000000
 
ion      s     py     pz     px    dxy    dyz    dz2    dxz  x2-y2    tot
    1  0.000  0.244  0.244  0.000  0.045  0.000  0.148  0.045  0.049  0.776
 
band    10 # energy   38.40162343 # occ.  0.00000000
 
ion      s     py     pz     px    dxy    dyz    dz2    dxz  x2-y2    tot
    1  0.039  0.087  0.087  0.312  0.018  0.002  0.024  0.018  0.072  0.658
 
band    11 # energy   43.57092644 # occ.  0.00000000
 
ion      s     py     pz     px    dxy    dyz    dz2    dxz  x2-y2    tot
    1  0.020  0.004  0.004  0.029  0.033  0.326  0.172  0.033  0.516  1.138
 
band    12 # energy   43.61478220 # occ.  0.00000000
 
ion      s     py     pz     px    dxy    dyz    dz2    dxz  x2-y2    tot
    1  0.000  0.051  0.051  0.000  0.168  0.000  0.509  0.168  0.170  1.116
 

 k-point     6 :   -0.31250000 0.06250000 0.06250000     weight = 0.01171875

band     1 # energy    6.23177021 # occ.  1.00000000
 
ion      s     py     pz     px    dxy    dyz    dz2    dxz  x2-y2    tot
    1  0.339  0.016  0.016  0.059  0.156  0.162  0.002  0.156  0.005  0.911
 
band     2 # energy    9.27813734 # occ.  1.00000000
 
ion      s     py     pz     px    dxy    dyz    dz2    dxz  x2-y2    tot
    1  0.003  0.010  0.010  0.008  0.120  0.075  0.155  0.120  0.464  0.964
 
band     3 # energy    9.46656946 # occ.  1.00000000
 
ion      s     py     pz     px    dxy    dyz    dz2    dxz  x2-y2    tot
    1  0.000  0.001  0.001  0.000  0.230  0.000  0.387  0.230  0.129  0.978
 
band     4 # energy    9.52729595 # occ.  1.00000000
 
ion      s     py     pz     px    dxy    dyz    dz2    dxz  x2-y2    tot
    1  0.077  0.087  0.087  0.091  0.008  0.554  0.000  0.008  0.000  0.913
 
band     5 # energy   11.48862862 # occ.  1.00000000
 
ion      s     py     pz     px    dxy    dyz    dz2    dxz  x2-y2    tot
    1  0.000  0.001  0.001  0.000  0.261  0.000  0.349  0.261  0.116  0.989
 
band     6 # energy   11.53207032 # occ.  1.00000000
 
ion      s     py     pz     px    dxy    dyz    dz2    dxz  x2-y2    tot
    1  0.032  0.017  0.017  0.041  0.181  0.150  0.087  0.181  0.262  0.969
 
band     7 # energy   23.63726052 # occ.  0.00000000
 
ion      s     py     pz     px    dxy    dyz    dz2    dxz  x2-y2    tot
    1  0.231  0.102  0.102  0.049  0.136  0.169  0.001  0.136  0.003  0.928
 
band     8 # energy   35.21047112 # occ.  0.00000000
 
ion      s     py     pz     px    dxy    dyz    dz2    dxz  x2-y2    tot
    1  0.005  0.007  0.007  0.005  0.000  0.108  0.022  0.000  0.067  0.222
 
band     9 # energy   37.67253224 # occ.  0.00000000
 
ion      s     py     pz     px    dxy    dyz    dz2    dxz  x2-y2    tot
    1  0.000  0.221  0.221  0.000  0.153  0.000  0.099  0.153  0.033  0.881
 
band    10 # energy   40.35240631 # occ.  0.00000000
 
ion      s     py     pz     px    dxy    dyz    dz2    dxz  x2-y2    tot
    1  0.055  0.039  0.039  0.365  0.000  0.102  0.038  0.000  0.115  0.753
 
band    11 # energy   43.29811454 # occ.  0.00000000
 
ion      s     py     pz     px    dxy    dyz    dz2    dxz  x2-y2    tot
    1  0.000  0.004  0.004  0.021  0.077  0.235  0.159  0.077  0.478  1.055
 
band    12 # energy   45.36763414 # occ.  0.00000000
 
ion      s     py     pz     px    dxy    dyz    dz2    dxz  x2-y2    tot
    1  0.000  0.060  0.060  0.000  0.043  0.000  0.514  0.043  0.171  0.890
 

 k-point     7 :   -0.18750000 0.06250000 0.06250000     weight = 0.01171875

band     1 # energy    4.70339853 # occ.  1.00000000
 
ion      s     py     pz     px    dxy    dyz    dz2    dxz  x2-y2    tot
    1  0.644  0.029  0.029  0.088  0.022  0.013  0.001  0.022  0.004  0.852
 
band     2 # energy    8.82751910 # occ.  1.00000000
 
ion      s     py     pz     px    dxy    dyz    dz2    dxz  x2-y2    tot
    1  0.011  0.018  0.018  0.012  0.136  0.628  0.000  0.136  0.001  0.962
 
band     3 # energy    9.59223730 # occ.  1.00000000
 
ion      s     py     pz     px    dxy    dyz    dz2    dxz  x2-y2    tot
    1  0.000  0.001  0.001  0.001  0.200  0.221  0.088  0.200  0.265  0.978
 
band     4 # energy    9.66383645 # occ.  1.00000000
 
ion      s     py     pz     px    dxy    dyz    dz2    dxz  x2-y2    tot
    1  0.000  0.002  0.002  0.000  0.362  0.000  0.189  0.362  0.063  0.981
 
band     5 # energy   10.63265890 # occ.  1.00000000
 
ion      s     py     pz     px    dxy    dyz    dz2    dxz  x2-y2    tot
    1  0.007  0.001  0.001  0.007  0.121  0.103  0.154  0.121  0.463  0.980
 
band     6 # energy   10.95682448 # occ.  1.00000000
 
ion      s     py     pz     px    dxy    dyz    dz2    dxz  x2-y2    tot
    1  0.000  0.001  0.001  0.000  0.126  0.000  0.549  0.126  0.183  0.986
 
band     7 # energy   29.63415718 # occ.  0.00000000
 
ion      s     py     pz     px    dxy    dyz    dz2    dxz  x2-y2    tot
    1  0.084  0.111  0.111  0.059  0.150  0.191  0.001  0.150  0.004  0.861
 
band     8 # energy   36.44868637 # occ.  0.00000000
 
ion      s     py     pz     px    dxy    dyz    dz2    dxz  x2-y2    tot
    1  0.024  0.001  0.001  0.007  0.001  0.182  0.015  0.001  0.045  0.277
 
band     9 # energy   38.22783375 # occ.  0.00000000
 
ion      s     py     pz     px    dxy    dyz    dz2    dxz  x2-y2    tot
    1  0.000  0.186  0.186  0.000  0.233  0.000  0.054  0.233  0.018  0.910
 
band    10 # energy   42.70889395 # occ.  0.00000000
 
ion      s     py     pz     px    dxy    dyz    dz2    dxz  x2-y2    tot
    1  0.023  0.023  0.023  0.040  0.000  0.004  0.120  0.000  0.361  0.596
 
band    11 # energy   43.28877002 # occ.  0.00000000
 
ion      s     py     pz     px    dxy    dyz    dz2    dxz  x2-y2    tot
    1  0.024  0.017  0.017  0.274  0.098  0.339  0.002  0.098  0.006  0.875
 
band    12 # energy   47.55602884 # occ.  0.00000000
 
ion      s     py     pz     px    dxy    dyz    dz2    dxz  x2-y2    tot
    1  0.000  0.035  0.035  0.000  0.028  0.000  0.367  0.028  0.122  0.615
 

 k-point     8 :   -0.06250000 0.06250000 0.06250000     weight = 0.01171875

band     1 # energy    3.11235363 # occ.  1.00000000
 
ion      s     py     pz     px    dxy    dyz    dz2    dxz  x2-y2    tot
    1  0.793  0.004  0.004  0.039  0.001  0.000  0.000  0.001  0.001  0.842
 
band     2 # energy    9.10849737 # occ.  1.00000000
 
ion      s     py     pz     px    dxy    dyz    dz2    dxz  x2-y2    tot
    1  0.000  0.001  0.001  0.000  0.059  0.859  0.000  0.059  0.000  0.980
 
band     3 # energy    9.51875962 # occ.  1.00000000
 
ion      s     py     pz     px    dxy    dyz    dz2    dxz  x2-y2    tot
    1  0.000  0.001  0.001  0.001  0.426  0.119  0.002  0.426  0.007  0.983
 
band     4 # energy    9.52418046 # occ.  1.00000000
 
ion      s     py     pz     px    dxy    dyz    dz2    dxz  x2-y2    tot
    1  0.000  0.002  0.002  0.000  0.484  0.000  0.009  0.484  0.003  0.984
 
band     5 # energy   10.49485534 # occ.  1.00000000
 
ion      s     py     pz     px    dxy    dyz    dz2    dxz  x2-y2    tot
    1  0.001  0.000  0.000  0.000  0.004  0.001  0.244  0.004  0.731  0.985
 
band     6 # energy   10.74471464 # occ.  1.00000000
 
ion      s     py     pz     px    dxy    dyz    dz2    dxz  x2-y2    tot
    1  0.000  0.000  0.000  0.000  0.006  0.000  0.733  0.006  0.244  0.989
 
band     7 # energy   35.38266749 # occ.  0.00000000
 
ion      s     py     pz     px    dxy    dyz    dz2    dxz  x2-y2    tot
    1  0.004  0.030  0.030  0.008  0.069  0.259  0.000  0.069  0.001  0.472
 
band     8 # energy   38.06435390 # occ.  0.00000000
 
ion      s     py     pz     px    dxy    dyz    dz2    dxz  x2-y2    tot
    1  0.038  0.049  0.049  0.066  0.059  0.015  0.008  0.059  0.024  0.367
 
band     9 # energy   39.59027590 # occ.  0.00000000
 
ion      s     py     pz     px    dxy    dyz    dz2    dxz  x2-y2    tot
    1  0.000  0.156  0.156  0.000  0.216  0.000  0.010  0.216  0.003  0.757
 
band    10 # energy   41.24368775 # occ.  0.00000000
 
ion      s     py     pz     px    dxy    dyz    dz2    dxz  x2-y2    tot
    1  0.008  0.079  0.079  0.036  0.044  0.007  0.029  0.044  0.088  0.413
 
band    11 # energy   45.83338647 # occ.  0.00000000
 
ion      s     py     pz     px    dxy    dyz    dz2    dxz  x2-y2    tot
    1  0.001  0.000  0.000  0.065  0.307  0.456  0.000  0.307  0.000  1.136
 
band    12 # energy   47.51831891 # occ.  0.00000000
 
ion      s     py     pz     px    dxy    dyz    dz2    dxz  x2-y2    tot
    1  0.000  0.000  0.000  0.000  0.399  0.000  0.027  0.399  0.009  0.834
 

 k-point     9 :    0.18750000 0.18750000 0.06250000     weight = 0.01171875

band     1 # energy    3.95879136 # occ.  1.00000000
 
ion      s     py     pz     px    dxy    dyz    dz2    dxz  x2-y2    tot
    1  0.719  0.004  0.101  0.004  0.000  0.002  0.013  0.002  0.000  0.844
 
band     2 # energy    8.76772321 # occ.  1.00000000
 
ion      s     py     pz     px    dxy    dyz    dz2    dxz  x2-y2    tot
    1  0.000  0.002  0.000  0.002  0.933  0.019  0.000  0.019  0.000  0.974
 
band     3 # energy    9.75747887 # occ.  1.00000000
 
ion      s     py     pz     px    dxy    dyz    dz2    dxz  x2-y2    tot
    1  0.000  0.003  0.000  0.003  0.036  0.403  0.130  0.403  0.000  0.980
 
band     4 # energy    9.79373825 # occ.  1.00000000
 
ion      s     py     pz     px    dxy    dyz    dz2    dxz  x2-y2    tot
    1  0.000  0.004  0.000  0.004  0.000  0.470  0.000  0.470  0.034  0.982
 
band     5 # energy   10.26311511 # occ.  1.00000000
 
ion      s     py     pz     px    dxy    dyz    dz2    dxz  x2-y2    tot
    1  0.009  0.001  0.005  0.001  0.005  0.062  0.834  0.062  0.000  0.978
 
band     6 # energy   10.89522709 # occ.  1.00000000
 
ion      s     py     pz     px    dxy    dyz    dz2    dxz  x2-y2    tot
    1  0.000  0.000  0.000  0.000  0.000  0.017  0.000  0.017  0.955  0.989
 
band     7 # energy   34.11355549 # occ.  0.00000000
 
ion      s     py     pz     px    dxy    dyz    dz2    dxz  x2-y2    tot
    1  0.016  0.084  0.012  0.084  0.326  0.107  0.013  0.107  0.000  0.747
 
band     8 # energy   36.46720589 # occ.  0.00000000
 
ion      s     py     pz     px    dxy    dyz    dz2    dxz  x2-y2    tot
    1  0.033  0.020  0.017  0.020  0.190  0.023  0.118  0.023  0.000  0.446
 
band     9 # energy   37.21908034 # occ.  0.00000000
 
ion      s     py     pz     px    dxy    dyz    dz2    dxz  x2-y2    tot
    1  0.000  0.195  0.000  0.195  0.000  0.228  0.000  0.228  0.009  0.855
 
band    10 # energy   39.18175740 # occ.  0.00000000
 
ion      s     py     pz     px    dxy    dyz    dz2    dxz  x2-y2    tot
    1  0.002  0.083  0.001  0.083  0.040  0.081  0.211  0.081  0.000  0.581
 
band    11 # energy   46.21673554 # occ.  0.00000000
 
ion      s     py     pz     px    dxy    dyz    dz2    dxz  x2-y2    tot
    1  0.799  0.012  0.496  0.012  0.022  0.001  0.133  0.001  0.000  1.477
 
band    12 # energy   48.06775123 # occ.  0.00000000
 
ion      s     py     pz     px    dxy    dyz    dz2    dxz  x2-y2    tot
    1  0.633  0.001  0.001  0.001  0.362  0.169  0.086  0.169  0.000  1.422
 

 k-point    10 :    0.31250000 0.18750000 0.06250000     weight = 0.02343750

band     1 # energy    5.40950287 # occ.  1.00000000
 
ion      s     py     pz     px    dxy    dyz    dz2    dxz  x2-y2    tot
    1  0.560  0.028  0.161  0.003  0.003  0.032  0.060  0.005  0.001  0.853
 
band     2 # energy    8.40016000 # occ.  1.00000000
 
ion      s     py     pz     px    dxy    dyz    dz2    dxz  x2-y2    tot
    1  0.001  0.003  0.002  0.015  0.860  0.006  0.003  0.076  0.000  0.967
 
band     3 # energy    9.49834310 # occ.  1.00000000
 
ion      s     py     pz     px    dxy    dyz    dz2    dxz  x2-y2    tot
    1  0.008  0.005  0.002  0.000  0.018  0.357  0.526  0.016  0.037  0.970
 
band     4 # energy   10.11171551 # occ.  1.00000000
 
ion      s     py     pz     px    dxy    dyz    dz2    dxz  x2-y2    tot
    1  0.002  0.003  0.002  0.006  0.045  0.119  0.047  0.580  0.176  0.980
 
band     5 # energy   10.58211978 # occ.  1.00000000
 
ion      s     py     pz     px    dxy    dyz    dz2    dxz  x2-y2    tot
    1  0.019  0.005  0.018  0.004  0.035  0.122  0.267  0.283  0.224  0.976
 
band     6 # energy   11.34786821 # occ.  1.00000000
 
ion      s     py     pz     px    dxy    dyz    dz2    dxz  x2-y2    tot
    1  0.015  0.006  0.010  0.000  0.001  0.334  0.067  0.004  0.550  0.986
 
band     7 # energy   30.21055999 # occ.  0.00000000
 
ion      s     py     pz     px    dxy    dyz    dz2    dxz  x2-y2    tot
    1  0.055  0.104  0.017  0.189  0.227  0.099  0.027  0.147  0.004  0.869
 
band     8 # energy   32.89195669 # occ.  0.00000000
 
ion      s     py     pz     px    dxy    dyz    dz2    dxz  x2-y2    tot
    1  0.036  0.125  0.006  0.127  0.146  0.127  0.082  0.089  0.022  0.760
 
band     9 # energy   36.80873073 # occ.  0.00000000
 
ion      s     py     pz     px    dxy    dyz    dz2    dxz  x2-y2    tot
    1  0.011  0.095  0.085  0.035  0.030  0.060  0.341  0.028  0.009  0.695
 
band    10 # energy   38.98520153 # occ.  0.00000000
 
ion      s     py     pz     px    dxy    dyz    dz2    dxz  x2-y2    tot
    1  0.025  0.000  0.062  0.110  0.333  0.000  0.082  0.080  0.000  0.693
 
band    11 # energy   44.93728339 # occ.  0.00000000
 
ion      s     py     pz     px    dxy    dyz    dz2    dxz  x2-y2    tot
    1  0.469  0.171  0.323  0.020  0.007  0.061  0.020  0.004  0.000  1.075
 
band    12 # energy   47.72180577 # occ.  0.00000000
 
ion      s     py     pz     px    dxy    dyz    dz2    dxz  x2-y2    tot
    1  0.324  0.025  0.017  0.001  0.067  0.014  0.211  0.027  0.161  0.846
 

 k-point    11 :    0.43750000 0.18750000 0.06250000     weight = 0.02343750

band     1 # energy    6.79047870 # occ.  1.00000000
 
ion      s     py     pz     px    dxy    dyz    dz2    dxz  x2-y2    tot
    1  0.265  0.021  0.108  0.001  0.184  0.145  0.094  0.090  0.001  0.909
 
band     2 # energy    8.55197625 # occ.  1.00000000
 
ion      s     py     pz     px    dxy    dyz    dz2    dxz  x2-y2    tot
    1  0.017  0.051  0.031  0.050  0.341  0.025  0.342  0.060  0.012  0.930
 
band     3 # energy    9.12754249 # occ.  1.00000000
 
ion      s     py     pz     px    dxy    dyz    dz2    dxz  x2-y2    tot
    1  0.032  0.001  0.029  0.009  0.315  0.285  0.245  0.007  0.042  0.966
 
band     4 # energy    9.92437683 # occ.  1.00000000
 
ion      s     py     pz     px    dxy    dyz    dz2    dxz  x2-y2    tot
    1  0.003  0.005  0.007  0.002  0.038  0.077  0.051  0.303  0.489  0.975
 
band     5 # energy   11.44255435 # occ.  1.00000000
 
ion      s     py     pz     px    dxy    dyz    dz2    dxz  x2-y2    tot
    1  0.004  0.001  0.010  0.005  0.038  0.056  0.058  0.466  0.345  0.985
 
band     6 # energy   12.71697125 # occ.  0.00000000
 
ion      s     py     pz     px    dxy    dyz    dz2    dxz  x2-y2    tot
    1  0.090  0.039  0.102  0.020  0.017  0.388  0.179  0.028  0.092  0.956
 
band     7 # energy   24.14280248 # occ.  0.00000000
 
ion      s     py     pz     px    dxy    dyz    dz2    dxz  x2-y2    tot
    1  0.189  0.107  0.018  0.183  0.190  0.091  0.018  0.115  0.004  0.916
 
band     8 # energy   32.15138010 # occ.  0.00000000
 
ion      s     py     pz     px    dxy    dyz    dz2    dxz  x2-y2    tot
    1  0.011  0.081  0.007  0.147  0.130  0.076  0.179  0.041  0.061  0.732
 
band     9 # energy   34.50836682 # occ.  0.00000000
 
ion      s     py     pz     px    dxy    dyz    dz2    dxz  x2-y2    tot
    1  0.072  0.047  0.200  0.103  0.000  0.006  0.248  0.055  0.041  0.772
 
band    10 # energy   38.76352021 # occ.  0.00000000
 
ion      s     py     pz     px    dxy    dyz    dz2    dxz  x2-y2    tot
    1  0.069  0.130  0.115  0.027  0.264  0.025  0.022  0.018  0.008  0.676
 
band    11 # energy   45.79761575 # occ.  0.00000000
 
ion      s     py     pz     px    dxy    dyz    dz2    dxz  x2-y2    tot
    1  0.052  0.096  0.001  0.002  0.223  0.017  0.152  0.051  0.239  0.834
 
band    12 # energy   48.22590177 # occ.  0.00000000
 
ion      s     py     pz     px    dxy    dyz    dz2    dxz  x2-y2    tot
    1  3.266  0.062  0.044  0.023  0.007  0.005  0.106  0.000  0.000  3.515
 

 k-point    12 :   -0.43750000 0.18750000 0.06250000     weight = 0.02343750

band     1 # energy    7.06258537 # occ.  1.00000000
 
ion      s     py     pz     px    dxy    dyz    dz2    dxz  x2-y2    tot
    1  0.136  0.000  0.030  0.012  0.348  0.242  0.010  0.171  0.000  0.950
 
band     2 # energy    8.58825864 # occ.  1.00000000
 
ion      s     py     pz     px    dxy    dyz    dz2    dxz  x2-y2    tot
    1  0.000  0.038  0.004  0.017  0.029  0.076  0.686  0.012  0.075  0.937
 
band     3 # energy    9.63950978 # occ.  1.00000000
 
ion      s     py     pz     px    dxy    dyz    dz2    dxz  x2-y2    tot
    1  0.003  0.043  0.062  0.069  0.303  0.333  0.058  0.005  0.071  0.947
 
band     4 # energy    9.73560448 # occ.  1.00000000
 
ion      s     py     pz     px    dxy    dyz    dz2    dxz  x2-y2    tot
    1  0.001  0.015  0.026  0.002  0.120  0.001  0.029  0.258  0.517  0.969
 
band     5 # energy   11.69213036 # occ.  1.00000000
 
ion      s     py     pz     px    dxy    dyz    dz2    dxz  x2-y2    tot
    1  0.000  0.000  0.000  0.000  0.037  0.170  0.031  0.463  0.289  0.991
 
band     6 # energy   14.98853811 # occ.  0.00000000
 
ion      s     py     pz     px    dxy    dyz    dz2    dxz  x2-y2    tot
    1  0.011  0.142  0.204  0.145  0.069  0.116  0.174  0.015  0.023  0.898
 
band     7 # energy   19.89682894 # occ.  0.00000000
 
ion      s     py     pz     px    dxy    dyz    dz2    dxz  x2-y2    tot
    1  0.417  0.015  0.014  0.059  0.183  0.137  0.001  0.135  0.001  0.962
 
band     8 # energy   31.47084675 # occ.  0.00000000
 
ion      s     py     pz     px    dxy    dyz    dz2    dxz  x2-y2    tot