<?xml version="1.0" encoding="ISO-8859-1"?>
<modeling>
 <generator>
  <i name="program" type="string">vasp </i>
  <i name="version" type="string">6.3.2  </i>
  <i name="subversion" type="string">27Jun22 (build Aug 12 2022 00:53:59) complex                          parallel </i>
  <i name="platform" type="string">tv2STD </i>
  <i name="date" type="string">2024 12 03 </i>
  <i name="time" type="string">02:18:53 </i>
 </generator>
 <incar>
  <i type="string" name="SYSTEM">Co-fcc</i>
  <i type="int" name="ISTART">     0</i>
  <i type="string" name="PREC">Accurate      normal | accurate</i>
  <i type="string" name="ALGO">Normal     Normal, Fast, Very_Fast</i>
  <i type="logical" name="ADDGRID"> F  </i>
  <i type="int" name="ISPIN">     2</i>
  <i type="int" name="ICHARG">     2</i>
  <i type="int" name="INIWAV">     1</i>
  <i type="int" name="NELM">   100</i>
  <i type="int" name="IBRION">     2</i>
  <i name="EDIFF">      0.00000100</i>
  <i name="EDIFFG">     -0.02000000</i>
  <i type="int" name="NSW">   100</i>
  <i type="int" name="ISIF">     2</i>
  <i type="int" name="ISYM">     1</i>
  <i name="ENCUT">    400.00000000</i>
  <v name="MAGMOM">      3.00000000</v>
  <i type="logical" name="LREAL"> F  </i>
  <i type="int" name="ISMEAR">     0</i>
  <i name="SIGMA">      0.05000000</i>
  <i type="int" name="NWRITE">     2</i>
  <i type="logical" name="LWAVE"> T  </i>
  <i type="logical" name="LCHARG"> T  </i>
  <i type="int" name="LORBIT">    11</i>
 </incar>
 <primitive_cell>
  <structure name="primitive_cell" >
   <crystal>
    <varray name="basis" >
     <v>       0.00000000       1.68409685       1.68409685 </v>
     <v>       1.68409685       0.00000000       1.68409685 </v>
     <v>       1.68409685       1.68409685       0.00000000 </v>
    </varray>
    <i name="volume">      9.55281109 </i>
    <varray name="rec_basis" >
     <v>      -0.29689504       0.29689504       0.29689504 </v>
     <v>       0.29689504      -0.29689504       0.29689504 </v>
     <v>       0.29689504       0.29689504      -0.29689504 </v>
    </varray>
   </crystal>
   <varray name="positions" >
    <v>       0.00000000       0.00000000       0.00000000 </v>
   </varray>
  </structure>
  <varray name="primitive_index" >
   <v type="int" >        1 </v>
  </varray>
 </primitive_cell>
 <kpoints>
  <generation param="Monkhorst-Pack">
   <v type="int" name="divisions">       8        8        8 </v>
   <v name="usershift">      0.00000000       0.00000000       0.00000000 </v>
   <v name="genvec1">      0.12500000       0.00000000       0.00000000 </v>
   <v name="genvec2">      0.00000000       0.12500000       0.00000000 </v>
   <v name="genvec3">      0.00000000       0.00000000       0.12500000 </v>
   <v name="shift">      0.50000000       0.50000000       0.50000000 </v>
  </generation>
  <varray name="kpointlist" >
   <v>       0.06250000       0.06250000       0.06250000 </v>
   <v>       0.18750000       0.06250000       0.06250000 </v>
   <v>       0.31250000       0.06250000       0.06250000 </v>
   <v>       0.43750000       0.06250000       0.06250000 </v>
   <v>      -0.43750000       0.06250000       0.06250000 </v>
   <v>      -0.31250000       0.06250000       0.06250000 </v>
   <v>      -0.18750000       0.06250000       0.06250000 </v>
   <v>      -0.06250000       0.06250000       0.06250000 </v>
   <v>       0.18750000       0.18750000       0.06250000 </v>
   <v>       0.31250000       0.18750000       0.06250000 </v>
   <v>       0.43750000       0.18750000       0.06250000 </v>
   <v>      -0.43750000       0.18750000       0.06250000 </v>
   <v>      -0.31250000       0.18750000       0.06250000 </v>
   <v>      -0.18750000       0.18750000       0.06250000 </v>
   <v>      -0.06250000       0.18750000       0.06250000 </v>
   <v>       0.31250000       0.31250000       0.06250000 </v>
   <v>       0.43750000       0.31250000       0.06250000 </v>
   <v>      -0.43750000       0.31250000       0.06250000 </v>
   <v>      -0.31250000       0.31250000       0.06250000 </v>
   <v>      -0.18750000       0.31250000       0.06250000 </v>
   <v>      -0.06250000       0.31250000       0.06250000 </v>
   <v>       0.43750000       0.43750000       0.06250000 </v>
   <v>      -0.43750000       0.43750000       0.06250000 </v>
   <v>      -0.31250000       0.43750000       0.06250000 </v>
   <v>      -0.18750000       0.43750000       0.06250000 </v>
   <v>      -0.06250000       0.43750000       0.06250000 </v>
   <v>      -0.43750000      -0.43750000       0.06250000 </v>
   <v>      -0.31250000      -0.43750000       0.06250000 </v>
   <v>      -0.18750000      -0.43750000       0.06250000 </v>
   <v>      -0.31250000      -0.31250000       0.06250000 </v>
   <v>      -0.18750000      -0.31250000       0.06250000 </v>
   <v>      -0.18750000      -0.18750000       0.06250000 </v>
   <v>       0.18750000       0.18750000       0.18750000 </v>
   <v>       0.31250000       0.18750000       0.18750000 </v>
   <v>       0.43750000       0.18750000       0.18750000 </v>
   <v>      -0.43750000       0.18750000       0.18750000 </v>
   <v>      -0.31250000       0.18750000       0.18750000 </v>
   <v>      -0.18750000       0.18750000       0.18750000 </v>
   <v>       0.31250000       0.31250000       0.18750000 </v>
   <v>       0.43750000       0.31250000       0.18750000 </v>
   <v>      -0.43750000       0.31250000       0.18750000 </v>
   <v>      -0.31250000       0.31250000       0.18750000 </v>
   <v>      -0.18750000       0.31250000       0.18750000 </v>
   <v>       0.43750000       0.43750000       0.18750000 </v>
   <v>      -0.43750000       0.43750000       0.18750000 </v>
   <v>      -0.31250000       0.43750000       0.18750000 </v>
   <v>      -0.18750000       0.43750000       0.18750000 </v>
   <v>      -0.43750000      -0.43750000       0.18750000 </v>
   <v>      -0.31250000      -0.43750000       0.18750000 </v>
   <v>      -0.31250000      -0.31250000       0.18750000 </v>
   <v>       0.31250000       0.31250000       0.31250000 </v>
   <v>       0.43750000       0.31250000       0.31250000 </v>
   <v>      -0.43750000       0.31250000       0.31250000 </v>
   <v>      -0.31250000       0.31250000       0.31250000 </v>
   <v>       0.43750000       0.43750000       0.31250000 </v>
   <v>      -0.43750000       0.43750000       0.31250000 </v>
   <v>      -0.31250000       0.43750000       0.31250000 </v>
   <v>      -0.43750000      -0.43750000       0.31250000 </v>
   <v>       0.43750000       0.43750000       0.43750000 </v>
   <v>      -0.43750000       0.43750000       0.43750000 </v>
  </varray>
  <varray name="weights" >
   <v>       0.00390625 </v>
   <v>       0.01171875 </v>
   <v>       0.01171875 </v>
   <v>       0.01171875 </v>
   <v>       0.01171875 </v>
   <v>       0.01171875 </v>
   <v>       0.01171875 </v>
   <v>       0.01171875 </v>
   <v>       0.01171875 </v>
   <v>       0.02343750 </v>
   <v>       0.02343750 </v>
   <v>       0.02343750 </v>
   <v>       0.02343750 </v>
   <v>       0.02343750 </v>
   <v>       0.02343750 </v>
   <v>       0.01171875 </v>
   <v>       0.02343750 </v>
   <v>       0.02343750 </v>
   <v>       0.02343750 </v>
   <v>       0.02343750 </v>
   <v>       0.02343750 </v>
   <v>       0.01171875 </v>
   <v>       0.02343750 </v>
   <v>       0.02343750 </v>
   <v>       0.02343750 </v>
   <v>       0.02343750 </v>
   <v>       0.01171875 </v>
   <v>       0.02343750 </v>
   <v>       0.02343750 </v>
   <v>       0.01171875 </v>
   <v>       0.02343750 </v>
   <v>       0.01171875 </v>
   <v>       0.00390625 </v>
   <v>       0.01171875 </v>
   <v>       0.01171875 </v>
   <v>       0.01171875 </v>
   <v>       0.01171875 </v>
   <v>       0.01171875 </v>
   <v>       0.01171875 </v>
   <v>       0.02343750 </v>
   <v>       0.02343750 </v>
   <v>       0.02343750 </v>
   <v>       0.02343750 </v>
   <v>       0.01171875 </v>
   <v>       0.02343750 </v>
   <v>       0.02343750 </v>
   <v>       0.02343750 </v>
   <v>       0.01171875 </v>
   <v>       0.02343750 </v>
   <v>       0.01171875 </v>
   <v>       0.00390625 </v>
   <v>       0.01171875 </v>
   <v>       0.01171875 </v>
   <v>       0.01171875 </v>
   <v>       0.01171875 </v>
   <v>       0.02343750 </v>
   <v>       0.02343750 </v>
   <v>       0.01171875 </v>
   <v>       0.00390625 </v>
   <v>       0.01171875 </v>
  </varray>
 </kpoints>
 <parameters>
  <separator name="general" >
   <i type="string" name="SYSTEM">Co-fcc</i>
   <i type="logical" name="LCOMPAT"> F  </i>
  </separator>
  <separator name="electronic" >
   <i type="string" name="PREC">accura</i>
   <i name="ENMAX">    400.00000000</i>
   <i name="ENAUG">    477.81800000</i>
   <i name="EDIFF">      0.00000100</i>
   <i type="int" name="IALGO">    38</i>
   <i type="int" name="IWAVPR">    11</i>
   <i type="int" name="NBANDS">    12</i>
   <i type="int" name="NBANDSLOW">    -1</i>
   <i type="int" name="NBANDSHIGH">    -1</i>
   <i name="NELECT">      9.00000000</i>
   <i type="int" name="TURBO">     0</i>
   <i type="int" name="IRESTART">     0</i>
   <i type="int" name="NREBOOT">     0</i>
   <i type="int" name="NMIN">     0</i>
   <i name="EREF">      0.00000000</i>
   <separator name="electronic smearing" >
    <i type="int" name="ISMEAR">     0</i>
    <i name="SIGMA">      0.05000000</i>
    <i name="KSPACING">      0.50000000</i>
    <i type="logical" name="KGAMMA"> T  </i>
    <i type="logical" name="KBLOWUP"> T  </i>
   </separator>
   <separator name="electronic projectors" >
    <i type="logical" name="LREAL"> F  </i>
    <v name="ROPT">      0.00000000</v>
    <i type="int" name="LMAXPAW">  -100</i>
    <i type="int" name="LMAXMIX">     2</i>
    <i type="logical" name="NLSPLINE"> F  </i>
   </separator>
   <separator name="electronic startup" >
    <i type="int" name="ISTART">     0</i>
    <i type="int" name="ICHARG">     2</i>
    <i type="int" name="INIWAV">     1</i>
   </separator>
   <separator name="electronic spin" >
    <i type="int" name="ISPIN">     2</i>
    <i type="logical" name="LNONCOLLINEAR"> F  </i>
    <v name="MAGMOM">      3.00000000</v>
    <i name="NUPDOWN">     -1.00000000</i>
    <i type="logical" name="LSORBIT"> F  </i>
    <v name="SAXIS">      0.00000000      0.00000000      1.00000000</v>
    <i type="logical" name="LSPIRAL"> F  </i>
    <v name="QSPIRAL">      0.00000000      0.00000000      0.00000000</v>
    <i type="logical" name="LZEROZ"> F  </i>
   </separator>
   <separator name="electronic exchange-correlation" >
    <i type="logical" name="LASPH"> F  </i>
    <i type="logical" name="LMETAGGA"> F  </i>
   </separator>
   <separator name="electronic convergence" >
    <i type="int" name="NELM">   100</i>
    <i type="int" name="NELMDL">    -5</i>
    <i type="int" name="NELMIN">     2</i>
    <i name="ENINI">    400.00000000</i>
    <separator name="electronic convergence detail" >
     <i type="logical" name="LDIAG"> T  </i>
     <i type="logical" name="LSUBROT"> F  </i>
     <i name="WEIMIN">      0.00100000</i>
     <i name="EBREAK">      0.00000002</i>
     <i name="DEPER">      0.30000000</i>
     <i type="int" name="NRMM">     4</i>
     <i name="TIME">      0.40000000</i>
    </separator>
   </separator>
   <separator name="electronic mixer" >
    <i name="AMIX">      0.40000000</i>
    <i name="BMIX">      1.00000000</i>
    <i name="AMIN">      0.10000000</i>
    <i name="AMIX_MAG">      1.60000000</i>
    <i name="BMIX_MAG">      1.00000000</i>
    <separator name="electronic mixer details" >
     <i type="int" name="IMIX">     4</i>
     <i type="logical" name="MIXFIRST"> F  </i>
     <i type="int" name="MAXMIX">   -45</i>
     <i name="WC">    100.00000000</i>
     <i type="int" name="INIMIX">     1</i>
     <i type="int" name="MIXPRE">     1</i>
     <i type="int" name="MREMOVE">     5</i>
    </separator>
   </separator>
   <separator name="electronic dipolcorrection" >
    <i type="logical" name="LDIPOL"> F  </i>
    <i type="logical" name="LMONO"> F  </i>
    <i type="int" name="IDIPOL">     0</i>
    <i name="EPSILON">      1.00000000</i>
    <v name="DIPOL">   -100.00000000   -100.00000000   -100.00000000</v>
    <i name="EFIELD">      0.00000000</i>
   </separator>
  </separator>
  <separator name="grids" >
   <i type="int" name="NGX">    16</i>
   <i type="int" name="NGY">    16</i>
   <i type="int" name="NGZ">    16</i>
   <i type="int" name="NGXF">    32</i>
   <i type="int" name="NGYF">    32</i>
   <i type="int" name="NGZF">    32</i>
   <i type="logical" name="ADDGRID"> F  </i>
  </separator>
  <separator name="ionic" >
   <i type="int" name="NSW">   100</i>
   <i type="int" name="IBRION">     2</i>
   <i type="int" name="MDALGO">     0</i>
   <i type="int" name="ISIF">     2</i>
   <i name="PSTRESS">      0.00000000</i>
   <i name="EDIFFG">     -0.02000000</i>
   <i type="int" name="NFREE">     1</i>
   <i name="POTIM">      0.50000000</i>
   <i name="SMASS">     -3.00000000</i>
   <i name="SCALEE">      1.00000000</i>
  </separator>
  <separator name="ionic md" >
   <i name="TEBEG">      0.00010000</i>
   <i name="TEEND">      0.00010000</i>
   <i type="int" name="NBLOCK">     1</i>
   <i type="int" name="KBLOCK">   100</i>
   <i type="int" name="NPACO">   256</i>
   <i name="APACO">     10.00000000</i>
  </separator>
  <separator name="symmetry" >
   <i type="int" name="ISYM">     1</i>
   <i name="SYMPREC">      0.00001000</i>
  </separator>
  <separator name="dos" >
   <i type="int" name="LORBIT">    11</i>
   <v name="RWIGS">     -1.00000000</v>
   <i type="int" name="NEDOS">   301</i>
   <i name="EMIN">     10.00000000</i>
   <i name="EMAX">    -10.00000000</i>
   <i name="EFERMI">      0.00000000</i>
  </separator>
  <separator name="writing" >
   <i type="int" name="NWRITE">     2</i>
   <i type="logical" name="LWAVE"> T  </i>
   <i type="logical" name="LDOWNSAMPLE"> F  </i>
   <i type="logical" name="LCHARG"> T  </i>
   <i type="logical" name="LPARD"> F  </i>
   <i type="logical" name="LVTOT"> F  </i>
   <i type="logical" name="LVHAR"> F  </i>
   <i type="logical" name="LELF"> F  </i>
   <i type="logical" name="LOPTICS"> F  </i>
   <v name="STM">      0.00000000      0.00000000      0.00000000      0.00000000      0.00000000      0.00000000      0.00000000</v>
  </separator>
  <separator name="performance" >
   <i type="int" name="NPAR">     4</i>
   <i type="int" name="NSIM">     4</i>
   <i type="int" name="NBLK">    -1</i>
   <i type="logical" name="LPLANE"> T  </i>
   <i type="logical" name="LSCALAPACK"> T  </i>
   <i type="logical" name="LSCAAWARE"> T  </i>
   <i type="logical" name="LSCALU"> F  </i>
   <i type="logical" name="LASYNC"> F  </i>
   <i type="logical" name="LORBITALREAL"> F  </i>
  </separator>
  <separator name="miscellaneous" >
   <i type="int" name="IDIOT">     3</i>
   <i type="int" name="PHON_NSTRUCT">    -1</i>
   <i type="logical" name="LMUSIC"> F  </i>
   <v name="POMASS">     58.93300000</v>
   <v name="DARWINR">      0.00000000</v>
   <v name="DARWINV">      1.00000000</v>
   <i type="logical" name="LCORR"> T  </i>
  </separator>
  <i type="logical" name="GGA_COMPAT"> T  </i>
  <i type="logical" name="LBERRY"> F  </i>
  <i type="int" name="ICORELEVEL">     0</i>
  <i type="logical" name="LDAU"> F  </i>
  <i type="int" name="I_CONSTRAINED_M">     0</i>
  <separator name="electronic exchange-correlation" >
   <i type="string" name="GGA">--</i>
   <i type="int" name="VOSKOWN">     0</i>
   <i type="logical" name="LHFCALC"> F  </i>
   <i type="string" name="PRECFOCK"></i>
   <i type="logical" name="LSYMGRAD"> F  </i>
   <i type="logical" name="LHFONE"> F  </i>
   <i type="logical" name="LRHFCALC"> F  </i>
   <i type="logical" name="LTHOMAS"> F  </i>
   <i type="logical" name="LMODELHF"> F  </i>
   <i type="logical" name="LFOCKACE"> F  </i>
   <i name="ENCUT4O">     -1.00000000</i>
   <i type="int" name="EXXOEP">     0</i>
   <i type="int" name="FOURORBIT">     0</i>
   <i name="AEXX">      0.00000000</i>
   <i name="HFALPHA">      0.00000000</i>
   <i name="MCALPHA">      0.00000000</i>
   <i name="ALDAX">      1.00000000</i>
   <i name="AGGAX">      1.00000000</i>
   <i name="ALDAC">      1.00000000</i>
   <i name="AGGAC">      1.00000000</i>
   <i type="int" name="NKREDX">     1</i>
   <i type="int" name="NKREDY">     1</i>
   <i type="int" name="NKREDZ">     1</i>
   <i type="logical" name="SHIFTRED"> F  </i>
   <i type="logical" name="ODDONLY"> F  </i>
   <i type="logical" name="EVENONLY"> F  </i>
   <i type="int" name="LMAXFOCK">     0</i>
   <i type="int" name="NMAXFOCKAE">     0</i>
   <i type="logical" name="LFOCKAEDFT"> F  </i>
   <i name="HFSCREEN">      0.00000000</i>
   <i name="HFSCREENC">      0.00000000</i>
   <i type="int" name="NBANDSGWLOW">     0</i>
  </separator>
  <separator name="vdW DFT" >
   <i type="logical" name="LUSE_VDW"> F  </i>
   <i name="Zab_VDW">     -0.84910000</i>
   <i name="PARAM1">      0.12340000</i>
   <i name="PARAM2">      1.00000000</i>
   <i name="PARAM3">      0.00000000</i>
  </separator>
  <separator name="model GW" >
   <i type="int" name="MODEL_GW">     0</i>
   <i name="MODEL_EPS0">      5.73168666</i>
   <i name="MODEL_ALPHA">      1.00000000</i>
  </separator>
  <separator name="linear response parameters" >
   <i type="logical" name="LEPSILON"> F  </i>
   <i type="logical" name="LRPA"> F  </i>
   <i type="logical" name="LNABLA"> F  </i>
   <i type="logical" name="LVEL"> F  </i>
   <i name="CSHIFT">      0.10000000</i>
   <i name="OMEGAMAX">     -1.00000000</i>
   <i name="DEG_THRESHOLD">      0.00200000</i>
   <i name="RTIME">     -0.10000000</i>
   <i name="WPLASMAI">      0.00000000</i>
   <v name="DFIELD">      0.00000000      0.00000000      0.00000000</v>
   <v name="WPLASMA">      0.00000000      0.00000000      0.00000000      0.00000000      0.00000000      0.00000000      0.00000000      0.00000000      0.00000000</v>
  </separator>
  <separator name="orbital magnetization" >
   <i type="logical" name="NUCIND"> F  </i>
   <v name="MAGPOS">      0.00000000      0.00000000      0.00000000</v>
   <i type="logical" name="LNICSALL"> T  </i>
   <i type="logical" name="ORBITALMAG"> F  </i>
   <i type="logical" name="LMAGBLOCH"> F  </i>
   <i type="logical" name="LCHIMAG"> F  </i>
   <i type="logical" name="LGAUGE"> T  </i>
   <i type="int" name="MAGATOM">     0</i>
   <v name="MAGDIPOL">      0.00000000      0.00000000      0.00000000</v>
   <v name="AVECCONST">      0.00000000      0.00000000      0.00000000</v>
  </separator>
  <separator name="response functions" >
   <i type="logical" name="LFINITE_TEMPERATURE"> F  </i>
   <i type="logical" name="LADDER"> F  </i>
   <i type="logical" name="LRPAFORCE"> F  </i>
   <i type="logical" name="LFXC"> F  </i>
   <i type="logical" name="LHARTREE"> T  </i>
   <i type="int" name="IBSE">     0</i>
   <v type="int" name="KPOINT">    -1     0     0     0</v>
   <i type="logical" name="LTCTC"> F  </i>
   <i type="logical" name="LTCTE"> F  </i>
   <i type="logical" name="LTETE"> F  </i>
   <i type="logical" name="LTRIPLET"> F  </i>
   <i type="logical" name="LFXCEPS"> F  </i>
   <i type="logical" name="LFXHEG"> F  </i>
   <i type="int" name="NATURALO">     2</i>
   <i type="logical" name="LHOLEGF"> F  </i>
   <i type="logical" name="L2ORDER"> F  </i>
   <i type="logical" name="LDMP1"> F  </i>
   <i type="logical" name="LMP2LT"> F  </i>
   <i type="logical" name="LSMP2LT"> F  </i>
   <i type="logical" name="LGWLF"> F  </i>
   <i name="ENCUTGW">     -2.00000000</i>
   <i name="ENCUTGWSOFT">     -2.00000000</i>
   <i name="ENCUTLF">     -1.00000000</i>
   <i type="logical" name="LESF_SPLINES"> F  </i>
   <i type="int" name="LMAXMP2">    -1</i>
   <i name="SCISSOR">      0.00000000</i>
   <i type="int" name="NOMEGA">     0</i>
   <i type="int" name="NOMEGAR">     0</i>
   <i type="int" name="NBANDSGW">    -1</i>
   <i type="int" name="NBANDSO">    -1</i>
   <i type="int" name="NBANDSV">    -1</i>
   <i type="int" name="NELMGW">     1</i>
   <i type="int" name="NELMHF">     1</i>
   <i type="int" name="DIM">     3</i>
   <i type="int" name="IESPILON">     4</i>
   <i type="int" name="ANTIRES">     0</i>
   <i name="OMEGAMAX">    -30.00000000</i>
   <i name="OMEGAMIN">    -30.00000000</i>
   <i name="OMEGATL">   -200.00000000</i>
   <i type="int" name="OMEGAGRID">     0</i>
   <i name="CSHIFT">     -0.10000000</i>
   <i type="logical" name="LSELFENERGY"> F  </i>
   <i type="logical" name="LSPECTRAL"> F  </i>
   <i type="logical" name="LSPECTRALGW"> F  </i>
   <i type="logical" name="LSINGLES"> F  </i>
   <i type="logical" name="LFERMIGW"> F  </i>
   <i type="logical" name="ODDONLYGW"> F  </i>
   <i type="logical" name="EVENONLYGW"> F  </i>
   <i type="int" name="NKREDLFX">     1</i>
   <i type="int" name="NKREDLFY">     1</i>
   <i type="int" name="NKREDLFZ">     1</i>
   <i type="int" name="MAXMEM">  2800</i>
   <i type="int" name="TELESCOPE">     0</i>
   <i type="int" name="NTAUPAR">    -1</i>
   <i type="int" name="NOMEGAPAR">    -1</i>
   <i name="DAMP_NEWTON">      0.80000001</i>
   <i name="LAMBDA">      1.00000000</i>
  </separator>
  <separator name="External order field" >
   <i name="OFIELD_KAPPA">      0.00000000</i>
   <v name="OFIELD_K">      0.00000000      0.00000000      0.00000000</v>
   <i name="OFIELD_Q6_NEAR">      0.00000000</i>
   <i name="OFIELD_Q6_FAR">      0.00000000</i>
   <i name="OFIELD_A">      0.00000000</i>
  </separator>
  <separator name="optional k-points parameters" >
   <i type="int" name="KPOINTS_OPT_MODE">     1</i>
   <i type="logical" name="LKPOINTS_OPT"> F  </i>
  </separator>
 </parameters>
 <atominfo>
  <atoms>       1 </atoms>
  <types>       1 </types>
  <array name="atoms" >
   <dimension dim="1">ion</dimension>
   <field type="string">element</field>
   <field type="int">atomtype</field>
   <set>
    <rc><c>Co</c><c>   1</c></rc>
   </set>
  </array>
  <array name="atomtypes" >
   <dimension dim="1">type</dimension>
   <field type="int">atomspertype</field>
   <field type="string">element</field>
   <field>mass</field>
   <field>valence</field>
   <field type="string">pseudopotential</field>
   <set>
    <rc><c>   1</c><c>Co</c><c>     58.93300000</c><c>      9.00000000</c><c>  PAW_PBE Co 02Aug2007                  </c></rc>
   </set>
  </array>
 </atominfo>
 <structure name="initialpos" >
  <crystal>
   <varray name="basis" >
    <v>       0.00000000       1.68409685       1.68409685 </v>
    <v>       1.68409685       0.00000000       1.68409685 </v>
    <v>       1.68409685       1.68409685       0.00000000 </v>
   </varray>
   <i name="volume">      9.55281109 </i>
   <varray name="rec_basis" >
    <v>      -0.29689504       0.29689504       0.29689504 </v>
    <v>       0.29689504      -0.29689504       0.29689504 </v>
    <v>       0.29689504       0.29689504      -0.29689504 </v>
   </varray>
  </crystal>
  <varray name="positions" >
   <v>       0.00000000       0.00000000       0.00000000 </v>
  </varray>
 </structure>
 <calculation>
  <scstep>
   <time name="dav">    0.27    0.27</time>
   <time name="total">    0.28    0.28</time>
   <energy>
    <i name="alphaZ">     44.34055116 </i>
    <i name="ewald">   -793.85340394 </i>
    <i name="hartreedc">   -136.60260522 </i>
    <i name="XCdc">     18.25235533 </i>
    <i name="pawpsdc">    719.99081943 </i>
    <i name="pawaedc">   -772.94345096 </i>
    <i name="eentropy">     -0.00079052 </i>
    <i name="bandstr">    129.50254163 </i>
    <i name="atom">    813.35773410 </i>
    <i name="e_fr_energy">     22.04375100 </i>
    <i name="e_wo_entrp">     22.04454152 </i>
    <i name="e_0_energy">     22.04414626 </i>
   </energy>
  </scstep>
  <scstep>
   <time name="dav">    0.26    0.26</time>
   <time name="total">    0.26    0.26</time>
   <energy>
    <i name="e_fr_energy">     -6.84140059 </i>
    <i name="e_wo_entrp">     -6.83964242 </i>
    <i name="e_0_energy">     -6.84052150 </i>
   </energy>
  </scstep>
  <scstep>
   <time name="dav">    0.27    0.27</time>
   <time name="total">    0.27    0.27</time>
   <energy>
    <i name="e_fr_energy">     -7.52339724 </i>
    <i name="e_wo_entrp">     -7.52181898 </i>
    <i name="e_0_energy">     -7.52260811 </i>
   </energy>
  </scstep>
  <scstep>
   <time name="dav">    0.27    0.28</time>
   <time name="total">    0.27    0.28</time>
   <energy>
    <i name="e_fr_energy">     -7.52951661 </i>
    <i name="e_wo_entrp">     -7.52793437 </i>
    <i name="e_0_energy">     -7.52872549 </i>
   </energy>
  </scstep>
  <scstep>
   <time name="dav">    0.31    0.31</time>
   <time name="total">    0.32    0.32</time>
   <energy>
    <i name="e_fr_energy">     -7.52962188 </i>
    <i name="e_wo_entrp">     -7.52803951 </i>
    <i name="e_0_energy">     -7.52883070 </i>
   </energy>
  </scstep>
  <scstep>
   <time name="dav">    0.29    0.29</time>
   <time name="total">    0.31    0.31</time>
   <energy>
    <i name="e_fr_energy">     -6.98708259 </i>
    <i name="e_wo_entrp">     -6.98583606 </i>
    <i name="e_0_energy">     -6.98645932 </i>
   </energy>
  </scstep>
  <scstep>
   <time name="dav">    0.28    0.28</time>
   <time name="total">    0.29    0.29</time>
   <energy>
    <i name="e_fr_energy">     -6.90997919 </i>
    <i name="e_wo_entrp">     -6.90903106 </i>
    <i name="e_0_energy">     -6.90950512 </i>
   </energy>
  </scstep>
  <scstep>
   <time name="dav">    0.30    0.31</time>
   <time name="total">    0.32    0.32</time>
   <energy>
    <i name="e_fr_energy">     -6.89261506 </i>
    <i name="e_wo_entrp">     -6.89166450 </i>
    <i name="e_0_energy">     -6.89213978 </i>
   </energy>
  </scstep>
  <scstep>
   <time name="dav">    0.35    0.35</time>
   <time name="total">    0.36    0.37</time>
   <energy>
    <i name="e_fr_energy">     -6.88858708 </i>
    <i name="e_wo_entrp">     -6.88762091 </i>
    <i name="e_0_energy">     -6.88810400 </i>
   </energy>
  </scstep>
  <scstep>
   <time name="dav">    0.28    0.29</time>
   <time name="total">    0.30    0.30</time>
   <energy>
    <i name="e_fr_energy">     -6.88828625 </i>
    <i name="e_wo_entrp">     -6.88731563 </i>
    <i name="e_0_energy">     -6.88780094 </i>
   </energy>
  </scstep>
  <scstep>
   <time name="dav">    0.28    0.29</time>
   <time name="total">    0.30    0.30</time>
   <energy>
    <i name="e_fr_energy">     -6.88829012 </i>
    <i name="e_wo_entrp">     -6.88731968 </i>
    <i name="e_0_energy">     -6.88780490 </i>
   </energy>
  </scstep>
  <scstep>
   <time name="dav">    0.26    0.26</time>
   <time name="total">    0.28    0.28</time>
   <energy>
    <i name="e_fr_energy">     -6.88828681 </i>
    <i name="e_wo_entrp">     -6.88731561 </i>
    <i name="e_0_energy">     -6.88780121 </i>
   </energy>
  </scstep>
  <scstep>
   <time name="dav">    0.21    0.21</time>
   <time name="total">    0.22    0.22</time>
   <energy>
    <i name="alphaZ">     44.34055116 </i>
    <i name="ewald">   -793.85340394 </i>
    <i name="hartreedc">   -119.07182967 </i>
    <i name="XCdc">     16.79788067 </i>
    <i name="pawpsdc">    986.54856334 </i>
    <i name="pawaedc">  -1040.28929494 </i>
    <i name="eentropy">     -0.00097118 </i>
    <i name="bandstr">     85.28248377 </i>
    <i name="atom">    813.35773410 </i>
    <i name="e_fr_energy">     -6.88828670 </i>
    <i name="e_wo_entrp">     -6.88731552 </i>
    <i name="e_0_energy">     -6.88780111 </i>
   </energy>
  </scstep>
  <structure>
   <crystal>
    <varray name="basis" >
     <v>       0.00000000       1.68409685       1.68409685 </v>
     <v>       1.68409685       0.00000000       1.68409685 </v>
     <v>       1.68409685       1.68409685       0.00000000 </v>
    </varray>
    <i name="volume">      9.55281109 </i>
    <varray name="rec_basis" >
     <v>      -0.29689504       0.29689504       0.29689504 </v>
     <v>       0.29689504      -0.29689504       0.29689504 </v>
     <v>       0.29689504       0.29689504      -0.29689504 </v>
    </varray>
   </crystal>
   <varray name="positions" >
    <v>       0.00000000       0.00000000       0.00000000 </v>
   </varray>
  </structure>
  <varray name="forces" >
   <v>      -0.00000000      -0.00000000       0.00000000 </v>
  </varray>
  <varray name="stress" >
   <v>     367.87938926       0.00000000      -0.00000000 </v>
   <v>      -0.00000000     367.87938926       0.00000000 </v>
   <v>       0.00000000      -0.00000000     367.87938926 </v>
  </varray>
  <energy>
   <i name="e_fr_energy">     -6.88828670 </i>
   <i name="e_wo_entrp">     -6.88731552 </i>
   <i name="e_0_energy">     -6.88780111 </i>
  </energy>
  <time name="totalsc">    3.91    4.08</time>
  <eigenvalues>
   <array>
    <dimension dim="1">band</dimension>
    <dimension dim="2">kpoint</dimension>
    <dimension dim="3">spin</dimension>
    <field>eigene</field>
    <field>occ</field>
    <set>
     <set comment="spin 1">
      <set comment="kpoint 1">
       <r>    2.6646    1.0000 </r>
       <r>    9.2860    1.0000 </r>
       <r>    9.3858    1.0000 </r>
       <r>    9.3858    1.0000 </r>
       <r>   10.6640    1.0000 </r>
       <r>   10.6640    1.0000 </r>
       <r>   36.1414    0.0000 </r>
       <r>   39.8608    0.0000 </r>
       <r>   41.5227    0.0000 </r>
       <r>   41.5227    0.0000 </r>
       <r>   45.9687    0.0000 </r>
       <r>   45.9690    0.0000 </r>
      </set>
      <set comment="kpoint 2">
       <r>    3.5431    1.0000 </r>
       <r>    9.0216    1.0000 </r>
       <r>    9.5788    1.0000 </r>
       <r>    9.5834    1.0000 </r>
       <r>   10.4690    1.0000 </r>
       <r>   10.7693    1.0000 </r>
       <r>   33.7725    0.0000 </r>
       <r>   36.4697    0.0000 </r>
       <r>   40.2145    0.0000 </r>
       <r>   42.6118    0.0000 </r>
       <r>   44.4329    0.0000 </r>
       <r>   46.0303    0.0000 </r>
      </set>
      <set comment="kpoint 3">
       <r>    5.3348    1.0000 </r>
       <r>    8.8883    1.0000 </r>
       <r>    9.5150    1.0000 </r>
       <r>    9.6073    1.0000 </r>
       <r>   10.7167    1.0000 </r>
       <r>   11.2489    1.0000 </r>
       <r>   27.5420    0.0000 </r>
       <r>   35.2500    0.0000 </r>
       <r>   39.1888    0.0000 </r>
       <r>   42.4720    0.0000 </r>
       <r>   43.6776    0.0000 </r>
       <r>   44.4287    0.0000 </r>
      </set>
      <set comment="kpoint 4">
       <r>    6.4223    1.0000 </r>
       <r>    9.2350    1.0000 </r>
       <r>    9.3583    1.0000 </r>
       <r>   10.1251    1.0000 </r>
       <r>   11.3920    1.0000 </r>
       <r>   12.1452    0.9870 </r>
       <r>   21.9477    0.0000 </r>
       <r>   34.5182    0.0000 </r>
       <r>   38.0455    0.0000 </r>
       <r>   40.2743    0.0000 </r>
       <r>   42.7312    0.0000 </r>
       <r>   44.3091    0.0000 </r>
      </set>
      <set comment="kpoint 5">
       <r>    6.5194    1.0000 </r>
       <r>    9.1179    1.0000 </r>
       <r>    9.2936    1.0000 </r>
       <r>   10.8065    1.0000 </r>
       <r>   11.7398    1.0000 </r>
       <r>   12.8881    0.0000 </r>
       <r>   19.7412    0.0000 </r>
       <r>   34.4397    0.0000 </r>
       <r>   38.2400    0.0000 </r>
       <r>   38.4016    0.0000 </r>
       <r>   43.5709    0.0000 </r>
       <r>   43.6148    0.0000 </r>
      </set>
      <set comment="kpoint 6">
       <r>    6.2318    1.0000 </r>
       <r>    9.2781    1.0000 </r>
       <r>    9.4666    1.0000 </r>
       <r>    9.5273    1.0000 </r>
       <r>   11.4886    1.0000 </r>
       <r>   11.5321    1.0000 </r>
       <r>   23.6373    0.0000 </r>
       <r>   35.2105    0.0000 </r>
       <r>   37.6725    0.0000 </r>
       <r>   40.3524    0.0000 </r>
       <r>   43.2981    0.0000 </r>
       <r>   45.3676    0.0000 </r>
      </set>
      <set comment="kpoint 7">
       <r>    4.7034    1.0000 </r>
       <r>    8.8275    1.0000 </r>
       <r>    9.5922    1.0000 </r>
       <r>    9.6638    1.0000 </r>
       <r>   10.6327    1.0000 </r>
       <r>   10.9568    1.0000 </r>
       <r>   29.6342    0.0000 </r>
       <r>   36.4487    0.0000 </r>
       <r>   38.2278    0.0000 </r>
       <r>   42.7089    0.0000 </r>
       <r>   43.2888    0.0000 </r>
       <r>   47.5560    0.0000 </r>
      </set>
      <set comment="kpoint 8">
       <r>    3.1124    1.0000 </r>
       <r>    9.1085    1.0000 </r>
       <r>    9.5188    1.0000 </r>
       <r>    9.5242    1.0000 </r>
       <r>   10.4949    1.0000 </r>
       <r>   10.7447    1.0000 </r>
       <r>   35.3827    0.0000 </r>
       <r>   38.0644    0.0000 </r>
       <r>   39.5903    0.0000 </r>
       <r>   41.2437    0.0000 </r>
       <r>   45.8334    0.0000 </r>
       <r>   47.5183    0.0000 </r>
      </set>
      <set comment="kpoint 9">
       <r>    3.9588    1.0000 </r>
       <r>    8.7677    1.0000 </r>
       <r>    9.7575    1.0000 </r>
       <r>    9.7937    1.0000 </r>
       <r>   10.2631    1.0000 </r>
       <r>   10.8952    1.0000 </r>
       <r>   34.1136    0.0000 </r>
       <r>   36.4672    0.0000 </r>
       <r>   37.2191    0.0000 </r>
       <r>   39.1818    0.0000 </r>
       <r>   46.2167    0.0000 </r>
       <r>   48.0678    0.0000 </r>
      </set>
      <set comment="kpoint 10">
       <r>    5.4095    1.0000 </r>
       <r>    8.4002    1.0000 </r>
       <r>    9.4983    1.0000 </r>
       <r>   10.1117    1.0000 </r>
       <r>   10.5821    1.0000 </r>
       <r>   11.3479    1.0000 </r>
       <r>   30.2106    0.0000 </r>
       <r>   32.8920    0.0000 </r>
       <r>   36.8087    0.0000 </r>
       <r>   38.9852    0.0000 </r>
       <r>   44.9373    0.0000 </r>
       <r>   47.7218    0.0000 </r>
      </set>
      <set comment="kpoint 11">
       <r>    6.7905    1.0000 </r>
       <r>    8.5520    1.0000 </r>
       <r>    9.1275    1.0000 </r>
       <r>    9.9244    1.0000 </r>
       <r>   11.4426    1.0000 </r>
       <r>   12.7170    0.0000 </r>
       <r>   24.1428    0.0000 </r>
       <r>   32.1514    0.0000 </r>
       <r>   34.5084    0.0000 </r>
       <r>   38.7635    0.0000 </r>
       <r>   45.7976    0.0000 </r>
       <r>   48.2259    0.0000 </r>
      </set>
      <set comment="kpoint 12">
       <r>    7.0626    1.0000 </r>
       <r>    8.5883    1.0000 </r>
       <r>    9.6395    1.0000 </r>
       <r>    9.7356    1.0000 </r>
       <r>   11.6921    1.0000 </r>
       <r>   14.9885    0.0000 </r>
       <r>   19.8968    0.0000 </r>
       <r>   31.4708    0.0000 </r>
       <r>   33.8785    0.0000 </r>
       <r>   38.4069    0.0000 </r>
       <r>   44.9521    0.0000 </r>
       <r>   48.6292    0.0000 </r>
      </set>
      <set comment="kpoint 13">
       <r>    7.0238    1.0000 </r>
       <r>    8.7683    1.0000 </r>
       <r>    9.2024    1.0000 </r>
       <r>    9.7883    1.0000 </r>
       <r>   11.2955    1.0000 </r>
       <r>   13.6637    0.0000 </r>
       <r>   22.4054    0.0000 </r>
       <r>   30.7492    0.0000 </r>
       <r>   35.3641    0.0000 </r>
       <r>   39.6088    0.0000 </r>
       <r>   44.2535    0.0000 </r>
       <r>   48.0529    0.0000 </r>
      </set>
      <set comment="kpoint 14">
       <r>    6.0295    1.0000 </r>
       <r>    8.4938    1.0000 </r>
       <r>    9.2804    1.0000 </r>
       <r>   10.0354    1.0000 </r>
       <r>   10.4951    1.0000 </r>
       <r>   11.9424    1.0000 </r>
       <r>   28.1280    0.0000 </r>
       <r>   30.9544    0.0000 </r>
       <r>   37.9109    0.0000 </r>
       <r>   41.5909    0.0000 </r>
       <r>   43.6375    0.0000 </r>
       <r>   47.1211    0.0000 </r>
      </set>
      <set comment="kpoint 15">
       <r>    4.3546    1.0000 </r>
       <r>    8.7653    1.0000 </r>
       <r>    9.6343    1.0000 </r>
       <r>    9.7976    1.0000 </r>
       <r>   10.3574    1.0000 </r>
       <r>   10.9974    1.0000 </r>
       <r>   31.9548    0.0000 </r>
       <r>   34.6481    0.0000 </r>
       <r>   39.2621    0.0000 </r>
       <r>   41.1461    0.0000 </r>
       <r>   45.2866    0.0000 </r>
       <r>   46.8470    0.0000 </r>
      </set>
      <set comment="kpoint 16">
       <r>    6.0644    1.0000 </r>
       <r>    7.8910    1.0000 </r>
       <r>    9.9028    1.0000 </r>
       <r>   10.6301    1.0000 </r>
       <r>   11.0327    1.0000 </r>
       <r>   11.3222    1.0000 </r>
       <r>   30.7882    0.0000 </r>
       <r>   32.5200    0.0000 </r>
       <r>   32.6879    0.0000 </r>
       <r>   35.5896    0.0000 </r>
       <r>   41.3826    0.0000 </r>
       <r>   49.1946    0.0000 </r>
      </set>
      <set comment="kpoint 17">
       <r>    6.7641    1.0000 </r>
       <r>    7.6454    1.0000 </r>
       <r>    9.8217    1.0000 </r>
       <r>   10.9349    1.0000 </r>
       <r>   11.5026    1.0000 </r>
       <r>   12.9975    0.0000 </r>
       <r>   27.1834    0.0000 </r>
       <r>   29.1974    0.0000 </r>
       <r>   30.4785    0.0000 </r>
       <r>   36.9561    0.0000 </r>
       <r>   42.3351    0.0000 </r>
       <r>   49.1167    0.0000 </r>
      </set>
      <set comment="kpoint 18">
       <r>    7.2715    1.0000 </r>
       <r>    7.8160    1.0000 </r>
       <r>    9.4466    1.0000 </r>
       <r>   10.5940    1.0000 </r>
       <r>   11.7675    1.0000 </r>
       <r>   16.4570    0.0000 </r>
       <r>   21.8114    0.0000 </r>
       <r>   27.0172    0.0000 </r>
       <r>   30.6007    0.0000 </r>
       <r>   37.4651    0.0000 </r>
       <r>   47.0902    0.0000 </r>
       <r>   48.7859    0.0000 </r>
      </set>
      <set comment="kpoint 19">
       <r>    7.8595    1.0000 </r>
       <r>    8.0211    1.0000 </r>
       <r>    8.8933    1.0000 </r>
       <r>   10.3534    1.0000 </r>
       <r>   11.3749    1.0000 </r>
       <r>   16.8268    0.0000 </r>
       <r>   21.6474    0.0000 </r>
       <r>   25.6564    0.0000 </r>
       <r>   32.4470    0.0000 </r>
       <r>   38.3423    0.0000 </r>
       <r>   47.4675    0.0000 </r>
       <r>   48.7422    0.0000 </r>
      </set>
      <set comment="kpoint 20">
       <r>    7.3967    1.0000 </r>
       <r>    8.5167    1.0000 </r>
       <r>    8.7008    1.0000 </r>
       <r>   10.1365    1.0000 </r>
       <r>   10.9166    1.0000 </r>
       <r>   13.8108    0.0000 </r>
       <r>   24.6877    0.0000 </r>
       <r>   27.8403    0.0000 </r>
       <r>   35.1192    0.0000 </r>
       <r>   40.2242    0.0000 </r>
       <r>   44.5442    0.0000 </r>
       <r>   48.6227    0.0000 </r>
      </set>
      <set comment="kpoint 21">
       <r>    6.1030    1.0000 </r>
       <r>    8.8379    1.0000 </r>
       <r>    9.3034    1.0000 </r>
       <r>    9.6881    1.0000 </r>
       <r>   10.9941    1.0000 </r>
       <r>   11.7797    1.0000 </r>
       <r>   25.7148    0.0000 </r>
       <r>   33.6990    0.0000 </r>
       <r>   37.5006    0.0000 </r>
       <r>   40.6529    0.0000 </r>
       <r>   44.3083    0.0000 </r>
       <r>   45.9967    0.0000 </r>
      </set>
      <set comment="kpoint 22">
       <r>    6.4436    1.0000 </r>
       <r>    7.2015    1.0000 </r>
       <r>   11.3247    1.0000 </r>
       <r>   11.4172    1.0000 </r>
       <r>   11.7969    1.0000 </r>
       <r>   13.6158    0.0000 </r>
       <r>   25.8754    0.0000 </r>
       <r>   28.3274    0.0000 </r>
       <r>   29.5288    0.0000 </r>
       <r>   34.7731    0.0000 </r>
       <r>   39.7151    0.0000 </r>
       <r>   49.2963    0.0000 </r>
      </set>
      <set comment="kpoint 23">
       <r>    6.5917    1.0000 </r>
       <r>    7.2360    1.0000 </r>
       <r>   10.8128    1.0000 </r>
       <r>   11.3551    1.0000 </r>
       <r>   11.9623    1.0000 </r>
       <r>   16.3760    0.0000 </r>
       <r>   23.6475    0.0000 </r>
       <r>   25.7875    0.0000 </r>
       <r>   28.3596    0.0000 </r>
       <r>   36.3254    0.0000 </r>
       <r>   41.6169    0.0000 </r>
       <r>   49.2874    0.0000 </r>
      </set>
      <set comment="kpoint 24">
       <r>    7.1932    1.0000 </r>
       <r>    7.7076    1.0000 </r>
       <r>    9.6486    1.0000 </r>
       <r>   10.8166    1.0000 </r>
       <r>   11.7486    1.0000 </r>
       <r>   18.6317    0.0000 </r>
       <r>   21.0324    0.0000 </r>
       <r>   24.5088    0.0000 </r>
       <r>   30.0666    0.0000 </r>
       <r>   37.3061    0.0000 </r>
       <r>   47.0490    0.0000 </r>
       <r>   49.4310    0.0000 </r>
      </set>
      <set comment="kpoint 25">
       <r>    7.4901    1.0000 </r>
       <r>    8.2205    1.0000 </r>
       <r>    9.2525    1.0000 </r>
       <r>   10.0557    1.0000 </r>
       <r>   11.5672    1.0000 </r>
       <r>   16.3778    0.0000 </r>
       <r>   20.1146    0.0000 </r>
       <r>   28.4793    0.0000 </r>
       <r>   32.8510    0.0000 </r>
       <r>   38.3262    0.0000 </r>
       <r>   46.2595    0.0000 </r>
       <r>   48.8105    0.0000 </r>
      </set>
      <set comment="kpoint 26">
       <r>    6.6970    1.0000 </r>
       <r>    8.9745    1.0000 </r>
       <r>    9.4637    1.0000 </r>
       <r>   10.0296    1.0000 </r>
       <r>   11.6228    1.0000 </r>
       <r>   13.3258    0.0000 </r>
       <r>   20.6654    0.0000 </r>
       <r>   33.3715    0.0000 </r>
       <r>   36.2091    0.0000 </r>
       <r>   38.8437    0.0000 </r>
       <r>   43.8732    0.0000 </r>
       <r>   46.0534    0.0000 </r>
      </set>
      <set comment="kpoint 27">
       <r>    6.3440    1.0000 </r>
       <r>    7.0462    1.0000 </r>
       <r>   11.5681    1.0000 </r>
       <r>   11.6796    1.0000 </r>
       <r>   11.9779    1.0000 </r>
       <r>   15.1993    0.0000 </r>
       <r>   23.6223    0.0000 </r>
       <r>   27.6484    0.0000 </r>
       <r>   28.8150    0.0000 </r>
       <r>   34.6530    0.0000 </r>
       <r>   39.5155    0.0000 </r>
       <r>   49.2647    0.0000 </r>
      </set>
      <set comment="kpoint 28">
       <r>    6.7048    1.0000 </r>
       <r>    7.3773    1.0000 </r>
       <r>   10.4115    1.0000 </r>
       <r>   11.2543    1.0000 </r>
       <r>   11.7817    1.0000 </r>
       <r>   14.7048    0.0000 </r>
       <r>   25.7206    0.0000 </r>
       <r>   26.6703    0.0000 </r>
       <r>   29.0092    0.0000 </r>
       <r>   36.5225    0.0000 </r>
       <r>   41.8227    0.0000 </r>
       <r>   49.2674    0.0000 </r>
      </set>
      <set comment="kpoint 29">
       <r>    7.1958    1.0000 </r>
       <r>    8.1219    1.0000 </r>
       <r>    9.2080    1.0000 </r>
       <r>   10.2568    1.0000 </r>
       <r>   11.6974    1.0000 </r>
       <r>   14.3335    0.0000 </r>
       <r>   22.8316    0.0000 </r>
       <r>   30.0642    0.0000 </r>
       <r>   31.8256    0.0000 </r>
       <r>   37.8755    0.0000 </r>
       <r>   46.8334    0.0000 </r>
       <r>   48.1941    0.0000 </r>
      </set>
      <set comment="kpoint 30">
       <r>    6.4794    1.0000 </r>
       <r>    7.4948    1.0000 </r>
       <r>   10.6168    1.0000 </r>
       <r>   11.0830    1.0000 </r>
       <r>   11.5571    1.0000 </r>
       <r>   12.0074    1.0000 </r>
       <r>   28.7811    0.0000 </r>
       <r>   29.7539    0.0000 </r>
       <r>   30.8652    0.0000 </r>
       <r>   35.0459    0.0000 </r>
       <r>   40.2489    0.0000 </r>
       <r>   49.2646    0.0000 </r>
      </set>
      <set comment="kpoint 31">
       <r>    6.3707    1.0000 </r>
       <r>    8.0051    1.0000 </r>
       <r>    9.4287    1.0000 </r>
       <r>   10.5074    1.0000 </r>
       <r>   11.0830    1.0000 </r>
       <r>   11.8989    1.0000 </r>
       <r>   28.6053    0.0000 </r>
       <r>   31.1745    0.0000 </r>
       <r>   33.4775    0.0000 </r>
       <r>   37.7174    0.0000 </r>
       <r>   43.3285    0.0000 </r>
       <r>   48.9042    0.0000 </r>
      </set>
      <set comment="kpoint 32">
       <r>    5.0630    1.0000 </r>
       <r>    8.3375    1.0000 </r>
       <r>    9.7746    1.0000 </r>
       <r>   10.1757    1.0000 </r>
       <r>   10.4353    1.0000 </r>
       <r>   11.0957    1.0000 </r>
       <r>   32.5113    0.0000 </r>
       <r>   34.8549    0.0000 </r>
       <r>   34.9842    0.0000 </r>
       <r>   36.9007    0.0000 </r>
       <r>   43.4195    0.0000 </r>
       <r>   49.1929    0.0000 </r>
      </set>
      <set comment="kpoint 33">
       <r>    3.9479    1.0000 </r>
       <r>    8.9873    1.0000 </r>
       <r>    9.5892    1.0000 </r>
       <r>    9.5892    1.0000 </r>
       <r>   10.6595    1.0000 </r>
       <r>   10.6595    1.0000 </r>
       <r>   31.6523    0.0000 </r>
       <r>   37.3718    0.0000 </r>
       <r>   40.6496    0.0000 </r>
       <r>   40.6496    0.0000 </r>
       <r>   46.0592    0.0000 </r>
       <r>   46.6201    0.0000 </r>
      </set>
      <set comment="kpoint 34">
       <r>    5.0910    1.0000 </r>
       <r>    8.6869    1.0000 </r>
       <r>    9.5227    1.0000 </r>
       <r>    9.8742    1.0000 </r>
       <r>   10.3006    1.0000 </r>
       <r>   11.3760    1.0000 </r>
       <r>   29.9349    0.0000 </r>
       <r>   32.6979    0.0000 </r>
       <r>   40.5346    0.0000 </r>
       <r>   42.5779    0.0000 </r>
       <r>   42.9980    0.0000 </r>
       <r>   45.5765    0.0000 </r>
      </set>
      <set comment="kpoint 35">
       <r>    6.7621    1.0000 </r>
       <r>    8.5575    1.0000 </r>
       <r>    9.0641    1.0000 </r>
       <r>    9.9538    1.0000 </r>
       <r>   10.5902    1.0000 </r>
       <r>   12.7273    0.0000 </r>
       <r>   26.2895    0.0000 </r>
       <r>   29.2527    0.0000 </r>
       <r>   38.5170    0.0000 </r>
       <r>   39.6092    0.0000 </r>
       <r>   44.6016    0.0000 </r>
       <r>   46.9981    0.0000 </r>
      </set>
      <set comment="kpoint 36">
       <r>    7.2455    1.0000 </r>
       <r>    8.5780    1.0000 </r>
       <r>    9.3654    1.0000 </r>
       <r>    9.8096    1.0000 </r>
       <r>   11.3720    1.0000 </r>
       <r>   14.8839    0.0000 </r>
       <r>   21.0219    0.0000 </r>
       <r>   29.4748    0.0000 </r>
       <r>   36.2987    0.0000 </r>
       <r>   36.8449    0.0000 </r>
       <r>   46.9715    0.0000 </r>
       <r>   47.2093    0.0000 </r>
      </set>
      <set comment="kpoint 37">
       <r>    7.1165    1.0000 </r>
       <r>    8.4063    1.0000 </r>
       <r>    9.4215    1.0000 </r>
       <r>    9.9017    1.0000 </r>
       <r>   11.7801    1.0000 </r>
       <r>   14.6787    0.0000 </r>
       <r>   20.9694    0.0000 </r>
       <r>   30.8111    0.0000 </r>
       <r>   34.2194    0.0000 </r>
       <r>   36.5354    0.0000 </r>
       <r>   47.9728    0.0000 </r>
       <r>   48.3953    0.0000 </r>
      </set>
      <set comment="kpoint 38">
       <r>    6.5435    1.0000 </r>
       <r>    8.1900    1.0000 </r>
       <r>    9.2973    1.0000 </r>
       <r>   10.1308    1.0000 </r>
       <r>   11.5690    1.0000 </r>
       <r>   11.9943    1.0000 </r>
       <r>   26.2238    0.0000 </r>
       <r>   32.9054    0.0000 </r>
       <r>   33.7683    0.0000 </r>
       <r>   37.1355    0.0000 </r>
       <r>   45.6494    0.0000 </r>
       <r>   48.8219    0.0000 </r>
      </set>
      <set comment="kpoint 39">
       <r>    5.6692    1.0000 </r>
       <r>    8.5465    1.0000 </r>
       <r>    9.4172    1.0000 </r>
       <r>    9.8446    1.0000 </r>
       <r>   11.0497    1.0000 </r>
       <r>   11.2810    1.0000 </r>
       <r>   27.8224    0.0000 </r>
       <r>   35.1052    0.0000 </r>
       <r>   35.8688    0.0000 </r>
       <r>   39.4273    0.0000 </r>
       <r>   46.0065    0.0000 </r>
       <r>   47.2876    0.0000 </r>
      </set>
      <set comment="kpoint 40">
       <r>    6.8861    1.0000 </r>
       <r>    8.2267    1.0000 </r>
       <r>    8.9948    1.0000 </r>
       <r>   10.3533    1.0000 </r>
       <r>   10.9350    1.0000 </r>
       <r>   12.7812    0.0000 </r>
       <r>   26.5400    0.0000 </r>
       <r>   29.4254    0.0000 </r>
       <r>   34.1710    0.0000 </r>
       <r>   40.6236    0.0000 </r>
       <r>   44.2204    0.0000 </r>
       <r>   47.5679    0.0000 </r>
      </set>
      <set comment="kpoint 41">
       <r>    7.7424    1.0000 </r>
       <r>    8.2171    1.0000 </r>
       <r>    8.6013    1.0000 </r>
       <r>   10.4338    1.0000 </r>
       <r>   11.3315    1.0000 </r>
       <r>   15.3916    0.0000 </r>
       <r>   23.3365    0.0000 </r>
       <r>   26.7311    0.0000 </r>
       <r>   31.3403    0.0000 </r>
       <r>   41.6065    0.0000 </r>
       <r>   43.9672    0.0000 </r>
       <r>   48.4333    0.0000 </r>
      </set>
      <set comment="kpoint 42">
       <r>    7.6841    1.0000 </r>
       <r>    7.9634    1.0000 </r>
       <r>    9.0106    1.0000 </r>
       <r>   10.3723    1.0000 </r>
       <r>   11.6854    1.0000 </r>
       <r>   17.4285    0.0000 </r>
       <r>   20.4125    0.0000 </r>
       <r>   27.6604    0.0000 </r>
       <r>   29.5235    0.0000 </r>
       <r>   40.3448    0.0000 </r>
       <r>   45.4930    0.0000 </r>
       <r>   48.6744    0.0000 </r>
      </set>
      <set comment="kpoint 43">
       <r>    7.2475    1.0000 </r>
       <r>    7.9378    1.0000 </r>
       <r>    9.0741    1.0000 </r>
       <r>   10.7188    1.0000 </r>
       <r>   11.3783    1.0000 </r>
       <r>   14.1426    0.0000 </r>
       <r>   25.1941    0.0000 </r>
       <r>   28.0907    0.0000 </r>
       <r>   30.5474    0.0000 </r>
       <r>   39.8664    0.0000 </r>
       <r>   44.5073    0.0000 </r>
       <r>   47.9499    0.0000 </r>
      </set>
      <set comment="kpoint 44">
       <r>    6.9394    1.0000 </r>
       <r>    7.8167    1.0000 </r>
       <r>    9.5724    1.0000 </r>
       <r>   10.4901    1.0000 </r>
       <r>   11.7694    1.0000 </r>
       <r>   13.4770    0.0000 </r>
       <r>   24.8597    0.0000 </r>
       <r>   29.7475    0.0000 </r>
       <r>   32.0539    0.0000 </r>
       <r>   36.1984    0.0000 </r>
       <r>   44.7755    0.0000 </r>
       <r>   49.0911    0.0000 </r>
      </set>
      <set comment="kpoint 45">
       <r>    7.1456    1.0000 </r>
       <r>    7.7203    1.0000 </r>
       <r>    9.4775    1.0000 </r>
       <r>   10.9399    1.0000 </r>
       <r>   11.7339    1.0000 </r>
       <r>   16.0527    0.0000 </r>
       <r>   24.1417    0.0000 </r>
       <r>   26.4226    0.0000 </r>
       <r>   27.9243    0.0000 </r>
       <r>   39.3741    0.0000 </r>
       <r>   44.6197    0.0000 </r>
       <r>   48.6558    0.0000 </r>
      </set>
      <set comment="kpoint 46">
       <r>    7.3662    1.0000 </r>
       <r>    8.1600    1.0000 </r>
       <r>    8.9066    1.0000 </r>
       <r>   10.6382    1.0000 </r>
       <r>   11.9558    1.0000 </r>
       <r>   19.7244    0.0000 </r>
       <r>   21.6510    0.0000 </r>
       <r>   24.3528    0.0000 </r>
       <r>   26.2254    0.0000 </r>
       <r>   42.4929    0.0000 </r>
       <r>   46.1831    0.0000 </r>
       <r>   47.9942    0.0000 </r>
      </set>
      <set comment="kpoint 47">
       <r>    7.5674    1.0000 </r>
       <r>    8.1669    1.0000 </r>
       <r>    8.7325    1.0000 </r>
       <r>   10.6063    1.0000 </r>
       <r>   11.7126    1.0000 </r>
       <r>   17.4847    0.0000 </r>
       <r>   22.3020    0.0000 </r>
       <r>   25.8323    0.0000 </r>
       <r>   27.9735    0.0000 </r>
       <r>   42.4941    0.0000 </r>
       <r>   44.4374    0.0000 </r>
       <r>   48.2725    0.0000 </r>
      </set>
      <set comment="kpoint 48">
       <r>    6.8127    1.0000 </r>
       <r>    7.4025    1.0000 </r>
       <r>   10.3789    1.0000 </r>
       <r>   11.1283    1.0000 </r>
       <r>   11.8346    1.0000 </r>
       <r>   17.2805    0.0000 </r>
       <r>   22.8431    0.0000 </r>
       <r>   24.4066    0.0000 </r>
       <r>   30.1967    0.0000 </r>
       <r>   35.7117    0.0000 </r>
       <r>   44.0442    0.0000 </r>
       <r>   49.3473    0.0000 </r>
      </set>
      <set comment="kpoint 49">
       <r>    7.0024    1.0000 </r>
       <r>    7.6114    1.0000 </r>
       <r>    9.8066    1.0000 </r>
       <r>   10.9766    1.0000 </r>
       <r>   11.9573    1.0000 </r>
       <r>   17.9819    0.0000 </r>
       <r>   23.2657    0.0000 </r>
       <r>   24.3742    0.0000 </r>
       <r>   27.1591    0.0000 </r>
       <r>   39.1345    0.0000 </r>
       <r>   44.6674    0.0000 </r>
       <r>   49.2089    0.0000 </r>
      </set>
      <set comment="kpoint 50">
       <r>    6.9155    1.0000 </r>
       <r>    7.5379    1.0000 </r>
       <r>   10.0559    1.0000 </r>
       <r>   10.8594    1.0000 </r>
       <r>   11.8508    1.0000 </r>
       <r>   15.4160    0.0000 </r>
       <r>   23.7678    0.0000 </r>
       <r>   26.5723    0.0000 </r>
       <r>   30.8337    0.0000 </r>
       <r>   35.8409    0.0000 </r>
       <r>   44.2659    0.0000 </r>
       <r>   49.2773    0.0000 </r>
      </set>
      <set comment="kpoint 51">
       <r>    5.7502    1.0000 </r>
       <r>    9.2621    1.0000 </r>
       <r>    9.4621    1.0000 </r>
       <r>    9.4621    1.0000 </r>
       <r>   11.1365    1.0000 </r>
       <r>   11.1365    1.0000 </r>
       <r>   25.4326    0.0000 </r>
       <r>   36.0798    0.0000 </r>
       <r>   39.9837    0.0000 </r>
       <r>   39.9837    0.0000 </r>
       <r>   44.2839    0.0000 </r>
       <r>   44.2839    0.0000 </r>
      </set>
      <set comment="kpoint 52">
       <r>    6.5814    1.0000 </r>
       <r>    9.1252    1.0000 </r>
       <r>    9.1591    1.0000 </r>
       <r>    9.6163    1.0000 </r>
       <r>   11.0038    1.0000 </r>
       <r>   12.5366    0.0000 </r>
       <r>   23.9127    0.0000 </r>
       <r>   32.1222    0.0000 </r>
       <r>   38.0336    0.0000 </r>
       <r>   39.8966    0.0000 </r>
       <r>   44.7183    0.0000 </r>
       <r>   44.8057    0.0000 </r>
      </set>
      <set comment="kpoint 53">
       <r>    7.7109    1.0000 </r>
       <r>    8.3915    1.0000 </r>
       <r>    8.7806    1.0000 </r>
       <r>   10.1275    1.0000 </r>
       <r>   11.0760    1.0000 </r>
       <r>   15.1099    0.0000 </r>
       <r>   23.0483    0.0000 </r>
       <r>   26.5749    0.0000 </r>
       <r>   35.9084    0.0000 </r>
       <r>   36.9270    0.0000 </r>
       <r>   47.8632    0.0000 </r>
       <r>   48.9248    0.0000 </r>
      </set>
      <set comment="kpoint 54">
       <r>    7.5035    1.0000 </r>
       <r>    7.8948    1.0000 </r>
       <r>    9.3160    1.0000 </r>
       <r>   10.5587    1.0000 </r>
       <r>   11.5188    1.0000 </r>
       <r>   18.4677    0.0000 </r>
       <r>   20.2646    0.0000 </r>
       <r>   24.9313    0.0000 </r>
       <r>   32.6720    0.0000 </r>
       <r>   36.1386    0.0000 </r>
       <r>   48.5201    0.0000 </r>
       <r>   51.0593    0.0000 </r>
      </set>
      <set comment="kpoint 55">
       <r>    6.7020    1.0000 </r>
       <r>    8.8857    1.0000 </r>
       <r>    9.5074    1.0000 </r>
       <r>    9.6210    1.0000 </r>
       <r>   11.7155    1.0000 </r>
       <r>   12.8046    0.0000 </r>
       <r>   22.1463    0.0000 </r>
       <r>   33.6144    0.0000 </r>
       <r>   35.7288    0.0000 </r>
       <r>   37.7169    0.0000 </r>
       <r>   45.8989    0.0000 </r>
       <r>   46.7656    0.0000 </r>
      </set>
      <set comment="kpoint 56">
       <r>    7.4168    1.0000 </r>
       <r>    8.2939    1.0000 </r>
       <r>    9.1228    1.0000 </r>
       <r>   10.0830    1.0000 </r>
       <r>   11.5670    1.0000 </r>
       <r>   15.3509    0.0000 </r>
       <r>   21.2026    0.0000 </r>
       <r>   29.5510    0.0000 </r>
       <r>   31.8430    0.0000 </r>
       <r>   40.0738    0.0000 </r>
       <r>   44.4866    0.0000 </r>
       <r>   48.7718    0.0000 </r>
      </set>
      <set comment="kpoint 57">
       <r>    7.5855    1.0000 </r>
       <r>    8.0594    1.0000 </r>
       <r>    8.9198    1.0000 </r>
       <r>   10.5520    1.0000 </r>
       <r>   11.7147    1.0000 </r>
       <r>   18.9252    0.0000 </r>
       <r>   20.6417    0.0000 </r>
       <r>   25.0286    0.0000 </r>
       <r>   28.9357    0.0000 </r>
       <r>   40.4322    0.0000 </r>
       <r>   46.7966    0.0000 </r>
       <r>   48.5972    0.0000 </r>
      </set>
      <set comment="kpoint 58">
       <r>    7.4136    1.0000 </r>
       <r>    8.0295    1.0000 </r>
       <r>    9.3511    1.0000 </r>
       <r>   10.2548    1.0000 </r>
       <r>   11.6857    1.0000 </r>
       <r>   16.8401    0.0000 </r>
       <r>   20.2012    0.0000 </r>
       <r>   27.6074    0.0000 </r>
       <r>   33.1916    0.0000 </r>
       <r>   36.2102    0.0000 </r>
       <r>   48.5569    0.0000 </r>
       <r>   49.7939    0.0000 </r>
      </set>
      <set comment="kpoint 59">
       <r>    6.3895    1.0000 </r>
       <r>    9.2451    1.0000 </r>
       <r>    9.2451    1.0000 </r>
       <r>   11.3138    1.0000 </r>
       <r>   11.6548    1.0000 </r>
       <r>   11.6548    1.0000 </r>
       <r>   20.5240    0.0000 </r>
       <r>   35.0402    0.0000 </r>
       <r>   39.6268    0.0000 </r>
       <r>   39.6268    0.0000 </r>
       <r>   42.4382    0.0000 </r>
       <r>   42.4382    0.0000 </r>
      </set>
      <set comment="kpoint 60">
       <r>    6.8143    1.0000 </r>
       <r>    8.8645    1.0000 </r>
       <r>    9.4950    1.0000 </r>
       <r>   10.0667    1.0000 </r>
       <r>   11.6335    1.0000 </r>
       <r>   14.1635    0.0000 </r>
       <r>   19.8173    0.0000 </r>
       <r>   32.4714    0.0000 </r>
       <r>   37.0225    0.0000 </r>
       <r>   37.0823    0.0000 </r>
       <r>   45.2912    0.0000 </r>
       <r>   45.6248    0.0000 </r>
      </set>
     </set>
     <set comment="spin 2">
      <set comment="kpoint 1">
       <r>    2.7147    1.0000 </r>
       <r>   10.8113    1.0000 </r>
       <r>   10.9285    1.0000 </r>
       <r>   10.9285    1.0000 </r>
       <r>   12.5241    0.0000 </r>
       <r>   12.5241    0.0000 </r>
       <r>   35.9540    0.0000 </r>
       <r>   39.9913    0.0000 </r>
       <r>   41.7133    0.0000 </r>
       <r>   41.7133    0.0000 </r>
       <r>   46.2809    0.0000 </r>
       <r>   46.2875    0.0000 </r>
      </set>
      <set comment="kpoint 2">
       <r>    3.6019    1.0000 </r>
       <r>   10.4824    1.0000 </r>
       <r>   11.1386    1.0000 </r>
       <r>   11.1474    1.0000 </r>
       <r>   12.2938    0.0240 </r>
       <r>   12.6175    0.0000 </r>
       <r>   33.9887    0.0000 </r>
       <r>   36.5489    0.0000 </r>
       <r>   40.3434    0.0000 </r>
       <r>   42.8080    0.0000 </r>
       <r>   44.4981    0.0000 </r>
       <r>   46.3212    0.0000 </r>
      </set>
      <set comment="kpoint 3">
       <r>    5.5074    1.0000 </r>
       <r>   10.1248    1.0000 </r>
       <r>   11.1100    1.0000 </r>
       <r>   11.2319    1.0000 </r>
       <r>   12.4887    0.0000 </r>
       <r>   13.0487    0.0000 </r>
       <r>   28.0384    0.0000 </r>
       <r>   35.3015    0.0000 </r>
       <r>   39.3659    0.0000 </r>
       <r>   42.7960    0.0000 </r>
       <r>   43.9995    0.0000 </r>
       <r>   44.5455    0.0000 </r>
      </set>
      <set comment="kpoint 4">
       <r>    7.1295    1.0000 </r>
       <r>   10.7054    1.0000 </r>
       <r>   10.8985    1.0000 </r>
       <r>   10.9816    1.0000 </r>
       <r>   13.2009    0.0000 </r>
       <r>   13.7739    0.0000 </r>
       <r>   22.7235    0.0000 </r>
       <r>   34.4589    0.0000 </r>
       <r>   38.2964    0.0000 </r>
       <r>   40.6252    0.0000 </r>
       <r>   43.0592    0.0000 </r>
       <r>   44.5624    0.0000 </r>
      </set>
      <set comment="kpoint 5">
       <r>    7.4174    1.0000 </r>
       <r>   10.6758    1.0000 </r>
       <r>   10.9086    1.0000 </r>
       <r>   11.5199    1.0000 </r>
       <r>   13.5874    0.0000 </r>
       <r>   14.0811    0.0000 </r>
       <r>   20.7352    0.0000 </r>
       <r>   34.2995    0.0000 </r>
       <r>   38.5882    0.0000 </r>
       <r>   38.7196    0.0000 </r>
       <r>   43.8504    0.0000 </r>
       <r>   43.9216    0.0000 </r>
      </set>
      <set comment="kpoint 6">
       <r>    6.7444    1.0000 </r>
       <r>   10.3471    1.0000 </r>
       <r>   10.9128    1.0000 </r>
       <r>   11.0857    1.0000 </r>
       <r>   13.2006    0.0000 </r>
       <r>   13.3263    0.0000 </r>
       <r>   24.3052    0.0000 </r>
       <r>   35.0773    0.0000 </r>
       <r>   38.0505    0.0000 </r>
       <r>   40.7164    0.0000 </r>
       <r>   43.5467    0.0000 </r>
       <r>   45.6113    0.0000 </r>
      </set>
      <set comment="kpoint 7">
       <r>    4.8074    1.0000 </r>
       <r>   10.1740    1.0000 </r>
       <r>   11.1946    1.0000 </r>
       <r>   11.2615    1.0000 </r>
       <r>   12.3886    0.0000 </r>
       <r>   12.7931    0.0000 </r>
       <r>   30.0525    0.0000 </r>
       <r>   36.3547    0.0000 </r>
       <r>   38.6039    0.0000 </r>
       <r>   42.8245    0.0000 </r>
       <r>   43.6285    0.0000 </r>
       <r>   47.6997    0.0000 </r>
      </set>
      <set comment="kpoint 8">
       <r>    3.1656    1.0000 </r>
       <r>   10.6024    1.0000 </r>
       <r>   11.0698    1.0000 </r>
       <r>   11.0762    1.0000 </r>
       <r>   12.3253    0.0021 </r>
       <r>   12.6105    0.0000 </r>
       <r>   35.3893    0.0000 </r>
       <r>   38.1232    0.0000 </r>
       <r>   39.8964    0.0000 </r>
       <r>   41.3711    0.0000 </r>
       <r>   46.0691    0.0000 </r>
       <r>   47.6784    0.0000 </r>
      </set>
      <set comment="kpoint 9">
       <r>    4.0257    1.0000 </r>
       <r>   10.2085    1.0000 </r>
       <r>   11.3368    1.0000 </r>
       <r>   11.3660    1.0000 </r>
       <r>   12.0162    1.0000 </r>
       <r>   12.7712    0.0000 </r>
       <r>   34.3372    0.0000 </r>
       <r>   36.4943    0.0000 </r>
       <r>   37.5785    0.0000 </r>
       <r>   39.3185    0.0000 </r>
       <r>   47.0016    0.0000 </r>
       <r>   48.3739    0.0000 </r>
      </set>
      <set comment="kpoint 10">
       <r>    5.5535    1.0000 </r>
       <r>    9.7551    1.0000 </r>
       <r>   11.0948    1.0000 </r>
       <r>   11.7351    1.0000 </r>
       <r>   12.2488    0.2408 </r>
       <r>   13.1664    0.0000 </r>
       <r>   30.6129    0.0000 </r>
       <r>   33.1727    0.0000 </r>
       <r>   37.0092    0.0000 </r>
       <r>   39.1710    0.0000 </r>
       <r>   45.5942    0.0000 </r>
       <r>   47.8846    0.0000 </r>
      </set>
      <set comment="kpoint 11">
       <r>    7.3632    1.0000 </r>
       <r>    9.6880    1.0000 </r>
       <r>   10.5929    1.0000 </r>
       <r>   11.5745    1.0000 </r>
       <r>   13.2105    0.0000 </r>
       <r>   14.2023    0.0000 </r>
       <r>   24.7538    0.0000 </r>
       <r>   32.4030    0.0000 </r>
       <r>   34.8282    0.0000 </r>
       <r>   39.0133    0.0000 </r>
       <r>   45.9832    0.0000 </r>
       <r>   48.9185    0.0000 </r>
      </set>
      <set comment="kpoint 12">
       <r>    8.0262    1.0000 </r>
       <r>    9.8882    1.0000 </r>
       <r>   10.7765    1.0000 </r>
       <r>   11.3777    1.0000 </r>
       <r>   13.5216    0.0000 </r>
       <r>   15.9364    0.0000 </r>
       <r>   20.8096    0.0000 </r>
       <r>   31.7153    0.0000 </r>
       <r>   34.2542    0.0000 </r>
       <r>   38.5732    0.0000 </r>
       <r>   45.2309    0.0000 </r>
       <r>   48.8814    0.0000 </r>
      </set>
      <set comment="kpoint 13">
       <r>    7.7775    1.0000 </r>
       <r>    9.9801    1.0000 </r>
       <r>   10.4709    1.0000 </r>
       <r>   11.4405    1.0000 </r>
       <r>   13.0632    0.0000 </r>
       <r>   15.0092    0.0000 </r>
       <r>   23.1168    0.0000 </r>
       <r>   31.0679    0.0000 </r>
       <r>   35.6314    0.0000 </r>
       <r>   39.7924    0.0000 </r>
       <r>   44.5093    0.0000 </r>
       <r>   48.2570    0.0000 </r>
      </set>
      <set comment="kpoint 14">
       <r>    6.2308    1.0000 </r>
       <r>    9.8020    1.0000 </r>
       <r>   10.8420    1.0000 </r>
       <r>   11.7025    1.0000 </r>
       <r>   12.1907    0.8260 </r>
       <r>   13.6726    0.0000 </r>
       <r>   28.6052    0.0000 </r>
       <r>   31.2938    0.0000 </r>
       <r>   38.0847    0.0000 </r>
       <r>   41.7203    0.0000 </r>
       <r>   43.8158    0.0000 </r>
       <r>   47.5031    0.0000 </r>
      </set>
      <set comment="kpoint 15">
       <r>    4.4329    1.0000 </r>
       <r>   10.1767    1.0000 </r>
       <r>   11.2184    1.0000 </r>
       <r>   11.3844    1.0000 </r>
       <r>   12.1210    0.9982 </r>
       <r>   12.8376    0.0000 </r>
       <r>   32.2898    0.0000 </r>
       <r>   34.8342    0.0000 </r>
       <r>   39.3994    0.0000 </r>
       <r>   41.2454    0.0000 </r>
       <r>   45.5121    0.0000 </r>
       <r>   47.1401    0.0000 </r>
      </set>
      <set comment="kpoint 16">
       <r>    6.3981    1.0000 </r>
       <r>    9.2091    1.0000 </r>
       <r>   11.2949    1.0000 </r>
       <r>   12.2891    0.0325 </r>
       <r>   12.6019    0.0000 </r>
       <r>   13.2176    0.0000 </r>
       <r>   31.1393    0.0000 </r>
       <r>   32.8130    0.0000 </r>
       <r>   33.0300    0.0000 </r>
       <r>   35.8771    0.0000 </r>
       <r>   41.9948    0.0000 </r>
       <r>   52.6204    0.0000 </r>
      </set>
      <set comment="kpoint 17">
       <r>    7.5153    1.0000 </r>
       <r>    8.9031    1.0000 </r>
       <r>   11.0706    1.0000 </r>
       <r>   12.6594    0.0000 </r>
       <r>   13.2826    0.0000 </r>
       <r>   14.3339    0.0000 </r>
       <r>   27.6189    0.0000 </r>
       <r>   29.6127    0.0000 </r>
       <r>   30.8608    0.0000 </r>
       <r>   37.2387    0.0000 </r>
       <r>   42.8318    0.0000 </r>
       <r>   51.8480    0.0000 </r>
      </set>
      <set comment="kpoint 18">
       <r>    8.3820    1.0000 </r>
       <r>    8.9714    1.0000 </r>
       <r>   10.6663    1.0000 </r>
       <r>   12.3428    0.0004 </r>
       <r>   13.5820    0.0000 </r>
       <r>   17.3460    0.0000 </r>
       <r>   22.4290    0.0000 </r>
       <r>   27.5457    0.0000 </r>
       <r>   30.9617    0.0000 </r>
       <r>   37.7174    0.0000 </r>
       <r>   47.5875    0.0000 </r>
       <r>   50.2423    0.0000 </r>
      </set>
      <set comment="kpoint 19">
       <r>    8.8866    1.0000 </r>
       <r>    9.2370    1.0000 </r>
       <r>   10.1107    1.0000 </r>
       <r>   12.1093    0.9994 </r>
       <r>   13.1167    0.0000 </r>
       <r>   17.7573    0.0000 </r>
       <r>   22.3146    0.0000 </r>
       <r>   26.2090    0.0000 </r>
       <r>   32.8115    0.0000 </r>
       <r>   38.5395    0.0000 </r>
       <r>   47.5984    0.0000 </r>
       <r>   52.1237    0.0000 </r>
      </set>
      <set comment="kpoint 20">
       <r>    7.9617    1.0000 </r>
       <r>    9.7164    1.0000 </r>
       <r>   10.1591    1.0000 </r>
       <r>   11.8493    1.0000 </r>
       <r>   12.6179    0.0000 </r>
       <r>   15.2157    0.0000 </r>
       <r>   25.2807    0.0000 </r>
       <r>   28.2800    0.0000 </r>
       <r>   35.4031    0.0000 </r>
       <r>   40.4166    0.0000 </r>
       <r>   44.6544    0.0000 </r>
       <r>   49.8148    0.0000 </r>
      </set>
      <set comment="kpoint 21">
       <r>    6.4223    1.0000 </r>
       <r>    9.9744    1.0000 </r>
       <r>   10.8902    1.0000 </r>
       <r>   11.3217    1.0000 </r>
       <r>   12.7245    0.0000 </r>
       <r>   13.5154    0.0000 </r>
       <r>   26.2792    0.0000 </r>
       <r>   33.8707    0.0000 </r>
       <r>   37.6814    0.0000 </r>
       <r>   40.9575    0.0000 </r>
       <r>   44.5357    0.0000 </r>
       <r>   46.2047    0.0000 </r>
      </set>
      <set comment="kpoint 22">
       <r>    7.4343    1.0000 </r>
       <r>    8.4350    1.0000 </r>
       <r>   12.6543    0.0000 </r>
       <r>   13.2682    0.0000 </r>
       <r>   13.6368    0.0000 </r>
       <r>   14.4247    0.0000 </r>
       <r>   26.5232    0.0000 </r>
       <r>   28.6348    0.0000 </r>
       <r>   29.7764    0.0000 </r>
       <r>   35.1862    0.0000 </r>
       <r>   40.2220    0.0000 </r>
       <r>   52.7919    0.0000 </r>
      </set>
      <set comment="kpoint 23">
       <r>    7.6980    1.0000 </r>
       <r>    8.4469    1.0000 </r>
       <r>   12.1322    0.9953 </r>
       <r>   13.2441    0.0000 </r>
       <r>   13.7580    0.0000 </r>
       <r>   16.9602    0.0000 </r>
       <r>   24.4501    0.0000 </r>
       <r>   26.1716    0.0000 </r>
       <r>   28.6490    0.0000 </r>
       <r>   36.6678    0.0000 </r>
       <r>   42.1004    0.0000 </r>
       <r>   52.7493    0.0000 </r>
      </set>
      <set comment="kpoint 24">
       <r>    8.3827    1.0000 </r>
       <r>    8.8545    1.0000 </r>
       <r>   10.8719    1.0000 </r>
       <r>   12.6295    0.0000 </r>
       <r>   13.5263    0.0000 </r>
       <r>   19.3088    0.0000 </r>
       <r>   21.6436    0.0000 </r>
       <r>   25.1830    0.0000 </r>
       <r>   30.4199    0.0000 </r>
       <r>   37.5755    0.0000 </r>
       <r>   47.7352    0.0000 </r>
       <r>   51.1399    0.0000 </r>
      </set>
      <set comment="kpoint 25">
       <r>    8.5187    1.0000 </r>
       <r>    9.4378    1.0000 </r>
       <r>   10.4506    1.0000 </r>
       <r>   11.7557    1.0000 </r>
       <r>   13.3634    0.0000 </r>
       <r>   17.2550    0.0000 </r>
       <r>   20.9536    0.0000 </r>
       <r>   28.9051    0.0000 </r>
       <r>   33.2081    0.0000 </r>
       <r>   38.5012    0.0000 </r>
       <r>   46.4867    0.0000 </r>
       <r>   51.0851    0.0000 </r>
      </set>
      <set comment="kpoint 26">
       <r>    7.5553    1.0000 </r>
       <r>   10.4028    1.0000 </r>
       <r>   10.9542    1.0000 </r>
       <r>   11.1038    1.0000 </r>
       <r>   13.4433    0.0000 </r>
       <r>   14.5651    0.0000 </r>
       <r>   21.5332    0.0000 </r>
       <r>   33.4384    0.0000 </r>
       <r>   36.5340    0.0000 </r>
       <r>   39.0858    0.0000 </r>
       <r>   44.1787    0.0000 </r>
       <r>   46.2719    0.0000 </r>
      </set>
      <set comment="kpoint 27">
       <r>    7.4262    1.0000 </r>
       <r>    8.2619    1.0000 </r>
       <r>   13.2019    0.0000 </r>
       <r>   13.5010    0.0000 </r>
       <r>   13.7792    0.0000 </r>
       <r>   15.5783    0.0000 </r>
       <r>   24.4722    0.0000 </r>
       <r>   27.9145    0.0000 </r>
       <r>   29.0277    0.0000 </r>
       <r>   35.0938    0.0000 </r>
       <r>   40.0185    0.0000 </r>
       <r>   52.7697    0.0000 </r>
      </set>
      <set comment="kpoint 28">
       <r>    7.7232    1.0000 </r>
       <r>    8.6042    1.0000 </r>
       <r>   11.6605    1.0000 </r>
       <r>   13.0672    0.0000 </r>
       <r>   13.5859    0.0000 </r>
       <r>   15.6233    0.0000 </r>
       <r>   26.2524    0.0000 </r>
       <r>   27.1605    0.0000 </r>
       <r>   29.3272    0.0000 </r>
       <r>   36.8434    0.0000 </r>
       <r>   42.3042    0.0000 </r>
       <r>   52.6256    0.0000 </r>
      </set>
      <set comment="kpoint 29">
       <r>    8.0777    1.0000 </r>
       <r>    9.2946    1.0000 </r>
       <r>   10.4984    1.0000 </r>
       <r>   11.9450    1.0000 </r>
       <r>   13.5209    0.0000 </r>
       <r>   15.4891    0.0000 </r>
       <r>   23.4593    0.0000 </r>
       <r>   30.4244    0.0000 </r>
       <r>   32.2132    0.0000 </r>
       <r>   38.1096    0.0000 </r>
       <r>   47.0388    0.0000 </r>
       <r>   49.6774    0.0000 </r>
      </set>
      <set comment="kpoint 30">
       <r>    7.2058    1.0000 </r>
       <r>    8.7632    1.0000 </r>
       <r>   11.7609    1.0000 </r>
       <r>   12.8213    0.0000 </r>
       <r>   13.3651    0.0000 </r>
       <r>   13.4428    0.0000 </r>
       <r>   29.2018    0.0000 </r>
       <r>   30.1445    0.0000 </r>
       <r>   31.1630    0.0000 </r>
       <r>   35.4050    0.0000 </r>
       <r>   40.7839    0.0000 </r>
       <r>   52.7427    0.0000 </r>
      </set>
      <set comment="kpoint 31">
       <r>    6.7259    1.0000 </r>
       <r>    9.3061    1.0000 </r>
       <r>   10.8879    1.0000 </r>
       <r>   12.1723    0.9277 </r>
       <r>   12.7588    0.0000 </r>
       <r>   13.5909    0.0000 </r>
       <r>   29.0390    0.0000 </r>
       <r>   31.5074    0.0000 </r>
       <r>   33.8041    0.0000 </r>
       <r>   37.9545    0.0000 </r>
       <r>   43.8787    0.0000 </r>
       <r>   50.0724    0.0000 </r>
      </set>
      <set comment="kpoint 32">
       <r>    5.1872    1.0000 </r>
       <r>    9.7158    1.0000 </r>
       <r>   11.3885    1.0000 </r>
       <r>   11.7821    1.0000 </r>
       <r>   12.0484    1.0000 </r>
       <r>   12.9835    0.0000 </r>
       <r>   32.8397    0.0000 </r>
       <r>   35.0899    0.0000 </r>
       <r>   35.2212    0.0000 </r>
       <r>   37.1151    0.0000 </r>
       <r>   44.1537    0.0000 </r>
       <r>   50.6246    0.0000 </r>
      </set>
      <set comment="kpoint 33">
       <r>    4.0181    1.0000 </r>
       <r>   10.3990    1.0000 </r>
       <r>   11.1672    1.0000 </r>
       <r>   11.1672    1.0000 </r>
       <r>   12.4857    0.0000 </r>
       <r>   12.4857    0.0000 </r>
       <r>   31.9880    0.0000 </r>
       <r>   37.2016    0.0000 </r>
       <r>   40.9780    0.0000 </r>
       <r>   40.9780    0.0000 </r>
       <r>   46.0443    0.0000 </r>
       <r>   46.7956    0.0000 </r>
      </set>
      <set comment="kpoint 34">
       <r>    5.2032    1.0000 </r>
       <r>   10.0487    1.0000 </r>
       <r>   11.0936    1.0000 </r>
       <r>   11.4980    1.0000 </r>
       <r>   12.0588    1.0000 </r>
       <r>   13.1695    0.0000 </r>
       <r>   30.3492    0.0000 </r>
       <r>   32.9694    0.0000 </r>
       <r>   40.5719    0.0000 </r>
       <r>   42.5976    0.0000 </r>
       <r>   43.2148    0.0000 </r>
       <r>   45.9660    0.0000 </r>
      </set>
      <set comment="kpoint 35">
       <r>    7.0968    1.0000 </r>
       <r>    9.8048    1.0000 </r>
       <r>   10.5691    1.0000 </r>
       <r>   11.6686    1.0000 </r>
       <r>   12.2774    0.0650 </r>
       <r>   14.3452    0.0000 </r>
       <r>   26.8347    0.0000 </r>
       <r>   29.6467    0.0000 </r>
       <r>   38.5720    0.0000 </r>
       <r>   39.9797    0.0000 </r>
       <r>   44.5998    0.0000 </r>
       <r>   47.2794    0.0000 </r>
      </set>
      <set comment="kpoint 36">
       <r>    8.1543    1.0000 </r>
       <r>    9.8649    1.0000 </r>
       <r>   10.5032    1.0000 </r>
       <r>   11.4887    1.0000 </r>
       <r>   13.1544    0.0000 </r>
       <r>   15.9919    0.0000 </r>
       <r>   21.8191    0.0000 </r>
       <r>   29.8505    0.0000 </r>
       <r>   36.6755    0.0000 </r>
       <r>   36.9519    0.0000 </r>
       <r>   47.1641    0.0000 </r>
       <r>   47.4725    0.0000 </r>
      </set>
      <set comment="kpoint 37">
       <r>    8.0616    1.0000 </r>
       <r>    9.5997    1.0000 </r>
       <r>   10.6497    1.0000 </r>
       <r>   11.5725    1.0000 </r>
       <r>   13.6280    0.0000 </r>
       <r>   15.7170    0.0000 </r>
       <r>   21.7434    0.0000 </r>
       <r>   31.1259    0.0000 </r>
       <r>   34.5740    0.0000 </r>
       <r>   36.7576    0.0000 </r>
       <r>   48.2344    0.0000 </r>
       <r>   48.6230    0.0000 </r>
      </set>
      <set comment="kpoint 38">
       <r>    6.9690    1.0000 </r>
       <r>    9.4273    1.0000 </r>
       <r>   10.7671    1.0000 </r>
       <r>   11.7945    1.0000 </r>
       <r>   13.4323    0.0000 </r>
       <r>   13.4612    0.0000 </r>
       <r>   26.7392    0.0000 </r>
       <r>   33.1184    0.0000 </r>
       <r>   34.1250    0.0000 </r>
       <r>   37.4480    0.0000 </r>
       <r>   46.1699    0.0000 </r>
       <r>   49.4672    0.0000 </r>
      </set>
      <set comment="kpoint 39">
       <r>    5.8646    1.0000 </r>
       <r>    9.8292    1.0000 </r>
       <r>   11.0164    1.0000 </r>
       <r>   11.4694    1.0000 </r>
       <r>   12.6804    0.0000 </r>
       <r>   13.1324    0.0000 </r>
       <r>   28.3025    0.0000 </r>
       <r>   35.1238    0.0000 </r>
       <r>   36.2464    0.0000 </r>
       <r>   39.7193    0.0000 </r>
       <r>   46.3269    0.0000 </r>
       <r>   47.6389    0.0000 </r>
      </set>
      <set comment="kpoint 40">
       <r>    7.3033    1.0000 </r>
       <r>    9.4887    1.0000 </r>
       <r>   10.4819    1.0000 </r>
       <r>   12.0354    1.0000 </r>
       <r>   12.6322    0.0000 </r>
       <r>   14.3415    0.0000 </r>
       <r>   27.0566    0.0000 </r>
       <r>   29.8101    0.0000 </r>
       <r>   34.4790    0.0000 </r>
       <r>   40.7936    0.0000 </r>
       <r>   44.4319    0.0000 </r>
       <r>   48.5799    0.0000 </r>
      </set>
      <set comment="kpoint 41">
       <r>    8.5961    1.0000 </r>
       <r>    9.4796    1.0000 </r>
       <r>    9.8846    1.0000 </r>
       <r>   12.1670    0.9463 </r>
       <r>   13.0634    0.0000 </r>
       <r>   16.5032    0.0000 </r>
       <r>   23.9465    0.0000 </r>
       <r>   27.2084    0.0000 </r>
       <r>   31.7291    0.0000 </r>
       <r>   41.7578    0.0000 </r>
       <r>   44.1281    0.0000 </r>
       <r>   50.8007    0.0000 </r>
      </set>
      <set comment="kpoint 42">
       <r>    8.8147    1.0000 </r>
       <r>    9.1118    1.0000 </r>
       <r>   10.2348    1.0000 </r>
       <r>   12.1048    0.9996 </r>
       <r>   13.4738    0.0000 </r>
       <r>   18.2426    0.0000 </r>
       <r>   21.1629    0.0000 </r>
       <r>   28.1290    0.0000 </r>
       <r>   29.9467    0.0000 </r>
       <r>   40.5105    0.0000 </r>
       <r>   45.6967    0.0000 </r>
       <r>   51.5837    0.0000 </r>
      </set>
      <set comment="kpoint 43">
       <r>    8.0464    1.0000 </r>
       <r>    9.1748    1.0000 </r>
       <r>   10.3728    1.0000 </r>
       <r>   12.4447    0.0000 </r>
       <r>   13.1212    0.0000 </r>
       <r>   15.3895    0.0000 </r>
       <r>   25.7201    0.0000 </r>
       <r>   28.5051    0.0000 </r>
       <r>   30.9668    0.0000 </r>
       <r>   40.0697    0.0000 </r>
       <r>   44.8121    0.0000 </r>
       <r>   49.0451    0.0000 </r>
      </set>
      <set comment="kpoint 44">
       <r>    7.7402    1.0000 </r>
       <r>    9.0339    1.0000 </r>
       <r>   10.8307    1.0000 </r>
       <r>   12.2069    0.6846 </r>
       <r>   13.6324    0.0000 </r>
       <r>   14.6934    0.0000 </r>
       <r>   25.3786    0.0000 </r>
       <r>   30.1609    0.0000 </r>
       <r>   32.3797    0.0000 </r>
       <r>   36.5081    0.0000 </r>
       <r>   45.2627    0.0000 </r>
       <r>   51.8631    0.0000 </r>
      </set>
      <set comment="kpoint 45">
       <r>    8.2139    1.0000 </r>
       <r>    8.9355    1.0000 </r>
       <r>   10.6950    1.0000 </r>
       <r>   12.7308    0.0000 </r>
       <r>   13.5065    0.0000 </r>
       <r>   16.9677    0.0000 </r>
       <r>   24.6579    0.0000 </r>
       <r>   26.9591    0.0000 </r>
       <r>   28.3498    0.0000 </r>
       <r>   39.6038    0.0000 </r>
       <r>   45.0442    0.0000 </r>
       <r>   49.9191    0.0000 </r>
      </set>
      <set comment="kpoint 46">
       <r>    8.5472    1.0000 </r>
       <r>    9.3585    1.0000 </r>
       <r>   10.1179    1.0000 </r>
       <r>   12.4167    0.0000 </r>
       <r>   13.7465    0.0000 </r>
       <r>   20.3654    0.0000 </r>
       <r>   22.2375    0.0000 </r>
       <r>   24.9998    0.0000 </r>
       <r>   26.7101    0.0000 </r>
       <r>   42.6681    0.0000 </r>
       <r>   46.3305    0.0000 </r>
       <r>   48.8179    0.0000 </r>
      </set>
      <set comment="kpoint 47">
       <r>    8.6974    1.0000 </r>
       <r>    9.3622    1.0000 </r>
       <r>    9.9347    1.0000 </r>
       <r>   12.3727    0.0000 </r>
       <r>   13.4769    0.0000 </r>
       <r>   18.3330    0.0000 </r>
       <r>   22.9007    0.0000 </r>
       <r>   26.3544    0.0000 </r>
       <r>   28.4458    0.0000 </r>
       <r>   42.6511    0.0000 </r>
       <r>   44.6018    0.0000 </r>
       <r>   50.0608    0.0000 </r>
      </set>
      <set comment="kpoint 48">
[...]
       </set>
       <set comment="band 5">
        <r>  0.0002  0.0000  0.0005  0.0009  0.0025  0.0310  0.0001  0.9525  0.0061 </r>
       </set>
       <set comment="band 6">
        <r>  0.0246  0.0077  0.5330  0.0012  0.0002  0.3153  0.0311  0.0158  0.0022 </r>
       </set>
       <set comment="band 7">
        <r>  0.0019  0.1485  0.0128  0.2928  0.1617  0.0095  0.2294  0.0053  0.0218 </r>
       </set>
       <set comment="band 8">
        <r>  0.2769  0.0176  0.0334  0.1308  0.1015  0.0052  0.3288  0.0007  0.0005 </r>
       </set>
       <set comment="band 9">
        <r>  0.2744  0.1844  0.0046  0.1535  0.0543  0.0014  0.0024  0.0015  0.1083 </r>
       </set>
       <set comment="band 10">
        <r>  0.0222  0.0267  0.0005  0.0688  0.7332  0.0000  0.0135  0.0012  0.0048 </r>
       </set>
       <set comment="band 11">
        <r>  0.2910  0.2578  0.0053  0.0136  0.0711  0.0000  0.1678  0.0003  0.0097 </r>
       </set>
       <set comment="band 12">
        <r>  0.2087  0.0021  0.0293  0.0002  0.0001  0.3932  0.0203  0.0025  0.0298 </r>
       </set>
      </set>
      <set comment="kpoint 50">
       <set comment="band 1">
        <r>  0.0895  0.0109  0.0504  0.0109  0.0625  0.0072  0.6570  0.0072  0.0000 </r>
       </set>
       <set comment="band 2">
        <r>  0.0005  0.0299  0.0002  0.0299  0.8283  0.0080  0.0542  0.0080  0.0000 </r>
       </set>
       <set comment="band 3">
        <r>  0.0410  0.0000  0.2055  0.0000  0.0315  0.2958  0.0775  0.2958  0.0000 </r>
       </set>
       <set comment="band 4">
        <r>  0.0000  0.0064  0.0000  0.0064  0.0000  0.1630  0.0000  0.1630  0.6405 </r>
       </set>
       <set comment="band 5">
        <r>  0.0000  0.0000  0.0000  0.0000  0.0000  0.3292  0.0000  0.3292  0.3357 </r>
       </set>
       <set comment="band 6">
        <r>  0.0757  0.0180  0.3242  0.0180  0.0051  0.1874  0.1260  0.1874  0.0000 </r>
       </set>
       <set comment="band 7">
        <r>  0.1028  0.2089  0.0030  0.2089  0.1803  0.0382  0.0821  0.0382  0.0000 </r>
       </set>
       <set comment="band 8">
        <r>  0.2251  0.0001  0.1714  0.0001  0.0282  0.0045  0.4438  0.0045  0.0000 </r>
       </set>
       <set comment="band 9">
        <r>  0.0000  0.3020  0.0000  0.3020  0.0000  0.0248  0.0000  0.0248  0.0986 </r>
       </set>
       <set comment="band 10">
        <r>  0.1360  0.0010  0.0209  0.0010  0.7126  0.0002  0.0309  0.0002  0.0000 </r>
       </set>
       <set comment="band 11">
        <r>  0.2816  0.0998  0.0332  0.0998  0.2016  0.0061  0.1112  0.0061  0.0000 </r>
       </set>
       <set comment="band 12">
        <r>  5.6396  0.0070  0.0052  0.0071  0.0123  0.0020  0.0090  0.0022  0.0000 </r>
       </set>
      </set>
      <set comment="kpoint 51">
       <set comment="band 1">
        <r>  0.5108  0.0563  0.0563  0.0563  0.0649  0.0649  0.0000  0.0649  0.0000 </r>
       </set>
       <set comment="band 2">
        <r>  0.0279  0.0671  0.0671  0.0671  0.2322  0.2322  0.0000  0.2322  0.0000 </r>
       </set>
       <set comment="band 3">
        <r>  0.0000  0.0007  0.0005  0.0000  0.2204  0.0094  0.2625  0.3160  0.1709 </r>
       </set>
       <set comment="band 4">
        <r>  0.0000  0.0001  0.0003  0.0008  0.1435  0.3545  0.1709  0.0479  0.2625 </r>
       </set>
       <set comment="band 5">
        <r>  0.0000  0.0000  0.0010  0.0013  0.1879  0.2434  0.3532  0.0049  0.1933 </r>
       </set>
       <set comment="band 6">
        <r>  0.0000  0.0015  0.0005  0.0003  0.1028  0.0474  0.1933  0.2859  0.3532 </r>
       </set>
       <set comment="band 7">
        <r>  0.1791  0.0857  0.0857  0.0857  0.1567  0.1567  0.0000  0.1567  0.0000 </r>
       </set>
       <set comment="band 8">
        <r>  0.0087  0.0038  0.0038  0.0038  0.0241  0.0241  0.0000  0.0241  0.0000 </r>
       </set>
       <set comment="band 9">
        <r>  0.0000  0.0092  0.1361  0.2159  0.1703  0.2701  0.0682  0.0115  0.0524 </r>
       </set>
       <set comment="band 10">
        <r>  0.0000  0.2316  0.1046  0.0249  0.1309  0.0311  0.0524  0.2898  0.0682 </r>
       </set>
       <set comment="band 11">
        <r>  0.0000  0.0871  0.0387  0.0097  0.0041  0.0010  0.3019  0.0091  0.4019 </r>
       </set>
       <set comment="band 12">
        <r>  0.0000  0.0032  0.0516  0.0807  0.0054  0.0084  0.4019  0.0003  0.3019 </r>
       </set>
      </set>
      <set comment="kpoint 52">
       <set comment="band 1">
        <r>  0.3704  0.0882  0.0882  0.0030  0.0820  0.1667  0.0033  0.0820  0.0098 </r>
       </set>
       <set comment="band 2">
        <r>  0.0228  0.0709  0.0709  0.0947  0.2845  0.0138  0.0189  0.2845  0.0567 </r>
       </set>
       <set comment="band 3">
        <r>  0.0016  0.0022  0.0022  0.0037  0.0661  0.3449  0.1204  0.0661  0.3613 </r>
       </set>
       <set comment="band 4">
        <r>  0.0000  0.0007  0.0007  0.0000  0.1898  0.0000  0.4464  0.1898  0.1488 </r>
       </set>
       <set comment="band 5">
        <r>  0.0000  0.0013  0.0013  0.0000  0.3020  0.0000  0.2816  0.3020  0.0939 </r>
       </set>
       <set comment="band 6">
        <r>  0.0396  0.0310  0.0310  0.0079  0.0073  0.4463  0.1021  0.0073  0.3062 </r>
       </set>
       <set comment="band 7">
        <r>  0.2083  0.0460  0.0460  0.1652  0.1669  0.1075  0.0046  0.1669  0.0137 </r>
       </set>
       <set comment="band 8">
        <r>  0.0422  0.0226  0.0226  0.1697  0.1016  0.0766  0.0375  0.1016  0.1126 </r>
       </set>
       <set comment="band 9">
        <r>  0.0390  0.1044  0.1044  0.0834  0.0043  0.0031  0.0020  0.0043  0.0059 </r>
       </set>
       <set comment="band 10">
        <r>  0.0000  0.1665  0.1665  0.0000  0.0012  0.0000  0.4351  0.0012  0.1450 </r>
       </set>
       <set comment="band 11">
        <r>  0.0717  0.0100  0.0100  0.0249  0.0150  0.1449  0.0708  0.0150  0.2125 </r>
       </set>
       <set comment="band 12">
        <r>  0.0000  0.0764  0.0764  0.0000  0.3117  0.0000  0.1957  0.3117  0.0652 </r>
       </set>
      </set>
      <set comment="kpoint 53">
       <set comment="band 1">
        <r>  0.1762  0.1109  0.1109  0.0025  0.0322  0.4155  0.0085  0.0322  0.0255 </r>
       </set>
       <set comment="band 2">
        <r>  0.0005  0.0368  0.0368  0.0226  0.0447  0.1146  0.1542  0.0447  0.4627 </r>
       </set>
       <set comment="band 3">
        <r>  0.0042  0.0024  0.0024  0.1007  0.3383  0.1072  0.0165  0.3383  0.0494 </r>
       </set>
       <set comment="band 4">
        <r>  0.0000  0.0050  0.0050  0.0000  0.0442  0.0000  0.6550  0.0442  0.2183 </r>
       </set>
       <set comment="band 5">
        <r>  0.0000  0.0004  0.0004  0.0000  0.4475  0.0000  0.0655  0.4475  0.0218 </r>
       </set>
       <set comment="band 6">
        <r>  0.1249  0.0944  0.0944  0.0061  0.0003  0.3836  0.0611  0.0003  0.1833 </r>
       </set>
       <set comment="band 7">
        <r>  0.1067  0.0095  0.0095  0.3755  0.1955  0.0297  0.0076  0.1955  0.0229 </r>
       </set>
       <set comment="band 8">
        <r>  0.2223  0.0444  0.0444  0.1159  0.0410  0.0780  0.0589  0.0410  0.1767 </r>
       </set>
       <set comment="band 9">
        <r>  0.0000  0.2220  0.2220  0.0000  0.0010  0.0000  0.3394  0.0010  0.1131 </r>
       </set>
       <set comment="band 10">
        <r>  0.1075  0.0676  0.0676  0.0054  0.0001  0.1561  0.0217  0.0001  0.0650 </r>
       </set>
       <set comment="band 11">
        <r>  0.0205  0.0001  0.0001  0.0788  0.0491  0.0345  0.0080  0.0491  0.0240 </r>
       </set>
       <set comment="band 12">
        <r>  0.0000  0.0112  0.0112  0.0000  0.3929  0.0000  0.0428  0.3929  0.0143 </r>
       </set>
      </set>
      <set comment="kpoint 54">
       <set comment="band 1">
        <r>  0.0454  0.0005  0.0005  0.0067  0.0074  0.3952  0.1179  0.0074  0.3537 </r>
       </set>
       <set comment="band 2">
        <r>  0.0127  0.0959  0.0959  0.0000  0.0056  0.3891  0.0783  0.0056  0.2349 </r>
       </set>
       <set comment="band 3">
        <r>  0.0015  0.0015  0.0015  0.1803  0.3674  0.0297  0.0011  0.3674  0.0034 </r>
       </set>
       <set comment="band 4">
        <r>  0.0000  0.0070  0.0070  0.0000  0.0354  0.0000  0.6668  0.0354  0.2223 </r>
       </set>
       <set comment="band 5">
        <r>  0.0000  0.0002  0.0002  0.0000  0.4582  0.0000  0.0533  0.4582  0.0178 </r>
       </set>
       <set comment="band 6">
        <r>  0.0720  0.1666  0.1666  0.0803  0.0168  0.2095  0.0433  0.0168  0.1299 </r>
       </set>
       <set comment="band 7">
        <r>  0.1201  0.0107  0.0107  0.4023  0.1753  0.0526  0.0001  0.1753  0.0002 </r>
       </set>
       <set comment="band 8">
        <r>  0.3320  0.0168  0.0168  0.0649  0.0108  0.0444  0.0910  0.0108  0.2730 </r>
       </set>
       <set comment="band 9">
        <r>  0.0000  0.2736  0.2736  0.0000  0.0019  0.0000  0.1960  0.0019  0.0653 </r>
       </set>
       <set comment="band 10">
        <r>  0.1444  0.0272  0.0272  0.0035  0.0000  0.4312  0.0194  0.0000  0.0581 </r>
       </set>
       <set comment="band 11">
        <r>  1.2050  0.0817  0.0817  0.0100  0.0012  0.2925  0.0160  0.0012  0.0481 </r>
       </set>
       <set comment="band 12">
        <r>  0.0000  0.0053  0.0053  0.0000  0.2847  0.0000  0.0324  0.2829  0.0110 </r>
       </set>
      </set>
      <set comment="kpoint 55">
       <set comment="band 1">
        <r>  0.2791  0.0076  0.0933  0.0076  0.1923  0.1538  0.0307  0.1538  0.0000 </r>
       </set>
       <set comment="band 2">
        <r>  0.0138  0.0939  0.0652  0.0939  0.1586  0.0486  0.3775  0.0486  0.0000 </r>
       </set>
       <set comment="band 3">
        <r>  0.0183  0.0154  0.0412  0.0154  0.4665  0.0739  0.2612  0.0739  0.0000 </r>
       </set>
       <set comment="band 4">
        <r>  0.0000  0.0033  0.0000  0.0033  0.0000  0.2236  0.0000  0.2236  0.5234 </r>
       </set>
       <set comment="band 5">
        <r>  0.0000  0.0002  0.0000  0.0002  0.0000  0.2681  0.0000  0.2681  0.4562 </r>
       </set>
       <set comment="band 6">
        <r>  0.0381  0.0372  0.0888  0.0372  0.0956  0.1781  0.3025  0.1781  0.0000 </r>
       </set>
       <set comment="band 7">
        <r>  0.2783  0.0946  0.0123  0.0946  0.1930  0.1272  0.0096  0.1272  0.0000 </r>
       </set>
       <set comment="band 8">
        <r>  0.0019  0.0007  0.0732  0.0007  0.1019  0.0068  0.2820  0.0068  0.0000 </r>
       </set>
       <set comment="band 9">
        <r>  0.0000  0.2425  0.0000  0.2425  0.0000  0.0935  0.0000  0.0935  0.1644 </r>
       </set>
       <set comment="band 10">
        <r>  0.1062  0.0378  0.2570  0.0378  0.1508  0.0069  0.0834  0.0069  0.0000 </r>
       </set>
       <set comment="band 11">
        <r>  0.0276  0.0001  0.0146  0.0001  0.3368  0.0257  0.4831  0.0257  0.0000 </r>
       </set>
       <set comment="band 12">
        <r>  0.0000  0.0518  0.0000  0.0518  0.0000  0.0824  0.0000  0.0824  0.5741 </r>
       </set>
      </set>
      <set comment="kpoint 56">
       <set comment="band 1">
        <r>  0.1481  0.0185  0.0874  0.0091  0.2591  0.2459  0.0648  0.0995  0.0017 </r>
       </set>
       <set comment="band 2">
        <r>  0.0001  0.0844  0.0250  0.0546  0.0805  0.0360  0.4812  0.0237  0.1184 </r>
       </set>
       <set comment="band 3">
        <r>  0.0131  0.0110  0.0575  0.0500  0.4044  0.3364  0.0481  0.0044  0.0345 </r>
       </set>
       <set comment="band 4">
        <r>  0.0000  0.0018  0.0145  0.0027  0.0323  0.0095  0.1489  0.2409  0.5220 </r>
       </set>
       <set comment="band 5">
        <r>  0.0007  0.0004  0.0029  0.0021  0.0872  0.0629  0.0634  0.5513  0.2167 </r>
       </set>
       <set comment="band 6">
        <r>  0.0668  0.0767  0.1748  0.0520  0.0235  0.2950  0.1631  0.0103  0.0739 </r>
       </set>
       <set comment="band 7">
        <r>  0.2767  0.0379  0.0000  0.1884  0.2113  0.0829  0.0128  0.1167  0.0123 </r>
       </set>
       <set comment="band 8">
        <r>  0.0291  0.0921  0.0078  0.1706  0.1030  0.0667  0.1793  0.0188  0.1224 </r>
       </set>
       <set comment="band 9">
        <r>  0.1651  0.0001  0.2653  0.0789  0.0016  0.0176  0.1993  0.0316  0.0438 </r>
       </set>
       <set comment="band 10">
        <r>  0.0045  0.2492  0.0408  0.0337  0.1089  0.0046  0.0044  0.0033  0.0001 </r>
       </set>
       <set comment="band 11">
        <r>  0.0637  0.0203  0.0007  0.0054  0.2946  0.1676  0.0828  0.0434  0.2482 </r>
       </set>
       <set comment="band 12">
        <r>  0.0892  0.0338  0.0166  0.0004  0.0986  0.0803  0.2498  0.0231  0.0446 </r>
       </set>
      </set>
      <set comment="kpoint 57">
       <set comment="band 1">
        <r>  0.0016  0.0809  0.0179  0.0035  0.0003  0.0018  0.4567  0.0001  0.3325 </r>
       </set>
       <set comment="band 2">
        <r>  0.0397  0.0117  0.0928  0.0065  0.0357  0.7503  0.0007  0.0123  0.0061 </r>
       </set>
       <set comment="band 3">
        <r>  0.0009  0.0014  0.0059  0.1472  0.6839  0.0503  0.0039  0.0621  0.0007 </r>
       </set>
       <set comment="band 4">
        <r>  0.0087  0.0012  0.0088  0.0018  0.0004  0.0034  0.3884  0.0270  0.5308 </r>
       </set>
       <set comment="band 5">
        <r>  0.0008  0.0000  0.0000  0.0032  0.1100  0.0059  0.0109  0.8446  0.0143 </r>
       </set>
       <set comment="band 6">
        <r>  0.0620  0.1085  0.2566  0.0669  0.0269  0.2190  0.1098  0.0009  0.0596 </r>
       </set>
       <set comment="band 7">
        <r>  0.1135  0.0000  0.0265  0.4167  0.2569  0.0484  0.0001  0.0764  0.0037 </r>
       </set>
       <set comment="band 8">
        <r>  0.2555  0.0857  0.0011  0.0737  0.0249  0.0436  0.1321  0.0037  0.2373 </r>
       </set>
       <set comment="band 9">
        <r>  0.1951  0.0720  0.2579  0.0040  0.0003  0.0706  0.2086  0.0023  0.0121 </r>
       </set>
       <set comment="band 10">
        <r>  0.0344  0.1534  0.0353  0.0022  0.0004  0.3565  0.0048  0.0005  0.0726 </r>
       </set>
       <set comment="band 11">
        <r>  0.0068  0.0164  0.0004  0.0463  0.4678  0.0358  0.0114  0.0167  0.0191 </r>
       </set>
       <set comment="band 12">
        <r>  1.0281  0.2172  0.0239  0.0001  0.0320  0.2387  0.0188  0.0000  0.0678 </r>
       </set>
      </set>
      <set comment="kpoint 58">
       <set comment="band 1">
        <r>  0.0945  0.0023  0.0431  0.0023  0.4913  0.0782  0.1566  0.0782  0.0000 </r>
       </set>
       <set comment="band 2">
        <r>  0.0003  0.0849  0.0073  0.0849  0.1221  0.0126  0.5768  0.0126  0.0000 </r>
       </set>
       <set comment="band 3">
        <r>  0.0107  0.0106  0.1403  0.0106  0.2134  0.2660  0.0376  0.2660  0.0000 </r>
       </set>
       <set comment="band 4">
        <r>  0.0000  0.0060  0.0000  0.0060  0.0000  0.1366  0.0000  0.1366  0.6889 </r>
       </set>
       <set comment="band 5">
        <r>  0.0000  0.0002  0.0000  0.0002  0.0000  0.3566  0.0000  0.3566  0.2771 </r>
       </set>
       <set comment="band 6">
        <r>  0.0068  0.1028  0.2440  0.1028  0.0716  0.0920  0.2063  0.0920  0.0000 </r>
       </set>
       <set comment="band 7">
        <r>  0.3228  0.0698  0.0503  0.0698  0.1965  0.1092  0.0075  0.1092  0.0000 </r>
       </set>
       <set comment="band 8">
        <r>  0.1548  0.0124  0.1996  0.0124  0.0329  0.0285  0.3667  0.0285  0.0000 </r>
       </set>
       <set comment="band 9">
        <r>  0.0000  0.2690  0.0000  0.2690  0.0000  0.0173  0.0000  0.0173  0.2400 </r>
       </set>
       <set comment="band 10">
        <r>  0.1401  0.0305  0.0340  0.0305  0.3823  0.0002  0.0408  0.0002  0.0000 </r>
       </set>
       <set comment="band 11">
        <r>  0.0001  0.0470  0.0324  0.0470  0.3757  0.0059  0.0455  0.0059  0.0000 </r>
       </set>
       <set comment="band 12">
        <r>  0.0000  0.0278  0.0000  0.0279  0.0000  0.2100  0.0000  0.2099  0.2534 </r>
       </set>
      </set>
      <set comment="kpoint 59">
       <set comment="band 1">
        <r>  0.2618  0.0089  0.0089  0.0089  0.2171  0.2171  0.0000  0.2171  0.0000 </r>
       </set>
       <set comment="band 2">
        <r>  0.0000  0.0000  0.0000  0.0001  0.0709  0.2433  0.1435  0.1022  0.4184 </r>
       </set>
       <set comment="band 3">
        <r>  0.0000  0.0001  0.0001  0.0000  0.2067  0.0343  0.4184  0.1754  0.1435 </r>
       </set>
       <set comment="band 4">
        <r>  0.0322  0.2255  0.2255  0.2255  0.0384  0.0384  0.0000  0.0384  0.0000 </r>
       </set>
       <set comment="band 5">
        <r>  0.0000  0.0004  0.0001  0.0001  0.0795  0.1144  0.0869  0.3791  0.3307 </r>
       </set>
       <set comment="band 6">
        <r>  0.0000  0.0000  0.0003  0.0003  0.3025  0.2676  0.3307  0.0029  0.0869 </r>
       </set>
       <set comment="band 7">
        <r>  0.3769  0.0255  0.0255  0.0255  0.1723  0.1723  0.0000  0.1723  0.0000 </r>
       </set>
       <set comment="band 8">
        <r>  0.0008  0.0105  0.0105  0.0105  0.0031  0.0031  0.0000  0.0031  0.0000 </r>
       </set>
       <set comment="band 9">
        <r>  0.0000  0.0105  0.3145  0.2161  0.0536  0.0369  0.0201  0.0018  0.0030 </r>
       </set>
       <set comment="band 10">
        <r>  0.0000  0.3503  0.0463  0.1446  0.0079  0.0247  0.0030  0.0597  0.0201 </r>
       </set>
       <set comment="band 11">
        <r>  0.0000  0.0031  0.0193  0.0070  0.2182  0.0790  0.8445  0.0347  0.0119 </r>
       </set>
       <set comment="band 12">
        <r>  0.0000  0.0165  0.0003  0.0126  0.0031  0.1423  0.0119  0.1865  0.8445 </r>
       </set>
      </set>
      <set comment="kpoint 60">
       <set comment="band 1">
        <r>  0.1936  0.0114  0.0114  0.0126  0.2134  0.2924  0.0000  0.2134  0.0001 </r>
       </set>
       <set comment="band 2">
        <r>  0.0002  0.0570  0.0570  0.0238  0.0120  0.0692  0.1718  0.0120  0.5154 </r>
       </set>
       <set comment="band 3">
        <r>  0.0011  0.0964  0.0964  0.1289  0.1433  0.3112  0.0003  0.1433  0.0008 </r>
       </set>
       <set comment="band 4">
        <r>  0.0000  0.0019  0.0019  0.0000  0.1822  0.0000  0.4557  0.1822  0.1519 </r>
       </set>
       <set comment="band 5">
        <r>  0.0000  0.0003  0.0003  0.0000  0.3120  0.0000  0.2743  0.3120  0.0914 </r>
       </set>
       <set comment="band 6">
        <r>  0.0076  0.1029  0.1029  0.1008  0.0343  0.2509  0.0742  0.0343  0.2225 </r>
       </set>
       <set comment="band 7">
        <r>  0.4086  0.0000  0.0000  0.0477  0.1781  0.1601  0.0005  0.1781  0.0016 </r>
       </set>
       <set comment="band 8">
        <r>  0.0218  0.0043  0.0043  0.1520  0.0447  0.0608  0.0611  0.0447  0.1834 </r>
       </set>
       <set comment="band 9">
        <r>  0.0748  0.0867  0.0867  0.1598  0.0103  0.0358  0.0010  0.0103  0.0031 </r>
       </set>
       <set comment="band 10">
        <r>  0.0000  0.2307  0.2307  0.0000  0.0241  0.0000  0.2401  0.0241  0.0800 </r>
       </set>
       <set comment="band 11">
        <r>  0.0000  0.0562  0.0562  0.0000  0.2075  0.0000  0.3572  0.2075  0.1191 </r>
       </set>
       <set comment="band 12">
        <r>  0.0705  0.0005  0.0005  0.0010  0.0001  0.3435  0.1221  0.0001  0.3662 </r>
       </set>
      </set>
     </set>
    </set>
   </array>
  </projected>
 </calculation>
 <structure name="finalpos" >
  <crystal>
   <varray name="basis" >
    <v>       0.00000000       1.68409685       1.68409685 </v>
    <v>       1.68409685       0.00000000       1.68409685 </v>
    <v>       1.68409685       1.68409685       0.00000000 </v>
   </varray>
   <i name="volume">      9.55281109 </i>
   <varray name="rec_basis" >
    <v>      -0.29689504       0.29689504       0.29689504 </v>
    <v>       0.29689504      -0.29689504       0.29689504 </v>
    <v>       0.29689504       0.29689504      -0.29689504 </v>
   </varray>
  </crystal>
  <varray name="positions" >
   <v>       0.00000000       0.00000000       0.00000000 </v>
  </varray>
 </structure>
</modeling>
