   2   2   1   0
  0.1287815E+02  0.2641812E-09  0.2641812E-09  0.4261368E-09  0.5000000E-15
  1.000000000000000E-004
  CAR 
 Co-hcc                                  
     44.32295238     -2.04734542  301      8.03105155      1.00000000
     -2.047  0.0000E+00  0.0000E+00  0.0000E+00  0.0000E+00
     -1.893  0.0000E+00  0.0000E+00  0.0000E+00  0.0000E+00
     -1.738  0.0000E+00  0.0000E+00  0.0000E+00  0.0000E+00
     -1.584  0.0000E+00  0.0000E+00  0.0000E+00  0.0000E+00
     -1.429  0.0000E+00  0.0000E+00  0.0000E+00  0.0000E+00
     -1.275  0.0000E+00  0.0000E+00  0.0000E+00  0.0000E+00
     -1.120  0.0000E+00  0.0000E+00  0.0000E+00  0.0000E+00
     -0.965  0.0000E+00  0.0000E+00  0.0000E+00  0.0000E+00
     -0.811  0.0000E+00  0.0000E+00  0.0000E+00  0.0000E+00
     -0.656  0.0000E+00  0.0000E+00  0.0000E+00  0.0000E+00
     -0.502  0.0000E+00  0.0000E+00  0.0000E+00  0.0000E+00
     -0.347  0.0000E+00  0.0000E+00  0.0000E+00  0.0000E+00
     -0.193  0.1247E-19  0.2368E-16  0.1927E-20  0.3661E-17
     -0.038  0.5048E-08  0.1517E-06  0.7803E-09  0.2344E-07
      0.117  0.4129E-04  0.5391E-04  0.6383E-05  0.8356E-05
      0.271  0.1615E-03  0.2682E-03  0.3135E-04  0.4982E-04
      0.426  0.4985E-03  0.6192E-03  0.1084E-03  0.1455E-03
      0.580  0.4824E-03  0.2591E-03  0.1830E-03  0.1856E-03
      0.735  0.3115E-03  0.3920E-03  0.2311E-03  0.2462E-03
      0.889  0.1311E-02  0.1461E-02  0.4337E-03  0.4720E-03
      1.044  0.7310E-03  0.6710E-03  0.5467E-03  0.5757E-03
      1.199  0.5002E-03  0.4034E-03  0.6240E-03  0.6380E-03
      1.353  0.7346E-03  0.6574E-03  0.7375E-03  0.7397E-03
      1.508  0.1379E-02  0.1572E-02  0.9507E-03  0.9826E-03
      1.662  0.1633E-02  0.1531E-02  0.1203E-02  0.1219E-02
      1.817  0.4206E-03  0.3189E-03  0.1268E-02  0.1268E-02
      1.971  0.1479E-02  0.1288E-02  0.1497E-02  0.1468E-02
      2.126  0.2237E-02  0.2379E-02  0.1843E-02  0.1835E-02
      2.281  0.3917E-03  0.1480E-03  0.1903E-02  0.1858E-02
      2.435  0.1230E-02  0.1381E-02  0.2093E-02  0.2072E-02
      2.590  0.2630E-02  0.1422E-02  0.2500E-02  0.2291E-02
      2.744  0.2282E-02  0.3039E-02  0.2852E-02  0.2761E-02
      2.899  0.2586E-02  0.1507E-02  0.3252E-02  0.2994E-02
      3.053  0.1961E-02  0.1833E-02  0.3555E-02  0.3277E-02
      3.208  0.1801E-02  0.1392E-02  0.3834E-02  0.3493E-02
      3.363  0.3133E-02  0.1580E-02  0.4318E-02  0.3737E-02
      3.517  0.5671E-02  0.2317E-02  0.5194E-02  0.4095E-02
      3.672  0.8303E-02  0.3125E-02  0.6478E-02  0.4578E-02
      3.826  0.1135E-01  0.2187E-02  0.8232E-02  0.4916E-02
      3.981  0.1266E-01  0.3626E-02  0.1019E-01  0.5476E-02
      4.135  0.1683E-01  0.2785E-02  0.1279E-01  0.5907E-02
      4.290  0.2257E-01  0.3725E-02  0.1628E-01  0.6483E-02
      4.444  0.2009E-01  0.4908E-02  0.1938E-01  0.7241E-02
      4.599  0.2030E-01  0.2014E-02  0.2252E-01  0.7553E-02
      4.754  0.2250E-01  0.7801E-02  0.2600E-01  0.8759E-02
      4.908  0.2529E-01  0.1098E-01  0.2991E-01  0.1046E-01
      5.063  0.2739E-01  0.6735E-02  0.3414E-01  0.1150E-01
      5.217  0.2248E-01  0.8780E-02  0.3761E-01  0.1285E-01
      5.372  0.1859E-01  0.9306E-02  0.4049E-01  0.1429E-01
      5.526  0.3900E-01  0.1298E-01  0.4652E-01  0.1630E-01
      5.681  0.3609E-01  0.1373E-01  0.5210E-01  0.1842E-01
      5.836  0.4060E-01  0.1813E-01  0.5837E-01  0.2122E-01
      5.990  0.4050E-01  0.1484E-01  0.6463E-01  0.2352E-01
      6.145  0.3300E-01  0.1716E-01  0.6973E-01  0.2617E-01
      6.299  0.2169E-01  0.2300E-01  0.7308E-01  0.2973E-01
      6.454  0.3098E-01  0.2449E-01  0.7787E-01  0.3351E-01
      6.608  0.1836E-01  0.1990E-01  0.8071E-01  0.3659E-01
      6.763  0.3118E-01  0.1179E-01  0.8553E-01  0.3841E-01
      6.918  0.3847E-01  0.1010E-01  0.9148E-01  0.3997E-01
      7.072  0.5888E-01  0.2578E-01  0.1006E+00  0.4396E-01
      7.227  0.2454E-01  0.2969E-01  0.1044E+00  0.4855E-01
      7.381  0.1442E-02  0.3335E-01  0.1046E+00  0.5370E-01
      7.536  0.5326E-02  0.3338E-01  0.1054E+00  0.5886E-01
      7.690  0.5665E-02  0.3744E-01  0.1063E+00  0.6465E-01
      7.845  0.4629E-02  0.2496E-01  0.1070E+00  0.6851E-01
      8.000  0.1906E-02  0.2155E-01  0.1073E+00  0.7184E-01
      8.154  0.1164E-02  0.1727E-01  0.1075E+00  0.7451E-01
      8.309  0.1270E-02  0.2239E-01  0.1077E+00  0.7797E-01
      8.463  0.2493E-02  0.1455E-01  0.1081E+00  0.8022E-01
      8.618  0.4822E-02  0.1973E-01  0.1088E+00  0.8327E-01
      8.772  0.5747E-02  0.2887E-01  0.1097E+00  0.8773E-01
      8.927  0.4295E-02  0.3427E-01  0.1104E+00  0.9303E-01
      9.082  0.2008E-02  0.5571E-01  0.1107E+00  0.1016E+00
      9.236  0.2736E-02  0.2444E-01  0.1111E+00  0.1054E+00
      9.391  0.5705E-03  0.8620E-02  0.1112E+00  0.1067E+00
      9.545  0.3297E-02  0.4585E-02  0.1117E+00  0.1075E+00
      9.700  0.1618E-02  0.3824E-02  0.1119E+00  0.1080E+00
      9.854  0.4577E-02  0.4406E-02  0.1127E+00  0.1087E+00
     10.009  0.1471E-02  0.5059E-02  0.1129E+00  0.1095E+00
     10.163  0.2798E-02  0.5755E-02  0.1133E+00  0.1104E+00
     10.318  0.3636E-02  0.4515E-02  0.1139E+00  0.1111E+00
     10.473  0.2141E-02  0.2943E-02  0.1142E+00  0.1116E+00
     10.627  0.1212E-02  0.3235E-02  0.1144E+00  0.1121E+00
     10.782  0.2018E-02  0.1652E-02  0.1147E+00  0.1123E+00
     10.936  0.6549E-02  0.4430E-02  0.1157E+00  0.1130E+00
     11.091  0.2694E-02  0.1910E-02  0.1161E+00  0.1133E+00
     11.245  0.2623E-02  0.4287E-02  0.1165E+00  0.1140E+00
     11.400  0.1594E-02  0.1073E-02  0.1168E+00  0.1141E+00
     11.555  0.1755E-02  0.4050E-02  0.1171E+00  0.1147E+00
     11.709  0.1727E-03  0.5120E-02  0.1171E+00  0.1155E+00
     11.864  0.2284E-02  0.2534E-02  0.1174E+00  0.1159E+00
     12.018  0.9373E-03  0.2465E-02  0.1176E+00  0.1163E+00
     12.173  0.1609E-02  0.2258E-02  0.1178E+00  0.1167E+00
     12.327  0.1470E-02  0.2648E-02  0.1181E+00  0.1171E+00
     12.482  0.5477E-02  0.1562E-02  0.1189E+00  0.1173E+00
     12.637  0.2498E-02  0.1571E-02  0.1193E+00  0.1176E+00
     12.791  0.1552E-02  0.1588E-02  0.1195E+00  0.1178E+00
     12.946  0.9284E-03  0.8828E-03  0.1197E+00  0.1179E+00
     13.100  0.3396E-03  0.4281E-02  0.1197E+00  0.1186E+00
     13.255  0.5799E-03  0.4153E-02  0.1198E+00  0.1192E+00
     13.409  0.4606E-03  0.1554E-02  0.1199E+00  0.1195E+00
     13.564  0.1658E-02  0.1244E-02  0.1201E+00  0.1197E+00
     13.719  0.9454E-03  0.1292E-04  0.1203E+00  0.1197E+00
     13.873  0.4442E-03  0.5221E-09  0.1204E+00  0.1197E+00
     14.028  0.2785E-02  0.3045E-03  0.1208E+00  0.1197E+00
     14.182  0.2572E-02  0.2347E-02  0.1212E+00  0.1201E+00
     14.337  0.4225E-02  0.8717E-03  0.1218E+00  0.1202E+00
     14.491  0.6338E-02  0.6700E-03  0.1228E+00  0.1203E+00
     14.646  0.4872E-02  0.9593E-03  0.1236E+00  0.1205E+00
     14.801  0.3258E-02  0.1109E-02  0.1241E+00  0.1206E+00
     14.955  0.4316E-02  0.3410E-02  0.1247E+00  0.1212E+00
     15.110  0.3682E-02  0.7734E-02  0.1253E+00  0.1224E+00
     15.264  0.2691E-02  0.7075E-02  0.1257E+00  0.1235E+00
     15.419  0.1872E-02  0.2300E-02  0.1260E+00  0.1238E+00
     15.573  0.4710E-02  0.4904E-02  0.1267E+00  0.1246E+00
     15.728  0.4154E-02  0.3429E-02  0.1274E+00  0.1251E+00
     15.883  0.1774E-02  0.4711E-02  0.1277E+00  0.1258E+00
     16.037  0.4593E-02  0.2064E-02  0.1284E+00  0.1261E+00
     16.192  0.2568E-02  0.4293E-02  0.1288E+00  0.1268E+00
     16.346  0.2154E-02  0.4435E-02  0.1291E+00  0.1275E+00
     16.501  0.6872E-02  0.2433E-02  0.1302E+00  0.1279E+00
     16.655  0.4450E-02  0.4410E-02  0.1308E+00  0.1286E+00
     16.810  0.1959E-02  0.2412E-02  0.1312E+00  0.1289E+00
     16.964  0.4838E-02  0.4016E-02  0.1319E+00  0.1295E+00
     17.119  0.4551E-02  0.6637E-02  0.1326E+00  0.1306E+00
     17.274  0.3134E-02  0.4077E-02  0.1331E+00  0.1312E+00
     17.428  0.4329E-02  0.5316E-02  0.1338E+00  0.1320E+00
     17.583  0.5514E-02  0.3072E-02  0.1346E+00  0.1325E+00
     17.737  0.2634E-02  0.3809E-02  0.1350E+00  0.1331E+00
     17.892  0.3052E-02  0.5430E-02  0.1355E+00  0.1339E+00
     18.046  0.2000E-02  0.4017E-02  0.1358E+00  0.1345E+00
     18.201  0.6827E-02  0.4242E-02  0.1369E+00  0.1352E+00
     18.356  0.3841E-02  0.2629E-02  0.1374E+00  0.1356E+00
     18.510  0.2156E-02  0.3455E-02  0.1378E+00  0.1361E+00
     18.665  0.3418E-02  0.6235E-02  0.1383E+00  0.1371E+00
     18.819  0.1902E-02  0.2599E-02  0.1386E+00  0.1375E+00
     18.974  0.2733E-02  0.2840E-02  0.1390E+00  0.1379E+00
     19.128  0.3166E-02  0.2221E-02  0.1395E+00  0.1383E+00
     19.283  0.1232E-02  0.3722E-02  0.1397E+00  0.1389E+00
     19.438  0.3996E-02  0.2117E-02  0.1403E+00  0.1392E+00
     19.592  0.4244E-02  0.2441E-02  0.1410E+00  0.1396E+00
     19.747  0.4028E-02  0.2262E-02  0.1416E+00  0.1399E+00
     19.901  0.3808E-02  0.4967E-02  0.1422E+00  0.1407E+00
     20.056  0.1372E-02  0.3990E-02  0.1424E+00  0.1413E+00
     20.210  0.2789E-02  0.3784E-02  0.1428E+00  0.1419E+00
     20.365  0.6801E-02  0.2217E-02  0.1439E+00  0.1422E+00
     20.520  0.3375E-02  0.2874E-02  0.1444E+00  0.1427E+00
     20.674  0.2710E-02  0.4714E-02  0.1448E+00  0.1434E+00
     20.829  0.5378E-02  0.5954E-02  0.1457E+00  0.1443E+00
     20.983  0.2541E-02  0.1191E-02  0.1460E+00  0.1445E+00
     21.138  0.3879E-02  0.5437E-02  0.1466E+00  0.1453E+00
     21.292  0.5938E-02  0.3825E-02  0.1476E+00  0.1459E+00
     21.447  0.4898E-02  0.3830E-02  0.1483E+00  0.1465E+00
     21.602  0.4814E-02  0.5847E-02  0.1491E+00  0.1474E+00
     21.756  0.6038E-02  0.4760E-02  0.1500E+00  0.1482E+00
     21.911  0.5886E-02  0.5674E-02  0.1509E+00  0.1490E+00
     22.065  0.2406E-02  0.5290E-02  0.1513E+00  0.1499E+00
     22.220  0.1268E-02  0.5687E-02  0.1515E+00  0.1507E+00
     22.374  0.6174E-02  0.3018E-02  0.1524E+00  0.1512E+00
     22.529  0.3970E-02  0.2364E-02  0.1530E+00  0.1516E+00
     22.683  0.2347E-02  0.6203E-02  0.1534E+00  0.1525E+00
     22.838  0.7559E-02  0.3979E-02  0.1546E+00  0.1532E+00
     22.993  0.6485E-02  0.2263E-02  0.1556E+00  0.1535E+00
     23.147  0.1999E-02  0.7444E-02  0.1559E+00  0.1547E+00
     23.302  0.5785E-02  0.7195E-02  0.1568E+00  0.1558E+00
     23.456  0.4975E-02  0.2648E-02  0.1575E+00  0.1562E+00
     23.611  0.4834E-02  0.3687E-02  0.1583E+00  0.1567E+00
     23.765  0.2419E-02  0.5812E-02  0.1587E+00  0.1576E+00
     23.920  0.2763E-02  0.5661E-02  0.1591E+00  0.1585E+00
     24.075  0.6924E-02  0.2277E-02  0.1602E+00  0.1589E+00
     24.229  0.3327E-02  0.4690E-02  0.1607E+00  0.1596E+00
     24.384  0.3301E-02  0.4404E-02  0.1612E+00  0.1603E+00
     24.538  0.3335E-02  0.3789E-02  0.1617E+00  0.1609E+00
     24.693  0.5007E-02  0.3601E-02  0.1625E+00  0.1614E+00
     24.847  0.4777E-02  0.4414E-02  0.1632E+00  0.1621E+00
     25.002  0.4981E-02  0.6271E-02  0.1640E+00  0.1631E+00
     25.157  0.6436E-02  0.2724E-02  0.1650E+00  0.1635E+00
     25.311  0.5134E-02  0.8486E-02  0.1658E+00  0.1648E+00
     25.466  0.3173E-02  0.4240E-02  0.1663E+00  0.1655E+00
     25.620  0.3772E-02  0.3423E-02  0.1669E+00  0.1660E+00
     25.775  0.4376E-02  0.3668E-02  0.1675E+00  0.1666E+00
     25.929  0.4768E-02  0.6089E-02  0.1683E+00  0.1675E+00
     26.084  0.2855E-02  0.4379E-02  0.1687E+00  0.1682E+00
     26.239  0.4808E-02  0.2268E-02  0.1694E+00  0.1685E+00
     26.393  0.5835E-02  0.5590E-02  0.1704E+00  0.1694E+00
     26.548  0.2906E-02  0.5000E-02  0.1708E+00  0.1702E+00
     26.702  0.3283E-02  0.4455E-02  0.1713E+00  0.1708E+00
     26.857  0.3757E-02  0.3289E-02  0.1719E+00  0.1714E+00
     27.011  0.3021E-02  0.2556E-02  0.1724E+00  0.1718E+00
     27.166  0.8648E-02  0.3527E-02  0.1737E+00  0.1723E+00
     27.321  0.4961E-02  0.8112E-02  0.1745E+00  0.1735E+00
     27.475  0.6134E-02  0.4486E-02  0.1754E+00  0.1742E+00
     27.630  0.6241E-02  0.7250E-02  0.1764E+00  0.1754E+00
     27.784  0.2330E-02  0.4791E-02  0.1767E+00  0.1761E+00
     27.939  0.6690E-02  0.3272E-02  0.1778E+00  0.1766E+00
     28.093  0.1872E-02  0.4987E-02  0.1781E+00  0.1774E+00
     28.248  0.4117E-02  0.5348E-02  0.1787E+00  0.1782E+00
     28.402  0.4884E-02  0.4754E-02  0.1794E+00  0.1789E+00
     28.557  0.4569E-02  0.5605E-02  0.1802E+00  0.1798E+00
     28.712  0.4198E-02  0.4909E-02  0.1808E+00  0.1806E+00
     28.866  0.2854E-02  0.1706E-02  0.1812E+00  0.1808E+00
     29.021  0.4007E-02  0.2226E-02  0.1819E+00  0.1812E+00
     29.175  0.9286E-02  0.2450E-02  0.1833E+00  0.1816E+00
     29.330  0.5105E-02  0.8049E-02  0.1841E+00  0.1828E+00
     29.484  0.6266E-02  0.8166E-02  0.1851E+00  0.1841E+00
     29.639  0.5931E-02  0.5744E-02  0.1860E+00  0.1849E+00
     29.794  0.6919E-02  0.7590E-02  0.1870E+00  0.1861E+00
     29.948  0.4105E-02  0.5462E-02  0.1877E+00  0.1870E+00
     30.103  0.5179E-02  0.5872E-02  0.1885E+00  0.1879E+00
     30.257  0.5001E-02  0.5493E-02  0.1892E+00  0.1887E+00
     30.412  0.3811E-02  0.3965E-02  0.1898E+00  0.1893E+00
     30.566  0.4780E-02  0.4652E-02  0.1906E+00  0.1901E+00
     30.721  0.2615E-02  0.4032E-02  0.1910E+00  0.1907E+00
     30.876  0.1710E-02  0.3274E-02  0.1912E+00  0.1912E+00
     31.030  0.4710E-02  0.2701E-02  0.1920E+00  0.1916E+00
     31.185  0.6967E-02  0.1769E-02  0.1931E+00  0.1919E+00
     31.339  0.4870E-02  0.7724E-02  0.1938E+00  0.1931E+00
     31.494  0.3314E-02  0.3629E-02  0.1943E+00  0.1936E+00
     31.648  0.4307E-02  0.3524E-02  0.1950E+00  0.1942E+00
     31.803  0.6330E-02  0.4654E-02  0.1960E+00  0.1949E+00
     31.958  0.8175E-02  0.8056E-02  0.1972E+00  0.1961E+00
     32.112  0.4029E-02  0.8186E-02  0.1978E+00  0.1974E+00
     32.267  0.4024E-02  0.1825E-02  0.1985E+00  0.1977E+00
     32.421  0.3681E-02  0.3450E-02  0.1990E+00  0.1982E+00
     32.576  0.2260E-02  0.4743E-02  0.1994E+00  0.1990E+00
     32.730  0.5174E-02  0.2675E-02  0.2002E+00  0.1994E+00
     32.885  0.5517E-02  0.6758E-02  0.2010E+00  0.2004E+00
     33.040  0.5734E-02  0.5108E-02  0.2019E+00  0.2012E+00
     33.194  0.9812E-02  0.3751E-02  0.2034E+00  0.2018E+00
     33.349  0.3398E-02  0.6824E-02  0.2040E+00  0.2028E+00
     33.503  0.2710E-02  0.7127E-02  0.2044E+00  0.2039E+00
     33.658  0.5298E-02  0.4238E-02  0.2052E+00  0.2046E+00
     33.812  0.2357E-02  0.3676E-02  0.2056E+00  0.2052E+00
     33.967  0.3772E-02  0.3389E-02  0.2062E+00  0.2057E+00
     34.121  0.3063E-02  0.3110E-02  0.2066E+00  0.2062E+00
     34.276  0.4925E-02  0.3482E-02  0.2074E+00  0.2067E+00
     34.431  0.6248E-02  0.3648E-02  0.2084E+00  0.2073E+00
     34.585  0.8449E-02  0.7628E-02  0.2097E+00  0.2084E+00
     34.740  0.3237E-02  0.7118E-02  0.2102E+00  0.2095E+00
     34.894  0.3845E-02  0.3808E-02  0.2108E+00  0.2101E+00
     35.049  0.6085E-02  0.5964E-02  0.2117E+00  0.2111E+00
     35.203  0.7054E-02  0.6174E-02  0.2128E+00  0.2120E+00
     35.358  0.4781E-02  0.5742E-02  0.2135E+00  0.2129E+00
     35.513  0.4769E-02  0.6829E-02  0.2143E+00  0.2140E+00
     35.667  0.5258E-02  0.2518E-02  0.2151E+00  0.2143E+00
     35.822  0.3158E-02  0.4686E-02  0.2156E+00  0.2151E+00
     35.976  0.6247E-02  0.4308E-02  0.2165E+00  0.2157E+00
     36.131  0.3735E-02  0.6917E-02  0.2171E+00  0.2168E+00
     36.285  0.3864E-02  0.3241E-02  0.2177E+00  0.2173E+00
     36.440  0.1544E-02  0.3755E-02  0.2179E+00  0.2179E+00
     36.595  0.4869E-02  0.1232E-02  0.2187E+00  0.2181E+00
     36.749  0.7817E-02  0.4503E-02  0.2199E+00  0.2188E+00
     36.904  0.1201E-01  0.6855E-02  0.2218E+00  0.2198E+00
     37.058  0.6799E-02  0.9133E-02  0.2228E+00  0.2212E+00
     37.213  0.3583E-02  0.8211E-02  0.2234E+00  0.2225E+00
     37.367  0.2544E-02  0.5551E-02  0.2238E+00  0.2234E+00
     37.522  0.5693E-02  0.3578E-02  0.2246E+00  0.2239E+00
     37.677  0.6356E-02  0.6737E-02  0.2256E+00  0.2250E+00
     37.831  0.4303E-02  0.5488E-02  0.2263E+00  0.2258E+00
     37.986  0.3988E-02  0.3682E-02  0.2269E+00  0.2264E+00
     38.140  0.4598E-02  0.4205E-02  0.2276E+00  0.2270E+00
     38.295  0.4020E-02  0.5345E-02  0.2282E+00  0.2279E+00
     38.449  0.4985E-02  0.2647E-02  0.2290E+00  0.2283E+00
     38.604  0.6824E-02  0.8235E-02  0.2301E+00  0.2295E+00
     38.759  0.6826E-02  0.5129E-02  0.2311E+00  0.2303E+00
     38.913  0.5276E-02  0.5199E-02  0.2319E+00  0.2311E+00
     39.068  0.3397E-02  0.4124E-02  0.2325E+00  0.2318E+00
     39.222  0.3015E-02  0.4217E-02  0.2329E+00  0.2324E+00
     39.377  0.3816E-02  0.3292E-02  0.2335E+00  0.2329E+00
     39.531  0.9747E-03  0.4256E-02  0.2337E+00  0.2336E+00
     39.686  0.3211E-02  0.3208E-02  0.2342E+00  0.2341E+00
     39.840  0.1938E-02  0.7491E-03  0.2345E+00  0.2342E+00
     39.995  0.2431E-02  0.2788E-02  0.2348E+00  0.2346E+00
     40.150  0.6825E-02  0.2908E-02  0.2359E+00  0.2351E+00
     40.304  0.5090E-02  0.4135E-02  0.2367E+00  0.2357E+00
     40.459  0.2916E-02  0.5333E-02  0.2371E+00  0.2365E+00
     40.613  0.2318E-02  0.4367E-02  0.2375E+00  0.2372E+00
     40.768  0.4885E-02  0.3606E-02  0.2382E+00  0.2378E+00
     40.922  0.1679E-02  0.3168E-02  0.2385E+00  0.2383E+00
     41.077  0.2808E-02  0.3049E-02  0.2389E+00  0.2387E+00
     41.232  0.8521E-03  0.1083E-02  0.2391E+00  0.2389E+00
     41.386  0.1851E-02  0.9444E-03  0.2393E+00  0.2391E+00
     41.541  0.4914E-03  0.2091E-02  0.2394E+00  0.2394E+00
     41.695  0.2058E-02  0.1063E-02  0.2397E+00  0.2395E+00
     41.850  0.1174E-03  0.9199E-03  0.2398E+00  0.2397E+00
     42.004  0.6647E-03  0.1053E-02  0.2399E+00  0.2398E+00
     42.159  0.2498E-03  0.4045E-03  0.2399E+00  0.2399E+00
     42.314  0.6348E-03  0.6072E-03  0.2400E+00  0.2400E+00
     42.468  0.1820E-05  0.7011E-06  0.2400E+00  0.2400E+00
     42.623  0.0000E+00  0.0000E+00  0.2400E+00  0.2400E+00
     42.777  0.0000E+00  0.0000E+00  0.2400E+00  0.2400E+00
     42.932  0.0000E+00  0.0000E+00  0.2400E+00  0.2400E+00
     43.086  0.0000E+00  0.0000E+00  0.2400E+00  0.2400E+00
     43.241  0.0000E+00  0.0000E+00  0.2400E+00  0.2400E+00
     43.396  0.0000E+00  0.0000E+00  0.2400E+00  0.2400E+00
     43.550  0.0000E+00  0.0000E+00  0.2400E+00  0.2400E+00
     43.705  0.0000E+00  0.0000E+00  0.2400E+00  0.2400E+00
     43.859  0.0000E+00  0.0000E+00  0.2400E+00  0.2400E+00
     44.014  0.0000E+00  0.0000E+00  0.2400E+00  0.2400E+00
     44.168  0.0000E+00  0.0000E+00  0.2400E+00  0.2400E+00
     44.323  0.0000E+00  0.0000E+00  0.2400E+00  0.2400E+00
     44.32295238     -2.04734542  301      8.03105155      1.00000000
     -2.047  0.0000E+00  0.0000E+00  0.0000E+00  0.0000E+00  0.0000E+00  0.0000E+00  0.0000E+00  0.0000E+00  0.0000E+00  0.0000E+00  0.0000E+00  0.0000E+00  0.0000E+00  0.0000E+00  0.0000E+00  0.0000E+00  0.0000E+00  0.0000E+00
     -1.893  0.0000E+00  0.0000E+00  0.0000E+00  0.0000E+00  0.0000E+00  0.0000E+00  0.0000E+00  0.0000E+00  0.0000E+00  0.0000E+00  0.0000E+00  0.0000E+00  0.0000E+00  0.0000E+00  0.0000E+00  0.0000E+00  0.0000E+00  0.0000E+00
     -1.738  0.0000E+00  0.0000E+00  0.0000E+00  0.0000E+00  0.0000E+00  0.0000E+00  0.0000E+00  0.0000E+00  0.0000E+00  0.0000E+00  0.0000E+00  0.0000E+00  0.0000E+00  0.0000E+00  0.0000E+00  0.0000E+00  0.0000E+00  0.0000E+00
     -1.584  0.0000E+00  0.0000E+00  0.0000E+00  0.0000E+00  0.0000E+00  0.0000E+00  0.0000E+00  0.0000E+00  0.0000E+00  0.0000E+00  0.0000E+00  0.0000E+00  0.0000E+00  0.0000E+00  0.0000E+00  0.0000E+00  0.0000E+00  0.0000E+00
     -1.429  0.0000E+00  0.0000E+00  0.0000E+00  0.0000E+00  0.0000E+00  0.0000E+00  0.0000E+00  0.0000E+00  0.0000E+00  0.0000E+00  0.0000E+00  0.0000E+00  0.0000E+00  0.0000E+00  0.0000E+00  0.0000E+00  0.0000E+00  0.0000E+00
     -1.275  0.0000E+00  0.0000E+00  0.0000E+00  0.0000E+00  0.0000E+00  0.0000E+00  0.0000E+00  0.0000E+00  0.0000E+00  0.0000E+00  0.0000E+00  0.0000E+00  0.0000E+00  0.0000E+00  0.0000E+00  0.0000E+00  0.0000E+00  0.0000E+00
     -1.120  0.0000E+00  0.0000E+00  0.0000E+00  0.0000E+00  0.0000E+00  0.0000E+00  0.0000E+00  0.0000E+00  0.0000E+00  0.0000E+00  0.0000E+00  0.0000E+00  0.0000E+00  0.0000E+00  0.0000E+00  0.0000E+00  0.0000E+00  0.0000E+00
     -0.965  0.0000E+00  0.0000E+00  0.0000E+00  0.0000E+00  0.0000E+00  0.0000E+00  0.0000E+00  0.0000E+00  0.0000E+00  0.0000E+00  0.0000E+00  0.0000E+00  0.0000E+00  0.0000E+00  0.0000E+00  0.0000E+00  0.0000E+00  0.0000E+00
     -0.811  0.0000E+00  0.0000E+00  0.0000E+00  0.0000E+00  0.0000E+00  0.0000E+00  0.0000E+00  0.0000E+00  0.0000E+00  0.0000E+00  0.0000E+00  0.0000E+00  0.0000E+00  0.0000E+00  0.0000E+00  0.0000E+00  0.0000E+00  0.0000E+00
     -0.656  0.0000E+00  0.0000E+00  0.0000E+00  0.0000E+00  0.0000E+00  0.0000E+00  0.0000E+00  0.0000E+00  0.0000E+00  0.0000E+00  0.0000E+00  0.0000E+00  0.0000E+00  0.0000E+00  0.0000E+00  0.0000E+00  0.0000E+00  0.0000E+00
     -0.502  0.0000E+00  0.0000E+00  0.0000E+00  0.0000E+00  0.0000E+00  0.0000E+00  0.0000E+00  0.0000E+00  0.0000E+00  0.0000E+00  0.0000E+00  0.0000E+00  0.0000E+00  0.0000E+00  0.0000E+00  0.0000E+00  0.0000E+00  0.0000E+00
     -0.347  0.0000E+00  0.0000E+00  0.0000E+00  0.0000E+00  0.0000E+00  0.0000E+00  0.0000E+00  0.0000E+00  0.0000E+00  0.0000E+00  0.0000E+00  0.0000E+00  0.0000E+00  0.0000E+00  0.0000E+00  0.0000E+00  0.0000E+00  0.0000E+00
     -0.193  0.3745E-18  0.7048E-15  0.6588E-34  0.1690E-30  0.1446E-34  0.1737E-27  0.6588E-34  0.1690E-30  0.2158E-33  0.7749E-28  0.3963E-38  0.3816E-32  0.3887E-23  0.8781E-20  0.3963E-38  0.3816E-32  0.2158E-33  0.7749E-28
     -0.038  0.1516E-06  0.4514E-05  0.2667E-22  0.1082E-20  0.3552E-18  0.3925E-15  0.2667E-22  0.1082E-20  0.8737E-22  0.4962E-18  0.1605E-26  0.2444E-22  0.1573E-11  0.5624E-10  0.1605E-26  0.2444E-22  0.8737E-22  0.4962E-18
      0.117  0.1240E-02  0.1604E-02  0.3232E-11  0.4135E-09  0.2099E-07  0.4166E-06  0.3232E-11  0.4135E-09  0.6566E-13  0.5626E-11  0.3371E-22  0.1085E-19  0.1308E-07  0.2204E-07  0.3371E-22  0.1085E-19  0.6566E-13  0.5626E-11
      0.271  0.4782E-02  0.7844E-02  0.1529E-04  0.4744E-04  0.3829E-04  0.4349E-04  0.1529E-04  0.4744E-04  0.3106E-06  0.6455E-06  0.3997E-11  0.2060E-09  0.7529E-06  0.1063E-05  0.3997E-11  0.2060E-09  0.3106E-06  0.6455E-06
      0.426  0.1459E-01  0.1787E-01  0.1456E-03  0.1863E-03  0.8365E-04  0.1733E-03  0.1456E-03  0.1863E-03  0.2993E-05  0.2568E-05  0.2727E-05  0.4113E-05  0.2007E-05  0.9521E-06  0.2727E-05  0.4113E-05  0.2993E-05  0.2568E-05
      0.580  0.1400E-01  0.7436E-02  0.1437E-03  0.7187E-04  0.1950E-03  0.1266E-03  0.1437E-03  0.7187E-04  0.3004E-05  0.1001E-05  0.6650E-05  0.2244E-05  0.4880E-06  0.1458E-05  0.6650E-05  0.2244E-05  0.3004E-05  0.1001E-05
      0.735  0.8809E-02  0.1097E-01  0.1793E-03  0.2629E-03  0.1657E-03  0.1505E-03  0.1793E-03  0.2629E-03  0.1105E-04  0.1058E-04  0.3216E-07  0.2846E-06  0.2169E-04  0.1601E-04  0.3216E-07  0.2846E-06  0.1105E-04  0.1058E-04
      0.889  0.3647E-01  0.4022E-01  0.8155E-03  0.9376E-03  0.1102E-02  0.1246E-02  0.8155E-03  0.9376E-03  0.4677E-04  0.3650E-04  0.6021E-04  0.4486E-04  0.6191E-04  0.4445E-04  0.6021E-04  0.4486E-04  0.4677E-04  0.3650E-04
      1.044  0.2010E-01  0.1817E-01  0.7266E-03  0.7497E-03  0.2641E-03  0.1936E-03  0.7266E-03  0.7497E-03  0.6642E-04  0.4564E-04  0.2660E-04  0.1936E-04  0.4293E-04  0.2490E-04  0.2660E-04  0.1936E-04  0.6642E-04  0.4564E-04
      1.199  0.1354E-01  0.1077E-01  0.5523E-03  0.4201E-03  0.2439E-03  0.3133E-03  0.5523E-03  0.4201E-03  0.5547E-04  0.2430E-04  0.4095E-04  0.2893E-04  0.2130E-04  0.9628E-05  0.4095E-04  0.2893E-04  0.5547E-04  0.2430E-04
      1.353  0.1945E-01  0.1727E-01  0.5314E-03  0.4720E-03  0.1269E-02  0.1176E-02  0.5314E-03  0.4720E-03  0.3962E-04  0.2189E-04  0.1269E-03  0.7013E-04  0.8897E-04  0.5185E-04  0.1269E-03  0.7013E-04  0.3962E-04  0.2189E-04
      1.508  0.3551E-01  0.4022E-01  0.1328E-02  0.1588E-02  0.2439E-02  0.2763E-02  0.1328E-02  0.1588E-02  0.1814E-03  0.1319E-03  0.2546E-03  0.1658E-03  0.3676E-03  0.2603E-03  0.2546E-03  0.1658E-03  0.1814E-03  0.1319E-03
      1.662  0.4139E-01  0.3855E-01  0.2717E-02  0.2732E-02  0.1027E-02  0.7923E-03  0.2717E-02  0.2732E-02  0.5137E-03  0.3082E-03  0.1840E-03  0.1069E-03  0.4397E-03  0.2271E-03  0.1840E-03  0.1069E-03  0.5137E-03  0.3082E-03
      1.817  0.1052E-01  0.7940E-02  0.7362E-03  0.5525E-03  0.2790E-03  0.2678E-03  0.7362E-03  0.5525E-03  0.1446E-03  0.6210E-04  0.7844E-04  0.3864E-04  0.9702E-04  0.4546E-04  0.7844E-04  0.3864E-04  0.1446E-03  0.6210E-04
      1.971  0.3556E-01  0.3109E-01  0.2241E-02  0.1954E-02  0.2473E-02  0.2344E-02  0.2241E-02  0.1954E-02  0.5925E-03  0.2702E-03  0.5754E-03  0.2840E-03  0.4801E-03  0.2565E-03  0.5754E-03  0.2840E-03  0.5925E-03  0.2702E-03
      2.126  0.5279E-01  0.5646E-01  0.3538E-02  0.4070E-02  0.3875E-02  0.3993E-02  0.3538E-02  0.4070E-02  0.9390E-03  0.5805E-03  0.1230E-02  0.7444E-03  0.6903E-03  0.3300E-03  0.1230E-02  0.7444E-03  0.9390E-03  0.5805E-03
      2.281  0.8752E-02  0.3423E-02  0.2693E-03  0.4492E-04  0.1494E-02  0.7037E-03  0.2693E-03  0.4492E-04  0.9582E-04  0.4890E-05  0.1641E-03  0.1811E-04  0.9209E-03  0.2151E-03  0.1641E-03  0.1811E-04  0.9582E-04  0.4890E-05
      2.435  0.2720E-01  0.3118E-01  0.1956E-02  0.1941E-02  0.2682E-02  0.4035E-02  0.1956E-02  0.1941E-02  0.8210E-03  0.3970E-03  0.6828E-03  0.4401E-03  0.1608E-02  0.1088E-02  0.6828E-03  0.4401E-03  0.8210E-03  0.3970E-03
      2.590  0.5581E-01  0.3109E-01  0.5862E-02  0.3600E-02  0.3814E-02  0.1764E-02  0.5862E-02  0.3600E-02  0.2615E-02  0.7712E-03  0.2236E-02  0.5578E-03  0.1509E-02  0.4602E-03  0.2236E-02  0.5578E-03  0.2615E-02  0.7712E-03
      2.744  0.4703E-01  0.6531E-01  0.4778E-02  0.6853E-02  0.3896E-02  0.5826E-02  0.4778E-02  0.6853E-02  0.2853E-02  0.1760E-02  0.1565E-02  0.1267E-02  0.3042E-02  0.1676E-02  0.1565E-02  0.1267E-02  0.2853E-02  0.1760E-02
      2.899  0.4966E-01  0.3133E-01  0.4794E-02  0.3164E-02  0.5966E-02  0.3858E-02  0.4794E-02  0.3164E-02  0.3105E-02  0.8151E-03  0.4576E-02  0.9787E-03  0.2728E-02  0.9614E-03  0.4576E-02  0.9787E-03  0.3105E-02  0.8151E-03
      3.053  0.3499E-01  0.3690E-01  0.4289E-02  0.4467E-02  0.2127E-02  0.3619E-02  0.4289E-02  0.4467E-02  0.5209E-02  0.1441E-02  0.2088E-02  0.1766E-02  0.5021E-02  0.5628E-03  0.2088E-02  0.1766E-02  0.5209E-02  0.1441E-02
      3.208  0.2936E-01  0.2729E-01  0.2454E-02  0.3977E-02  0.5126E-02  0.1470E-02  0.2454E-02  0.3977E-02  0.3261E-02  0.1948E-02  0.4255E-02  0.6619E-03  0.6540E-02  0.1465E-02  0.4255E-02  0.6619E-03  0.3261E-02  0.1948E-02
      3.363  0.4921E-01  0.2970E-01  0.5156E-02  0.2111E-02  0.8326E-02  0.7142E-02  0.5156E-02  0.2111E-02  0.5621E-02  0.7695E-03  0.1139E-01  0.1310E-02  0.4159E-02  0.4148E-02  0.1139E-01  0.1310E-02  0.5621E-02  0.7695E-03
      3.517  0.7871E-01  0.4181E-01  0.1146E-01  0.5320E-02  0.7538E-02  0.6558E-02  0.1146E-01  0.5320E-02  0.2154E-01  0.2429E-02  0.1161E-01  0.3944E-02  0.2504E-01  0.9041E-03  0.1161E-01  0.3944E-02  0.2154E-01  0.2429E-02
      3.672  0.7951E-01  0.5439E-01  0.9814E-02  0.7728E-02  0.5454E-02  0.8648E-02  0.9814E-02  0.7728E-02  0.4495E-01  0.3695E-02  0.4111E-01  0.4119E-02  0.4345E-01  0.4570E-02  0.4111E-01  0.4119E-02  0.4495E-01  0.3695E-02
      3.826  0.8061E-01  0.3713E-01  0.7627E-02  0.6107E-02  0.1043E-01  0.5167E-02  0.7627E-02  0.6107E-02  0.6143E-01  0.3321E-02  0.8410E-01  0.1711E-02  0.5683E-01  0.4940E-02  0.8410E-01  0.1711E-02  0.6143E-01  0.3321E-02
      3.981  0.7575E-01  0.5684E-01  0.8639E-02  0.1154E-01  0.1217E-01  0.3174E-02  0.8639E-02  0.1154E-01  0.7561E-01  0.1009E-01  0.8261E-01  0.4842E-02  0.9375E-01  0.5622E-02  0.8261E-01  0.4842E-02  0.7561E-01  0.1009E-01
      4.135  0.6435E-01  0.4010E-01  0.1024E-01  0.6285E-02  0.1103E-01  0.6923E-02  0.1024E-01  0.6285E-02  0.1548E+00  0.5783E-02  0.1051E+00  0.7032E-02  0.8958E-01  0.7403E-02  0.1051E+00  0.7032E-02  0.1548E+00  0.5783E-02
      4.290  0.6614E-01  0.5220E-01  0.1505E-01  0.6889E-02  0.1521E-01  0.1376E-01  0.1505E-01  0.6889E-02  0.1546E+00  0.7323E-02  0.1665E+00  0.9265E-02  0.2063E+00  0.1096E-01  0.1665E+00  0.9265E-02  0.1546E+00  0.7323E-02
      4.444  0.2755E-01  0.5977E-01  0.1061E-01  0.9885E-02  0.1385E-01  0.1005E-01  0.1061E-01  0.9885E-02  0.1362E+00  0.1635E-01  0.2024E+00  0.1891E-01  0.1321E+00  0.1002E-01  0.2024E+00  0.1891E-01  0.1362E+00  0.1635E-01
      4.599  0.2493E-01  0.2211E-01  0.1565E-01  0.1958E-02  0.1591E-01  0.5945E-02  0.1565E-01  0.1958E-02  0.1201E+00  0.4905E-02  0.1967E+00  0.6181E-02  0.1800E+00  0.1847E-01  0.1967E+00  0.6181E-02  0.1201E+00  0.4905E-02
      4.754  0.1455E-01  0.7602E-01  0.1600E-01  0.1577E-01  0.1314E-01  0.6856E-02  0.1600E-01  0.1577E-01  0.1794E+00  0.3985E-01  0.1615E+00  0.2635E-01  0.2573E+00  0.4039E-01  0.1615E+00  0.2635E-01  0.1794E+00  0.3985E-01
      4.908  0.9806E-02  0.9616E-01  0.1859E-01  0.1673E-01  0.1345E-01  0.1569E-01  0.1859E-01  0.1673E-01  0.2589E+00  0.5485E-01  0.1506E+00  0.5852E-01  0.2517E+00  0.3680E-01  0.1506E+00  0.5852E-01  0.2589E+00  0.5485E-01
      5.063  0.1084E-01  0.4815E-01  0.2079E-01  0.6968E-02  0.1396E-01  0.1164E-01  0.2079E-01  0.6968E-02  0.2890E+00  0.2713E-01  0.1668E+00  0.3811E-01  0.2546E+00  0.5349E-01  0.1668E+00  0.3811E-01  0.2890E+00  0.2713E-01
      5.217  0.1069E-01  0.5048E-01  0.1805E-01  0.9406E-02  0.1507E-01  0.1061E-01  0.1805E-01  0.9406E-02  0.2477E+00  0.4926E-01  0.1306E+00  0.6504E-01  0.1922E+00  0.3443E-01  0.1306E+00  0.6504E-01  0.2477E+00  0.4926E-01
      5.372  0.4839E-02  0.3962E-01  0.8956E-02  0.9271E-02  0.1149E-01  0.1559E-01  0.8956E-02  0.9271E-02  0.1643E+00  0.6352E-01  0.1416E+00  0.6004E-01  0.2087E+00  0.4613E-01  0.1416E+00  0.6004E-01  0.1643E+00  0.6352E-01
      5.526  0.1081E-01  0.4705E-01  0.1603E-01  0.1539E-01  0.1774E-01  0.1181E-01  0.1603E-01  0.1539E-01  0.2349E+00  0.9545E-01  0.4063E+00  0.7206E-01  0.4683E+00  0.9952E-01  0.4063E+00  0.7206E-01  0.2349E+00  0.9545E-01
      5.681  0.1335E-01  0.2383E-01  0.1637E-01  0.1066E-01  0.1943E-01  0.1428E-01  0.1637E-01  0.1066E-01  0.3288E+00  0.9496E-01  0.3311E+00  0.1211E+00  0.2942E+00  0.7619E-01  0.3311E+00  0.1211E+00  0.3288E+00  0.9496E-01