    2    2  100    2
  0.1287815E+02  0.2641812E-09  0.2641812E-09  0.4261368E-09  0.5000000E-15
  1.000000000000000E-004
  CAR 
 Co-hcc                                  
     18     95     24
 
  0.0000000E+00  0.0000000E+00  0.0000000E+00  0.8680556E-03
      1          0.094470        0.060395   1.000000   1.000000
      2          3.602753        4.626634   1.000000   1.000000
      3          5.595357        7.353254   1.000000   1.000000
      4          5.603552        7.374100   1.000000   1.000000
      5          5.603553        7.374101   1.000000   1.000000
      6          5.836778        7.658617   1.000000   1.000000
      7          5.836778        7.658617   1.000000   1.000000
      8          6.085552        7.978607   1.000000   0.931011
      9          6.085552        7.978608   1.000000   0.931008
     10          6.933198        7.987707   1.000000   0.889895
     11          6.933198        8.941081   1.000000   0.000000
     12          8.105928        8.941082   0.017095   0.000000
     13         13.012032       14.046381   0.000000   0.000000
     14         28.516786       28.172466   0.000000   0.000000
     15         29.522477       29.861953   0.000000   0.000000
     16         29.522481       29.861959   0.000000   0.000000
     17         31.046088       30.916237   0.000000   0.000000
     18         31.046093       31.315278   0.000000   0.000000
     19         31.117789       31.315280   0.000000   0.000000
     20         31.672540       31.406217   0.000000   0.000000
     21         36.007099       35.878962   0.000000   0.000000
     22         36.007101       35.878963   0.000000   0.000000
     23         36.079921       36.267286   0.000000   0.000000
     24         37.215001       36.821131   0.000000   0.000000
 
  0.8333333E-01 -0.1387779E-16  0.0000000E+00  0.5208333E-02
      1          0.307844        0.274391   1.000000   1.000000
      2          3.722259        4.769505   1.000000   1.000000
      3          5.429925        7.153101   1.000000   1.000000
      4          5.690099        7.427587   1.000000   1.000000
      5          5.742949        7.471913   1.000000   1.000000
      6          5.804652        7.530854   1.000000   1.000000
      7          5.913028        7.610412   1.000000   1.000000
      8          5.985053        7.744735   1.000000   1.000000
      9          6.033158        7.915057   1.000000   0.999482
     10          6.444130        7.933464   1.000000   0.997112
     11          6.955126        8.968140   1.000000   0.000000
     12          8.857188        9.694181   0.000000   0.000000
     13         13.065591       14.073378   0.000000   0.000000
     14         26.050940       26.200771   0.000000   0.000000
     15         27.741154       28.047797   0.000000   0.000000
     16         28.365270       28.333490   0.000000   0.000000
     17         31.695522       31.423162   0.000000   0.000000
     18         31.750577       31.624709   0.000000   0.000000
     19         33.054580       32.904112   0.000000   0.000000
     20         33.080654       33.366847   0.000000   0.000000
     21         33.780613       34.016311   0.000000   0.000000
     22         35.342363       35.314136   0.000000   0.000000
     23         35.539429       35.836970   0.000000   0.000000
     24         35.647525       35.868030   0.000000   0.000000
 
  0.1666667E+00 -0.1387779E-16  0.0000000E+00  0.5208333E-02
      1          0.928655        0.901180   1.000000   1.000000
      2          4.017874        5.140334   1.000000   1.000000
      3          5.229735        6.740772   1.000000   1.000000
      4          5.499406        6.878364   1.000000   1.000000
      5          5.678249        7.434546   1.000000   1.000000
      6          5.903118        7.748945   1.000000   1.000000
      7          5.933608        7.758502   1.000000   1.000000
      8          5.975393        7.788340   1.000000   1.000000
      9          6.100508        7.809570   1.000000   1.000000
     10          6.126255        7.986224   1.000000   0.897586
     11          7.002244        9.025512   1.000000   0.000000
     12         10.177729       10.955907   0.000000   0.000000
     13         13.248511       14.173625   0.000000   0.000000
     14         22.351096       22.658759   0.000000   0.000000
     15         25.643310       25.922497   0.000000   0.000000
     16         27.514123       27.547122   0.000000   0.000000
     17         29.322752       29.303313   0.000000   0.000000
     18         31.347821       31.498501   0.000000   0.000000
     19         31.797210       31.665206   0.000000   0.000000
     20         33.571159       33.637267   0.000000   0.000000
     21         34.396520       34.473147   0.000000   0.000000
     22         34.407530       34.658865   0.000000   0.000000
     23         34.867563       35.261440   0.000000   0.000000
     24         35.957134       36.328193   0.000000   0.000000
 
  0.2500000E+00  0.0000000E+00  0.0000000E+00  0.5208333E-02
      1          1.880864        1.886934   1.000000   1.000000
      2          4.257999        5.523592   1.000000   1.000000
      3          4.941795        6.209076   1.000000   1.000000
      4          5.117743        6.625657   1.000000   1.000000
      5          5.612650        7.309203   1.000000   1.000000
      6          5.745651        7.570373   1.000000   1.000000
      7          5.940543        7.641390   1.000000   1.000000
      8          6.284281        8.129531   1.000000   0.002673
      9          6.302710        8.153556   1.000000   0.000265
     10          6.431521        8.333658   1.000000   0.000000
     11          7.047451        9.079640   1.000000   0.000000
     12         11.730256       12.426703   0.000000   0.000000
     13         13.606040       14.386784   0.000000   0.000000
     14         18.878756       19.311391   0.000000   0.000000
     15         23.835779       24.073656   0.000000   0.000000
     16         26.134004       26.239225   0.000000   0.000000
     17         26.293411       26.456913   0.000000   0.000000
     18         28.771785       29.241431   0.000000   0.000000
     19         30.720918       30.489966   0.000000   0.000000
     20         32.874200       33.278211   0.000000   0.000000
     21         33.670594       33.803356   0.000000   0.000000
     22         34.386213       34.406481   0.000000   0.000000
     23         35.124695       35.289888   0.000000   0.000000
     24         37.913361       38.084892   0.000000   0.000000
 
  0.3333333E+00 -0.2775558E-16  0.0000000E+00  0.5208333E-02
      1          2.947486        3.104281   1.000000   1.000000
      2          4.213883        5.597844   1.000000   1.000000
      3          4.531237        5.843946   1.000000   1.000000
      4          5.225174        6.506180   1.000000   1.000000
      5          5.603009        7.380029   1.000000   1.000000
      6          5.711742        7.400882   1.000000   1.000000
      7          5.807154        7.473950   1.000000   1.000000
      8          6.653943        8.589135   1.000000   0.000000
      9          6.761069        8.633181   1.000000   0.000000
     10          6.840108        8.711330   1.000000   0.000000
     11          7.078824        9.116616   1.000000   0.000000
     12         13.460731       14.059396   0.000000   0.000000
     13         13.890736       14.481388   0.000000   0.000000
     14         16.113921       16.702755   0.000000   0.000000
     15         22.419118       22.603190   0.000000   0.000000
     16         23.238955       23.468404   0.000000   0.000000
     17         23.881514       24.229491   0.000000   0.000000
     18         27.604941       28.007536   0.000000   0.000000
     19         29.653211       29.435508   0.000000   0.000000
     20         31.329067       31.686762   0.000000   0.000000
     21         33.163389       33.344456   0.000000   0.000000
     22         34.912351       35.036525   0.000000   0.000000
     23         36.785230       36.931163   0.000000   0.000000
     24         39.111686       39.225778   0.000000   0.000000
 
  0.4166667E+00 -0.2775558E-16  0.0000000E+00  0.5208333E-02
      1          3.672425        4.259820   1.000000   1.000000
      2          4.068313        5.440601   1.000000   1.000000
      3          4.286264        5.634122   1.000000   1.000000
      4          5.505382        6.478784   1.000000   1.000000
      5          5.542087        7.285304   1.000000   1.000000
      6          5.713941        7.351774   1.000000   1.000000
      7          5.869490        7.558040   1.000000   1.000000
      8          6.927257        8.914394   1.000000   0.000000
      9          7.032210        9.029624   1.000000   0.000000
     10          7.095901        9.136494   1.000000   0.000000
     11          7.790387        9.373242   1.000000   0.000000
     12         12.196771       12.937089   0.000000   0.000000
     13         15.281705       15.760249   0.000000   0.000000
     14         16.117474       16.594661   0.000000   0.000000
     15         20.727976       21.093994   0.000000   0.000000
     16         21.289076       21.632502   0.000000   0.000000
     17         21.499576       21.742360   0.000000   0.000000
     18         27.239576       27.639737   0.000000   0.000000
     19         28.961150       28.736171   0.000000   0.000000
     20         30.343298       30.661882   0.000000   0.000000
     21         32.870032       33.080711   0.000000   0.000000
     22         35.221774       35.417679   0.000000   0.000000
     23         38.946202       39.105850   0.000000   0.000000
     24         39.840912       39.881116   0.000000   0.000000
 
  0.5000000E+00  0.0000000E+00  0.0000000E+00  0.2604167E-02
      1          3.901941        4.818237   1.000000   1.000000
      2          3.966070        5.290586   1.000000   1.000000
      3          4.205069        5.565983   1.000000   1.000000
      4          5.470742        6.505610   1.000000   1.000000
      5          5.680281        7.244360   1.000000   1.000000
      6          5.754208        7.306958   1.000000   1.000000
      7          5.926310        7.628057   1.000000   1.000000
      8          7.025653        9.030402   1.000000   0.000000
      9          7.101160        9.142564   1.000000   0.000000
     10          7.140823        9.161114   1.000000   0.000000
     11          8.900001       10.132740   0.000000   0.000000
     12         10.516252       11.547594   0.000000   0.000000
     13         16.485956       16.844550   0.000000   0.000000
     14         16.922516       17.255645   0.000000   0.000000
     15         19.295540       19.787214   0.000000   0.000000
     16         19.864010       20.412899   0.000000   0.000000
     17         21.178255       21.289144   0.000000   0.000000
     18         27.143282       27.549001   0.000000   0.000000
     19         28.724589       28.495325   0.000000   0.000000
     20         30.003408       30.306637   0.000000   0.000000
     21         32.774043       32.994770   0.000000   0.000000
     22         35.335556       35.558228   0.000000   0.000000
     23         40.063003       40.045409   0.000000   0.000000
     24         41.478010       41.477096   0.000000   0.000000
 
  0.8333333E-01  0.8333333E-01  0.0000000E+00  0.5208333E-02
      1          0.725567        0.695113   1.000000   1.000000
      2          3.934371        5.029526   1.000000   1.000000
      3          5.271112        6.918432   1.000000   1.000000
      4          5.685619        6.947273   1.000000   1.000000
      5          5.727296        7.500449   1.000000   1.000000
      6          5.862768        7.667517   1.000000   1.000000
      7          5.866497        7.670919   1.000000   1.000000
      8          5.885612        7.729653   1.000000   1.000000
      9          6.082028        7.922941   1.000000   0.998885
     10          6.191623        7.931390   1.000000   0.997590
     11          6.982870        9.001779   1.000000   0.000000
     12          9.798898       10.597429   0.000000   0.000000
     13         13.185156       14.138422   0.000000   0.000000
     14         24.125325       24.326341   0.000000   0.000000
     15         24.440953       24.759854   0.000000   0.000000
     16         29.699785       29.697872   0.000000   0.000000
     17         30.902263       30.739054   0.000000   0.000000
     18         30.940564       30.931675   0.000000   0.000000
     19         31.052231       30.942933   0.000000   0.000000
     20         33.420932       33.573041   0.000000   0.000000
     21         33.515252       33.980029   0.000000   0.000000
     22         33.931067       34.440098   0.000000   0.000000
     23         36.854933       36.939282   0.000000   0.000000
     24         37.204314       37.273826   0.000000   0.000000
 
  0.1666667E+00  0.8333333E-01  0.0000000E+00  0.1041667E-01
      1          1.518508        1.504390   1.000000   1.000000
      2          4.236862        5.432619   1.000000   1.000000
      3          5.073065        6.394963   1.000000   1.000000
      4          5.150175        6.662053   1.000000   1.000000
      5          5.640811        7.362124   1.000000   1.000000
      6          5.721419        7.519052   1.000000   1.000000
      7          6.055564        7.813386   1.000000   1.000000
      8          6.058196        7.884519   1.000000   0.999983
      9          6.187190        8.032658   1.000000   0.481882
     10          6.398494        8.273213   1.000000   0.000000
     11          7.017241        9.043072   1.000000   0.000000
     12         11.163639       11.894726   0.000000   0.000000
     13         13.469808       14.310469   0.000000   0.000000
     14         20.667159       21.025175   0.000000   0.000000
     15         22.682392       22.977052   0.000000   0.000000
     16         27.790235       27.806405   0.000000   0.000000
     17         28.455816       28.586221   0.000000   0.000000
     18         29.677879       29.648578   0.000000   0.000000
     19         30.554315       30.785646   0.000000   0.000000
     20         31.333754       31.723891   0.000000   0.000000
     21         33.945174       33.923265   0.000000   0.000000
     22         34.714383       35.081368   0.000000   0.000000
     23         36.699617       36.824576   0.000000   0.000000
     24         37.106514       37.266857   0.000000   0.000000
 
  0.2500000E+00  0.8333333E-01  0.0000000E+00  0.1041667E-01
      1          2.558314        2.619022   1.000000   1.000000
      2          4.341799        5.686314   1.000000   1.000000
      3          4.699890        5.994734   1.000000   1.000000
      4          5.034770        6.456873   1.000000   1.000000
      5          5.581629        7.328583   1.000000   1.000000
      6          5.654648        7.340760   1.000000   1.000000
      7          5.910389        7.637506   1.000000   1.000000
      8          6.359710        8.217500   1.000000   0.000000
      9          6.564221        8.469006   1.000000   0.000000
     10          6.835181        8.712688   1.000000   0.000000
     11          7.046374        9.077699   1.000000   0.000000
     12         12.774878       13.420874   0.000000   0.000000
     13         13.934786       14.605053   0.000000   0.000000
     14         17.417453       17.909685   0.000000   0.000000
     15         21.322101       21.603486   0.000000   0.000000
     16         24.761587       24.918265   0.000000   0.000000
     17         25.652581       25.966416   0.000000   0.000000
     18         28.533839       28.500150   0.000000   0.000000
     19         29.642626       29.953659   0.000000   0.000000
     20         30.059759       30.392960   0.000000   0.000000
     21         34.650915       34.586111   0.000000   0.000000
     22         36.446210       36.604861   0.000000   0.000000
     23         36.649048       36.843565   0.000000   0.000000
     24         37.714677       37.903869   0.000000   0.000000
 
  0.3333333E+00  0.8333333E-01  0.0000000E+00  0.1041667E-01
      1          3.499578        3.843459   1.000000   1.000000
      2          4.210757        5.602993   1.000000   1.000000
      3          4.395201        5.736282   1.000000   1.000000
      4          5.237123        6.397047   1.000000   1.000000
      5          5.489165        7.229319   1.000000   1.000000
      6          5.767569        7.451477   1.000000   1.000000
      7          5.804920        7.486360   1.000000   1.000000
      8          6.737051        8.646852   1.000000   0.000000
      9          6.883310        8.843920   1.000000   0.000000
     10          7.064662        9.099092   1.000000   0.000000
     11          7.499400        9.248324   1.000000   0.000000
     12         13.466066       14.064359   0.000000   0.000000
     13         14.558272       15.101684   0.000000   0.000000
     14         15.835088       16.393957   0.000000   0.000000
     15         20.296724       20.545517   0.000000   0.000000
     16         22.041708       22.330609   0.000000   0.000000
     17         22.767379       23.166132   0.000000   0.000000
     18         27.732635       27.682902   0.000000   0.000000
     19         29.090712       29.400602   0.000000   0.000000
     20         29.102632       29.435940   0.000000   0.000000
     21         34.579575       34.585529   0.000000   0.000000
     22         36.796778       36.969756   0.000000   0.000000
     23         38.144236       38.316847   0.000000   0.000000
     24         39.485373       39.581501   0.000000   0.000000
 
  0.4166667E+00  0.8333333E-01  0.0000000E+00  0.1041667E-01
      1          3.929927        4.763459   1.000000   1.000000
      2          4.080434        5.423128   1.000000   1.000000
      3          4.243313        5.611559   1.000000   1.000000
      4          5.450484        6.407202   1.000000   1.000000
      5          5.550015        7.200598   1.000000   1.000000
      6          5.674394        7.311698   1.000000   1.000000
      7          5.923975        7.629967   1.000000   1.000000
      8          7.000089        8.985704   1.000000   0.000000
      9          7.054025        9.048036   1.000000   0.000000
     10          7.072791        9.108447   1.000000   0.000000
     11          8.687155       10.024005   0.000000   0.000000
     12         11.254572       12.150375   0.000000   0.000000
     13         16.291750       16.704448   0.000000   0.000000
     14         16.786378       17.168230   0.000000   0.000000
     15         19.623899       19.889129   0.000000   0.000000
     16         19.845121       20.278909   0.000000   0.000000
     17         20.589333       21.033599   0.000000   0.000000
     18         27.321545       27.260851   0.000000   0.000000
     19         28.564102       28.874771   0.000000   0.000000
     20         28.848969       29.178049   0.000000   0.000000
     21         34.410392       34.453844   0.000000   0.000000
     22         36.943953       37.152533   0.000000   0.000000
     23         40.078984       40.074794   0.000000   0.000000
     24         40.392424       40.553752   0.000000   0.000000
 
  0.1666667E+00  0.1666667E+00  0.0000000E+00  0.5208333E-02
      1          2.419592        2.451322   1.000000   1.000000
      2          4.479295        5.765986   1.000000   1.000000
      3          4.789002        6.073698   1.000000   1.000000
      4          4.856090        6.370835   1.000000   1.000000
      5          5.531100        7.281970   1.000000   1.000000
      6          5.651749        7.334316   1.000000   1.000000
      7          5.977719        7.723518   1.000000   1.000000
      8          6.181582        8.034559   1.000000   0.460487
      9          6.557163        8.449788   1.000000   0.000000
     10          6.851544        8.721981   1.000000   0.000000
     11          7.018533        9.044286   1.000000   0.000000
     12         12.541893       13.208100   0.000000   0.000000
     13         13.921789       14.626999   0.000000   0.000000
     14         19.192459       19.564523   0.000000   0.000000
     15         19.339690       19.736693   0.000000   0.000000
     16         26.462080       26.407406   0.000000   0.000000
     17         26.688009       26.914920   0.000000   0.000000
     18         27.482409       27.789068   0.000000   0.000000
     19         28.051547       28.359028   0.000000   0.000000
     20         32.454853       32.659436   0.000000   0.000000
     21         34.480033       34.831150   0.000000   0.000000
     22         35.004998       34.917554   0.000000   0.000000
     23         38.141424       38.294343   0.000000   0.000000
     24         39.330138       39.442507   0.000000   0.000000
 
  0.2500000E+00  0.1666667E+00  0.0000000E+00  0.1041667E-01
      1          3.419643        3.613263   1.000000   1.000000
      2          4.475020        5.844244   1.000000   1.000000
      3          4.504337        5.856582   1.000000   1.000000
      4          4.846437        6.200034   1.000000   1.000000
      5          5.416078        7.126744   1.000000   1.000000
      6          5.765636        7.442174   1.000000   1.000000
      7          5.834809        7.545289   1.000000   1.000000
      8          6.413703        8.296817   1.000000   0.000000
      9          6.886451        8.836588   1.000000   0.000000
     10          7.016879        9.042183   1.000000   0.000000
     11          7.502230        9.279706   1.000000   0.000000
     12         14.190773       14.776419   0.000000   0.000000
     13         14.450878       14.993006   0.000000   0.000000
     14         16.393142       16.913091   0.000000   0.000000
     15         18.181597       18.558416   0.000000   0.000000
     16         23.706714       23.910557   0.000000   0.000000
     17         24.572043       24.939360   0.000000   0.000000
     18         25.660500       25.760706   0.000000   0.000000
     19         26.825236       27.161611   0.000000   0.000000
     20         32.552522       32.789221   0.000000   0.000000
     21         36.315198       36.185923   0.000000   0.000000
     22         36.886923       37.134709   0.000000   0.000000
     23         38.751495       38.869475   0.000000   0.000000
     24         39.220043       39.359005   0.000000   0.000000
 
  0.3333333E+00  0.1666667E+00  0.0000000E+00  0.1041667E-01
      1          4.059642        4.693795   1.000000   1.000000
      2          4.322500        5.692468   1.000000   1.000000
      3          4.329134        5.714273   1.000000   1.000000
      4          5.106572        6.197425   1.000000   1.000000
      5          5.383603        7.079411   1.000000   1.000000
      6          5.681438        7.345076   1.000000   1.000000
      7          5.920766        7.630754   1.000000   1.000000
      8          6.719397        8.643896   1.000000   0.000000
      9          7.014907        9.034294   1.000000   0.000000
     10          7.047801        9.039589   1.000000   0.000000
     11          8.549697       10.015341   0.000000   0.000000
     12         12.810092       13.490730   0.000000   0.000000
     13         16.004603       16.490610   0.000000   0.000000
     14         16.445784       16.894296   0.000000   0.000000
     15         17.500299       17.851263   0.000000   0.000000
     16         21.169603       21.509082   0.000000   0.000000
     17         21.848437       22.270626   0.000000   0.000000
     18         25.107586       25.197500   0.000000   0.000000
     19         26.141239       26.474148   0.000000   0.000000
     20         32.214832       32.470108   0.000000   0.000000
     21         37.052577       36.918065   0.000000   0.000000
     22         39.225407       39.306781   0.000000   0.000000
     23         40.091673       40.278068   0.000000   0.000000
     24         40.127238       40.289982   0.000000   0.000000
 
  0.4166667E+00  0.1666667E+00  0.0000000E+00  0.5208333E-02
      1          4.210195        5.182350   1.000000   1.000000
      2          4.253043        5.582671   1.000000   1.000000
      3          4.270559        5.673053   1.000000   1.000000
      4          5.290303        6.210199   1.000000   1.000000
      5          5.394521        7.108713   1.000000   1.000000
      6          5.602866        7.224487   1.000000   1.000000
      7          5.986182        7.714558   1.000000   1.000000
      8          6.923808        8.886326   1.000000   0.000000
      9          7.013965        9.019664   1.000000   0.000000
     10          7.031250        9.038325   1.000000   0.000000
     11          9.805012       10.833821   0.000000   0.000000
     12         10.994104       11.997460   0.000000   0.000000
     13         17.037719       17.391094   0.000000   0.000000
     14         17.300654       17.681656   0.000000   0.000000
     15         17.570981       17.900681   0.000000   0.000000
     16         19.634532       20.088929   0.000000   0.000000
     17         20.365836       20.854531   0.000000   0.000000
     18         24.922546       25.010669   0.000000   0.000000
     19         25.903470       26.232159   0.000000   0.000000
     20         32.086907       32.346934   0.000000   0.000000
     21         37.152845       37.039874   0.000000   0.000000
     22         39.807229       39.985090   0.000000   0.000000
     23         40.295096       40.255294   0.000000   0.000000
     24         41.915502       41.914349   0.000000   0.000000
 
  0.2500000E+00  0.2500000E+00  0.0000000E+00  0.5208333E-02
      1          4.157433        4.668589   1.000000   1.000000
      2          4.378400        5.773506   1.000000   1.000000
      3          4.625354        5.958648   1.000000   1.000000
      4          4.692767        5.966349   1.000000   1.000000
      5          5.338103        7.009151   1.000000   1.000000
      6          5.691776        7.364692   1.000000   1.000000
      7          5.925994        7.634463   1.000000   1.000000
      8          6.548056        8.458128   1.000000   0.000000
      9          6.985098        9.004491   1.000000   0.000000
     10          7.052853        9.037703   1.000000   0.000000
     11          8.531956       10.038747   0.000000   0.000000
     12         14.482237       14.968145   0.000000   0.000000
     13         15.114796       15.645678   0.000000   0.000000
     14         15.890373       16.404591   0.000000   0.000000
     15         16.785758       17.235837   0.000000   0.000000
     16         22.676850       23.011820   0.000000   0.000000
     17         23.294747       23.402772   0.000000   0.000000
     18         23.441808       23.828313   0.000000   0.000000
     19         24.154434       24.508478   0.000000   0.000000
     20         35.505015       35.664742   0.000000   0.000000
     21         36.875506       37.162876   0.000000   0.000000
     22         38.129786       37.989682   0.000000   0.000000
     23         39.999026       40.067842   0.000000   0.000000
     24         41.915415       41.857905   0.000000   0.000000
 
  0.3333333E+00  0.2500000E+00  0.0000000E+00  0.1041667E-01
      1          4.319053        5.397672   1.000000   1.000000
      2          4.419905        5.754535   1.000000   1.000000
      3          4.526530        5.825779   1.000000   1.000000
      4          4.938686        5.997672   1.000000   1.000000
      5          5.353501        7.009163   1.000000   1.000000
      6          5.543803        7.177458   1.000000   1.000000
      7          6.053385        7.794279   1.000000   1.000000
      8          6.753847        8.693235   1.000000   0.000000
      9          6.966299        8.982179   1.000000   0.000000
     10          7.011742        8.993860   1.000000   0.000000
     11         10.069719       11.146788   0.000000   0.000000
     12         12.341977       13.082490   0.000000   0.000000
     13         14.520184       15.028380   0.000000   0.000000
     14         17.718362       18.145910   0.000000   0.000000
     15         17.949029       18.305964   0.000000   0.000000
     16         20.531846       20.909069   0.000000   0.000000
     17         21.326300       21.755391   0.000000   0.000000
     18         22.769008       22.954645   0.000000   0.000000
     19         23.456946       23.818344   0.000000   0.000000
     20         35.805591       36.006047   0.000000   0.000000
     21         39.598805       39.467963   0.000000   0.000000
     22         39.647929       39.711520   0.000000   0.000000
     23         41.362851       41.454847   0.000000   0.000000
     24         42.215212       42.204733   0.000000   0.000000
 
  0.3333333E+00  0.3333333E+00  0.0000000E+00  0.1736111E-02
      1          4.323706        5.751820   1.000000   1.000000
      2          4.585802        5.751822   1.000000   1.000000
      3          4.585802        5.784297   1.000000   1.000000
      4          4.856932        5.973937   1.000000   1.000000
      5          5.414530        7.042595   1.000000   1.000000
      6          5.414530        7.042595   1.000000   1.000000
      7          6.128088        7.880522   1.000000   0.999990
      8          6.862434        8.821358   1.000000   0.000000
      9          6.862434        8.821359   1.000000   0.000000
     10          6.946864        8.959307   1.000000   0.000000
     11         11.798869       12.531752   0.000000   0.000000
     12         12.280696       13.031658   0.000000   0.000000
     13         12.280698       13.031659   0.000000   0.000000
     14         18.866913       19.180167   0.000000   0.000000
     15         19.487388       19.874241   0.000000   0.000000