 vasp.6.3.2 27Jun22 (build Aug 12 2022 00:53:59) complex                        
  
 executed on               tv2STD date 2024.12.03  01:30:14
 running   24 mpi-ranks, with    1 threads/rank
 distrk:  each k-point on   24 cores,    1 groups
 distr:  one band on NCORE=   1 cores,   24 groups


--------------------------------------------------------------------------------------------------------


 INCAR:
   SYSTEM = Co-hcc
   NWRITE = 2    write-flag
   ISTART = 0    job   : 0-new, 1-cont, 2-samecut
   ICHARG = 2    charge: 0-wave, 1-file, 2-atom, >10-const
   INIWAV = 1    electr: 0-lowe 1-rand  2-diag
   ENCUT = 425.0     energy cutoff in eV
   PREC = Accurate      normal | accurate
   ADDGRID = .FALSE.  (use fine grid)
   NELM = 100     number of ELM steps
   EDIFF = 1E-06    energy stopping-criterion for ELM
   LREAL = .FALSE.      real-space projection (.FALSE., .TRUE., On, Auto)
   ALGO = Normal     Normal, Fast, Very_Fast
   LWAVE = .FALSE.
   LCHARG = .FALSE.
   NSW = 100       max number of geometry steps
   IBRION = 2     ionic relax: 0-MD, 1-quasi-Newton, 2-CG, 3-Damped MD
   EDIFFG = -0.02  force (eV/A) stopping-criterion for geometry steps
   ISIF = 2     (1:force\=y stress\=trace only ions\=y shape\=n volume\=n)
   ISYM = 1     (1-use symmetry, 0-no symmetry)
   ISMEAR = 0     (-1-Fermi, 1-Methfessel/Paxton)
   SIGMA = 0.05   broadening in eV
   LORBIT = 11
   ISPIN = 2
   MAGMOM = 2*3

 POTCAR:    PAW_PBE Co 02Aug2007                  
 POTCAR:    PAW_PBE Co 02Aug2007                  
   SHA256 =  0e690c60710354995174544f52f9f2c30879afabeffe3b3fbd4001cb294e56d4 Co/POTCAR             
   COPYR  = (c) Copyright 02Aug2007 Georg Kresse                                                    
   COPYR  = This file is part of the software VASP. Any use, copying, and all other rights are regul
   COPYR  = If you do not have a valid VASP license, you may not use, copy or distribute this file. 
   VRHFIN =Co: d8 s1                                                                                
   LEXCH  = PE                                                                                      
   EATOM  =   813.3670 eV,   59.7808 Ry                                                             
                                                                                                    
   TITEL  = PAW_PBE Co 02Aug2007                                                                    
   LULTRA =        F    use ultrasoft PP ?                                                          
   IUNSCR =        1    unscreen: 0-lin 1-nonlin 2-no                                               
   RPACOR =    2.000    partial core radius                                                         
   POMASS =   58.933; ZVAL   =    9.000    mass and valenz                                          
   RCORE  =    2.300    outmost cutoff radius                                                       
   RWIGS  =    2.460; RWIGS  =    1.302    wigner-seitz radius (au A)                               
   ENMAX  =  267.968; ENMIN  =  200.976 eV                                                          
   RCLOC  =    1.203    cutoff for local pot                                                        
   LCOR   =        T    correct aug charges                                                         
   LPAW   =        T    paw PP                                                                      
   EAUG   =  477.818                                                                                
   DEXC   =    0.000                                                                                
   RMAX   =    2.360    core radius for proj-oper                                                   
   RAUG   =    1.300    factor for augmentation sphere                                              
   RDEP   =    2.393    radius for radial grids                                                     
   RDEPT  =    1.864    core radius for aug-charge                                                  
                                                                                                    
   Atomic configuration                                                                             
    9 entries                                                                                       
     n  l   j            E        occ.                                                              
     1  0  0.50     -7587.6674   2.0000                                                             
     2  0  0.50      -893.6084   2.0000                                                             
     2  1  1.50      -764.5805   6.0000                                                             
     3  0  0.50       -97.5973   2.0000                                                             
     3  1  1.50       -60.9648   6.0000                                                             
     3  2  2.50        -4.2382   8.0000                                                             
     4  0  0.50        -4.3746   1.0000                                                             
     4  1  1.50        -4.0817   0.0000                                                             
     4  3  2.50        -1.3606   0.0000                                                             
   Description                                                                                      
     l       E           TYP  RCUT    TYP  RCUT                                                     
     2     -4.2382362     23  2.300                                                                 
     2     -5.5988188     23  2.300                                                                 
     0     -4.3745797     23  2.300                                                                 
     0      5.7660125     23  2.300                                                                 
     1     -2.7211652     23  2.300                                                                 
     1     16.9860234     23  2.300                                                                 
  local pseudopotential read in
  partial core-charges read in
  partial kinetic energy density read in
  atomic valenz-charges read in
  non local Contribution for L=           2  read in
    real space projection operators read in
  non local Contribution for L=           2  read in
    real space projection operators read in
  non local Contribution for L=           0  read in
    real space projection operators read in
  non local Contribution for L=           0  read in
    real space projection operators read in
  non local Contribution for L=           1  read in
    real space projection operators read in
  non local Contribution for L=           1  read in
    real space projection operators read in
    PAW grid and wavefunctions read in
 
   number of l-projection  operators is LMAX  =           6
   number of lm-projection operators is LMMAX =          18
 
  PAW_PBE Co 02Aug2007                  :
 energy of atom  1       EATOM= -813.3670
 kinetic energy error for atom=    0.0054 (will be added to EATOM!!)
 
 
 POSCAR: Co
  positions in cartesian coordinates
  No initial velocities read in
 exchange correlation table for  LEXCH =        8
   RHO(1)=    0.500       N(1)  =     2000
   RHO(2)=  100.500       N(2)  =     4000
 


--------------------------------------------------------------------------------------------------------


 ion  position               nearest neighbor table
   1  0.333  0.667  0.250-   2 2.62   2 2.62   2 2.62   2 2.62   2 2.62   2 2.62
   2  0.667  0.333  0.750-   1 2.62   1 2.62   1 2.62   1 2.62   1 2.62   1 2.62
 
  LATTYP: Found a hexagonal cell.
 ALAT       =     2.6418121465
 C/A-ratio  =     1.6130472937
  
  Lattice vectors:
  
 A1 = (   1.3209060732,  -2.2878764309,   0.0000000000)
 A2 = (   1.3209060732,   2.2878764309,   0.0000000000)
 A3 = (   0.0000000000,   0.0000000000,   4.2613679334)


Analysis of symmetry for initial positions (statically):
=====================================================================
 Subroutine PRICEL returns:
 Original cell was already a primitive cell.
 

 Routine SETGRP: Setting up the symmetry group for a 
 hexagonal supercell.


 Subroutine GETGRP returns: Found 24 space group operations
 (whereof 12 operations were pure point group operations)
 out of a pool of 24 trial point group operations.


The static configuration has the point symmetry D_3d.
 The point group associated with its full space group is D_6h.


Analysis of symmetry for dynamics (positions and initial velocities):
=====================================================================
 Subroutine PRICEL returns:
 Original cell was already a primitive cell.
 

 Routine SETGRP: Setting up the symmetry group for a 
 hexagonal supercell.


 Subroutine GETGRP returns: Found 24 space group operations
 (whereof 12 operations were pure point group operations)
 out of a pool of 24 trial point group operations.


The dynamic configuration has the point symmetry D_3d.
 The point group associated with its full space group is D_6h.


Analysis of structural, dynamic, and magnetic symmetry:
=====================================================================
 Subroutine PRICEL returns:
 Original cell was already a primitive cell.
 

 Routine SETGRP: Setting up the symmetry group for a 
 hexagonal supercell.


 Subroutine GETGRP returns: Found 24 space group operations
 (whereof 12 operations were pure point group operations)
 out of a pool of 24 trial point group operations.


The overall configuration has the point symmetry D_3d.
 The point group associated with its full space group is D_6h.


 Subroutine INISYM returns: Found 24 space group operations
 (whereof 12 operations are pure point group operations),
 and found     1 'primitive' translations


----------------------------------------------------------------------------------------

                                     Primitive cell                                     

  volume of cell :      25.7563

  direct lattice vectors                    reciprocal lattice vectors
     1.320906073 -2.287876431  0.000000000     0.378528050 -0.218543272  0.000000000
     1.320906073  2.287876431  0.000000000     0.378528050  0.218543272  0.000000000
     0.000000000  0.000000000  4.261367933     0.000000000  0.000000000  0.234666430

  length of vectors
     2.641812146  2.641812146  4.261367933     0.437086543  0.437086543  0.234666430

  position of ions in fractional coordinates (direct lattice)
     0.333333333  0.666666667  0.250000000
     0.666666667  0.333333333  0.750000000

  ion indices of the primitive-cell ions
   primitive index   ion index
                 1           1
                 2           2

----------------------------------------------------------------------------------------

 
 
 KPOINTS: Automatic mesh                          

Automatic generation of k-mesh.
 Grid dimensions read from file:
 generate k-points for:   12   12    8

 Generating k-lattice:

  Cartesian coordinates                     Fractional coordinates (reciprocal lattice)
     0.031544004 -0.018211939  0.000000000     0.083333333  0.000000000  0.000000000
     0.031544004  0.018211939  0.000000000     0.000000000  0.083333333  0.000000000
     0.000000000  0.000000000  0.029333304     0.000000000  0.000000000  0.125000000

  Length of vectors
     0.036423879  0.036423879  0.029333304

  Shift w.r.t. Gamma in fractional coordinates (k-lattice)
     0.000000000  0.000000000  0.000000000

 
 Subroutine IBZKPT returns following result:
 ===========================================
 
 Found     95 irreducible k-points:
 
 Following reciprocal coordinates:
            Coordinates               Weight
  0.000000  0.000000  0.000000      1.000000
  0.083333 -0.000000  0.000000      6.000000
  0.166667 -0.000000  0.000000      6.000000
  0.250000  0.000000  0.000000      6.000000
  0.333333 -0.000000  0.000000      6.000000
  0.416667 -0.000000  0.000000      6.000000
  0.500000  0.000000  0.000000      3.000000
  0.083333  0.083333  0.000000      6.000000
  0.166667  0.083333  0.000000     12.000000
  0.250000  0.083333  0.000000     12.000000
  0.333333  0.083333  0.000000     12.000000
  0.416667  0.083333  0.000000     12.000000
  0.166667  0.166667  0.000000      6.000000
  0.250000  0.166667  0.000000     12.000000
  0.333333  0.166667  0.000000     12.000000
  0.416667  0.166667  0.000000      6.000000
  0.250000  0.250000  0.000000      6.000000
  0.333333  0.250000  0.000000     12.000000
  0.333333  0.333333  0.000000      2.000000
  0.000000  0.000000  0.125000      2.000000
  0.083333 -0.000000  0.125000     12.000000
  0.166667 -0.000000  0.125000     12.000000
  0.250000  0.000000  0.125000     12.000000
  0.333333 -0.000000  0.125000     12.000000
  0.416667 -0.000000  0.125000     12.000000
  0.500000  0.000000  0.125000      6.000000
  0.083333  0.083333  0.125000     12.000000
  0.166667  0.083333  0.125000     24.000000
  0.250000  0.083333  0.125000     24.000000
  0.333333  0.083333  0.125000     24.000000
  0.416667  0.083333  0.125000     24.000000
  0.166667  0.166667  0.125000     12.000000
  0.250000  0.166667  0.125000     24.000000
  0.333333  0.166667  0.125000     24.000000
  0.416667  0.166667  0.125000     12.000000
  0.250000  0.250000  0.125000     12.000000
  0.333333  0.250000  0.125000     24.000000
  0.333333  0.333333  0.125000      4.000000
  0.000000  0.000000  0.250000      2.000000
  0.083333 -0.000000  0.250000     12.000000
  0.166667 -0.000000  0.250000     12.000000
  0.250000  0.000000  0.250000     12.000000
  0.333333 -0.000000  0.250000     12.000000
  0.416667 -0.000000  0.250000     12.000000
  0.500000  0.000000  0.250000      6.000000
  0.083333  0.083333  0.250000     12.000000
  0.166667  0.083333  0.250000     24.000000
  0.250000  0.083333  0.250000     24.000000
  0.333333  0.083333  0.250000     24.000000
  0.416667  0.083333  0.250000     24.000000
  0.166667  0.166667  0.250000     12.000000
  0.250000  0.166667  0.250000     24.000000
  0.333333  0.166667  0.250000     24.000000
  0.416667  0.166667  0.250000     12.000000
  0.250000  0.250000  0.250000     12.000000
  0.333333  0.250000  0.250000     24.000000
  0.333333  0.333333  0.250000      4.000000
  0.000000  0.000000  0.375000      2.000000
  0.083333 -0.000000  0.375000     12.000000
  0.166667 -0.000000  0.375000     12.000000
  0.250000  0.000000  0.375000     12.000000
  0.333333 -0.000000  0.375000     12.000000
  0.416667 -0.000000  0.375000     12.000000
  0.500000  0.000000  0.375000      6.000000
  0.083333  0.083333  0.375000     12.000000
  0.166667  0.083333  0.375000     24.000000
  0.250000  0.083333  0.375000     24.000000
  0.333333  0.083333  0.375000     24.000000
  0.416667  0.083333  0.375000     24.000000
  0.166667  0.166667  0.375000     12.000000
  0.250000  0.166667  0.375000     24.000000
  0.333333  0.166667  0.375000     24.000000
  0.416667  0.166667  0.375000     12.000000
  0.250000  0.250000  0.375000     12.000000
  0.333333  0.250000  0.375000     24.000000
  0.333333  0.333333  0.375000      4.000000
  0.000000  0.000000  0.500000      1.000000
  0.083333 -0.000000  0.500000      6.000000
  0.166667 -0.000000  0.500000      6.000000
  0.250000  0.000000  0.500000      6.000000
  0.333333 -0.000000  0.500000      6.000000
  0.416667 -0.000000  0.500000      6.000000
  0.500000  0.000000  0.500000      3.000000
  0.083333  0.083333  0.500000      6.000000
  0.166667  0.083333  0.500000     12.000000
  0.250000  0.083333  0.500000     12.000000
  0.333333  0.083333  0.500000     12.000000
  0.416667  0.083333  0.500000     12.000000
  0.166667  0.166667  0.500000      6.000000
  0.250000  0.166667  0.500000     12.000000
  0.333333  0.166667  0.500000     12.000000
  0.416667  0.166667  0.500000      6.000000
  0.250000  0.250000  0.500000      6.000000
  0.333333  0.250000  0.500000     12.000000
  0.333333  0.333333  0.500000      2.000000
 
 Following cartesian coordinates:
            Coordinates               Weight
  0.000000  0.000000  0.000000      1.000000
  0.031544 -0.018212  0.000000      6.000000
  0.063088 -0.036424  0.000000      6.000000
  0.094632 -0.054636  0.000000      6.000000
  0.126176 -0.072848  0.000000      6.000000
  0.157720 -0.091060  0.000000      6.000000
  0.189264 -0.109272  0.000000      3.000000
  0.063088  0.000000  0.000000      6.000000
  0.094632 -0.018212  0.000000     12.000000
  0.126176 -0.036424  0.000000     12.000000
  0.157720 -0.054636  0.000000     12.000000
  0.189264 -0.072848  0.000000     12.000000
  0.126176  0.000000  0.000000      6.000000
  0.157720 -0.018212  0.000000     12.000000
  0.189264 -0.036424  0.000000     12.000000
  0.220808 -0.054636  0.000000      6.000000
  0.189264  0.000000  0.000000      6.000000
  0.220808 -0.018212  0.000000     12.000000
  0.252352  0.000000  0.000000      2.000000
  0.000000  0.000000  0.029333      2.000000
  0.031544 -0.018212  0.029333     12.000000
  0.063088 -0.036424  0.029333     12.000000
  0.094632 -0.054636  0.029333     12.000000
  0.126176 -0.072848  0.029333     12.000000
  0.157720 -0.091060  0.029333     12.000000
  0.189264 -0.109272  0.029333      6.000000
  0.063088  0.000000  0.029333     12.000000
  0.094632 -0.018212  0.029333     24.000000
  0.126176 -0.036424  0.029333     24.000000
  0.157720 -0.054636  0.029333     24.000000
  0.189264 -0.072848  0.029333     24.000000
  0.126176  0.000000  0.029333     12.000000
  0.157720 -0.018212  0.029333     24.000000
  0.189264 -0.036424  0.029333     24.000000
  0.220808 -0.054636  0.029333     12.000000
  0.189264  0.000000  0.029333     12.000000
  0.220808 -0.018212  0.029333     24.000000
  0.252352  0.000000  0.029333      4.000000
  0.000000  0.000000  0.058667      2.000000
  0.031544 -0.018212  0.058667     12.000000
  0.063088 -0.036424  0.058667     12.000000
  0.094632 -0.054636  0.058667     12.000000
  0.126176 -0.072848  0.058667     12.000000
  0.157720 -0.091060  0.058667     12.000000
  0.189264 -0.109272  0.058667      6.000000
  0.063088  0.000000  0.058667     12.000000
  0.094632 -0.018212  0.058667     24.000000
  0.126176 -0.036424  0.058667     24.000000
  0.157720 -0.054636  0.058667     24.000000
  0.189264 -0.072848  0.058667     24.000000
  0.126176  0.000000  0.058667     12.000000
  0.157720 -0.018212  0.058667     24.000000
  0.189264 -0.036424  0.058667     24.000000
  0.220808 -0.054636  0.058667     12.000000
  0.189264  0.000000  0.058667     12.000000
  0.220808 -0.018212  0.058667     24.000000
  0.252352  0.000000  0.058667      4.000000
  0.000000  0.000000  0.088000      2.000000
  0.031544 -0.018212  0.088000     12.000000
  0.063088 -0.036424  0.088000     12.000000
  0.094632 -0.054636  0.088000     12.000000
  0.126176 -0.072848  0.088000     12.000000
  0.157720 -0.091060  0.088000     12.000000
  0.189264 -0.109272  0.088000      6.000000
  0.063088  0.000000  0.088000     12.000000
  0.094632 -0.018212  0.088000     24.000000
  0.126176 -0.036424  0.088000     24.000000
  0.157720 -0.054636  0.088000     24.000000
  0.189264 -0.072848  0.088000     24.000000
  0.126176  0.000000  0.088000     12.000000
  0.157720 -0.018212  0.088000     24.000000
  0.189264 -0.036424  0.088000     24.000000
  0.220808 -0.054636  0.088000     12.000000
  0.189264  0.000000  0.088000     12.000000
  0.220808 -0.018212  0.088000     24.000000
  0.252352  0.000000  0.088000      4.000000
  0.000000  0.000000  0.117333      1.000000
  0.031544 -0.018212  0.117333      6.000000
  0.063088 -0.036424  0.117333      6.000000
  0.094632 -0.054636  0.117333      6.000000
  0.126176 -0.072848  0.117333      6.000000
  0.157720 -0.091060  0.117333      6.000000
  0.189264 -0.109272  0.117333      3.000000
  0.063088  0.000000  0.117333      6.000000
  0.094632 -0.018212  0.117333     12.000000
  0.126176 -0.036424  0.117333     12.000000
  0.157720 -0.054636  0.117333     12.000000
  0.189264 -0.072848  0.117333     12.000000
  0.126176  0.000000  0.117333      6.000000
  0.157720 -0.018212  0.117333     12.000000
  0.189264 -0.036424  0.117333     12.000000
  0.220808 -0.054636  0.117333      6.000000
  0.189264  0.000000  0.117333      6.000000
  0.220808 -0.018212  0.117333     12.000000
  0.252352  0.000000  0.117333      2.000000
 


--------------------------------------------------------------------------------------------------------




 Dimension of arrays:
   k-points           NKPTS =     95   k-points in BZ     NKDIM =     95   number of bands    NBANDS=     24
   number of dos      NEDOS =    301   number of ions     NIONS =      2
   non local maximal  LDIM  =      6   non local SUM 2l+1 LMDIM =     18
   total plane-waves  NPLWV =   9720
   max r-space proj   IRMAX =      1   max aug-charges    IRDMAX=  15081
   dimension x,y,z NGX =    18 NGY =   18 NGZ =   30
   dimension x,y,z NGXF=    36 NGYF=   36 NGZF=   60
   support grid    NGXF=    36 NGYF=   36 NGZF=   60
   ions per type =               2
   NGX,Y,Z   is equivalent  to a cutoff of  11.33, 11.33, 11.70 a.u.
   NGXF,Y,Z  is equivalent  to a cutoff of  22.65, 22.65, 23.41 a.u.

 SYSTEM =  Co-hcc                                  
 POSCAR =  Co                                      

 Startparameter for this run:
   NWRITE =      2    write-flag & timer
   PREC   = accura    normal or accurate (medium, high low for compatibility)
   ISTART =      0    job   : 0-new  1-cont  2-samecut
   ICHARG =      2    charge: 1-file 2-atom 10-const
   ISPIN  =      2    spin polarized calculation?
   LNONCOLLINEAR =      F non collinear calculations
   LSORBIT =      F    spin-orbit coupling
   INIWAV =      1    electr: 0-lowe 1-rand  2-diag
   LASPH  =      F    aspherical Exc in radial PAW
 Electronic Relaxation 1
   ENCUT  =  425.0 eV  31.24 Ry    5.59 a.u.   4.44  4.44  7.16*2*pi/ulx,y,z
   ENINI  =  425.0     initial cutoff
   ENAUG  =  477.8 eV  augmentation charge cutoff
   NELM   =    100;   NELMIN=  2; NELMDL= -5     # of ELM steps 
   EDIFF  = 0.1E-05   stopping-criterion for ELM
   LREAL  =      F    real-space projection
   NLSPLINE    = F    spline interpolate recip. space projectors
   LCOMPAT=      F    compatible to vasp.4.4
   GGA_COMPAT  = T    GGA compatible to vasp.4.4-vasp.4.6
   LMAXPAW     = -100 max onsite density
   LMAXMIX     =    2 max onsite mixed and CHGCAR
   VOSKOWN=      0    Vosko Wilk Nusair interpolation
   ROPT   =    0.00000
 Ionic relaxation
   EDIFFG = -.2E-01   stopping-criterion for IOM
   NSW    =    100    number of steps for IOM
   NBLOCK =      1;   KBLOCK =    100    inner block; outer block 
   IBRION =      2    ionic relax: 0-MD 1-quasi-New 2-CG
   NFREE  =      1    steps in history (QN), initial steepest desc. (CG)
   ISIF   =      2    stress and relaxation
   IWAVPR =     11    prediction:  0-non 1-charg 2-wave 3-comb
   ISYM   =      1    0-nonsym 1-usesym 2-fastsym
   LCORR  =      T    Harris-Foulkes like correction to forces

   POTIM  = 0.5000    time-step for ionic-motion
   TEIN   =    0.0    initial temperature
   TEBEG  =    0.0;   TEEND  =   0.0 temperature during run
   SMASS  =  -3.00    Nose mass-parameter (am)
   estimated Nose-frequenzy (Omega)   =  0.10E-29 period in steps = 0.13E+47 mass=  -0.159E-27a.u.
   SCALEE = 1.0000    scale energy and forces
   NPACO  =    256;   APACO  = 10.0  distance and # of slots for P.C.
   PSTRESS=    0.0 pullay stress

  Mass of Ions in am
   POMASS =  58.93
  Ionic Valenz
   ZVAL   =   9.00
  Atomic Wigner-Seitz radii
   RWIGS  =  -1.00
  virtual crystal weights 
   VCA    =   1.00
   NELECT =      18.0000    total number of electrons
   NUPDOWN=      -1.0000    fix difference up-down

 DOS related values:
   EMIN   =  10.00;   EMAX   =-10.00  energy-range for DOS
   EFERMI =   0.00
   ISMEAR =     0;   SIGMA  =   0.05  broadening in eV -4-tet -1-fermi 0-gaus

 Electronic relaxation 2 (details)
   IALGO  =     38    algorithm
   LDIAG  =      T    sub-space diagonalisation (order eigenvalues)
   LSUBROT=      F    optimize rotation matrix (better conditioning)
   TURBO    =      0    0=normal 1=particle mesh
   IRESTART =      0    0=no restart 2=restart with 2 vectors
   NREBOOT  =      0    no. of reboots
   NMIN     =      0    reboot dimension
   EREF     =   0.00    reference energy to select bands
   IMIX   =      4    mixing-type and parameters
     AMIX     =   0.40;   BMIX     =  1.00
     AMIX_MAG =   1.60;   BMIX_MAG =  1.00
     AMIN     =   0.10
     WC   =   100.;   INIMIX=   1;  MIXPRE=   1;  MAXMIX= -45

 Intra band minimization:
   WEIMIN = 0.0010     energy-eigenvalue tresh-hold
   EBREAK =  0.10E-07  absolut break condition
   DEPER  =   0.30     relativ break condition  

   TIME   =   0.40     timestep for ELM

  volume/ion in A,a.u.               =      12.88        86.91
  Fermi-wavevector in a.u.,A,eV,Ry     =   1.452796  2.745385 28.716658  2.110615
  Thomas-Fermi vector in A             =   2.570136
 
 Write flags
   LWAVE        =      F    write WAVECAR
   LDOWNSAMPLE  =      F    k-point downsampling of WAVECAR
   LCHARG       =      F    write CHGCAR
   LVTOT        =      F    write LOCPOT, total local potential
   LVHAR        =      F    write LOCPOT, Hartree potential only
   LELF         =      F    write electronic localiz. function (ELF)
   LORBIT       =     11    0 simple, 1 ext, 2 COOP (PROOUT), +10 PAW based schemes


 Dipole corrections
   LMONO  =      F    monopole corrections only (constant potential shift)
   LDIPOL =      F    correct potential (dipole corrections)
   IDIPOL =      0    1-x, 2-y, 3-z, 4-all directions 
   EPSILON=  1.0000000 bulk dielectric constant

 Exchange correlation treatment:
   GGA     =    --    GGA type
   LEXCH   =     8    internal setting for exchange type
   LIBXC   =     F    Libxc                    
   VOSKOWN =     0    Vosko Wilk Nusair interpolation
   LHFCALC =     F    Hartree Fock is set to
   LHFONE  =     F    Hartree Fock one center treatment
   AEXX    =    0.0000 exact exchange contribution

 Linear response parameters
   LEPSILON=     F    determine dielectric tensor
   LRPA    =     F    only Hartree local field effects (RPA)
   LNABLA  =     F    use nabla operator in PAW spheres
   LVEL    =     F    velocity operator in full k-point grid
   CSHIFT  =0.1000    complex shift for real part using Kramers Kronig
   OMEGAMAX=  -1.0    maximum frequency
   DEG_THRESHOLD= 0.2000000E-02 threshold for treating states as degnerate
   RTIME   =   -0.100 relaxation time in fs
  (WPLASMAI=    0.000 imaginary part of plasma frequency in eV, 0.658/RTIME)
   DFIELD  = 0.0000000 0.0000000 0.0000000 field for delta impulse in time
 
  Optional k-point grid parameters
   LKPOINTS_OPT  =     F    use optional k-point grid
   KPOINTS_OPT_MODE=     1    mode for optional k-point grid
 
 Orbital magnetization related:
   ORBITALMAG=     F  switch on orbital magnetization
   LCHIMAG   =     F  perturbation theory with respect to B field
   DQ        =  0.001000  dq finite difference perturbation B field
   LLRAUG    =     F  two centre corrections for induced B field



--------------------------------------------------------------------------------------------------------


 conjugate gradient relaxation of ions
 charge density and potential will be updated during run
 spin polarized calculation
 Variant of blocked Davidson
 Davidson routine will perform the subspace rotation
 perform sub-space diagonalisation
    after iterative eigenvector-optimisation
 modified Broyden-mixing scheme, WC =      100.0
 initial mixing is a Kerker type mixing with AMIX =  0.4000 and BMIX =      1.0000
 Hartree-type preconditioning will be used
 using additional bands           15
 reciprocal scheme for non local part
 use partial core corrections
 calculate Harris-corrections to forces 
   (improved forces if not selfconsistent)
 use gradient corrections 
 use of overlap-Matrix (Vanderbilt PP)
 Gauss-broadening in eV      SIGMA  =   0.05


--------------------------------------------------------------------------------------------------------


  energy-cutoff  :      425.00
  volume of cell :       25.76
      direct lattice vectors                 reciprocal lattice vectors
     1.320906073 -2.287876431  0.000000000     0.378528050 -0.218543272  0.000000000
     1.320906073  2.287876431  0.000000000     0.378528050  0.218543272  0.000000000
     0.000000000  0.000000000  4.261367933     0.000000000  0.000000000  0.234666430

  length of vectors
     2.641812146  2.641812146  4.261367933     0.437086543  0.437086543  0.234666430


 
 k-points in units of 2pi/SCALE and weight: Automatic mesh                          
   0.00000000  0.00000000  0.00000000       0.001
   0.03154400 -0.01821194  0.00000000       0.005
   0.06308801 -0.03642388  0.00000000       0.005
   0.09463201 -0.05463582  0.00000000       0.005
   0.12617602 -0.07284776  0.00000000       0.005
   0.15772002 -0.09105970  0.00000000       0.005
   0.18926402 -0.10927164  0.00000000       0.003
   0.06308801  0.00000000  0.00000000       0.005
   0.09463201 -0.01821194  0.00000000       0.010
   0.12617602 -0.03642388  0.00000000       0.010
   0.15772002 -0.05463582  0.00000000       0.010
   0.18926402 -0.07284776  0.00000000       0.010
   0.12617602  0.00000000  0.00000000       0.005
   0.15772002 -0.01821194  0.00000000       0.010
   0.18926402 -0.03642388  0.00000000       0.010
   0.22080803 -0.05463582  0.00000000       0.005
   0.18926402  0.00000000  0.00000000       0.005
   0.22080803 -0.01821194  0.00000000       0.010
   0.25235203  0.00000000  0.00000000       0.002
   0.00000000  0.00000000  0.02933330       0.002
   0.03154400 -0.01821194  0.02933330       0.010
   0.06308801 -0.03642388  0.02933330       0.010
   0.09463201 -0.05463582  0.02933330       0.010
   0.12617602 -0.07284776  0.02933330       0.010
   0.15772002 -0.09105970  0.02933330       0.010
   0.18926402 -0.10927164  0.02933330       0.005
   0.06308801  0.00000000  0.02933330       0.010
   0.09463201 -0.01821194  0.02933330       0.021
   0.12617602 -0.03642388  0.02933330       0.021
   0.15772002 -0.05463582  0.02933330       0.021
   0.18926402 -0.07284776  0.02933330       0.021
   0.12617602  0.00000000  0.02933330       0.010
   0.15772002 -0.01821194  0.02933330       0.021
   0.18926402 -0.03642388  0.02933330       0.021
   0.22080803 -0.05463582  0.02933330       0.010
   0.18926402  0.00000000  0.02933330       0.010
   0.22080803 -0.01821194  0.02933330       0.021
   0.25235203  0.00000000  0.02933330       0.003
   0.00000000  0.00000000  0.05866661       0.002
   0.03154400 -0.01821194  0.05866661       0.010
   0.06308801 -0.03642388  0.05866661       0.010
   0.09463201 -0.05463582  0.05866661       0.010
   0.12617602 -0.07284776  0.05866661       0.010
   0.15772002 -0.09105970  0.05866661       0.010
   0.18926402 -0.10927164  0.05866661       0.005
   0.06308801  0.00000000  0.05866661       0.010
   0.09463201 -0.01821194  0.05866661       0.021
   0.12617602 -0.03642388  0.05866661       0.021
   0.15772002 -0.05463582  0.05866661       0.021
   0.18926402 -0.07284776  0.05866661       0.021
   0.12617602  0.00000000  0.05866661       0.010
   0.15772002 -0.01821194  0.05866661       0.021
   0.18926402 -0.03642388  0.05866661       0.021
   0.22080803 -0.05463582  0.05866661       0.010
   0.18926402  0.00000000  0.05866661       0.010
   0.22080803 -0.01821194  0.05866661       0.021
   0.25235203  0.00000000  0.05866661       0.003
   0.00000000  0.00000000  0.08799991       0.002
   0.03154400 -0.01821194  0.08799991       0.010
   0.06308801 -0.03642388  0.08799991       0.010
   0.09463201 -0.05463582  0.08799991       0.010
   0.12617602 -0.07284776  0.08799991       0.010
   0.15772002 -0.09105970  0.08799991       0.010
   0.18926402 -0.10927164  0.08799991       0.005
   0.06308801  0.00000000  0.08799991       0.010
   0.09463201 -0.01821194  0.08799991       0.021
   0.12617602 -0.03642388  0.08799991       0.021
   0.15772002 -0.05463582  0.08799991       0.021
   0.18926402 -0.07284776  0.08799991       0.021
   0.12617602  0.00000000  0.08799991       0.010
   0.15772002 -0.01821194  0.08799991       0.021
   0.18926402 -0.03642388  0.08799991       0.021
   0.22080803 -0.05463582  0.08799991       0.010
   0.18926402  0.00000000  0.08799991       0.010
   0.22080803 -0.01821194  0.08799991       0.021
   0.25235203  0.00000000  0.08799991       0.003
   0.00000000  0.00000000  0.11733322       0.001
   0.03154400 -0.01821194  0.11733322       0.005
   0.06308801 -0.03642388  0.11733322       0.005
   0.09463201 -0.05463582  0.11733322       0.005
   0.12617602 -0.07284776  0.11733322       0.005
   0.15772002 -0.09105970  0.11733322       0.005
   0.18926402 -0.10927164  0.11733322       0.003
   0.06308801  0.00000000  0.11733322       0.005
   0.09463201 -0.01821194  0.11733322       0.010
   0.12617602 -0.03642388  0.11733322       0.010
   0.15772002 -0.05463582  0.11733322       0.010
   0.18926402 -0.07284776  0.11733322       0.010
   0.12617602  0.00000000  0.11733322       0.005
   0.15772002 -0.01821194  0.11733322       0.010
   0.18926402 -0.03642388  0.11733322       0.010
   0.22080803 -0.05463582  0.11733322       0.005
   0.18926402  0.00000000  0.11733322       0.005
   0.22080803 -0.01821194  0.11733322       0.010
   0.25235203  0.00000000  0.11733322       0.002
 
 k-points in reciprocal lattice and weights: Automatic mesh                          
   0.00000000  0.00000000  0.00000000       0.001
   0.08333333 -0.00000000  0.00000000       0.005
   0.16666667 -0.00000000  0.00000000       0.005
   0.25000000  0.00000000  0.00000000       0.005
   0.33333333 -0.00000000  0.00000000       0.005
   0.41666667 -0.00000000  0.00000000       0.005
   0.50000000  0.00000000  0.00000000       0.003
   0.08333333  0.08333333  0.00000000       0.005
   0.16666667  0.08333333  0.00000000       0.010
   0.25000000  0.08333333  0.00000000       0.010
   0.33333333  0.08333333  0.00000000       0.010
   0.41666667  0.08333333  0.00000000       0.010
   0.16666667  0.16666667  0.00000000       0.005
   0.25000000  0.16666667  0.00000000       0.010
   0.33333333  0.16666667  0.00000000       0.010
   0.41666667  0.16666667  0.00000000       0.005
   0.25000000  0.25000000  0.00000000       0.005
   0.33333333  0.25000000  0.00000000       0.010
   0.33333333  0.33333333  0.00000000       0.002
   0.00000000  0.00000000  0.12500000       0.002
   0.08333333 -0.00000000  0.12500000       0.010
   0.16666667 -0.00000000  0.12500000       0.010
   0.25000000  0.00000000  0.12500000       0.010
   0.33333333 -0.00000000  0.12500000       0.010
   0.41666667 -0.00000000  0.12500000       0.010
   0.50000000  0.00000000  0.12500000       0.005
   0.08333333  0.08333333  0.12500000       0.010
   0.16666667  0.08333333  0.12500000       0.021
   0.25000000  0.08333333  0.12500000       0.021
   0.33333333  0.08333333  0.12500000       0.021
   0.41666667  0.08333333  0.12500000       0.021
   0.16666667  0.16666667  0.12500000       0.010
   0.25000000  0.16666667  0.12500000       0.021
   0.33333333  0.16666667  0.12500000       0.021
   0.41666667  0.16666667  0.12500000       0.010
   0.25000000  0.25000000  0.12500000       0.010
   0.33333333  0.25000000  0.12500000       0.021
   0.33333333  0.33333333  0.12500000       0.003
   0.00000000  0.00000000  0.25000000       0.002
   0.08333333 -0.00000000  0.25000000       0.010
   0.16666667 -0.00000000  0.25000000       0.010
   0.25000000  0.00000000  0.25000000       0.010
   0.33333333 -0.00000000  0.25000000       0.010
   0.41666667 -0.00000000  0.25000000       0.010
   0.50000000  0.00000000  0.25000000       0.005
   0.08333333  0.08333333  0.25000000       0.010
   0.16666667  0.08333333  0.25000000       0.021
   0.25000000  0.08333333  0.25000000       0.021
   0.33333333  0.08333333  0.25000000       0.021
   0.41666667  0.08333333  0.25000000       0.021
   0.16666667  0.16666667  0.25000000       0.010
   0.25000000  0.16666667  0.25000000       0.021
   0.33333333  0.16666667  0.25000000       0.021
   0.41666667  0.16666667  0.25000000       0.010
   0.25000000  0.25000000  0.25000000       0.010
   0.33333333  0.25000000  0.25000000       0.021
   0.33333333  0.33333333  0.25000000       0.003
   0.00000000  0.00000000  0.37500000       0.002
   0.08333333 -0.00000000  0.37500000       0.010
   0.16666667 -0.00000000  0.37500000       0.010
   0.25000000  0.00000000  0.37500000       0.010
   0.33333333 -0.00000000  0.37500000       0.010
   0.41666667 -0.00000000  0.37500000       0.010
   0.50000000  0.00000000  0.37500000       0.005
   0.08333333  0.08333333  0.37500000       0.010
   0.16666667  0.08333333  0.37500000       0.021
   0.25000000  0.08333333  0.37500000       0.021
   0.33333333  0.08333333  0.37500000       0.021
   0.41666667  0.08333333  0.37500000       0.021
   0.16666667  0.16666667  0.37500000       0.010
   0.25000000  0.16666667  0.37500000       0.021
   0.33333333  0.16666667  0.37500000       0.021
   0.41666667  0.16666667  0.37500000       0.010
   0.25000000  0.25000000  0.37500000       0.010
   0.33333333  0.25000000  0.37500000       0.021
   0.33333333  0.33333333  0.37500000       0.003
   0.00000000  0.00000000  0.50000000       0.001
   0.08333333 -0.00000000  0.50000000       0.005
   0.16666667 -0.00000000  0.50000000       0.005
   0.25000000  0.00000000  0.50000000       0.005
   0.33333333 -0.00000000  0.50000000       0.005
   0.41666667 -0.00000000  0.50000000       0.005
   0.50000000  0.00000000  0.50000000       0.003
   0.08333333  0.08333333  0.50000000       0.005
   0.16666667  0.08333333  0.50000000       0.010
   0.25000000  0.08333333  0.50000000       0.010
   0.33333333  0.08333333  0.50000000       0.010
   0.41666667  0.08333333  0.50000000       0.010
   0.16666667  0.16666667  0.50000000       0.005
   0.25000000  0.16666667  0.50000000       0.010
   0.33333333  0.16666667  0.50000000       0.010
   0.41666667  0.16666667  0.50000000       0.005
   0.25000000  0.25000000  0.50000000       0.005
   0.33333333  0.25000000  0.50000000       0.010
   0.33333333  0.33333333  0.50000000       0.002
 
 position of ions in fractional coordinates (direct lattice) 
   0.33333333  0.66666667  0.25000000
   0.66666667  0.33333333  0.75000000
 
 position of ions in cartesian coordinates  (Angst):
   1.32090607  0.76262548  1.06534198
   1.32090607 -0.76262548  3.19602595
 


--------------------------------------------------------------------------------------------------------


 k-point   1 :   0.0000 0.0000 0.0000  plane waves:     537
 k-point   2 :   0.0833-0.0000 0.0000  plane waves:     533
 k-point   3 :   0.1667-0.0000 0.0000  plane waves:     524
 k-point   4 :   0.2500 0.0000 0.0000  plane waves:     518
 k-point   5 :   0.3333-0.0000 0.0000  plane waves:     514
 k-point   6 :   0.4167-0.0000 0.0000  plane waves:     496
 k-point   7 :   0.5000 0.0000 0.0000  plane waves:     496
 k-point   8 :   0.0833 0.0833 0.0000  plane waves:     519
 k-point   9 :   0.1667 0.0833 0.0000  plane waves:     517
 k-point  10 :   0.2500 0.0833 0.0000  plane waves:     512
 k-point  11 :   0.3333 0.0833 0.0000  plane waves:     512
 k-point  12 :   0.4167 0.0833 0.0000  plane waves:     506
 k-point  13 :   0.1667 0.1667 0.0000  plane waves:     519
 k-point  14 :   0.2500 0.1667 0.0000  plane waves:     513
 k-point  15 :   0.3333 0.1667 0.0000  plane waves:     510
 k-point  16 :   0.4167 0.1667 0.0000  plane waves:     510
 k-point  17 :   0.2500 0.2500 0.0000  plane waves:     504
 k-point  18 :   0.3333 0.2500 0.0000  plane waves:     508
 k-point  19 :   0.3333 0.3333 0.0000  plane waves:     510
 k-point  20 :   0.0000 0.0000 0.1250  plane waves:     531
 k-point  21 :   0.0833-0.0000 0.1250  plane waves:     527
 k-point  22 :   0.1667-0.0000 0.1250  plane waves:     525
 k-point  23 :   0.2500 0.0000 0.1250  plane waves:     512
 k-point  24 :   0.3333-0.0000 0.1250  plane waves:     507
 k-point  25 :   0.4167-0.0000 0.1250  plane waves:     508
 k-point  26 :   0.5000 0.0000 0.1250  plane waves:     510
 k-point  27 :   0.0833 0.0833 0.1250  plane waves:     523
 k-point  28 :   0.1667 0.0833 0.1250  plane waves:     521
 k-point  29 :   0.2500 0.0833 0.1250  plane waves:     512
 k-point  30 :   0.3333 0.0833 0.1250  plane waves:     511
 k-point  31 :   0.4167 0.0833 0.1250  plane waves:     504
 k-point  32 :   0.1667 0.1667 0.1250  plane waves:     509
 k-point  33 :   0.2500 0.1667 0.1250  plane waves:     508
 k-point  34 :   0.3333 0.1667 0.1250  plane waves:     509
 k-point  35 :   0.4167 0.1667 0.1250  plane waves:     509
 k-point  36 :   0.2500 0.2500 0.1250  plane waves:     506
 k-point  37 :   0.3333 0.2500 0.1250  plane waves:     506
 k-point  38 :   0.3333 0.3333 0.1250  plane waves:     513
 k-point  39 :   0.0000 0.0000 0.2500  plane waves:     518
 k-point  40 :   0.0833-0.0000 0.2500  plane waves:     524
 k-point  41 :   0.1667-0.0000 0.2500  plane waves:     520
 k-point  42 :   0.2500 0.0000 0.2500  plane waves:     514
 k-point  43 :   0.3333-0.0000 0.2500  plane waves:     508
 k-point  44 :   0.4167-0.0000 0.2500  plane waves:     512
 k-point  45 :   0.5000 0.0000 0.2500  plane waves:     510
 k-point  46 :   0.0833 0.0833 0.2500  plane waves:     526
 k-point  47 :   0.1667 0.0833 0.2500  plane waves:     522
 k-point  48 :   0.2500 0.0833 0.2500  plane waves:     512
 k-point  49 :   0.3333 0.0833 0.2500  plane waves:     508
 k-point  50 :   0.4167 0.0833 0.2500  plane waves:     506
 k-point  51 :   0.1667 0.1667 0.2500  plane waves:     518
 k-point  52 :   0.2500 0.1667 0.2500  plane waves:     508
 k-point  53 :   0.3333 0.1667 0.2500  plane waves:     506
 k-point  54 :   0.4167 0.1667 0.2500  plane waves:     507
 k-point  55 :   0.2500 0.2500 0.2500  plane waves:     510
 k-point  56 :   0.3333 0.2500 0.2500  plane waves:     507
 k-point  57 :   0.3333 0.3333 0.2500  plane waves:     516
 k-point  58 :   0.0000 0.0000 0.3750  plane waves:     518
 k-point  59 :   0.0833-0.0000 0.3750  plane waves:     514
 k-point  60 :   0.1667-0.0000 0.3750  plane waves:     519
 k-point  61 :   0.2500 0.0000 0.3750  plane waves:     514
 k-point  62 :   0.3333-0.0000 0.3750  plane waves:     512
 k-point  63 :   0.4167-0.0000 0.3750  plane waves:     513
 k-point  64 :   0.5000 0.0000 0.3750  plane waves:     508
 k-point  65 :   0.0833 0.0833 0.3750  plane waves:     517
 k-point  66 :   0.1667 0.0833 0.3750  plane waves:     515
 k-point  67 :   0.2500 0.0833 0.3750  plane waves:     516
 k-point  68 :   0.3333 0.0833 0.3750  plane waves:     515
 k-point  69 :   0.4167 0.0833 0.3750  plane waves:     511
 k-point  70 :   0.1667 0.1667 0.3750  plane waves:     517
 k-point  71 :   0.2500 0.1667 0.3750  plane waves:     516
 k-point  72 :   0.3333 0.1667 0.3750  plane waves:     508
 k-point  73 :   0.4167 0.1667 0.3750  plane waves:     501
 k-point  74 :   0.2500 0.2500 0.3750  plane waves:     513
 k-point  75 :   0.3333 0.2500 0.3750  plane waves:     508
 k-point  76 :   0.3333 0.3333 0.3750  plane waves:     510
 k-point  77 :   0.0000 0.0000 0.5000  plane waves:     494
 k-point  78 :   0.0833-0.0000 0.5000  plane waves:     512
 k-point  79 :   0.1667-0.0000 0.5000  plane waves:     514
 k-point  80 :   0.2500 0.0000 0.5000  plane waves:     516
 k-point  81 :   0.3333-0.0000 0.5000  plane waves:     516
 k-point  82 :   0.4167-0.0000 0.5000  plane waves:     518
 k-point  83 :   0.5000 0.0000 0.5000  plane waves:     504
 k-point  84 :   0.0833 0.0833 0.5000  plane waves:     512
 k-point  85 :   0.1667 0.0833 0.5000  plane waves:     518
 k-point  86 :   0.2500 0.0833 0.5000  plane waves:     516
 k-point  87 :   0.3333 0.0833 0.5000  plane waves:     512
 k-point  88 :   0.4167 0.0833 0.5000  plane waves:     510
 k-point  89 :   0.1667 0.1667 0.5000  plane waves:     520
 k-point  90 :   0.2500 0.1667 0.5000  plane waves:     516
 k-point  91 :   0.3333 0.1667 0.5000  plane waves:     510
 k-point  92 :   0.4167 0.1667 0.5000  plane waves:     502
 k-point  93 :   0.2500 0.2500 0.5000  plane waves:     512
 k-point  94 :   0.3333 0.2500 0.5000  plane waves:     514
 k-point  95 :   0.3333 0.3333 0.5000  plane waves:     510

 maximum and minimum number of plane-waves per node :       537      494

 maximum number of plane-waves:       537
 maximum index in each direction: 
   IXMAX=    4   IYMAX=    4   IZMAX=    7
   IXMIN=   -4   IYMIN=   -4   IZMIN=   -7


 serial   3D FFT for wavefunctions
 parallel 3D FFT for charge:
    minimum data exchange during FFTs selected (reduces bandwidth)


 total amount of memory used by VASP MPI-rank0    40745. kBytes
=======================================================================

   base      :      30000. kBytes
   nonl-proj :       7569. kBytes
   fftplans  :        183. kBytes
   grid      :       1107. kBytes
   one-center:         62. kBytes
   wavefun   :       1824. kBytes
 
     INWAV:  cpu time      0.0000: real time      0.0001
 Broyden mixing: mesh for mixing (old mesh)
   NGX =  9   NGY =  9   NGZ = 15
  (NGX  = 36   NGY  = 36   NGZ  = 60)
  gives a total of   1215 points

 initial charge density was supplied:
 charge density of overlapping atoms calculated
 number of electron      18.0000000 magnetization       6.0000000
 keeping initial charge density in first step


--------------------------------------------------------------------------------------------------------


 Maximum index for augmentation-charges          964 (set IRDMAX)


--------------------------------------------------------------------------------------------------------


 First call to EWALD:  gamma=   0.600
 Maximum number of real-space cells 3x 3x 2
 Maximum number of reciprocal cells 3x 3x 4

    FEWALD:  cpu time      0.0015: real time      0.0015


--------------------------------------- Iteration      1(   1)  ---------------------------------------


    POTLOK:  cpu time      0.0071: real time      0.0073
    SETDIJ:  cpu time      0.0053: real time      0.0054
     EDDAV:  cpu time      0.7700: real time      0.7745
       DOS:  cpu time      0.0013: real time      0.0013
    --------------------------------------------
      LOOP:  cpu time      0.7838: real time      0.7886

 eigenvalue-minimisations  :  9120
 total energy-change (2. order) : 0.5500366E+01  (-0.8401279E+03)
 number of electron      18.0000000 magnetization       6.0000000
 augmentation part       18.0000000 magnetization       6.0000000

 Free energy of the ion-electron system (eV)
  ---------------------------------------------------
  alpha Z        PSCENC =        65.78225208
  Ewald energy   TEWEN  =     -1437.14579720
  -Hartree energ DENC   =      -337.03304404
  -exchange      EXHF   =         0.00000000
  -V(xc)+E(xc)   XCENC  =        34.60262851
  PAW double counting   =      1439.98163886    -1545.88690193
  entropy T*S    EENTRO =        -0.00293293
  eigenvalues    EBANDS =       158.47929237
  atomic energy  EATOM  =      1626.72322989
  Solvation  Ediel_sol  =         0.00000000
  ---------------------------------------------------
  free energy    TOTEN  =         5.50036563 eV

  energy without entropy =        5.50329855  energy(sigma->0) =        5.50183209


--------------------------------------------------------------------------------------------------------




--------------------------------------- Iteration      1(   2)  ---------------------------------------


     EDDAV:  cpu time      0.9939: real time      0.9994
       DOS:  cpu time      0.0009: real time      0.0009
    --------------------------------------------
      LOOP:  cpu time      0.9947: real time      1.0003

 eigenvalue-minimisations  : 10776
 total energy-change (2. order) :-0.2086417E+02  (-0.2050355E+02)
 number of electron      18.0000000 magnetization       6.0000000
 augmentation part       18.0000000 magnetization       6.0000000

 Free energy of the ion-electron system (eV)
  ---------------------------------------------------
  alpha Z        PSCENC =        65.78225208
  Ewald energy   TEWEN  =     -1437.14579720
  -Hartree energ DENC   =      -337.03304404
  -exchange      EXHF   =         0.00000000
  -V(xc)+E(xc)   XCENC  =        34.60262851
  PAW double counting   =      1439.98163886    -1545.88690193
  entropy T*S    EENTRO =        -0.00284620
  eigenvalues    EBANDS =       137.61503554
  atomic energy  EATOM  =      1626.72322989
  Solvation  Ediel_sol  =         0.00000000
  ---------------------------------------------------
  free energy    TOTEN  =       -15.36380449 eV

  energy without entropy =      -15.36095829  energy(sigma->0) =      -15.36238139


--------------------------------------------------------------------------------------------------------




--------------------------------------- Iteration      1(   3)  ---------------------------------------


     EDDAV:  cpu time      1.2078: real time      1.2137
       DOS:  cpu time      0.0009: real time      0.0009
    --------------------------------------------
      LOOP:  cpu time      1.2087: real time      1.2146

 eigenvalue-minimisations  : 11856
 total energy-change (2. order) :-0.1428936E+00  (-0.1428273E+00)
 number of electron      18.0000000 magnetization       6.0000000
 augmentation part       18.0000000 magnetization       6.0000000

 Free energy of the ion-electron system (eV)
  ---------------------------------------------------
  alpha Z        PSCENC =        65.78225208
  Ewald energy   TEWEN  =     -1437.14579720
  -Hartree energ DENC   =      -337.03304404
  -exchange      EXHF   =         0.00000000
  -V(xc)+E(xc)   XCENC  =        34.60262851
  PAW double counting   =      1439.98163886    -1545.88690193
  entropy T*S    EENTRO =        -0.00281529
  eigenvalues    EBANDS =       137.47211099
  atomic energy  EATOM  =      1626.72322989
  Solvation  Ediel_sol  =         0.00000000
  ---------------------------------------------------
  free energy    TOTEN  =       -15.50669811 eV

  energy without entropy =      -15.50388283  energy(sigma->0) =      -15.50529047


--------------------------------------------------------------------------------------------------------




--------------------------------------- Iteration      1(   4)  ---------------------------------------


     EDDAV:  cpu time      1.3679: real time      1.3746
       DOS:  cpu time      0.0008: real time      0.0008
    --------------------------------------------
      LOOP:  cpu time      1.3687: real time      1.3754

 eigenvalue-minimisations  : 12864
 total energy-change (2. order) :-0.1032464E-02  (-0.1032447E-02)
 number of electron      18.0000000 magnetization       6.0000000
 augmentation part       18.0000000 magnetization       6.0000000

 Free energy of the ion-electron system (eV)
  ---------------------------------------------------
  alpha Z        PSCENC =        65.78225208
  Ewald energy   TEWEN  =     -1437.14579720
  -Hartree energ DENC   =      -337.03304404
  -exchange      EXHF   =         0.00000000
  -V(xc)+E(xc)   XCENC  =        34.60262851
  PAW double counting   =      1439.98163886    -1545.88690193
  entropy T*S    EENTRO =        -0.00281169
  eigenvalues    EBANDS =       137.47107494
  atomic energy  EATOM  =      1626.72322989
  Solvation  Ediel_sol  =         0.00000000
  ---------------------------------------------------
  free energy    TOTEN  =       -15.50773058 eV

  energy without entropy =      -15.50491888  energy(sigma->0) =      -15.50632473


--------------------------------------------------------------------------------------------------------




--------------------------------------- Iteration      1(   5)  ---------------------------------------


     EDDAV:  cpu time      1.3430: real time      1.3495
       DOS:  cpu time      0.0009: real time      0.0009
    CHARGE:  cpu time      0.0352: real time      0.0353
    MIXING:  cpu time      0.0003: real time      0.0003
    --------------------------------------------
      LOOP:  cpu time      1.3793: real time      1.3859

 eigenvalue-minimisations  : 12480
 total energy-change (2. order) :-0.5690525E-05  (-0.5689570E-05)
 number of electron      18.0000000 magnetization       3.9721244
 augmentation part        9.1080067 magnetization       3.0807458

 Broyden mixing:
  rms(total) = 0.13760E+01    rms(broyden)= 0.13760E+01
  rms(prec ) = 0.25751E+01
  weight for this iteration     100.00

 Free energy of the ion-electron system (eV)
  ---------------------------------------------------
  alpha Z        PSCENC =        65.78225208
  Ewald energy   TEWEN  =     -1437.14579720
  -Hartree energ DENC   =      -337.03304404
  -exchange      EXHF   =         0.00000000
  -V(xc)+E(xc)   XCENC  =        34.60262851
  PAW double counting   =      1439.98163886    -1545.88690193
  entropy T*S    EENTRO =        -0.00281166
  eigenvalues    EBANDS =       137.47106921
  atomic energy  EATOM  =      1626.72322989
  Solvation  Ediel_sol  =         0.00000000
  ---------------------------------------------------
  free energy    TOTEN  =       -15.50773627 eV

  energy without entropy =      -15.50492461  energy(sigma->0) =      -15.50633044


--------------------------------------------------------------------------------------------------------




--------------------------------------- Iteration      1(   6)  ---------------------------------------


    POTLOK:  cpu time      0.0062: real time      0.0064
    SETDIJ:  cpu time      0.0052: real time      0.0052
     EDDAV:  cpu time      1.2462: real time      1.2524
       DOS:  cpu time      0.0008: real time      0.0009
    CHARGE:  cpu time      0.0344: real time      0.0345
    MIXING:  cpu time      0.0003: real time      0.0003
    --------------------------------------------
      LOOP:  cpu time      1.2931: real time      1.2997

 eigenvalue-minimisations  : 12120
 total energy-change (2. order) : 0.1066729E+01  (-0.3976883E+01)
 number of electron      17.9999999 magnetization       3.5557835
 augmentation part       10.9536164 magnetization       3.1414256

 Broyden mixing:
  rms(total) = 0.87723E+00    rms(broyden)= 0.87720E+00
  rms(prec ) = 0.12781E+01
  weight for this iteration     100.00

 eigenvalues of (default mixing * dielectric matrix)
  average eigenvalue GAMMA=   0.6572
  0.6572

 Free energy of the ion-electron system (eV)
  ---------------------------------------------------
  alpha Z        PSCENC =        65.78225208
  Ewald energy   TEWEN  =     -1437.14579720
  -Hartree energ DENC   =      -295.50315129
  -exchange      EXHF   =         0.00000000
  -V(xc)+E(xc)   XCENC  =        31.73746554
  PAW double counting   =      1503.09598978    -1597.23899696
  entropy T*S    EENTRO =        -0.00247328
  eigenvalues    EBANDS =        88.11047420
  atomic energy  EATOM  =      1626.72322989
  Solvation  Ediel_sol  =         0.00000000
  ---------------------------------------------------
  free energy    TOTEN  =       -14.44100724 eV

  energy without entropy =      -14.43853396  energy(sigma->0) =      -14.43977060


--------------------------------------------------------------------------------------------------------




--------------------------------------- Iteration      1(   7)  ---------------------------------------


    POTLOK:  cpu time      0.0059: real time      0.0061
    SETDIJ:  cpu time      0.0050: real time      0.0050
     EDDAV:  cpu time      1.2891: real time      1.2951
       DOS:  cpu time      0.0008: real time      0.0008
    CHARGE:  cpu time      0.0337: real time      0.0338
    MIXING:  cpu time      0.0003: real time      0.0003
    --------------------------------------------
      LOOP:  cpu time      1.3349: real time      1.3412

 eigenvalue-minimisations  : 12336
 total energy-change (2. order) : 0.7125792E+00  (-0.6200278E+00)
 number of electron      18.0000000 magnetization       3.4594737
 augmentation part       10.2442136 magnetization       3.0573157

 Broyden mixing:
  rms(total) = 0.34477E+00    rms(broyden)= 0.34476E+00
  rms(prec ) = 0.39911E+00
  weight for this iteration     100.00

 eigenvalues of (default mixing * dielectric matrix)
  average eigenvalue GAMMA=   0.7093
  0.9247  0.4939

 Free energy of the ion-electron system (eV)
  ---------------------------------------------------
  alpha Z        PSCENC =        65.78225208
  Ewald energy   TEWEN  =     -1437.14579720
  -Hartree energ DENC   =      -307.56473219
  -exchange      EXHF   =         0.00000000
  -V(xc)+E(xc)   XCENC  =        32.22630394
  PAW double counting   =      1556.11307886    -1657.80403849
  entropy T*S    EENTRO =        -0.00339304
  eigenvalues    EBANDS =       107.94466811
  atomic energy  EATOM  =      1626.72322989
  Solvation  Ediel_sol  =         0.00000000
  ---------------------------------------------------
  free energy    TOTEN  =       -13.72842804 eV

  energy without entropy =      -13.72503500  energy(sigma->0) =      -13.72673152


--------------------------------------------------------------------------------------------------------




--------------------------------------- Iteration      1(   8)  ---------------------------------------


    POTLOK:  cpu time      0.0056: real time      0.0058
    SETDIJ:  cpu time      0.0048: real time      0.0048
     EDDAV:  cpu time      1.1907: real time      1.1964
       DOS:  cpu time      0.0009: real time      0.0009
    CHARGE:  cpu time      0.0345: real time      0.0346
    MIXING:  cpu time      0.0003: real time      0.0003
    --------------------------------------------
      LOOP:  cpu time      1.2369: real time      1.2429

 eigenvalue-minimisations  : 11592
 total energy-change (2. order) : 0.7664438E-02  (-0.3192554E-02)
 number of electron      18.0000000 magnetization       3.4343879
 augmentation part       10.2659894 magnetization       3.0727019

 Broyden mixing:
  rms(total) = 0.13209E+00    rms(broyden)= 0.13209E+00
  rms(prec ) = 0.18698E+00
  weight for this iteration     100.00

 eigenvalues of (default mixing * dielectric matrix)
  average eigenvalue GAMMA=   0.9030
  1.4427  0.6720  0.5942

 Free energy of the ion-electron system (eV)
  ---------------------------------------------------
  alpha Z        PSCENC =        65.78225208
  Ewald energy   TEWEN  =     -1437.14579720
  -Hartree energ DENC   =      -305.51073484
  -exchange      EXHF   =         0.00000000
  -V(xc)+E(xc)   XCENC  =        32.18999664
  PAW double counting   =      1588.09196987    -1690.96773701
  entropy T*S    EENTRO =        -0.00337374
  eigenvalues    EBANDS =       107.11943071
  atomic energy  EATOM  =      1626.72322989
  Solvation  Ediel_sol  =         0.00000000
  ---------------------------------------------------
  free energy    TOTEN  =       -13.72076360 eV

  energy without entropy =      -13.71738986  energy(sigma->0) =      -13.71907673


--------------------------------------------------------------------------------------------------------




--------------------------------------- Iteration      1(   9)  ---------------------------------------


    POTLOK:  cpu time      0.0059: real time      0.0063
    SETDIJ:  cpu time      0.0049: real time      0.0049
     EDDAV:  cpu time      1.7105: real time      1.7182
       DOS:  cpu time      0.0008: real time      0.0008
    CHARGE:  cpu time      0.0338: real time      0.0339
    MIXING:  cpu time      0.0003: real time      0.0003
    --------------------------------------------
      LOOP:  cpu time      1.7563: real time      1.7646

 eigenvalue-minimisations  : 14808
 total energy-change (2. order) : 0.1059873E-01  (-0.1914601E-02)
 number of electron      18.0000000 magnetization       3.4738359
 augmentation part       10.2970670 magnetization       3.1329113

 Broyden mixing:
  rms(total) = 0.47216E-01    rms(broyden)= 0.47216E-01
  rms(prec ) = 0.67257E-01
  weight for this iteration     100.00

 eigenvalues of (default mixing * dielectric matrix)
  average eigenvalue GAMMA=   1.0838
  2.1240  0.9415  0.6349  0.6349

 Free energy of the ion-electron system (eV)
  ---------------------------------------------------
  alpha Z        PSCENC =        65.78225208
  Ewald energy   TEWEN  =     -1437.14579720
  -Hartree energ DENC   =      -303.24708704
  -exchange      EXHF   =         0.00000000
  -V(xc)+E(xc)   XCENC  =        32.13138745
  PAW double counting   =      1622.64249398    -1726.68824839
  entropy T*S    EENTRO =        -0.00338869
  eigenvalues    EBANDS =       106.09499306
  atomic energy  EATOM  =      1626.72322989
  Solvation  Ediel_sol  =         0.00000000
  ---------------------------------------------------
  free energy    TOTEN  =       -13.71016487 eV

  energy without entropy =      -13.70677618  energy(sigma->0) =      -13.70847052


--------------------------------------------------------------------------------------------------------




--------------------------------------- Iteration      1(  10)  ---------------------------------------


    POTLOK:  cpu time      0.0056: real time      0.0058
    SETDIJ:  cpu time      0.0048: real time      0.0048
     EDDAV:  cpu time      1.9180: real time      1.9270
       DOS:  cpu time      0.0008: real time      0.0008
    CHARGE:  cpu time      0.0343: real time      0.0344
    MIXING:  cpu time      0.0004: real time      0.0004
    --------------------------------------------
      LOOP:  cpu time      1.9638: real time      1.9732

 eigenvalue-minimisations  : 15744
 total energy-change (2. order) : 0.1490964E-02  (-0.2764049E-03)
 number of electron      18.0000000 magnetization       3.4714537
 augmentation part       10.3097342 magnetization       3.1213922

 Broyden mixing:
  rms(total) = 0.78972E-02    rms(broyden)= 0.78971E-02
  rms(prec ) = 0.93919E-02
  weight for this iteration     100.00

 eigenvalues of (default mixing * dielectric matrix)
  average eigenvalue GAMMA=   1.1349
  2.0992  1.1540  1.1540  0.6336  0.6336

 Free energy of the ion-electron system (eV)
  ---------------------------------------------------
  alpha Z        PSCENC =        65.78225208
  Ewald energy   TEWEN  =     -1437.14579720
  -Hartree energ DENC   =      -301.96500587
  -exchange      EXHF   =         0.00000000
  -V(xc)+E(xc)   XCENC  =        32.07967086
  PAW double counting   =      1646.72271422    -1751.59256305
  entropy T*S    EENTRO =        -0.00342263
  eigenvalues    EBANDS =       105.69024780
  atomic energy  EATOM  =      1626.72322989
  Solvation  Ediel_sol  =         0.00000000
  ---------------------------------------------------
  free energy    TOTEN  =       -13.70867391 eV

  energy without entropy =      -13.70525127  energy(sigma->0) =      -13.70696259


--------------------------------------------------------------------------------------------------------




--------------------------------------- Iteration      1(  11)  ---------------------------------------


    POTLOK:  cpu time      0.0057: real time      0.0058
    SETDIJ:  cpu time      0.0051: real time      0.0051
     EDDAV:  cpu time      1.7261: real time      1.7341
       DOS:  cpu time      0.0009: real time      0.0009
    CHARGE:  cpu time      0.0343: real time      0.0344
    MIXING:  cpu time      0.0004: real time      0.0004
    --------------------------------------------
      LOOP:  cpu time      1.7724: real time      1.7807

 eigenvalue-minimisations  : 14688
 total energy-change (2. order) :-0.7573349E-04  (-0.4609302E-04)
 number of electron      18.0000000 magnetization       3.4736801
 augmentation part       10.3096043 magnetization       3.1183967

 Broyden mixing:
  rms(total) = 0.34355E-02    rms(broyden)= 0.34354E-02
  rms(prec ) = 0.58751E-02
  weight for this iteration     100.00

 eigenvalues of (default mixing * dielectric matrix)
  average eigenvalue GAMMA=   1.0875
  2.2275  1.1202  1.1202  0.6146  0.6732  0.7691

 Free energy of the ion-electron system (eV)
  ---------------------------------------------------
  alpha Z        PSCENC =        65.78225208
  Ewald energy   TEWEN  =     -1437.14579720
  -Hartree energ DENC   =      -301.97001245
  -exchange      EXHF   =         0.00000000
  -V(xc)+E(xc)   XCENC  =        32.06408189
  PAW double counting   =      1648.17070678    -1753.05681337
  entropy T*S    EENTRO =        -0.00340551
  eigenvalues    EBANDS =       105.72700824
  atomic energy  EATOM  =      1626.72322989
  Solvation  Ediel_sol  =         0.00000000
  ---------------------------------------------------
  free energy    TOTEN  =       -13.70874964 eV

  energy without entropy =      -13.70534413  energy(sigma->0) =      -13.70704689


--------------------------------------------------------------------------------------------------------




--------------------------------------- Iteration      1(  12)  ---------------------------------------


    POTLOK:  cpu time      0.0057: real time      0.0059
    SETDIJ:  cpu time      0.0049: real time      0.0050
     EDDAV:  cpu time      1.3020: real time      1.3081
       DOS:  cpu time      0.0008: real time      0.0008
    CHARGE:  cpu time      0.0337: real time      0.0338
    MIXING:  cpu time      0.0003: real time      0.0003
    --------------------------------------------
      LOOP:  cpu time      1.3475: real time      1.3539

 eigenvalue-minimisations  : 12336
 total energy-change (2. order) : 0.1196351E-04  (-0.2331422E-05)
 number of electron      18.0000000 magnetization       3.4730428
 augmentation part       10.3106368 magnetization       3.1174965

 Broyden mixing:
  rms(total) = 0.21286E-02    rms(broyden)= 0.21286E-02
  rms(prec ) = 0.25098E-02
  weight for this iteration     100.00

 eigenvalues of (default mixing * dielectric matrix)
  average eigenvalue GAMMA=   1.2193
  2.3672  1.9906  1.1000  1.1000  0.6327  0.6327  0.7117

 Free energy of the ion-electron system (eV)
  ---------------------------------------------------
  alpha Z        PSCENC =        65.78225208
  Ewald energy   TEWEN  =     -1437.14579720
  -Hartree energ DENC   =      -301.87218779
  -exchange      EXHF   =         0.00000000
  -V(xc)+E(xc)   XCENC  =        32.06205131
  PAW double counting   =      1650.60193479    -1755.54938056
  entropy T*S    EENTRO =        -0.00340728
  eigenvalues    EBANDS =       105.69256708
  atomic energy  EATOM  =      1626.72322989
  Solvation  Ediel_sol  =         0.00000000
  ---------------------------------------------------
  free energy    TOTEN  =       -13.70873768 eV

  energy without entropy =      -13.70533040  energy(sigma->0) =      -13.70703404


--------------------------------------------------------------------------------------------------------




--------------------------------------- Iteration      1(  13)  ---------------------------------------


    POTLOK:  cpu time      0.0055: real time      0.0057
    SETDIJ:  cpu time      0.0048: real time      0.0048
     EDDAV:  cpu time      0.9956: real time      1.0006
       DOS:  cpu time      0.0008: real time      0.0008
    --------------------------------------------
      LOOP:  cpu time      1.0067: real time      1.0119

 eigenvalue-minimisations  : 10560
 total energy-change (2. order) :-0.7946915E-06  (-0.3810842E-06)
 number of electron      18.0000000 magnetization       3.4730428
 augmentation part       10.3106368 magnetization       3.1174965

 Free energy of the ion-electron system (eV)
  ---------------------------------------------------
  alpha Z        PSCENC =        65.78225208
  Ewald energy   TEWEN  =     -1437.14579720
  -Hartree energ DENC   =      -301.84075657
  -exchange      EXHF   =         0.00000000
  -V(xc)+E(xc)   XCENC  =        32.05987247
  PAW double counting   =      1652.00934734    -1756.97602291
  entropy T*S    EENTRO =        -0.00340683
  eigenvalues    EBANDS =       105.68254326
  atomic energy  EATOM  =      1626.72322989
  Solvation  Ediel_sol  =         0.00000000
  ---------------------------------------------------
  free energy    TOTEN  =       -13.70873847 eV

  energy without entropy =      -13.70533164  energy(sigma->0) =      -13.70703505


--------------------------------------------------------------------------------------------------------




 average (electrostatic) potential at core
  the test charge radii are     1.0452
  (the norm of the test charge is              1.0000)
       1 -80.4503       2 -80.4503
 
 
 
 E-fermi :   8.0311     XC(G=0): -12.4288     alpha+bet :-14.9357

 Fermi energy:         8.0310515466

 spin component 1

 k-point     1 :       0.0000    0.0000    0.0000
  band No.  band energies     occupation 
      1       0.0945      1.00000
      2       3.6028      1.00000
      3       5.5954      1.00000
      4       5.6036      1.00000
      5       5.6036      1.00000
      6       5.8368      1.00000
      7       5.8368      1.00000
      8       6.0856      1.00000
      9       6.0856      1.00000
     10       6.9332      1.00000
     11       6.9332      1.00000
     12       8.1059      0.01710
     13      13.0120      0.00000
     14      28.5168      0.00000
     15      29.5225      0.00000
     16      29.5225      0.00000
     17      31.0461      0.00000
     18      31.0461      0.00000
     19      31.1178      0.00000
     20      31.6725      0.00000
     21      36.0071      0.00000
     22      36.0071      0.00000
     23      36.0799      0.00000
     24      37.2150      0.00000

 k-point     2 :       0.0833   -0.0000    0.0000
  band No.  band energies     occupation 
      1       0.3078      1.00000
      2       3.7223      1.00000
      3       5.4299      1.00000
      4       5.6901      1.00000
      5       5.7429      1.00000
      6       5.8047      1.00000
      7       5.9130      1.00000
      8       5.9851      1.00000
      9       6.0332      1.00000
     10       6.4441      1.00000
     11       6.9551      1.00000
     12       8.8572      0.00000
     13      13.0656      0.00000
     14      26.0509      0.00000
     15      27.7412      0.00000
     16      28.3653      0.00000
     17      31.6955      0.00000
     18      31.7506      0.00000
     19      33.0546      0.00000
     20      33.0807      0.00000
     21      33.7806      0.00000
     22      35.3424      0.00000
     23      35.5394      0.00000
     24      35.6475      0.00000

 k-point     3 :       0.1667   -0.0000    0.0000
  band No.  band energies     occupation 
      1       0.9287      1.00000
      2       4.0179      1.00000
      3       5.2297      1.00000
      4       5.4994      1.00000
      5       5.6782      1.00000
      6       5.9031      1.00000
      7       5.9336      1.00000
      8       5.9754      1.00000
      9       6.1005      1.00000
     10       6.1263      1.00000
     11       7.0022      1.00000
     12      10.1777      0.00000
     13      13.2485      0.00000
     14      22.3511      0.00000
     15      25.6433      0.00000
     16      27.5141      0.00000
     17      29.3228      0.00000
     18      31.3478      0.00000
     19      31.7972      0.00000
     20      33.5712      0.00000
     21      34.3965      0.00000
     22      34.4075      0.00000
     23      34.8676      0.00000
     24      35.9571      0.00000

 k-point     4 :       0.2500    0.0000    0.0000
  band No.  band energies     occupation 
      1       1.8809      1.00000
      2       4.2580      1.00000
      3       4.9418      1.00000
      4       5.1177      1.00000
      5       5.6127      1.00000
      6       5.7457      1.00000
      7       5.9405      1.00000
      8       6.2843      1.00000
      9       6.3027      1.00000
     10       6.4315      1.00000
     11       7.0475      1.00000
     12      11.7303      0.00000
     13      13.6060      0.00000
     14      18.8788      0.00000
     15      23.8358      0.00000
     16      26.1340      0.00000
     17      26.2934      0.00000
     18      28.7718      0.00000
     19      30.7209      0.00000
     20      32.8742      0.00000
     21      33.6706      0.00000
     22      34.3862      0.00000
     23      35.1247      0.00000
     24      37.9134      0.00000

 k-point     5 :       0.3333   -0.0000    0.0000
  band No.  band energies     occupation 
      1       2.9475      1.00000
      2       4.2139      1.00000
      3       4.5312      1.00000
      4       5.2252      1.00000
      5       5.6030      1.00000
      6       5.7117      1.00000
      7       5.8072      1.00000
      8       6.6539      1.00000
      9       6.7611      1.00000
     10       6.8401      1.00000
     11       7.0788      1.00000
     12      13.4607      0.00000
     13      13.8907      0.00000
     14      16.1139      0.00000
     15      22.4191      0.00000
     16      23.2390      0.00000
     17      23.8815      0.00000
     18      27.6049      0.00000
     19      29.6532      0.00000
     20      31.3291      0.00000
     21      33.1634      0.00000
     22      34.9124      0.00000
     23      36.7852      0.00000
     24      39.1117      0.00000

 k-point     6 :       0.4167   -0.0000    0.0000
  band No.  band energies     occupation 
      1       3.6724      1.00000
      2       4.0683      1.00000
      3       4.2863      1.00000
      4       5.5054      1.00000
      5       5.5421      1.00000
      6       5.7139      1.00000
      7       5.8695      1.00000
      8       6.9273      1.00000
      9       7.0322      1.00000
     10       7.0959      1.00000
     11       7.7904      1.00000
     12      12.1968      0.00000
     13      15.2817      0.00000
     14      16.1175      0.00000
     15      20.7280      0.00000
     16      21.2891      0.00000
     17      21.4996      0.00000
     18      27.2396      0.00000
     19      28.9612      0.00000
     20      30.3433      0.00000
     21      32.8700      0.00000
     22      35.2218      0.00000
     23      38.9462      0.00000
     24      39.8409      0.00000

 k-point     7 :       0.5000    0.0000    0.0000
  band No.  band energies     occupation 
      1       3.9019      1.00000
      2       3.9661      1.00000
      3       4.2051      1.00000
      4       5.4707      1.00000
      5       5.6803      1.00000
      6       5.7542      1.00000
      7       5.9263      1.00000
      8       7.0257      1.00000
      9       7.1012      1.00000
     10       7.1408      1.00000
     11       8.9000      0.00000
     12      10.5163      0.00000
     13      16.4860      0.00000
     14      16.9225      0.00000
     15      19.2955      0.00000
     16      19.8640      0.00000
     17      21.1783      0.00000
     18      27.1433      0.00000
     19      28.7246      0.00000
     20      30.0034      0.00000
     21      32.7740      0.00000
     22      35.3356      0.00000
     23      40.0630      0.00000
     24      41.4780      0.00000

 k-point     8 :       0.0833    0.0833    0.0000
  band No.  band energies     occupation 
      1       0.7256      1.00000
      2       3.9344      1.00000
      3       5.2711      1.00000
      4       5.6856      1.00000
      5       5.7273      1.00000
      6       5.8628      1.00000
      7       5.8665      1.00000
      8       5.8856      1.00000
      9       6.0820      1.00000
     10       6.1916      1.00000
     11       6.9829      1.00000
     12       9.7989      0.00000
     13      13.1852      0.00000
     14      24.1253      0.00000
     15      24.4410      0.00000
     16      29.6998      0.00000
     17      30.9023      0.00000
     18      30.9406      0.00000
     19      31.0522      0.00000
     20      33.4209      0.00000
     21      33.5153      0.00000
     22      33.9311      0.00000
     23      36.8549      0.00000
     24      37.2043      0.00000

 k-point     9 :       0.1667    0.0833    0.0000
  band No.  band energies     occupation 
      1       1.5185      1.00000
      2       4.2369      1.00000
      3       5.0731      1.00000
      4       5.1502      1.00000
      5       5.6408      1.00000
      6       5.7214      1.00000
      7       6.0556      1.00000
      8       6.0582      1.00000
      9       6.1872      1.00000
     10       6.3985      1.00000
     11       7.0172      1.00000
     12      11.1636      0.00000
     13      13.4698      0.00000
     14      20.6672      0.00000
     15      22.6824      0.00000
     16      27.7902      0.00000
     17      28.4558      0.00000
     18      29.6779      0.00000
     19      30.5543      0.00000
     20      31.3338      0.00000
     21      33.9452      0.00000
     22      34.7144      0.00000
     23      36.6996      0.00000
     24      37.1065      0.00000

 k-point    10 :       0.2500    0.0833    0.0000
  band No.  band energies     occupation 
      1       2.5583      1.00000
      2       4.3418      1.00000
      3       4.6999      1.00000
      4       5.0348      1.00000
      5       5.5816      1.00000
      6       5.6546      1.00000
      7       5.9104      1.00000
      8       6.3597      1.00000
      9       6.5642      1.00000
     10       6.8352      1.00000
     11       7.0464      1.00000
     12      12.7749      0.00000
     13      13.9348      0.00000
     14      17.4175      0.00000
     15      21.3221      0.00000
     16      24.7616      0.00000
     17      25.6526      0.00000
     18      28.5338      0.00000
     19      29.6426      0.00000
     20      30.0598      0.00000
     21      34.6509      0.00000
     22      36.4462      0.00000
     23      36.6490      0.00000
     24      37.7147      0.00000

 k-point    11 :       0.3333    0.0833    0.0000
  band No.  band energies     occupation 
      1       3.4996      1.00000
      2       4.2108      1.00000
      3       4.3952      1.00000
      4       5.2371      1.00000
      5       5.4892      1.00000
      6       5.7676      1.00000
      7       5.8049      1.00000
      8       6.7371      1.00000
      9       6.8833      1.00000
     10       7.0647      1.00000
     11       7.4994      1.00000
     12      13.4661      0.00000
     13      14.5583      0.00000
     14      15.8351      0.00000
     15      20.2967      0.00000
     16      22.0417      0.00000
     17      22.7674      0.00000
     18      27.7326      0.00000
     19      29.0907      0.00000
     20      29.1026      0.00000
     21      34.5796      0.00000
     22      36.7968      0.00000
     23      38.1442      0.00000
     24      39.4854      0.00000

 k-point    12 :       0.4167    0.0833    0.0000
  band No.  band energies     occupation 
      1       3.9299      1.00000
      2       4.0804      1.00000
      3       4.2433      1.00000
      4       5.4505      1.00000
      5       5.5500      1.00000
      6       5.6744      1.00000
      7       5.9240      1.00000
      8       7.0001      1.00000
      9       7.0540      1.00000
     10       7.0728      1.00000
     11       8.6872      0.00000
     12      11.2546      0.00000
     13      16.2918      0.00000
     14      16.7864      0.00000
     15      19.6239      0.00000
     16      19.8451      0.00000
     17      20.5893      0.00000
     18      27.3215      0.00000
     19      28.5641      0.00000
     20      28.8490      0.00000
     21      34.4104      0.00000
     22      36.9440      0.00000
     23      40.0790      0.00000
     24      40.3924      0.00000

 k-point    13 :       0.1667    0.1667    0.0000
  band No.  band energies     occupation 
      1       2.4196      1.00000
      2       4.4793      1.00000
      3       4.7890      1.00000
[...]
     22      34.4795      0.00000
     23      37.0858      0.00000
     24      37.0858      0.00000

 k-point    90 :       0.2500    0.1667    0.5000
  band No.  band energies     occupation 
      1       4.7685      1.00000
      2       4.7685      1.00000
      3       6.4386      1.00000
      4       6.4386      1.00000
      5       6.9785      1.00000
      6       6.9785      1.00000
      7       7.9404      0.99481
      8       7.9404      0.99481
      9       9.0562      0.00000
     10       9.0562      0.00000
     11       9.7533      0.00000
     12       9.7533      0.00000
     13      18.6364      0.00000
     14      18.6364      0.00000
     15      20.7453      0.00000
     16      20.7453      0.00000
     17      24.7854      0.00000
     18      24.7854      0.00000
     19      32.7914      0.00000
     20      32.7914      0.00000
     21      34.7335      0.00000
     22      34.7335      0.00000
     23      36.1095      0.00000
     24      36.1095      0.00000

 k-point    91 :       0.3333    0.1667    0.5000
  band No.  band energies     occupation 
      1       5.1662      1.00000
      2       5.1662      1.00000
      3       6.4148      1.00000
      4       6.4148      1.00000
      5       7.0909      1.00000
      6       7.0909      1.00000
      7       8.0500      0.29618
      8       8.0500      0.29618
      9       9.0523      0.00000
     10       9.0523      0.00000
     11      10.7048      0.00000
     12      10.7048      0.00000
     13      16.1607      0.00000
     14      16.1607      0.00000
     15      20.1267      0.00000
     16      20.1267      0.00000
     17      26.0069      0.00000
     18      26.0069      0.00000
     19      31.3300      0.00000
     20      31.3300      0.00000
     21      33.3634      0.00000
     22      33.3634      0.00000
     23      36.9211      0.00000
     24      36.9211      0.00000

 k-point    92 :       0.4167    0.1667    0.5000
  band No.  band energies     occupation 
      1       5.2675      1.00000
      2       5.2675      1.00000
      3       6.4141      1.00000
      4       6.4141      1.00000
      5       7.1339      1.00000
      6       7.1339      1.00000
      7       8.1806      0.00001
      8       8.1806      0.00001
      9       9.0025      0.00000
     10       9.0025      0.00000
     11      11.3934      0.00000
     12      11.3934      0.00000
     13      14.9401      0.00000
     14      14.9401      0.00000
     15      19.9118      0.00000
     16      19.9118      0.00000
     17      26.7487      0.00000
     18      26.7487      0.00000
     19      30.4279      0.00000
     20      30.4279      0.00000
     21      32.9528      0.00000
     22      32.9528      0.00000
     23      37.0887      0.00000
     24      37.0887      0.00000

 k-point    93 :       0.2500    0.2500    0.5000
  band No.  band energies     occupation 
      1       5.3094      1.00000
      2       5.3094      1.00000
      3       6.4480      1.00000
      4       6.4480      1.00000
      5       6.8389      1.00000
      6       6.8389      1.00000
      7       7.9233      0.99884
      8       7.9233      0.99884
      9       9.0700      0.00000
     10       9.0700      0.00000
     11      10.8637      0.00000
     12      10.8637      0.00000
     13      17.5533      0.00000
     14      17.5533      0.00000
     15      18.2460      0.00000
     16      18.2460      0.00000
     17      26.0324      0.00000
     18      26.0324      0.00000
     19      32.3692      0.00000
     20      32.3692      0.00000
     21      33.6414      0.00000
     22      33.6414      0.00000
     23      37.2907      0.00000
     24      37.2907      0.00000

 k-point    94 :       0.3333    0.2500    0.5000
  band No.  band energies     occupation 
      1       5.6236      1.00000
      2       5.6236      1.00000
      3       6.4379      1.00000
      4       6.4379      1.00000
      5       6.7440      1.00000
      6       6.7440      1.00000
      7       8.0067      0.75440
      8       8.0067      0.75440
      9       8.9924      0.00000
     10       8.9924      0.00000
     11      12.2176      0.00000
     12      12.2176      0.00000
     13      15.5532      0.00000
     14      15.5532      0.00000
     15      17.6305      0.00000
     16      17.6305      0.00000
     17      27.3943      0.00000
     18      27.3943      0.00000
     19      30.6478      0.00000
     20      30.6478      0.00000
     21      33.1506      0.00000
     22      33.1506      0.00000
     23      38.5232      0.00000
     24      38.5232      0.00000

 k-point    95 :       0.3333    0.3333    0.5000
  band No.  band energies     occupation 
      1       6.0659      1.00000
      2       6.0659      1.00000
      3       6.0958      1.00000
      4       6.0958      1.00000
      5       6.7053      1.00000
      6       6.7053      1.00000
      7       7.9870      0.89378
      8       7.9870      0.89378
      9       8.9504      0.00000
     10       8.9504      0.00000
     11      13.4256      0.00000
     12      13.4256      0.00000
     13      14.9565      0.00000
     14      14.9565      0.00000
     15      16.4934      0.00000
     16      16.4934      0.00000
     17      28.6853      0.00000
     18      28.6853      0.00000
     19      29.4788      0.00000
     20      29.4788      0.00000
     21      32.7884      0.00000
     22      32.7884      0.00000
     23      41.6797      0.00000
     24      41.6797      0.00000


--------------------------------------------------------------------------------------------------------


 soft charge-density along one line, spin component           1
         0         1         2         3         4         5         6         7         8         9
 total charge-density along one line
 
 soft charge-density along one line, spin component           2
         0         1         2         3         4         5         6         7         8         9
 total charge-density along one line
 
 pseudopotential strength for first ion, spin component:           1
 -2.142  -0.000  -0.000   0.000   0.000  -2.721  -0.000  -0.000
 -0.000  -2.151   0.000  -0.000  -0.000  -0.000  -2.729   0.000
 -0.000   0.000  -2.140  -0.000   0.000  -0.000   0.000  -2.718
  0.000  -0.000  -0.000  -2.151  -0.000   0.000  -0.000  -0.000
  0.000  -0.000   0.000  -0.000  -2.142   0.000  -0.000   0.000
 -2.721  -0.000  -0.000   0.000   0.000  -3.242  -0.000  -0.000
 -0.000  -2.729   0.000  -0.000  -0.000  -0.000  -3.250   0.000
 -0.000   0.000  -2.718  -0.000   0.000  -0.000   0.000  -3.240
  0.000  -0.000  -0.000  -2.729  -0.000   0.000  -0.000  -0.000
  0.000  -0.000   0.000  -0.000  -2.721   0.000  -0.000   0.000
 -0.000  -0.000   0.000   0.000   0.000  -0.000  -0.000   0.000
 -0.000  -0.000   0.001   0.000   0.000  -0.000  -0.000   0.001
 -0.000  -0.000  -0.000  -0.000   0.001  -0.000  -0.000  -0.000
 -0.000   0.000  -0.000  -0.000   0.000  -0.000   0.000  -0.000
  0.001  -0.000   0.000  -0.000  -0.000   0.001  -0.000   0.000
 -0.000  -0.000  -0.000  -0.000   0.001  -0.000  -0.000  -0.000
 -0.000   0.000  -0.000  -0.000   0.000  -0.000   0.000  -0.000
  0.001  -0.000   0.000  -0.000  -0.000   0.001  -0.000   0.000
 pseudopotential strength for first ion, spin component:           2
 -0.711  -0.000  -0.000   0.000   0.000  -1.350  -0.000  -0.000
 -0.000  -0.704   0.000  -0.000  -0.000  -0.000  -1.343   0.000
 -0.000   0.000  -0.724  -0.000   0.000  -0.000   0.000  -1.363
  0.000  -0.000  -0.000  -0.704  -0.000   0.000  -0.000  -0.000
  0.000  -0.000   0.000  -0.000  -0.711   0.000  -0.000   0.000
 -1.350  -0.000  -0.000   0.000   0.000  -1.929  -0.000  -0.000
 -0.000  -1.343   0.000  -0.000  -0.000  -0.000  -1.922   0.000
 -0.000   0.000  -1.363  -0.000   0.000  -0.000   0.000  -1.942
  0.000  -0.000  -0.000  -1.343  -0.000   0.000  -0.000  -0.000
  0.000  -0.000   0.000  -0.000  -1.350   0.000  -0.000   0.000
 -0.000  -0.000   0.000   0.000   0.000  -0.000  -0.000   0.000
 -0.000  -0.000   0.000   0.000   0.000  -0.000  -0.000   0.000
 -0.000  -0.000   0.000  -0.000   0.000  -0.000  -0.000   0.000
 -0.000  -0.000  -0.000  -0.000   0.000  -0.000  -0.000  -0.000
  0.000  -0.000   0.000  -0.000  -0.000   0.000  -0.000   0.000
 -0.000  -0.000   0.000  -0.000  -0.000  -0.000  -0.000   0.000
 -0.000  -0.000  -0.000  -0.000   0.000  -0.000  -0.000  -0.000
 -0.000  -0.000   0.000  -0.000  -0.000  -0.000  -0.000   0.000
 total augmentation occupancy for first ion, spin component:           1
  2.750  -0.000  -0.000   0.000   0.000  -1.196  -0.000   0.000  -0.000  -0.000   0.000   0.000  -0.000   0.000  -0.031   0.000
  0.000   2.840   0.000   0.000   0.000  -0.000  -1.241  -0.000  -0.000   0.000  -0.000   0.000   0.000   0.000   0.000   0.000
 -0.000   0.000   2.624   0.000   0.000   0.000   0.000  -1.142   0.000  -0.000  -0.017   0.001  -0.000   0.000   0.000  -0.000
  0.000   0.000  -0.000   2.840  -0.000   0.000   0.000  -0.000  -1.241  -0.000   0.000   0.000  -0.000  -0.000   0.000  -0.000
  0.000   0.000   0.000   0.000   2.750   0.000  -0.000  -0.000   0.000  -1.196  -0.000   0.000  -0.031   0.000  -0.000   0.002
 -1.196  -0.000  -0.000   0.000  -0.000   1.182  -0.000   0.000  -0.000  -0.000  -0.000   0.000  -0.000  -0.000   0.045   0.000
  0.000  -1.241   0.000   0.000   0.000   0.000   1.181  -0.000  -0.000   0.000   0.000  -0.000   0.000  -0.000  -0.000  -0.000
 -0.000   0.000  -1.142   0.000  -0.000   0.000  -0.000   1.201  -0.000   0.000   0.020  -0.001   0.000  -0.000  -0.000   0.000
  0.000   0.000   0.000  -1.241   0.000   0.000  -0.000   0.000   1.181   0.000   0.000   0.000   0.000   0.000   0.000  -0.000
  0.000   0.000  -0.000   0.000  -1.196   0.000  -0.000   0.000  -0.000   1.182   0.000  -0.000   0.045   0.000   0.000  -0.004
  0.000   0.000  -0.017   0.000  -0.000  -0.000   0.000   0.020   0.000   0.000   1.869  -0.188   0.000   0.000   0.000   0.000
  0.000   0.000   0.001   0.000   0.000   0.000  -0.000  -0.001   0.000  -0.000  -0.188   0.026   0.000  -0.000  -0.000  -0.000
 -0.000   0.000   0.000   0.000  -0.031  -0.000  -0.000   0.000   0.000   0.045  -0.000  -0.000   0.232   0.000   0.000  -0.022
  0.000   0.000  -0.000   0.000   0.000   0.000   0.000   0.000   0.000  -0.000  -0.000   0.000   0.000   0.238   0.000   0.000
 -0.031  -0.000   0.000   0.000   0.000   0.045  -0.000  -0.000   0.000   0.000   0.000  -0.000   0.000  -0.000   0.232  -0.000
  0.000  -0.000  -0.000   0.000   0.002   0.000  -0.000  -0.000  -0.000  -0.004   0.000   0.000  -0.022  -0.000  -0.000   0.002
 -0.000   0.000   0.000   0.000   0.000   0.000   0.000   0.000  -0.000   0.000  -0.000  -0.000   0.000  -0.022   0.000   0.000
  0.002   0.000   0.000  -0.000  -0.000  -0.004   0.000  -0.000   0.000   0.000   0.000   0.000   0.000   0.000  -0.022  -0.000
 total augmentation occupancy for first ion, spin component:           2
  2.056   0.000   0.000   0.000  -0.000  -0.959   0.000  -0.000  -0.000  -0.000   0.000   0.000   0.000   0.000   0.003   0.000
 -0.000   2.095  -0.000  -0.000   0.000   0.000  -0.982   0.000   0.000   0.000  -0.000  -0.000   0.000  -0.000  -0.000  -0.000
  0.000  -0.000   2.048   0.000   0.000  -0.000   0.000  -0.954   0.000  -0.000   0.002  -0.000  -0.000   0.000  -0.000  -0.000
  0.000  -0.000  -0.000   2.095  -0.000  -0.000   0.000  -0.000  -0.982  -0.000   0.000   0.000   0.000   0.000   0.000  -0.000
  0.000   0.000   0.000   0.000   2.056   0.000  -0.000  -0.000  -0.000  -0.959   0.000  -0.000   0.003   0.000   0.000  -0.001
 -0.959  -0.000   0.000  -0.000  -0.000   0.267   0.000   0.000   0.000   0.000   0.000   0.000  -0.000  -0.000  -0.007   0.000
  0.000  -0.982   0.000   0.000   0.000   0.000   0.287  -0.000   0.000   0.000  -0.000   0.000  -0.000   0.000  -0.000   0.000
 -0.000  -0.000  -0.954   0.000  -0.000   0.000  -0.000   0.252   0.000   0.000  -0.004   0.001   0.000  -0.000  -0.000   0.000
  0.000  -0.000   0.000  -0.982  -0.000   0.000   0.000   0.000   0.287   0.000  -0.000   0.000   0.000   0.000  -0.000   0.000
  0.000  -0.000  -0.000   0.000  -0.959   0.000  -0.000   0.000   0.000   0.267  -0.000   0.000  -0.007   0.000  -0.000   0.001
  0.000   0.000   0.002   0.000   0.000   0.000   0.000  -0.004   0.000  -0.000  -0.267   0.080  -0.000   0.000  -0.000   0.000
  0.000   0.000  -0.000   0.000  -0.000   0.000  -0.000   0.001   0.000   0.000   0.080  -0.012  -0.000   0.000   0.000   0.000
  0.000   0.000   0.000   0.000   0.003  -0.000   0.000  -0.000  -0.000  -0.007  -0.000   0.000  -0.031   0.000   0.000   0.004
  0.000  -0.000   0.000   0.000  -0.000   0.000   0.000   0.000   0.000  -0.000   0.000  -0.000  -0.000  -0.035  -0.000   0.000
  0.003   0.000   0.000  -0.000   0.000  -0.007  -0.000  -0.000   0.000   0.000  -0.000  -0.000  -0.000  -0.000  -0.031  -0.000
  0.000   0.000   0.000   0.000  -0.001   0.000  -0.000   0.000  -0.000   0.001   0.000   0.000   0.004   0.000   0.000  -0.001
  0.000   0.000  -0.000  -0.000  -0.000   0.000   0.000  -0.000   0.000   0.000  -0.000   0.000   0.000   0.004   0.000   0.000
 -0.001  -0.000  -0.000   0.000  -0.000   0.001  -0.000   0.000  -0.000  -0.000  -0.000   0.000  -0.000   0.000   0.004  -0.000


------------------------ aborting loop because EDIFF is reached ----------------------------------------





 total charge

# of ion       s       p       d       tot
------------------------------------------
    1        0.426   0.392   7.170   7.988
    2        0.426   0.392   7.170   7.988
--------------------------------------------------
tot          0.852   0.783  14.341  15.976



 magnetization (x)

# of ion       s       p       d       tot
------------------------------------------
    1       -0.012  -0.049   1.850   1.789
    2       -0.012  -0.049   1.850   1.789
--------------------------------------------------
tot         -0.024  -0.098   3.700   3.578
 
    CHARGE:  cpu time      0.0334: real time      0.0336
    FORLOC:  cpu time      0.0001: real time      0.0001
    FORNL :  cpu time      0.0307: real time      0.0308
    STRESS:  cpu time      0.2088: real time      0.2097
    FORCOR:  cpu time      0.0050: real time      0.0050
    FORHAR:  cpu time      0.0005: real time      0.0005
    MIXING:  cpu time      0.0003: real time      0.0003
    OFIELD:  cpu time      0.0000: real time      0.0000

  FORCE on cell =-STRESS in cart. coord.  units (eV):
  Direction    XX          YY          ZZ          XY          YZ          ZX
  --------------------------------------------------------------------------------------
  Alpha Z    65.78225    65.78225    65.78225
  Ewald    -481.79981  -481.79981  -473.54718     0.00000    -0.00000    -0.00000
  Hartree    99.26366    99.26366   103.30502    -0.00000    -0.00000    -0.00000
  E(xc)     -91.49661   -91.49662   -91.49795    -0.00000     0.00000    -0.00000
  Local     -42.28334   -42.28317   -54.29746     0.00000     0.00000     0.00000
  n-local   -19.16670    -9.98841   -14.44661     3.02914    -0.57078     2.16269
  augment   312.81342   312.81330   312.63717     0.00000     0.00000    -0.00000
  Kinetic   151.21597   145.47322   148.17193    -3.08702    -0.62372     0.52844
  Fock        0.00000     0.00000     0.00000     0.00000     0.00000     0.00000
  -------------------------------------------------------------------------------------
  Total      -3.95337    -3.95337    -3.89282     0.00000    -0.00000     0.00000
  in kB    -245.92065  -245.92065  -242.15403     0.00000    -0.00000     0.00000
  external pressure =     -244.67 kB  Pullay stress =        0.00 kB


 VOLUME and BASIS-vectors are now :
 -----------------------------------------------------------------------------
  energy-cutoff  :      425.00
  volume of cell :       25.76
      direct lattice vectors                 reciprocal lattice vectors
     1.320906073 -2.287876431  0.000000000     0.378528050 -0.218543272  0.000000000
     1.320906073  2.287876431  0.000000000     0.378528050  0.218543272  0.000000000
     0.000000000  0.000000000  4.261367933     0.000000000  0.000000000  0.234666430

  length of vectors
     2.641812146  2.641812146  4.261367933     0.437086543  0.437086543  0.234666430


 FORCES acting on ions
    electron-ion (+dipol)            ewald-force                    non-local-force                 convergence-correction
 -----------------------------------------------------------------------------------------------
   -.927E-12 -.123E-06 -.537E-12   0.517E-14 0.217E-11 -.214E-13   0.867E-17 0.000E+00 -.651E-18   -.181E-13 0.385E-09 -.463E-14
   0.192E-11 0.123E-06 -.517E-11   0.492E-14 -.217E-11 0.214E-13   0.173E-17 0.000E+00 -.651E-18   0.108E-13 -.385E-09 -.207E-13
 -----------------------------------------------------------------------------------------------
   0.996E-12 0.216E-11 -.571E-11   0.101E-13 -.204E-14 0.000E+00   0.104E-16 0.000E+00 -.130E-17   -.731E-14 -.122E-13 -.254E-13
 
 
 POSITION                                       TOTAL-FORCE (eV/Angst)
 -----------------------------------------------------------------------------------
      1.32091      0.76263      1.06534        -0.000000      0.000000      0.000000
      1.32091     -0.76263      3.19603         0.000000      0.000000     -0.000000
 -----------------------------------------------------------------------------------
    total drift:                                0.000000      0.000000     -0.000000


--------------------------------------------------------------------------------------------------------



  FREE ENERGIE OF THE ION-ELECTRON SYSTEM (eV)
  ---------------------------------------------------
  free  energy   TOTEN  =       -13.70873847 eV

  energy  without entropy=      -13.70533164  energy(sigma->0) =      -13.70703505
 


--------------------------------------------------------------------------------------------------------


    POTLOK:  cpu time      0.0105: real time      0.0105


--------------------------------------------------------------------------------------------------------




--------------------------------------------------------------------------------------------------------


  
 reached required accuracy - stopping structural energy minimisation
     LOOP+:  cpu time     17.7538: real time     17.8889
    4ORBIT:  cpu time      0.0000: real time      0.0000



 total charge

# of ion       s       p       d       tot
------------------------------------------
    1        0.426   0.392   7.170   7.988
    2        0.426   0.392   7.170   7.988
--------------------------------------------------
tot          0.852   0.783  14.341  15.976



 magnetization (x)

# of ion       s       p       d       tot
------------------------------------------
    1       -0.012  -0.049   1.850   1.789
    2       -0.012  -0.049   1.850   1.789
--------------------------------------------------
tot         -0.024  -0.098   3.700   3.578
 

 total amount of memory used by VASP MPI-rank0    40745. kBytes
=======================================================================

   base      :      30000. kBytes
   nonl-proj :       7569. kBytes
   fftplans  :        183. kBytes
   grid      :       1107. kBytes
   one-center:         62. kBytes
   wavefun   :       1824. kBytes
 
  
  
 General timing and accounting informations for this job:
 ========================================================
  
                  Total CPU time used (sec):       18.811
                            User time (sec):       18.241
                          System time (sec):        0.571
                         Elapsed time (sec):       20.998
  
                   Maximum memory used (kb):      237268.
                   Average memory used (kb):          N/A
  
                          Minor page faults:        36086
                          Major page faults:           62
                 Voluntary context switches:         2197
