PROCAR lm decomposed
# of k-points:   95         # of bands:   24         # of ions:    2

 k-point     1 :    0.00000000 0.00000000 0.00000000     weight = 0.00086806

band     1 # energy    0.09447014 # occ.  1.00000000
 
ion      s     py     pz     px    dxy    dyz    dz2    dxz  x2-y2    tot
    1  0.300  0.000  0.000  0.000  0.000  0.000  0.000  0.000  0.000  0.300
    2  0.300  0.000  0.000  0.000  0.000  0.000  0.000  0.000  0.000  0.300
tot    0.601  0.000  0.000  0.000  0.000  0.000  0.000  0.000  0.000  0.601
 
band     2 # energy    3.60275271 # occ.  1.00000000
 
ion      s     py     pz     px    dxy    dyz    dz2    dxz  x2-y2    tot
    1  0.065  0.000  0.000  0.000  0.000  0.000  0.356  0.000  0.000  0.421
    2  0.065  0.000  0.000  0.000  0.000  0.000  0.356  0.000  0.000  0.421
tot    0.130  0.000  0.000  0.000  0.000  0.000  0.712  0.000  0.000  0.843
 
band     3 # energy    5.59535695 # occ.  1.00000000
 
ion      s     py     pz     px    dxy    dyz    dz2    dxz  x2-y2    tot
    1  0.000  0.000  0.000  0.000  0.000  0.000  0.480  0.000  0.000  0.480
    2  0.000  0.000  0.000  0.000  0.000  0.000  0.480  0.000  0.000  0.480
tot    0.000  0.000  0.000  0.000  0.000  0.000  0.960  0.000  0.000  0.960
 
band     4 # energy    5.60355239 # occ.  1.00000000
 
ion      s     py     pz     px    dxy    dyz    dz2    dxz  x2-y2    tot
    1  0.000  0.000  0.000  0.000  0.000  0.000  0.000  0.000  0.477  0.478
    2  0.000  0.000  0.000  0.000  0.000  0.000  0.000  0.000  0.477  0.478
tot    0.000  0.001  0.000  0.000  0.000  0.000  0.000  0.000  0.954  0.955
 
band     5 # energy    5.60355309 # occ.  1.00000000
 
ion      s     py     pz     px    dxy    dyz    dz2    dxz  x2-y2    tot
    1  0.000  0.000  0.000  0.000  0.477  0.000  0.000  0.000  0.000  0.478
    2  0.000  0.000  0.000  0.000  0.477  0.000  0.000  0.000  0.000  0.478
tot    0.000  0.000  0.000  0.001  0.954  0.000  0.000  0.000  0.000  0.955
 
band     6 # energy    5.83677759 # occ.  1.00000000
 
ion      s     py     pz     px    dxy    dyz    dz2    dxz  x2-y2    tot
    1  0.000  0.000  0.000  0.000  0.000  0.000  0.000  0.000  0.482  0.483
    2  0.000  0.000  0.000  0.000  0.000  0.000  0.000  0.000  0.482  0.483
tot    0.000  0.001  0.000  0.000  0.000  0.000  0.000  0.000  0.964  0.965
 
band     7 # energy    5.83677825 # occ.  1.00000000
 
ion      s     py     pz     px    dxy    dyz    dz2    dxz  x2-y2    tot
    1  0.000  0.000  0.000  0.000  0.482  0.000  0.000  0.000  0.000  0.483
    2  0.000  0.000  0.000  0.000  0.482  0.000  0.000  0.000  0.000  0.483
tot    0.000  0.000  0.000  0.001  0.964  0.000  0.000  0.000  0.000  0.965
 
band     8 # energy    6.08555237 # occ.  1.00000000
 
ion      s     py     pz     px    dxy    dyz    dz2    dxz  x2-y2    tot
    1  0.000  0.000  0.000  0.000  0.000  0.486  0.000  0.000  0.000  0.486
    2  0.000  0.000  0.000  0.000  0.000  0.486  0.000  0.000  0.000  0.486
tot    0.000  0.000  0.000  0.000  0.000  0.972  0.000  0.000  0.000  0.972
 
band     9 # energy    6.08555246 # occ.  1.00000000
 
ion      s     py     pz     px    dxy    dyz    dz2    dxz  x2-y2    tot
    1  0.000  0.000  0.000  0.000  0.000  0.000  0.000  0.486  0.000  0.486
    2  0.000  0.000  0.000  0.000  0.000  0.000  0.000  0.486  0.000  0.486
tot    0.000  0.000  0.000  0.000  0.000  0.000  0.000  0.972  0.000  0.972
 
band    10 # energy    6.93319829 # occ.  1.00000000
 
ion      s     py     pz     px    dxy    dyz    dz2    dxz  x2-y2    tot
    1  0.000  0.000  0.000  0.000  0.000  0.492  0.000  0.000  0.000  0.492
    2  0.000  0.000  0.000  0.000  0.000  0.492  0.000  0.000  0.000  0.492
tot    0.000  0.000  0.000  0.000  0.000  0.983  0.000  0.000  0.000  0.983
 
band    11 # energy    6.93319833 # occ.  1.00000000
 
ion      s     py     pz     px    dxy    dyz    dz2    dxz  x2-y2    tot
    1  0.000  0.000  0.000  0.000  0.000  0.000  0.000  0.492  0.000  0.492
    2  0.000  0.000  0.000  0.000  0.000  0.000  0.000  0.492  0.000  0.492
tot    0.000  0.000  0.000  0.000  0.000  0.000  0.000  0.983  0.000  0.983
 
band    12 # energy    8.10592770 # occ.  0.01709526
 
ion      s     py     pz     px    dxy    dyz    dz2    dxz  x2-y2    tot
    1  0.000  0.000  0.279  0.000  0.000  0.000  0.000  0.000  0.000  0.279
    2  0.000  0.000  0.279  0.000  0.000  0.000  0.000  0.000  0.000  0.279
tot    0.000  0.000  0.558  0.000  0.000  0.000  0.000  0.000  0.000  0.558
 
band    13 # energy   13.01203193 # occ.  0.00000000
 
ion      s     py     pz     px    dxy    dyz    dz2    dxz  x2-y2    tot
    1  0.214  0.000  0.000  0.000  0.000  0.000  0.198  0.000  0.000  0.412
    2  0.214  0.000  0.000  0.000  0.000  0.000  0.198  0.000  0.000  0.412
tot    0.428  0.000  0.000  0.000  0.000  0.000  0.397  0.000  0.000  0.825
 
band    14 # energy   28.51678649 # occ.  0.00000000
 
ion      s     py     pz     px    dxy    dyz    dz2    dxz  x2-y2    tot
    1  0.007  0.000  0.000  0.000  0.000  0.000  0.032  0.000  0.000  0.038
    2  0.007  0.000  0.000  0.000  0.000  0.000  0.032  0.000  0.000  0.038
tot    0.013  0.000  0.000  0.000  0.000  0.000  0.064  0.000  0.000  0.077
 
band    15 # energy   29.52247730 # occ.  0.00000000
 
ion      s     py     pz     px    dxy    dyz    dz2    dxz  x2-y2    tot
    1  0.000  0.275  0.000  0.000  0.000  0.000  0.000  0.000  0.080  0.355
    2  0.000  0.275  0.000  0.000  0.000  0.000  0.000  0.000  0.080  0.355
tot    0.000  0.550  0.000  0.000  0.000  0.000  0.000  0.000  0.159  0.709
 
band    16 # energy   29.52248055 # occ.  0.00000000
 
ion      s     py     pz     px    dxy    dyz    dz2    dxz  x2-y2    tot
    1  0.000  0.000  0.000  0.275  0.080  0.000  0.000  0.000  0.000  0.355
    2  0.000  0.000  0.000  0.275  0.080  0.000  0.000  0.000  0.000  0.355
tot    0.000  0.000  0.000  0.550  0.159  0.000  0.000  0.000  0.000  0.709
 
band    17 # energy   31.04608763 # occ.  0.00000000
 
ion      s     py     pz     px    dxy    dyz    dz2    dxz  x2-y2    tot
    1  0.000  0.102  0.000  0.000  0.000  0.000  0.000  0.000  0.278  0.380
    2  0.000  0.102  0.000  0.000  0.000  0.000  0.000  0.000  0.278  0.380
tot    0.000  0.204  0.000  0.000  0.000  0.000  0.000  0.000  0.556  0.760
 
band    18 # energy   31.04609303 # occ.  0.00000000
 
ion      s     py     pz     px    dxy    dyz    dz2    dxz  x2-y2    tot
    1  0.000  0.000  0.000  0.102  0.278  0.000  0.000  0.000  0.000  0.380
    2  0.000  0.000  0.000  0.102  0.278  0.000  0.000  0.000  0.000  0.380
tot    0.000  0.000  0.000  0.204  0.556  0.000  0.000  0.000  0.000  0.760
 
band    19 # energy   31.11778867 # occ.  0.00000000
 
ion      s     py     pz     px    dxy    dyz    dz2    dxz  x2-y2    tot
    1  0.027  0.000  0.000  0.000  0.000  0.000  0.072  0.000  0.000  0.099
    2  0.027  0.000  0.000  0.000  0.000  0.000  0.072  0.000  0.000  0.099
tot    0.054  0.000  0.000  0.000  0.000  0.000  0.144  0.000  0.000  0.198
 
band    20 # energy   31.67253970 # occ.  0.00000000
 
ion      s     py     pz     px    dxy    dyz    dz2    dxz  x2-y2    tot
    1  0.000  0.000  0.044  0.000  0.000  0.000  0.000  0.000  0.000  0.044
    2  0.000  0.000  0.044  0.000  0.000  0.000  0.000  0.000  0.000  0.044
tot    0.000  0.000  0.089  0.000  0.000  0.000  0.000  0.000  0.000  0.089
 
band    21 # energy   36.00709894 # occ.  0.00000000
 
ion      s     py     pz     px    dxy    dyz    dz2    dxz  x2-y2    tot
    1  0.000  0.000  0.000  0.000  0.000  0.113  0.000  0.000  0.000  0.113
    2  0.000  0.000  0.000  0.000  0.000  0.113  0.000  0.000  0.000  0.113
tot    0.000  0.000  0.000  0.000  0.000  0.227  0.000  0.000  0.000  0.227
 
band    22 # energy   36.00710061 # occ.  0.00000000
 
ion      s     py     pz     px    dxy    dyz    dz2    dxz  x2-y2    tot
    1  0.000  0.000  0.000  0.000  0.000  0.000  0.000  0.113  0.000  0.113
    2  0.000  0.000  0.000  0.000  0.000  0.000  0.000  0.113  0.000  0.113
tot    0.000  0.000  0.000  0.000  0.000  0.000  0.000  0.227  0.000  0.227
 
band    23 # energy   36.07992142 # occ.  0.00000000
 
ion      s     py     pz     px    dxy    dyz    dz2    dxz  x2-y2    tot
    1  0.002  0.000  0.000  0.000  0.000  0.000  0.478  0.000  0.000  0.481
    2  0.002  0.000  0.000  0.000  0.000  0.000  0.478  0.000  0.000  0.481
tot    0.005  0.000  0.000  0.000  0.000  0.000  0.956  0.000  0.000  0.961
 
band    24 # energy   37.21500137 # occ.  0.00000000
 
ion      s     py     pz     px    dxy    dyz    dz2    dxz  x2-y2    tot
    1  0.000  0.000  0.046  0.000  0.000  0.000  0.000  0.000  0.000  0.046
    2  0.000  0.000  0.046  0.000  0.000  0.000  0.000  0.000  0.000  0.046
tot    0.000  0.000  0.093  0.000  0.000  0.000  0.000  0.000  0.000  0.093
 

 k-point     2 :    0.08333333-0.00000000 0.00000000     weight = 0.00520833

band     1 # energy    0.30784379 # occ.  1.00000000
 
ion      s     py     pz     px    dxy    dyz    dz2    dxz  x2-y2    tot
    1  0.294  0.002  0.000  0.005  0.000  0.000  0.000  0.000  0.000  0.300
    2  0.294  0.002  0.000  0.005  0.000  0.000  0.000  0.000  0.000  0.300
tot    0.588  0.003  0.000  0.009  0.000  0.000  0.000  0.000  0.000  0.601
 
band     2 # energy    3.72225882 # occ.  1.00000000
 
ion      s     py     pz     px    dxy    dyz    dz2    dxz  x2-y2    tot
    1  0.059  0.001  0.000  0.003  0.002  0.000  0.358  0.000  0.001  0.423
    2  0.059  0.001  0.000  0.003  0.002  0.000  0.358  0.000  0.001  0.423
tot    0.118  0.002  0.000  0.005  0.004  0.000  0.717  0.000  0.001  0.847
 
band     3 # energy    5.42992539 # occ.  1.00000000
 
ion      s     py     pz     px    dxy    dyz    dz2    dxz  x2-y2    tot
    1  0.000  0.000  0.000  0.001  0.233  0.000  0.163  0.000  0.078  0.475
    2  0.000  0.000  0.000  0.001  0.233  0.000  0.163  0.000  0.078  0.475
tot    0.000  0.000  0.000  0.001  0.466  0.000  0.326  0.000  0.155  0.949
 
band     4 # energy    5.69009930 # occ.  1.00000000
 
ion      s     py     pz     px    dxy    dyz    dz2    dxz  x2-y2    tot
    1  0.000  0.001  0.000  0.000  0.119  0.000  0.000  0.000  0.358  0.478
    2  0.000  0.001  0.000  0.000  0.119  0.000  0.000  0.000  0.358  0.478
tot    0.000  0.001  0.000  0.000  0.239  0.000  0.000  0.000  0.716  0.956
 
band     5 # energy    5.74294878 # occ.  1.00000000
 
ion      s     py     pz     px    dxy    dyz    dz2    dxz  x2-y2    tot
    1  0.000  0.000  0.000  0.000  0.155  0.000  0.274  0.000  0.052  0.481
    2  0.000  0.000  0.000  0.000  0.155  0.000  0.274  0.000  0.052  0.481
tot    0.000  0.000  0.000  0.000  0.310  0.000  0.548  0.000  0.103  0.962
 
band     6 # energy    5.80465197 # occ.  1.00000000
 
ion      s     py     pz     px    dxy    dyz    dz2    dxz  x2-y2    tot
    1  0.001  0.000  0.000  0.000  0.326  0.000  0.045  0.000  0.109  0.481
    2  0.001  0.000  0.000  0.000  0.326  0.000  0.045  0.000  0.109  0.481
tot    0.002  0.000  0.000  0.001  0.653  0.000  0.090  0.000  0.218  0.962
 
band     7 # energy    5.91302828 # occ.  1.00000000
 
ion      s     py     pz     px    dxy    dyz    dz2    dxz  x2-y2    tot
    1  0.000  0.001  0.000  0.000  0.121  0.000  0.000  0.000  0.362  0.483
    2  0.000  0.001  0.000  0.000  0.121  0.000  0.000  0.000  0.362  0.483
tot    0.000  0.001  0.000  0.000  0.241  0.000  0.000  0.000  0.723  0.966
 
band     8 # energy    5.98505286 # occ.  1.00000000
 
ion      s     py     pz     px    dxy    dyz    dz2    dxz  x2-y2    tot
    1  0.000  0.000  0.004  0.000  0.000  0.119  0.000  0.357  0.000  0.480
    2  0.000  0.000  0.004  0.000  0.000  0.119  0.000  0.357  0.000  0.480
tot    0.000  0.000  0.009  0.000  0.000  0.238  0.000  0.713  0.000  0.960
 
band     9 # energy    6.03315766 # occ.  1.00000000
 
ion      s     py     pz     px    dxy    dyz    dz2    dxz  x2-y2    tot
    1  0.000  0.000  0.000  0.000  0.000  0.364  0.000  0.121  0.000  0.485
    2  0.000  0.000  0.000  0.000  0.000  0.364  0.000  0.121  0.000  0.485
tot    0.000  0.000  0.000  0.000  0.000  0.728  0.000  0.243  0.000  0.970
 
band    10 # energy    6.44412956 # occ.  1.00000000
 
ion      s     py     pz     px    dxy    dyz    dz2    dxz  x2-y2    tot
    1  0.000  0.000  0.050  0.000  0.000  0.099  0.000  0.298  0.000  0.447
    2  0.000  0.000  0.050  0.000  0.000  0.099  0.000  0.298  0.000  0.447
tot    0.000  0.000  0.100  0.000  0.000  0.198  0.000  0.595  0.000  0.894
 
band    11 # energy    6.95512634 # occ.  1.00000000
 
ion      s     py     pz     px    dxy    dyz    dz2    dxz  x2-y2    tot
    1  0.000  0.000  0.000  0.000  0.000  0.369  0.000  0.123  0.000  0.492
    2  0.000  0.000  0.000  0.000  0.000  0.369  0.000  0.123  0.000  0.492
tot    0.000  0.000  0.000  0.000  0.000  0.738  0.000  0.246  0.000  0.984
 
band    12 # energy    8.85718793 # occ.  0.00000000
 
ion      s     py     pz     px    dxy    dyz    dz2    dxz  x2-y2    tot
    1  0.000  0.000  0.223  0.000  0.000  0.027  0.000  0.080  0.000  0.329
    2  0.000  0.000  0.223  0.000  0.000  0.027  0.000  0.080  0.000  0.329
tot    0.000  0.000  0.445  0.000  0.000  0.053  0.000  0.160  0.000  0.659
 
band    13 # energy   13.06559091 # occ.  0.00000000
 
ion      s     py     pz     px    dxy    dyz    dz2    dxz  x2-y2    tot
    1  0.211  0.001  0.000  0.004  0.000  0.000  0.192  0.000  0.000  0.409
    2  0.211  0.001  0.000  0.004  0.000  0.000  0.192  0.000  0.000  0.409
tot    0.422  0.003  0.000  0.009  0.000  0.000  0.385  0.000  0.000  0.819
 
band    14 # energy   26.05093969 # occ.  0.00000000
 
ion      s     py     pz     px    dxy    dyz    dz2    dxz  x2-y2    tot
    1  0.017  0.034  0.000  0.101  0.087  0.000  0.019  0.000  0.029  0.287
    2  0.017  0.034  0.000  0.101  0.087  0.000  0.019  0.000  0.029  0.287
tot    0.034  0.068  0.000  0.203  0.174  0.000  0.037  0.000  0.058  0.574
 
band    15 # energy   27.74115408 # occ.  0.00000000
 
ion      s     py     pz     px    dxy    dyz    dz2    dxz  x2-y2    tot
    1  0.000  0.177  0.000  0.059  0.029  0.000  0.000  0.000  0.087  0.351
    2  0.000  0.177  0.000  0.059  0.029  0.000  0.000  0.000  0.087  0.351
tot    0.000  0.354  0.000  0.118  0.058  0.000  0.000  0.000  0.174  0.703
 
band    16 # energy   28.36526986 # occ.  0.00000000
 
ion      s     py     pz     px    dxy    dyz    dz2    dxz  x2-y2    tot
    1  0.020  0.017  0.000  0.050  0.051  0.000  0.035  0.000  0.017  0.189
    2  0.020  0.017  0.000  0.050  0.051  0.000  0.035  0.000  0.017  0.189
tot    0.040  0.033  0.000  0.099  0.102  0.000  0.071  0.000  0.034  0.379
 
band    17 # energy   31.69552237 # occ.  0.00000000
 
ion      s     py     pz     px    dxy    dyz    dz2    dxz  x2-y2    tot
    1  0.000  0.000  0.015  0.000  0.000  0.011  0.000  0.034  0.000  0.061
    2  0.000  0.000  0.015  0.000  0.000  0.011  0.000  0.034  0.000  0.061
tot    0.000  0.000  0.030  0.000  0.000  0.023  0.000  0.068  0.000  0.121
 
band    18 # energy   31.75057676 # occ.  0.00000000
 
ion      s     py     pz     px    dxy    dyz    dz2    dxz  x2-y2    tot
    1  0.006  0.013  0.000  0.039  0.030  0.000  0.037  0.000  0.010  0.134
    2  0.006  0.013  0.000  0.039  0.030  0.000  0.037  0.000  0.010  0.134
tot    0.011  0.026  0.000  0.078  0.059  0.000  0.074  0.000  0.020  0.268
 
band    19 # energy   33.05457997 # occ.  0.00000000
 
ion      s     py     pz     px    dxy    dyz    dz2    dxz  x2-y2    tot
    1  0.000  0.000  0.044  0.000  0.000  0.025  0.000  0.075  0.000  0.144
    2  0.000  0.000  0.044  0.000  0.000  0.025  0.000  0.075  0.000  0.144
tot    0.000  0.000  0.088  0.000  0.000  0.050  0.000  0.150  0.000  0.288
 
band    20 # energy   33.08065367 # occ.  0.00000000
 
ion      s     py     pz     px    dxy    dyz    dz2    dxz  x2-y2    tot
    1  0.000  0.103  0.000  0.034  0.060  0.000  0.000  0.000  0.181  0.380
    2  0.000  0.103  0.000  0.034  0.060  0.000  0.000  0.000  0.181  0.380
tot    0.000  0.207  0.000  0.069  0.121  0.000  0.000  0.000  0.362  0.759
 
band    21 # energy   33.78061272 # occ.  0.00000000
 
ion      s     py     pz     px    dxy    dyz    dz2    dxz  x2-y2    tot
    1  0.006  0.049  0.000  0.147  0.060  0.000  0.007  0.000  0.020  0.289
    2  0.006  0.049  0.000  0.147  0.060  0.000  0.007  0.000  0.020  0.289
tot    0.011  0.098  0.000  0.293  0.121  0.000  0.014  0.000  0.040  0.577
 
band    22 # energy   35.34236341 # occ.  0.00000000
 
ion      s     py     pz     px    dxy    dyz    dz2    dxz  x2-y2    tot
    1  0.000  0.000  0.000  0.000  0.000  0.167  0.000  0.056  0.000  0.223
    2  0.000  0.000  0.000  0.000  0.000  0.167  0.000  0.056  0.000  0.223
tot    0.000  0.000  0.000  0.000  0.000  0.335  0.000  0.112  0.000  0.447
 
band    23 # energy   35.53942895 # occ.  0.00000000
 
ion      s     py     pz     px    dxy    dyz    dz2    dxz  x2-y2    tot
    1  0.000  0.000  0.222  0.000  0.000  0.024  0.000  0.071  0.000  0.317
    2  0.000  0.000  0.222  0.000  0.000  0.024  0.000  0.071  0.000  0.317
tot    0.000  0.000  0.444  0.000  0.000  0.048  0.000  0.143  0.000  0.634
 
band    24 # energy   35.64752532 # occ.  0.00000000
 
ion      s     py     pz     px    dxy    dyz    dz2    dxz  x2-y2    tot
    1  0.001  0.007  0.000  0.021  0.067  0.000  0.341  0.000  0.022  0.458
    2  0.001  0.007  0.000  0.021  0.067  0.000  0.341  0.000  0.022  0.458
tot    0.002  0.014  0.000  0.041  0.133  0.000  0.682  0.000  0.044  0.916
 

 k-point     3 :    0.16666667-0.00000000 0.00000000     weight = 0.00520833

band     1 # energy    0.92865516 # occ.  1.00000000
 
ion      s     py     pz     px    dxy    dyz    dz2    dxz  x2-y2    tot
    1  0.276  0.006  0.000  0.017  0.002  0.000  0.001  0.000  0.001  0.302
    2  0.276  0.006  0.000  0.017  0.002  0.000  0.001  0.000  0.001  0.302
tot    0.551  0.011  0.000  0.034  0.003  0.000  0.002  0.000  0.001  0.603
 
band     2 # energy    4.01787382 # occ.  1.00000000
 
ion      s     py     pz     px    dxy    dyz    dz2    dxz  x2-y2    tot
    1  0.042  0.003  0.000  0.008  0.018  0.000  0.353  0.000  0.006  0.430
    2  0.042  0.003  0.000  0.008  0.018  0.000  0.353  0.000  0.006  0.430
tot    0.084  0.006  0.000  0.017  0.036  0.000  0.705  0.000  0.012  0.859
 
band     3 # energy    5.22973491 # occ.  1.00000000
 
ion      s     py     pz     px    dxy    dyz    dz2    dxz  x2-y2    tot
    1  0.000  0.001  0.000  0.003  0.260  0.000  0.116  0.000  0.087  0.467
    2  0.000  0.001  0.000  0.003  0.260  0.000  0.116  0.000  0.087  0.467
tot    0.000  0.002  0.000  0.006  0.521  0.000  0.232  0.000  0.174  0.934
 
band     4 # energy    5.49940614 # occ.  1.00000000
 
ion      s     py     pz     px    dxy    dyz    dz2    dxz  x2-y2    tot
    1  0.000  0.000  0.036  0.000  0.000  0.102  0.000  0.306  0.000  0.444
    2  0.000  0.000  0.036  0.000  0.000  0.102  0.000  0.306  0.000  0.444
tot    0.000  0.000  0.071  0.000  0.000  0.204  0.000  0.613  0.000  0.889
 
band     5 # energy    5.67824941 # occ.  1.00000000
 
ion      s     py     pz     px    dxy    dyz    dz2    dxz  x2-y2    tot
    1  0.003  0.000  0.000  0.001  0.313  0.000  0.055  0.000  0.104  0.477
    2  0.003  0.000  0.000  0.001  0.313  0.000  0.055  0.000  0.104  0.477
tot    0.007  0.001  0.000  0.002  0.627  0.000  0.109  0.000  0.209  0.954
 
band     6 # energy    5.90311811 # occ.  1.00000000
 
ion      s     py     pz     px    dxy    dyz    dz2    dxz  x2-y2    tot
    1  0.000  0.000  0.000  0.000  0.000  0.362  0.000  0.121  0.000  0.483
    2  0.000  0.000  0.000  0.000  0.000  0.362  0.000  0.121  0.000  0.483
tot    0.000  0.000  0.000  0.000  0.000  0.724  0.000  0.241  0.000  0.966
 
band     7 # energy    5.93360756 # occ.  1.00000000
 
ion      s     py     pz     px    dxy    dyz    dz2    dxz  x2-y2    tot
    1  0.000  0.001  0.000  0.000  0.120  0.000  0.000  0.000  0.359  0.480
    2  0.000  0.001  0.000  0.000  0.120  0.000  0.000  0.000  0.359  0.480
tot    0.000  0.002  0.000  0.001  0.239  0.000  0.000  0.000  0.718  0.960
 
band     8 # energy    5.97539334 # occ.  1.00000000
 
ion      s     py     pz     px    dxy    dyz    dz2    dxz  x2-y2    tot
    1  0.001  0.000  0.000  0.001  0.113  0.000  0.329  0.000  0.038  0.482
    2  0.001  0.000  0.000  0.001  0.113  0.000  0.329  0.000  0.038  0.482
tot    0.002  0.000  0.000  0.001  0.227  0.000  0.658  0.000  0.076  0.964
 
band     9 # energy    6.10050812 # occ.  1.00000000
 
ion      s     py     pz     px    dxy    dyz    dz2    dxz  x2-y2    tot
    1  0.000  0.000  0.026  0.000  0.000  0.110  0.000  0.329  0.000  0.465
    2  0.000  0.000  0.026  0.000  0.000  0.110  0.000  0.329  0.000  0.465
tot    0.000  0.000  0.052  0.000  0.000  0.219  0.000  0.658  0.000  0.929
 
band    10 # energy    6.12625544 # occ.  1.00000000
 
ion      s     py     pz     px    dxy    dyz    dz2    dxz  x2-y2    tot
    1  0.000  0.001  0.000  0.000  0.121  0.000  0.000  0.000  0.362  0.485
    2  0.000  0.001  0.000  0.000  0.121  0.000  0.000  0.000  0.362  0.485
tot    0.000  0.002  0.000  0.001  0.242  0.000  0.000  0.000  0.725  0.969
 
band    11 # energy    7.00224437 # occ.  1.00000000
 
ion      s     py     pz     px    dxy    dyz    dz2    dxz  x2-y2    tot
    1  0.000  0.000  0.000  0.000  0.000  0.370  0.000  0.123  0.000  0.493
    2  0.000  0.000  0.000  0.000  0.000  0.370  0.000  0.123  0.000  0.493
tot    0.000  0.000  0.000  0.000  0.000  0.740  0.000  0.247  0.000  0.987
 
band    12 # energy   10.17772911 # occ.  0.00000000
 
ion      s     py     pz     px    dxy    dyz    dz2    dxz  x2-y2    tot
    1  0.000  0.000  0.210  0.000  0.000  0.034  0.000  0.102  0.000  0.346
    2  0.000  0.000  0.210  0.000  0.000  0.034  0.000  0.102  0.000  0.346
tot    0.000  0.000  0.419  0.000  0.000  0.068  0.000  0.205  0.000  0.692
 
band    13 # energy   13.24851092 # occ.  0.00000000
 
ion      s     py     pz     px    dxy    dyz    dz2    dxz  x2-y2    tot
    1  0.200  0.006  0.000  0.019  0.001  0.000  0.174  0.000  0.000  0.400
    2  0.200  0.006  0.000  0.019  0.001  0.000  0.174  0.000  0.000  0.400
tot    0.401  0.013  0.000  0.038  0.001  0.000  0.348  0.000  0.000  0.800
 
band    14 # energy   22.35109552 # occ.  0.00000000
 
ion      s     py     pz     px    dxy    dyz    dz2    dxz  x2-y2    tot
    1  0.044  0.038  0.000  0.114  0.084  0.000  0.019  0.000  0.028  0.327
    2  0.044  0.038  0.000  0.114  0.084  0.000  0.019  0.000  0.028  0.327
tot    0.088  0.076  0.000  0.227  0.168  0.000  0.038  0.000  0.056  0.653
 
band    15 # energy   25.64330994 # occ.  0.00000000
 
ion      s     py     pz     px    dxy    dyz    dz2    dxz  x2-y2    tot
    1  0.000  0.185  0.000  0.062  0.023  0.000  0.000  0.000  0.069  0.338
    2  0.000  0.185  0.000  0.062  0.023  0.000  0.000  0.000  0.069  0.338
tot    0.000  0.369  0.000  0.123  0.046  0.000  0.000  0.000  0.138  0.676
 
band    16 # energy   27.51412328 # occ.  0.00000000
 
ion      s     py     pz     px    dxy    dyz    dz2    dxz  x2-y2    tot
    1  0.024  0.004  0.000  0.013  0.117  0.000  0.042  0.000  0.039  0.240
    2  0.024  0.004  0.000  0.013  0.117  0.000  0.042  0.000  0.039  0.240
tot    0.047  0.009  0.000  0.026  0.234  0.000  0.085  0.000  0.078  0.479
 
band    17 # energy   29.32275201 # occ.  0.00000000
 
ion      s     py     pz     px    dxy    dyz    dz2    dxz  x2-y2    tot
    1  0.000  0.000  0.049  0.000  0.000  0.045  0.000  0.135  0.000  0.229
    2  0.000  0.000  0.049  0.000  0.000  0.045  0.000  0.135  0.000  0.229
tot    0.000  0.000  0.098  0.000  0.000  0.090  0.000  0.270  0.000  0.458
 
band    18 # energy   31.34782098 # occ.  0.00000000
 
ion      s     py     pz     px    dxy    dyz    dz2    dxz  x2-y2    tot
    1  0.044  0.052  0.000  0.155  0.044  0.000  0.032  0.000  0.015  0.342
    2  0.044  0.052  0.000  0.155  0.044  0.000  0.032  0.000  0.015  0.342
tot    0.088  0.103  0.000  0.310  0.089  0.000  0.063  0.000  0.030  0.684
 
band    19 # energy   31.79721019 # occ.  0.00000000
 
ion      s     py     pz     px    dxy    dyz    dz2    dxz  x2-y2    tot
    1  0.000  0.000  0.010  0.000  0.000  0.011  0.000  0.034  0.000  0.055
    2  0.000  0.000  0.010  0.000  0.000  0.011  0.000  0.034  0.000  0.055
tot    0.000  0.000  0.019  0.000  0.000  0.023  0.000  0.068  0.000  0.109
 
band    20 # energy   33.57115888 # occ.  0.00000000
 
ion      s     py     pz     px    dxy    dyz    dz2    dxz  x2-y2    tot
    1  0.016  0.030  0.000  0.089  0.006  0.000  0.051  0.000  0.002  0.195
    2  0.016  0.030  0.000  0.089  0.006  0.000  0.051  0.000  0.002  0.195
tot    0.032  0.059  0.000  0.178  0.012  0.000  0.103  0.000  0.004  0.390
 
band    21 # energy   34.39652038 # occ.  0.00000000
 
ion      s     py     pz     px    dxy    dyz    dz2    dxz  x2-y2    tot
    1  0.000  0.000  0.250  0.000  0.000  0.002  0.000  0.007  0.000  0.259
    2  0.000  0.000  0.250  0.000  0.000  0.002  0.000  0.007  0.000  0.259
tot    0.000  0.000  0.500  0.000  0.000  0.005  0.000  0.014  0.000  0.518
 
band    22 # energy   34.40753019 # occ.  0.00000000
 
ion      s     py     pz     px    dxy    dyz    dz2    dxz  x2-y2    tot
    1  0.000  0.000  0.000  0.000  0.000  0.235  0.000  0.078  0.000  0.313
    2  0.000  0.000  0.000  0.000  0.000  0.235  0.000  0.078  0.000  0.313
tot    0.000  0.000  0.000  0.000  0.000  0.470  0.000  0.157  0.000  0.626
 
band    23 # energy   34.86756347 # occ.  0.00000000
 
ion      s     py     pz     px    dxy    dyz    dz2    dxz  x2-y2    tot
    1  0.000  0.167  0.000  0.056  0.049  0.000  0.000  0.000  0.147  0.419
    2  0.000  0.167  0.000  0.056  0.049  0.000  0.000  0.000  0.147  0.419
tot    0.000  0.335  0.000  0.112  0.098  0.000  0.000  0.000  0.293  0.837
 
band    24 # energy   35.95713399 # occ.  0.00000000
 
ion      s     py     pz     px    dxy    dyz    dz2    dxz  x2-y2    tot
    1  0.000  0.118  0.000  0.039  0.056  0.000  0.000  0.000  0.167  0.380
    2  0.000  0.118  0.000  0.039  0.056  0.000  0.000  0.000  0.167  0.380
tot    0.000  0.236  0.000  0.079  0.111  0.000  0.000  0.000  0.334  0.760
 

 k-point     4 :    0.25000000 0.00000000 0.00000000     weight = 0.00520833

band     1 # energy    1.88086382 # occ.  1.00000000
 
ion      s     py     pz     px    dxy    dyz    dz2    dxz  x2-y2    tot
    1  0.242  0.011  0.000  0.034  0.012  0.000  0.005  0.000  0.004  0.307
    2  0.242  0.011  0.000  0.034  0.012  0.000  0.005  0.000  0.004  0.307
tot    0.484  0.023  0.000  0.068  0.023  0.000  0.009  0.000  0.008  0.615
 
band     2 # energy    4.25799864 # occ.  1.00000000
 
ion      s     py     pz     px    dxy    dyz    dz2    dxz  x2-y2    tot
    1  0.020  0.003  0.000  0.008  0.101  0.000  0.276  0.000  0.034  0.441
    2  0.020  0.003  0.000  0.008  0.101  0.000  0.276  0.000  0.034  0.441
tot    0.041  0.005  0.000  0.016  0.202  0.000  0.551  0.000  0.067  0.883
 
band     3 # energy    4.94179513 # occ.  1.00000000
 
ion      s     py     pz     px    dxy    dyz    dz2    dxz  x2-y2    tot
    1  0.000  0.000  0.034  0.000  0.000  0.101  0.000  0.302  0.000  0.436
    2  0.000  0.000  0.034  0.000  0.000  0.101  0.000  0.302  0.000  0.436
tot    0.000  0.000  0.067  0.000  0.000  0.201  0.000  0.603  0.000  0.871
 
band     4 # energy    5.11774321 # occ.  1.00000000
 
ion      s     py     pz     px    dxy    dyz    dz2    dxz  x2-y2    tot
    1  0.001  0.005  0.000  0.014  0.228  0.000  0.131  0.000  0.076  0.453
    2  0.001  0.005  0.000  0.014  0.228  0.000  0.131  0.000  0.076  0.453
tot    0.002  0.009  0.000  0.027  0.455  0.000  0.262  0.000  0.152  0.907
 
band     5 # energy    5.61265044 # occ.  1.00000000
 
ion      s     py     pz     px    dxy    dyz    dz2    dxz  x2-y2    tot
    1  0.008  0.001  0.000  0.003  0.250  0.000  0.127  0.000  0.083  0.472
    2  0.008  0.001  0.000  0.003  0.250  0.000  0.127  0.000  0.083  0.472
tot    0.016  0.002  0.000  0.005  0.501  0.000  0.253  0.000  0.167  0.944
 
band     6 # energy    5.74565142 # occ.  1.00000000
 
ion      s     py     pz     px    dxy    dyz    dz2    dxz  x2-y2    tot
    1  0.000  0.000  0.000  0.000  0.000  0.360  0.000  0.120  0.000  0.480
    2  0.000  0.000  0.000  0.000  0.000  0.360  0.000  0.120  0.000  0.480
tot    0.000  0.000  0.000  0.000  0.000  0.720  0.000  0.240  0.000  0.961
 
band     7 # energy    5.94054294 # occ.  1.00000000
 
ion      s     py     pz     px    dxy    dyz    dz2    dxz  x2-y2    tot
    1  0.000  0.000  0.019  0.000  0.000  0.112  0.000  0.337  0.000  0.469
    2  0.000  0.000  0.019  0.000  0.000  0.112  0.000  0.337  0.000  0.469
tot    0.000  0.000  0.038  0.000  0.000  0.225  0.000  0.674  0.000  0.937
 
band     8 # energy    6.28428089 # occ.  1.00000000
 
ion      s     py     pz     px    dxy    dyz    dz2    dxz  x2-y2    tot
    1  0.000  0.001  0.000  0.000  0.120  0.000  0.000  0.000  0.361  0.483
    2  0.000  0.001  0.000  0.000  0.120  0.000  0.000  0.000  0.361  0.483
tot    0.000  0.002  0.000  0.001  0.241  0.000  0.000  0.000  0.723  0.967
 
band     9 # energy    6.30270954 # occ.  1.00000000
 
ion      s     py     pz     px    dxy    dyz    dz2    dxz  x2-y2    tot
    1  0.005  0.001  0.000  0.003  0.103  0.000  0.336  0.000  0.034  0.481
    2  0.005  0.001  0.000  0.003  0.103  0.000  0.336  0.000  0.034  0.481
tot    0.009  0.002  0.000  0.007  0.205  0.000  0.671  0.000  0.068  0.963
 
band    10 # energy    6.43152066 # occ.  1.00000000
 
ion      s     py     pz     px    dxy    dyz    dz2    dxz  x2-y2    tot
    1  0.000  0.001  0.000  0.000  0.121  0.000  0.000  0.000  0.364  0.487
    2  0.000  0.001  0.000  0.000  0.121  0.000  0.000  0.000  0.364  0.487
tot    0.000  0.003  0.000  0.001  0.243  0.000  0.000  0.000  0.728  0.974
 
band    11 # energy    7.04745067 # occ.  1.00000000
 
ion      s     py     pz     px    dxy    dyz    dz2    dxz  x2-y2    tot