<?xml version="1.0" encoding="ISO-8859-1"?>
<modeling>
 <generator>
  <i name="program" type="string">vasp </i>
  <i name="version" type="string">6.3.2  </i>
  <i name="subversion" type="string">27Jun22 (build Aug 12 2022 00:53:59) complex                          parallel </i>
  <i name="platform" type="string">tv2STD </i>
  <i name="date" type="string">2024 12 03 </i>
  <i name="time" type="string">01:30:14 </i>
 </generator>
 <incar>
  <i type="string" name="SYSTEM">Co-hcc</i>
  <i type="int" name="ISTART">     0</i>
  <i type="string" name="PREC">Accurate      normal | accurate</i>
  <i type="string" name="ALGO">Normal     Normal, Fast, Very_Fast</i>
  <i type="logical" name="ADDGRID"> F  </i>
  <i type="int" name="ISPIN">     2</i>
  <i type="int" name="ICHARG">     2</i>
  <i type="int" name="INIWAV">     1</i>
  <i type="int" name="NELM">   100</i>
  <i type="int" name="IBRION">     2</i>
  <i name="EDIFF">      0.00000100</i>
  <i name="EDIFFG">     -0.02000000</i>
  <i type="int" name="NSW">   100</i>
  <i type="int" name="ISIF">     2</i>
  <i type="int" name="ISYM">     1</i>
  <i name="ENCUT">    425.00000000</i>
  <v name="MAGMOM">      3.00000000      3.00000000</v>
  <i type="logical" name="LREAL"> F  </i>
  <i type="int" name="ISMEAR">     0</i>
  <i name="SIGMA">      0.05000000</i>
  <i type="int" name="NWRITE">     2</i>
  <i type="logical" name="LWAVE"> F  </i>
  <i type="logical" name="LCHARG"> F  </i>
  <i type="int" name="LORBIT">    11</i>
 </incar>
 <primitive_cell>
  <structure name="primitive_cell" >
   <crystal>
    <varray name="basis" >
     <v>       1.32090607      -2.28787643       0.00000000 </v>
     <v>       1.32090607       2.28787643       0.00000000 </v>
     <v>       0.00000000       0.00000000       4.26136793 </v>
    </varray>
    <i name="volume">     25.75630329 </i>
    <varray name="rec_basis" >
     <v>       0.37852805      -0.21854327       0.00000000 </v>
     <v>       0.37852805       0.21854327       0.00000000 </v>
     <v>       0.00000000       0.00000000       0.23466643 </v>
    </varray>
   </crystal>
   <varray name="positions" >
    <v>       0.33333333       0.66666667       0.25000000 </v>
    <v>       0.66666667       0.33333333       0.75000000 </v>
   </varray>
  </structure>
  <varray name="primitive_index" >
   <v type="int" >        1 </v>
   <v type="int" >        2 </v>
  </varray>
 </primitive_cell>
 <kpoints>
  <generation param="Gamma">
   <v type="int" name="divisions">      12       12        8 </v>
   <v name="usershift">      0.00000000       0.00000000       0.00000000 </v>
   <v name="genvec1">      0.08333333       0.00000000       0.00000000 </v>
   <v name="genvec2">      0.00000000       0.08333333       0.00000000 </v>
   <v name="genvec3">      0.00000000       0.00000000       0.12500000 </v>
   <v name="shift">      0.00000000       0.00000000       0.00000000 </v>
  </generation>
  <varray name="kpointlist" >
   <v>       0.00000000       0.00000000       0.00000000 </v>
   <v>       0.08333333      -0.00000000       0.00000000 </v>
   <v>       0.16666667      -0.00000000       0.00000000 </v>
   <v>       0.25000000       0.00000000       0.00000000 </v>
   <v>       0.33333333      -0.00000000       0.00000000 </v>
   <v>       0.41666667      -0.00000000       0.00000000 </v>
   <v>       0.50000000       0.00000000       0.00000000 </v>
   <v>       0.08333333       0.08333333       0.00000000 </v>
   <v>       0.16666667       0.08333333       0.00000000 </v>
   <v>       0.25000000       0.08333333       0.00000000 </v>
   <v>       0.33333333       0.08333333       0.00000000 </v>
   <v>       0.41666667       0.08333333       0.00000000 </v>
   <v>       0.16666667       0.16666667       0.00000000 </v>
   <v>       0.25000000       0.16666667       0.00000000 </v>
   <v>       0.33333333       0.16666667       0.00000000 </v>
   <v>       0.41666667       0.16666667       0.00000000 </v>
   <v>       0.25000000       0.25000000       0.00000000 </v>
   <v>       0.33333333       0.25000000       0.00000000 </v>
   <v>       0.33333333       0.33333333       0.00000000 </v>
   <v>       0.00000000       0.00000000       0.12500000 </v>
   <v>       0.08333333      -0.00000000       0.12500000 </v>
   <v>       0.16666667      -0.00000000       0.12500000 </v>
   <v>       0.25000000       0.00000000       0.12500000 </v>
   <v>       0.33333333      -0.00000000       0.12500000 </v>
   <v>       0.41666667      -0.00000000       0.12500000 </v>
   <v>       0.50000000       0.00000000       0.12500000 </v>
   <v>       0.08333333       0.08333333       0.12500000 </v>
   <v>       0.16666667       0.08333333       0.12500000 </v>
   <v>       0.25000000       0.08333333       0.12500000 </v>
   <v>       0.33333333       0.08333333       0.12500000 </v>
   <v>       0.41666667       0.08333333       0.12500000 </v>
   <v>       0.16666667       0.16666667       0.12500000 </v>
   <v>       0.25000000       0.16666667       0.12500000 </v>
   <v>       0.33333333       0.16666667       0.12500000 </v>
   <v>       0.41666667       0.16666667       0.12500000 </v>
   <v>       0.25000000       0.25000000       0.12500000 </v>
   <v>       0.33333333       0.25000000       0.12500000 </v>
   <v>       0.33333333       0.33333333       0.12500000 </v>
   <v>       0.00000000       0.00000000       0.25000000 </v>
   <v>       0.08333333      -0.00000000       0.25000000 </v>
   <v>       0.16666667      -0.00000000       0.25000000 </v>
   <v>       0.25000000       0.00000000       0.25000000 </v>
   <v>       0.33333333      -0.00000000       0.25000000 </v>
   <v>       0.41666667      -0.00000000       0.25000000 </v>
   <v>       0.50000000       0.00000000       0.25000000 </v>
   <v>       0.08333333       0.08333333       0.25000000 </v>
   <v>       0.16666667       0.08333333       0.25000000 </v>
   <v>       0.25000000       0.08333333       0.25000000 </v>
   <v>       0.33333333       0.08333333       0.25000000 </v>
   <v>       0.41666667       0.08333333       0.25000000 </v>
   <v>       0.16666667       0.16666667       0.25000000 </v>
   <v>       0.25000000       0.16666667       0.25000000 </v>
   <v>       0.33333333       0.16666667       0.25000000 </v>
   <v>       0.41666667       0.16666667       0.25000000 </v>
   <v>       0.25000000       0.25000000       0.25000000 </v>
   <v>       0.33333333       0.25000000       0.25000000 </v>
   <v>       0.33333333       0.33333333       0.25000000 </v>
   <v>       0.00000000       0.00000000       0.37500000 </v>
   <v>       0.08333333      -0.00000000       0.37500000 </v>
   <v>       0.16666667      -0.00000000       0.37500000 </v>
   <v>       0.25000000       0.00000000       0.37500000 </v>
   <v>       0.33333333      -0.00000000       0.37500000 </v>
   <v>       0.41666667      -0.00000000       0.37500000 </v>
   <v>       0.50000000       0.00000000       0.37500000 </v>
   <v>       0.08333333       0.08333333       0.37500000 </v>
   <v>       0.16666667       0.08333333       0.37500000 </v>
   <v>       0.25000000       0.08333333       0.37500000 </v>
   <v>       0.33333333       0.08333333       0.37500000 </v>
   <v>       0.41666667       0.08333333       0.37500000 </v>
   <v>       0.16666667       0.16666667       0.37500000 </v>
   <v>       0.25000000       0.16666667       0.37500000 </v>
   <v>       0.33333333       0.16666667       0.37500000 </v>
   <v>       0.41666667       0.16666667       0.37500000 </v>
   <v>       0.25000000       0.25000000       0.37500000 </v>
   <v>       0.33333333       0.25000000       0.37500000 </v>
   <v>       0.33333333       0.33333333       0.37500000 </v>
   <v>       0.00000000       0.00000000       0.50000000 </v>
   <v>       0.08333333      -0.00000000       0.50000000 </v>
   <v>       0.16666667      -0.00000000       0.50000000 </v>
   <v>       0.25000000       0.00000000       0.50000000 </v>
   <v>       0.33333333      -0.00000000       0.50000000 </v>
   <v>       0.41666667      -0.00000000       0.50000000 </v>
   <v>       0.50000000       0.00000000       0.50000000 </v>
   <v>       0.08333333       0.08333333       0.50000000 </v>
   <v>       0.16666667       0.08333333       0.50000000 </v>
   <v>       0.25000000       0.08333333       0.50000000 </v>
   <v>       0.33333333       0.08333333       0.50000000 </v>
   <v>       0.41666667       0.08333333       0.50000000 </v>
   <v>       0.16666667       0.16666667       0.50000000 </v>
   <v>       0.25000000       0.16666667       0.50000000 </v>
   <v>       0.33333333       0.16666667       0.50000000 </v>
   <v>       0.41666667       0.16666667       0.50000000 </v>
   <v>       0.25000000       0.25000000       0.50000000 </v>
   <v>       0.33333333       0.25000000       0.50000000 </v>
   <v>       0.33333333       0.33333333       0.50000000 </v>
  </varray>
  <varray name="weights" >
   <v>       0.00086806 </v>
   <v>       0.00520833 </v>
   <v>       0.00520833 </v>
   <v>       0.00520833 </v>
   <v>       0.00520833 </v>
   <v>       0.00520833 </v>
   <v>       0.00260417 </v>
   <v>       0.00520833 </v>
   <v>       0.01041667 </v>
   <v>       0.01041667 </v>
   <v>       0.01041667 </v>
   <v>       0.01041667 </v>
   <v>       0.00520833 </v>
   <v>       0.01041667 </v>
   <v>       0.01041667 </v>
   <v>       0.00520833 </v>
   <v>       0.00520833 </v>
   <v>       0.01041667 </v>
   <v>       0.00173611 </v>
   <v>       0.00173611 </v>
   <v>       0.01041667 </v>
   <v>       0.01041667 </v>
   <v>       0.01041667 </v>
   <v>       0.01041667 </v>
   <v>       0.01041667 </v>
   <v>       0.00520833 </v>
   <v>       0.01041667 </v>
   <v>       0.02083333 </v>
   <v>       0.02083333 </v>
   <v>       0.02083333 </v>
   <v>       0.02083333 </v>
   <v>       0.01041667 </v>
   <v>       0.02083333 </v>
   <v>       0.02083333 </v>
   <v>       0.01041667 </v>
   <v>       0.01041667 </v>
   <v>       0.02083333 </v>
   <v>       0.00347222 </v>
   <v>       0.00173611 </v>
   <v>       0.01041667 </v>
   <v>       0.01041667 </v>
   <v>       0.01041667 </v>
   <v>       0.01041667 </v>
   <v>       0.01041667 </v>
   <v>       0.00520833 </v>
   <v>       0.01041667 </v>
   <v>       0.02083333 </v>
   <v>       0.02083333 </v>
   <v>       0.02083333 </v>
   <v>       0.02083333 </v>
   <v>       0.01041667 </v>
   <v>       0.02083333 </v>
   <v>       0.02083333 </v>
   <v>       0.01041667 </v>
   <v>       0.01041667 </v>
   <v>       0.02083333 </v>
   <v>       0.00347222 </v>
   <v>       0.00173611 </v>
   <v>       0.01041667 </v>
   <v>       0.01041667 </v>
   <v>       0.01041667 </v>
   <v>       0.01041667 </v>
   <v>       0.01041667 </v>
   <v>       0.00520833 </v>
   <v>       0.01041667 </v>
   <v>       0.02083333 </v>
   <v>       0.02083333 </v>
   <v>       0.02083333 </v>
   <v>       0.02083333 </v>
   <v>       0.01041667 </v>
   <v>       0.02083333 </v>
   <v>       0.02083333 </v>
   <v>       0.01041667 </v>
   <v>       0.01041667 </v>
   <v>       0.02083333 </v>
   <v>       0.00347222 </v>
   <v>       0.00086806 </v>
   <v>       0.00520833 </v>
   <v>       0.00520833 </v>
   <v>       0.00520833 </v>
   <v>       0.00520833 </v>
   <v>       0.00520833 </v>
   <v>       0.00260417 </v>
   <v>       0.00520833 </v>
   <v>       0.01041667 </v>
   <v>       0.01041667 </v>
   <v>       0.01041667 </v>
   <v>       0.01041667 </v>
   <v>       0.00520833 </v>
   <v>       0.01041667 </v>
   <v>       0.01041667 </v>
   <v>       0.00520833 </v>
   <v>       0.00520833 </v>
   <v>       0.01041667 </v>
   <v>       0.00173611 </v>
  </varray>
 </kpoints>
 <parameters>
  <separator name="general" >
   <i type="string" name="SYSTEM">Co-hcc</i>
   <i type="logical" name="LCOMPAT"> F  </i>
  </separator>
  <separator name="electronic" >
   <i type="string" name="PREC">accura</i>
   <i name="ENMAX">    425.00000000</i>
   <i name="ENAUG">    477.81800000</i>
   <i name="EDIFF">      0.00000100</i>
   <i type="int" name="IALGO">    38</i>
   <i type="int" name="IWAVPR">    11</i>
   <i type="int" name="NBANDS">    24</i>
   <i type="int" name="NBANDSLOW">    -1</i>
   <i type="int" name="NBANDSHIGH">    -1</i>
   <i name="NELECT">     18.00000000</i>
   <i type="int" name="TURBO">     0</i>
   <i type="int" name="IRESTART">     0</i>
   <i type="int" name="NREBOOT">     0</i>
   <i type="int" name="NMIN">     0</i>
   <i name="EREF">      0.00000000</i>
   <separator name="electronic smearing" >
    <i type="int" name="ISMEAR">     0</i>
    <i name="SIGMA">      0.05000000</i>
    <i name="KSPACING">      0.50000000</i>
    <i type="logical" name="KGAMMA"> T  </i>
    <i type="logical" name="KBLOWUP"> T  </i>
   </separator>
   <separator name="electronic projectors" >
    <i type="logical" name="LREAL"> F  </i>
    <v name="ROPT">      0.00000000</v>
    <i type="int" name="LMAXPAW">  -100</i>
    <i type="int" name="LMAXMIX">     2</i>
    <i type="logical" name="NLSPLINE"> F  </i>
   </separator>
   <separator name="electronic startup" >
    <i type="int" name="ISTART">     0</i>
    <i type="int" name="ICHARG">     2</i>
    <i type="int" name="INIWAV">     1</i>
   </separator>
   <separator name="electronic spin" >
    <i type="int" name="ISPIN">     2</i>
    <i type="logical" name="LNONCOLLINEAR"> F  </i>
    <v name="MAGMOM">      3.00000000      3.00000000</v>
    <i name="NUPDOWN">     -1.00000000</i>
    <i type="logical" name="LSORBIT"> F  </i>
    <v name="SAXIS">      0.00000000      0.00000000      1.00000000</v>
    <i type="logical" name="LSPIRAL"> F  </i>
    <v name="QSPIRAL">      0.00000000      0.00000000      0.00000000</v>
    <i type="logical" name="LZEROZ"> F  </i>
   </separator>
   <separator name="electronic exchange-correlation" >
    <i type="logical" name="LASPH"> F  </i>
    <i type="logical" name="LMETAGGA"> F  </i>
   </separator>
   <separator name="electronic convergence" >
    <i type="int" name="NELM">   100</i>
    <i type="int" name="NELMDL">    -5</i>
    <i type="int" name="NELMIN">     2</i>
    <i name="ENINI">    425.00000000</i>
    <separator name="electronic convergence detail" >
     <i type="logical" name="LDIAG"> T  </i>
     <i type="logical" name="LSUBROT"> F  </i>
     <i name="WEIMIN">      0.00100000</i>
     <i name="EBREAK">      0.00000001</i>
     <i name="DEPER">      0.30000000</i>
     <i type="int" name="NRMM">     4</i>
     <i name="TIME">      0.40000000</i>
    </separator>
   </separator>
   <separator name="electronic mixer" >
    <i name="AMIX">      0.40000000</i>
    <i name="BMIX">      1.00000000</i>
    <i name="AMIN">      0.10000000</i>
    <i name="AMIX_MAG">      1.60000000</i>
    <i name="BMIX_MAG">      1.00000000</i>
    <separator name="electronic mixer details" >
     <i type="int" name="IMIX">     4</i>
     <i type="logical" name="MIXFIRST"> F  </i>
     <i type="int" name="MAXMIX">   -45</i>
     <i name="WC">    100.00000000</i>
     <i type="int" name="INIMIX">     1</i>
     <i type="int" name="MIXPRE">     1</i>
     <i type="int" name="MREMOVE">     5</i>
    </separator>
   </separator>
   <separator name="electronic dipolcorrection" >
    <i type="logical" name="LDIPOL"> F  </i>
    <i type="logical" name="LMONO"> F  </i>
    <i type="int" name="IDIPOL">     0</i>
    <i name="EPSILON">      1.00000000</i>
    <v name="DIPOL">   -100.00000000   -100.00000000   -100.00000000</v>
    <i name="EFIELD">      0.00000000</i>
   </separator>
  </separator>
  <separator name="grids" >
   <i type="int" name="NGX">    18</i>
   <i type="int" name="NGY">    18</i>
   <i type="int" name="NGZ">    30</i>
   <i type="int" name="NGXF">    36</i>
   <i type="int" name="NGYF">    36</i>
   <i type="int" name="NGZF">    60</i>
   <i type="logical" name="ADDGRID"> F  </i>
  </separator>
  <separator name="ionic" >
   <i type="int" name="NSW">   100</i>
   <i type="int" name="IBRION">     2</i>
   <i type="int" name="MDALGO">     0</i>
   <i type="int" name="ISIF">     2</i>
   <i name="PSTRESS">      0.00000000</i>
   <i name="EDIFFG">     -0.02000000</i>
   <i type="int" name="NFREE">     1</i>
   <i name="POTIM">      0.50000000</i>
   <i name="SMASS">     -3.00000000</i>
   <i name="SCALEE">      1.00000000</i>
  </separator>
  <separator name="ionic md" >
   <i name="TEBEG">      0.00010000</i>
   <i name="TEEND">      0.00010000</i>
   <i type="int" name="NBLOCK">     1</i>
   <i type="int" name="KBLOCK">   100</i>
   <i type="int" name="NPACO">   256</i>
   <i name="APACO">     10.00000000</i>
  </separator>
  <separator name="symmetry" >
   <i type="int" name="ISYM">     1</i>
   <i name="SYMPREC">      0.00001000</i>
  </separator>
  <separator name="dos" >
   <i type="int" name="LORBIT">    11</i>
   <v name="RWIGS">     -1.00000000</v>
   <i type="int" name="NEDOS">   301</i>
   <i name="EMIN">     10.00000000</i>
   <i name="EMAX">    -10.00000000</i>
   <i name="EFERMI">      0.00000000</i>
  </separator>
  <separator name="writing" >
   <i type="int" name="NWRITE">     2</i>
   <i type="logical" name="LWAVE"> F  </i>
   <i type="logical" name="LDOWNSAMPLE"> F  </i>
   <i type="logical" name="LCHARG"> F  </i>
   <i type="logical" name="LPARD"> F  </i>
   <i type="logical" name="LVTOT"> F  </i>
   <i type="logical" name="LVHAR"> F  </i>
   <i type="logical" name="LELF"> F  </i>
   <i type="logical" name="LOPTICS"> F  </i>
   <v name="STM">      0.00000000      0.00000000      0.00000000      0.00000000      0.00000000      0.00000000      0.00000000</v>
  </separator>
  <separator name="performance" >
   <i type="int" name="NPAR">    24</i>
   <i type="int" name="NSIM">     4</i>
   <i type="int" name="NBLK">    -1</i>
   <i type="logical" name="LPLANE"> T  </i>
   <i type="logical" name="LSCALAPACK"> T  </i>
   <i type="logical" name="LSCAAWARE"> F  </i>
   <i type="logical" name="LSCALU"> F  </i>
   <i type="logical" name="LASYNC"> F  </i>
   <i type="logical" name="LORBITALREAL"> F  </i>
  </separator>
  <separator name="miscellaneous" >
   <i type="int" name="IDIOT">     3</i>
   <i type="int" name="PHON_NSTRUCT">    -1</i>
   <i type="logical" name="LMUSIC"> F  </i>
   <v name="POMASS">     58.93300000</v>
   <v name="DARWINR">      0.00000000</v>
   <v name="DARWINV">      1.00000000</v>
   <i type="logical" name="LCORR"> T  </i>
  </separator>
  <i type="logical" name="GGA_COMPAT"> T  </i>
  <i type="logical" name="LBERRY"> F  </i>
  <i type="int" name="ICORELEVEL">     0</i>
  <i type="logical" name="LDAU"> F  </i>
  <i type="int" name="I_CONSTRAINED_M">     0</i>
  <separator name="electronic exchange-correlation" >
   <i type="string" name="GGA">--</i>
   <i type="int" name="VOSKOWN">     0</i>
   <i type="logical" name="LHFCALC"> F  </i>
   <i type="string" name="PRECFOCK"></i>
   <i type="logical" name="LSYMGRAD"> F  </i>
   <i type="logical" name="LHFONE"> F  </i>
   <i type="logical" name="LRHFCALC"> F  </i>
   <i type="logical" name="LTHOMAS"> F  </i>
   <i type="logical" name="LMODELHF"> F  </i>
   <i type="logical" name="LFOCKACE"> F  </i>
   <i name="ENCUT4O">     -1.00000000</i>
   <i type="int" name="EXXOEP">     0</i>
   <i type="int" name="FOURORBIT">     0</i>
   <i name="AEXX">      0.00000000</i>
   <i name="HFALPHA">      0.00000000</i>
   <i name="MCALPHA">      0.00000000</i>
   <i name="ALDAX">      1.00000000</i>
   <i name="AGGAX">      1.00000000</i>
   <i name="ALDAC">      1.00000000</i>
   <i name="AGGAC">      1.00000000</i>
   <i type="int" name="NKREDX">     1</i>
   <i type="int" name="NKREDY">     1</i>
   <i type="int" name="NKREDZ">     1</i>
   <i type="logical" name="SHIFTRED"> F  </i>
   <i type="logical" name="ODDONLY"> F  </i>
   <i type="logical" name="EVENONLY"> F  </i>
   <i type="int" name="LMAXFOCK">     0</i>
   <i type="int" name="NMAXFOCKAE">     0</i>
   <i type="logical" name="LFOCKAEDFT"> F  </i>
   <i name="HFSCREEN">      0.00000000</i>
   <i name="HFSCREENC">      0.00000000</i>
   <i type="int" name="NBANDSGWLOW">     0</i>
  </separator>
  <separator name="vdW DFT" >
   <i type="logical" name="LUSE_VDW"> F  </i>
   <i name="Zab_VDW">     -0.84910000</i>
   <i name="PARAM1">      0.12340000</i>
   <i name="PARAM2">      1.00000000</i>
   <i name="PARAM3">      0.00000000</i>
  </separator>
  <separator name="model GW" >
   <i type="int" name="MODEL_GW">     0</i>
   <i name="MODEL_EPS0">      7.72689099</i>
   <i name="MODEL_ALPHA">      1.00000000</i>
  </separator>
  <separator name="linear response parameters" >
   <i type="logical" name="LEPSILON"> F  </i>
   <i type="logical" name="LRPA"> F  </i>
   <i type="logical" name="LNABLA"> F  </i>
   <i type="logical" name="LVEL"> F  </i>
   <i name="CSHIFT">      0.10000000</i>
   <i name="OMEGAMAX">     -1.00000000</i>
   <i name="DEG_THRESHOLD">      0.00200000</i>
   <i name="RTIME">     -0.10000000</i>
   <i name="WPLASMAI">      0.00000000</i>
   <v name="DFIELD">      0.00000000      0.00000000      0.00000000</v>
   <v name="WPLASMA">      0.00000000      0.00000000      0.00000000      0.00000000      0.00000000      0.00000000      0.00000000      0.00000000      0.00000000</v>
  </separator>
  <separator name="orbital magnetization" >
   <i type="logical" name="NUCIND"> F  </i>
   <v name="MAGPOS">      0.00000000      0.00000000      0.00000000</v>
   <i type="logical" name="LNICSALL"> T  </i>
   <i type="logical" name="ORBITALMAG"> F  </i>
   <i type="logical" name="LMAGBLOCH"> F  </i>
   <i type="logical" name="LCHIMAG"> F  </i>
   <i type="logical" name="LGAUGE"> T  </i>
   <i type="int" name="MAGATOM">     0</i>
   <v name="MAGDIPOL">      0.00000000      0.00000000      0.00000000</v>
   <v name="AVECCONST">      0.00000000      0.00000000      0.00000000</v>
  </separator>
  <separator name="response functions" >
   <i type="logical" name="LFINITE_TEMPERATURE"> F  </i>
   <i type="logical" name="LADDER"> F  </i>
   <i type="logical" name="LRPAFORCE"> F  </i>
   <i type="logical" name="LFXC"> F  </i>
   <i type="logical" name="LHARTREE"> T  </i>
   <i type="int" name="IBSE">     0</i>
   <v type="int" name="KPOINT">    -1     0     0     0</v>
   <i type="logical" name="LTCTC"> F  </i>
   <i type="logical" name="LTCTE"> F  </i>
   <i type="logical" name="LTETE"> F  </i>
   <i type="logical" name="LTRIPLET"> F  </i>
   <i type="logical" name="LFXCEPS"> F  </i>
   <i type="logical" name="LFXHEG"> F  </i>
   <i type="int" name="NATURALO">     2</i>
   <i type="logical" name="LHOLEGF"> F  </i>
   <i type="logical" name="L2ORDER"> F  </i>
   <i type="logical" name="LDMP1"> F  </i>
   <i type="logical" name="LMP2LT"> F  </i>
   <i type="logical" name="LSMP2LT"> F  </i>
   <i type="logical" name="LGWLF"> F  </i>
   <i name="ENCUTGW">     -2.00000000</i>
   <i name="ENCUTGWSOFT">     -2.00000000</i>
   <i name="ENCUTLF">     -1.00000000</i>
   <i type="logical" name="LESF_SPLINES"> F  </i>
   <i type="int" name="LMAXMP2">    -1</i>
   <i name="SCISSOR">      0.00000000</i>
   <i type="int" name="NOMEGA">     0</i>
   <i type="int" name="NOMEGAR">     0</i>
   <i type="int" name="NBANDSGW">    -1</i>
   <i type="int" name="NBANDSO">    -1</i>
   <i type="int" name="NBANDSV">    -1</i>
   <i type="int" name="NELMGW">     1</i>
   <i type="int" name="NELMHF">     1</i>
   <i type="int" name="DIM">     3</i>
   <i type="int" name="IESPILON">     4</i>
   <i type="int" name="ANTIRES">     0</i>
   <i name="OMEGAMAX">    -30.00000000</i>
   <i name="OMEGAMIN">    -30.00000000</i>
   <i name="OMEGATL">   -200.00000000</i>
   <i type="int" name="OMEGAGRID">     0</i>
   <i name="CSHIFT">     -0.10000000</i>
   <i type="logical" name="LSELFENERGY"> F  </i>
   <i type="logical" name="LSPECTRAL"> F  </i>
   <i type="logical" name="LSPECTRALGW"> F  </i>
   <i type="logical" name="LSINGLES"> F  </i>
   <i type="logical" name="LFERMIGW"> F  </i>
   <i type="logical" name="ODDONLYGW"> F  </i>
   <i type="logical" name="EVENONLYGW"> F  </i>
   <i type="int" name="NKREDLFX">     1</i>
   <i type="int" name="NKREDLFY">     1</i>
   <i type="int" name="NKREDLFZ">     1</i>
   <i type="int" name="MAXMEM">  2800</i>
   <i type="int" name="TELESCOPE">     0</i>
   <i type="int" name="NTAUPAR">    -1</i>
   <i type="int" name="NOMEGAPAR">    -1</i>
   <i name="DAMP_NEWTON">      0.80000001</i>
   <i name="LAMBDA">      1.00000000</i>
  </separator>
  <separator name="External order field" >
   <i name="OFIELD_KAPPA">      0.00000000</i>
   <v name="OFIELD_K">      0.00000000      0.00000000      0.00000000</v>
   <i name="OFIELD_Q6_NEAR">      0.00000000</i>
   <i name="OFIELD_Q6_FAR">      0.00000000</i>
   <i name="OFIELD_A">      0.00000000</i>
  </separator>
  <separator name="optional k-points parameters" >
   <i type="int" name="KPOINTS_OPT_MODE">     1</i>
   <i type="logical" name="LKPOINTS_OPT"> F  </i>
  </separator>
 </parameters>
 <atominfo>
  <atoms>       2 </atoms>
  <types>       1 </types>
  <array name="atoms" >
   <dimension dim="1">ion</dimension>
   <field type="string">element</field>
   <field type="int">atomtype</field>
   <set>
    <rc><c>Co</c><c>   1</c></rc>
    <rc><c>Co</c><c>   1</c></rc>
   </set>
  </array>
  <array name="atomtypes" >
   <dimension dim="1">type</dimension>
   <field type="int">atomspertype</field>
   <field type="string">element</field>
   <field>mass</field>
   <field>valence</field>
   <field type="string">pseudopotential</field>
   <set>
    <rc><c>   2</c><c>Co</c><c>     58.93300000</c><c>      9.00000000</c><c>  PAW_PBE Co 02Aug2007                  </c></rc>
   </set>
  </array>
 </atominfo>
 <structure name="initialpos" >
  <crystal>
   <varray name="basis" >
    <v>       1.32090607      -2.28787643       0.00000000 </v>
    <v>       1.32090607       2.28787643       0.00000000 </v>
    <v>       0.00000000       0.00000000       4.26136793 </v>
   </varray>
   <i name="volume">     25.75630329 </i>
   <varray name="rec_basis" >
    <v>       0.37852805      -0.21854327       0.00000000 </v>
    <v>       0.37852805       0.21854327       0.00000000 </v>
    <v>       0.00000000       0.00000000       0.23466643 </v>
   </varray>
  </crystal>
  <varray name="positions" >
   <v>       0.33333333       0.66666667       0.25000000 </v>
   <v>       0.66666667       0.33333333       0.75000000 </v>
  </varray>
 </structure>
 <calculation>
  <scstep>
   <time name="dav">    0.77    0.77</time>
   <time name="total">    0.78    0.79</time>
   <energy>
    <i name="alphaZ">     65.78225208 </i>
    <i name="ewald">  -1437.14579720 </i>
    <i name="hartreedc">   -337.03304404 </i>
    <i name="XCdc">     34.60262851 </i>
    <i name="pawpsdc">   1439.98163886 </i>
    <i name="pawaedc">  -1545.88690193 </i>
    <i name="eentropy">     -0.00293293 </i>
    <i name="bandstr">    158.47929237 </i>
    <i name="atom">   1626.72322989 </i>
    <i name="e_fr_energy">      5.50036563 </i>
    <i name="e_wo_entrp">      5.50329855 </i>
    <i name="e_0_energy">      5.50183209 </i>
   </energy>
  </scstep>
  <scstep>
   <time name="dav">    0.99    1.00</time>
   <time name="total">    0.99    1.00</time>
   <energy>
    <i name="e_fr_energy">    -15.36380449 </i>
    <i name="e_wo_entrp">    -15.36095829 </i>
    <i name="e_0_energy">    -15.36238139 </i>
   </energy>
  </scstep>
  <scstep>
   <time name="dav">    1.21    1.21</time>
   <time name="total">    1.21    1.21</time>
   <energy>
    <i name="e_fr_energy">    -15.50669811 </i>
    <i name="e_wo_entrp">    -15.50388283 </i>
    <i name="e_0_energy">    -15.50529047 </i>
   </energy>
  </scstep>
  <scstep>
   <time name="dav">    1.37    1.37</time>
   <time name="total">    1.37    1.38</time>
   <energy>
    <i name="e_fr_energy">    -15.50773058 </i>
    <i name="e_wo_entrp">    -15.50491888 </i>
    <i name="e_0_energy">    -15.50632473 </i>
   </energy>
  </scstep>
  <scstep>
   <time name="dav">    1.34    1.35</time>
   <time name="total">    1.38    1.39</time>
   <energy>
    <i name="e_fr_energy">    -15.50773627 </i>
    <i name="e_wo_entrp">    -15.50492461 </i>
    <i name="e_0_energy">    -15.50633044 </i>
   </energy>
  </scstep>
  <scstep>
   <time name="dav">    1.25    1.25</time>
   <time name="total">    1.29    1.30</time>
   <energy>
    <i name="e_fr_energy">    -14.44100724 </i>
    <i name="e_wo_entrp">    -14.43853396 </i>
    <i name="e_0_energy">    -14.43977060 </i>
   </energy>
  </scstep>
  <scstep>
   <time name="dav">    1.29    1.30</time>
   <time name="total">    1.33    1.34</time>
   <energy>
    <i name="e_fr_energy">    -13.72842804 </i>
    <i name="e_wo_entrp">    -13.72503500 </i>
    <i name="e_0_energy">    -13.72673152 </i>
   </energy>
  </scstep>
  <scstep>
   <time name="dav">    1.19    1.20</time>
   <time name="total">    1.24    1.24</time>
   <energy>
    <i name="e_fr_energy">    -13.72076360 </i>
    <i name="e_wo_entrp">    -13.71738986 </i>
    <i name="e_0_energy">    -13.71907673 </i>
   </energy>
  </scstep>
  <scstep>
   <time name="dav">    1.71    1.72</time>
   <time name="total">    1.76    1.76</time>
   <energy>
    <i name="e_fr_energy">    -13.71016487 </i>
    <i name="e_wo_entrp">    -13.70677618 </i>
    <i name="e_0_energy">    -13.70847052 </i>
   </energy>
  </scstep>
  <scstep>
   <time name="dav">    1.92    1.93</time>
   <time name="total">    1.96    1.97</time>
   <energy>
    <i name="e_fr_energy">    -13.70867391 </i>
    <i name="e_wo_entrp">    -13.70525127 </i>
    <i name="e_0_energy">    -13.70696259 </i>
   </energy>
  </scstep>
  <scstep>
   <time name="dav">    1.73    1.73</time>
   <time name="total">    1.77    1.78</time>
   <energy>
    <i name="e_fr_energy">    -13.70874964 </i>
    <i name="e_wo_entrp">    -13.70534413 </i>
    <i name="e_0_energy">    -13.70704689 </i>
   </energy>
  </scstep>
  <scstep>
   <time name="dav">    1.30    1.31</time>
   <time name="total">    1.35    1.35</time>
   <energy>
    <i name="e_fr_energy">    -13.70873768 </i>
    <i name="e_wo_entrp">    -13.70533040 </i>
    <i name="e_0_energy">    -13.70703404 </i>
   </energy>
  </scstep>
  <scstep>
   <time name="dav">    1.00    1.00</time>
   <time name="total">    1.01    1.01</time>
   <energy>
    <i name="alphaZ">     65.78225208 </i>
    <i name="ewald">  -1437.14579720 </i>
    <i name="hartreedc">   -301.84075657 </i>
    <i name="XCdc">     32.05987247 </i>
    <i name="pawpsdc">   1652.00934734 </i>
    <i name="pawaedc">  -1756.97602291 </i>
    <i name="eentropy">     -0.00340683 </i>
    <i name="bandstr">    105.68254326 </i>
    <i name="atom">   1626.72322989 </i>
    <i name="e_fr_energy">    -13.70873847 </i>
    <i name="e_wo_entrp">    -13.70533164 </i>
    <i name="e_0_energy">    -13.70703505 </i>
   </energy>
  </scstep>
  <structure>
   <crystal>
    <varray name="basis" >
     <v>       1.32090607      -2.28787643       0.00000000 </v>
     <v>       1.32090607       2.28787643       0.00000000 </v>
     <v>       0.00000000       0.00000000       4.26136793 </v>
    </varray>
    <i name="volume">     25.75630329 </i>
    <varray name="rec_basis" >
     <v>       0.37852805      -0.21854327       0.00000000 </v>
     <v>       0.37852805       0.21854327       0.00000000 </v>
     <v>       0.00000000       0.00000000       0.23466643 </v>
    </varray>
   </crystal>
   <varray name="positions" >
    <v>       0.33333333       0.66666667       0.25000000 </v>
    <v>       0.66666667       0.33333333       0.75000000 </v>
   </varray>
  </structure>
  <varray name="forces" >
   <v>      -0.00000000       0.00000000       0.00000000 </v>
   <v>       0.00000000       0.00000000      -0.00000000 </v>
  </varray>
  <varray name="stress" >
   <v>    -245.92065120      -0.00000000       0.00000000 </v>
   <v>       0.00000000    -245.92065120       0.00000000 </v>
   <v>       0.00000000      -0.00000000    -242.15403039 </v>
  </varray>
  <energy>
   <i name="e_fr_energy">    -13.70873847 </i>
   <i name="e_wo_entrp">    -13.70533164 </i>
   <i name="e_0_energy">    -13.70703505 </i>
  </energy>
  <time name="totalsc">   17.75   17.89</time>
  <eigenvalues>
   <array>
    <dimension dim="1">band</dimension>
    <dimension dim="2">kpoint</dimension>
    <dimension dim="3">spin</dimension>
    <field>eigene</field>
    <field>occ</field>
    <set>
     <set comment="spin 1">
      <set comment="kpoint 1">
       <r>    0.0945    1.0000 </r>
       <r>    3.6028    1.0000 </r>
       <r>    5.5954    1.0000 </r>
       <r>    5.6036    1.0000 </r>
       <r>    5.6036    1.0000 </r>
       <r>    5.8368    1.0000 </r>
       <r>    5.8368    1.0000 </r>
       <r>    6.0856    1.0000 </r>
       <r>    6.0856    1.0000 </r>
       <r>    6.9332    1.0000 </r>
       <r>    6.9332    1.0000 </r>
       <r>    8.1059    0.0171 </r>
       <r>   13.0120    0.0000 </r>
       <r>   28.5168    0.0000 </r>
       <r>   29.5225    0.0000 </r>
       <r>   29.5225    0.0000 </r>
       <r>   31.0461    0.0000 </r>
       <r>   31.0461    0.0000 </r>
       <r>   31.1178    0.0000 </r>
       <r>   31.6725    0.0000 </r>
       <r>   36.0071    0.0000 </r>
       <r>   36.0071    0.0000 </r>
       <r>   36.0799    0.0000 </r>
       <r>   37.2150    0.0000 </r>
      </set>
      <set comment="kpoint 2">
       <r>    0.3078    1.0000 </r>
       <r>    3.7223    1.0000 </r>
       <r>    5.4299    1.0000 </r>
       <r>    5.6901    1.0000 </r>
       <r>    5.7429    1.0000 </r>
       <r>    5.8047    1.0000 </r>
       <r>    5.9130    1.0000 </r>
       <r>    5.9851    1.0000 </r>
       <r>    6.0332    1.0000 </r>
       <r>    6.4441    1.0000 </r>
       <r>    6.9551    1.0000 </r>
       <r>    8.8572    0.0000 </r>
       <r>   13.0656    0.0000 </r>
       <r>   26.0509    0.0000 </r>
       <r>   27.7412    0.0000 </r>
       <r>   28.3653    0.0000 </r>
       <r>   31.6955    0.0000 </r>
       <r>   31.7506    0.0000 </r>
       <r>   33.0546    0.0000 </r>
       <r>   33.0807    0.0000 </r>
       <r>   33.7806    0.0000 </r>
       <r>   35.3424    0.0000 </r>
       <r>   35.5394    0.0000 </r>
       <r>   35.6475    0.0000 </r>
      </set>
      <set comment="kpoint 3">
       <r>    0.9287    1.0000 </r>
       <r>    4.0179    1.0000 </r>
       <r>    5.2297    1.0000 </r>
       <r>    5.4994    1.0000 </r>
       <r>    5.6782    1.0000 </r>
       <r>    5.9031    1.0000 </r>
       <r>    5.9336    1.0000 </r>
       <r>    5.9754    1.0000 </r>
       <r>    6.1005    1.0000 </r>
       <r>    6.1263    1.0000 </r>
       <r>    7.0022    1.0000 </r>
       <r>   10.1777    0.0000 </r>
       <r>   13.2485    0.0000 </r>
       <r>   22.3511    0.0000 </r>
       <r>   25.6433    0.0000 </r>
       <r>   27.5141    0.0000 </r>
       <r>   29.3228    0.0000 </r>
       <r>   31.3478    0.0000 </r>
       <r>   31.7972    0.0000 </r>
       <r>   33.5712    0.0000 </r>
       <r>   34.3965    0.0000 </r>
       <r>   34.4075    0.0000 </r>
       <r>   34.8676    0.0000 </r>
       <r>   35.9571    0.0000 </r>
      </set>
      <set comment="kpoint 4">
       <r>    1.8809    1.0000 </r>
       <r>    4.2580    1.0000 </r>
       <r>    4.9418    1.0000 </r>
       <r>    5.1177    1.0000 </r>
       <r>    5.6127    1.0000 </r>
       <r>    5.7457    1.0000 </r>
       <r>    5.9405    1.0000 </r>
       <r>    6.2843    1.0000 </r>
       <r>    6.3027    1.0000 </r>
       <r>    6.4315    1.0000 </r>
       <r>    7.0475    1.0000 </r>
       <r>   11.7303    0.0000 </r>
       <r>   13.6060    0.0000 </r>
       <r>   18.8788    0.0000 </r>
       <r>   23.8358    0.0000 </r>
       <r>   26.1340    0.0000 </r>
       <r>   26.2934    0.0000 </r>
       <r>   28.7718    0.0000 </r>
       <r>   30.7209    0.0000 </r>
       <r>   32.8742    0.0000 </r>
       <r>   33.6706    0.0000 </r>
       <r>   34.3862    0.0000 </r>
       <r>   35.1247    0.0000 </r>
       <r>   37.9134    0.0000 </r>
      </set>
      <set comment="kpoint 5">
       <r>    2.9475    1.0000 </r>
       <r>    4.2139    1.0000 </r>
       <r>    4.5312    1.0000 </r>
       <r>    5.2252    1.0000 </r>
       <r>    5.6030    1.0000 </r>
       <r>    5.7117    1.0000 </r>
       <r>    5.8072    1.0000 </r>
       <r>    6.6539    1.0000 </r>
       <r>    6.7611    1.0000 </r>
       <r>    6.8401    1.0000 </r>
       <r>    7.0788    1.0000 </r>
       <r>   13.4607    0.0000 </r>
       <r>   13.8907    0.0000 </r>
       <r>   16.1139    0.0000 </r>
       <r>   22.4191    0.0000 </r>
       <r>   23.2390    0.0000 </r>
       <r>   23.8815    0.0000 </r>
       <r>   27.6049    0.0000 </r>
       <r>   29.6532    0.0000 </r>
       <r>   31.3291    0.0000 </r>
       <r>   33.1634    0.0000 </r>
       <r>   34.9124    0.0000 </r>
       <r>   36.7852    0.0000 </r>
       <r>   39.1117    0.0000 </r>
      </set>
      <set comment="kpoint 6">
       <r>    3.6724    1.0000 </r>
       <r>    4.0683    1.0000 </r>
       <r>    4.2863    1.0000 </r>
       <r>    5.5054    1.0000 </r>
       <r>    5.5421    1.0000 </r>
       <r>    5.7139    1.0000 </r>
       <r>    5.8695    1.0000 </r>
       <r>    6.9273    1.0000 </r>
       <r>    7.0322    1.0000 </r>
       <r>    7.0959    1.0000 </r>
       <r>    7.7904    1.0000 </r>
       <r>   12.1968    0.0000 </r>
       <r>   15.2817    0.0000 </r>
       <r>   16.1175    0.0000 </r>
       <r>   20.7280    0.0000 </r>
       <r>   21.2891    0.0000 </r>
       <r>   21.4996    0.0000 </r>
       <r>   27.2396    0.0000 </r>
       <r>   28.9612    0.0000 </r>
       <r>   30.3433    0.0000 </r>
       <r>   32.8700    0.0000 </r>
       <r>   35.2218    0.0000 </r>
       <r>   38.9462    0.0000 </r>
       <r>   39.8409    0.0000 </r>
      </set>
      <set comment="kpoint 7">
       <r>    3.9019    1.0000 </r>
       <r>    3.9661    1.0000 </r>
       <r>    4.2051    1.0000 </r>
       <r>    5.4707    1.0000 </r>
       <r>    5.6803    1.0000 </r>
       <r>    5.7542    1.0000 </r>
       <r>    5.9263    1.0000 </r>
       <r>    7.0257    1.0000 </r>
       <r>    7.1012    1.0000 </r>
       <r>    7.1408    1.0000 </r>
       <r>    8.9000    0.0000 </r>
       <r>   10.5163    0.0000 </r>
       <r>   16.4860    0.0000 </r>
       <r>   16.9225    0.0000 </r>
       <r>   19.2955    0.0000 </r>
       <r>   19.8640    0.0000 </r>
       <r>   21.1783    0.0000 </r>
       <r>   27.1433    0.0000 </r>
       <r>   28.7246    0.0000 </r>
       <r>   30.0034    0.0000 </r>
       <r>   32.7740    0.0000 </r>
       <r>   35.3356    0.0000 </r>
       <r>   40.0630    0.0000 </r>
       <r>   41.4780    0.0000 </r>
      </set>
      <set comment="kpoint 8">
       <r>    0.7256    1.0000 </r>
       <r>    3.9344    1.0000 </r>
       <r>    5.2711    1.0000 </r>
       <r>    5.6856    1.0000 </r>
       <r>    5.7273    1.0000 </r>
       <r>    5.8628    1.0000 </r>
       <r>    5.8665    1.0000 </r>
       <r>    5.8856    1.0000 </r>
       <r>    6.0820    1.0000 </r>
       <r>    6.1916    1.0000 </r>
       <r>    6.9829    1.0000 </r>
       <r>    9.7989    0.0000 </r>
       <r>   13.1852    0.0000 </r>
       <r>   24.1253    0.0000 </r>
       <r>   24.4410    0.0000 </r>
       <r>   29.6998    0.0000 </r>
       <r>   30.9023    0.0000 </r>
       <r>   30.9406    0.0000 </r>
       <r>   31.0522    0.0000 </r>
       <r>   33.4209    0.0000 </r>
       <r>   33.5153    0.0000 </r>
       <r>   33.9311    0.0000 </r>
       <r>   36.8549    0.0000 </r>
       <r>   37.2043    0.0000 </r>
      </set>
      <set comment="kpoint 9">
       <r>    1.5185    1.0000 </r>
       <r>    4.2369    1.0000 </r>
       <r>    5.0731    1.0000 </r>
       <r>    5.1502    1.0000 </r>
       <r>    5.6408    1.0000 </r>
       <r>    5.7214    1.0000 </r>
       <r>    6.0556    1.0000 </r>
       <r>    6.0582    1.0000 </r>
       <r>    6.1872    1.0000 </r>
       <r>    6.3985    1.0000 </r>
       <r>    7.0172    1.0000 </r>
       <r>   11.1636    0.0000 </r>
       <r>   13.4698    0.0000 </r>
       <r>   20.6672    0.0000 </r>
       <r>   22.6824    0.0000 </r>
       <r>   27.7902    0.0000 </r>
       <r>   28.4558    0.0000 </r>
       <r>   29.6779    0.0000 </r>
       <r>   30.5543    0.0000 </r>
       <r>   31.3338    0.0000 </r>
       <r>   33.9452    0.0000 </r>
       <r>   34.7144    0.0000 </r>
       <r>   36.6996    0.0000 </r>
       <r>   37.1065    0.0000 </r>
      </set>
      <set comment="kpoint 10">
       <r>    2.5583    1.0000 </r>
       <r>    4.3418    1.0000 </r>
       <r>    4.6999    1.0000 </r>
       <r>    5.0348    1.0000 </r>
       <r>    5.5816    1.0000 </r>
       <r>    5.6546    1.0000 </r>
       <r>    5.9104    1.0000 </r>
       <r>    6.3597    1.0000 </r>
       <r>    6.5642    1.0000 </r>
       <r>    6.8352    1.0000 </r>
       <r>    7.0464    1.0000 </r>
       <r>   12.7749    0.0000 </r>
       <r>   13.9348    0.0000 </r>
       <r>   17.4175    0.0000 </r>
       <r>   21.3221    0.0000 </r>
       <r>   24.7616    0.0000 </r>
       <r>   25.6526    0.0000 </r>
       <r>   28.5338    0.0000 </r>
       <r>   29.6426    0.0000 </r>
       <r>   30.0598    0.0000 </r>
       <r>   34.6509    0.0000 </r>
       <r>   36.4462    0.0000 </r>
       <r>   36.6490    0.0000 </r>
       <r>   37.7147    0.0000 </r>
      </set>
      <set comment="kpoint 11">
       <r>    3.4996    1.0000 </r>
       <r>    4.2108    1.0000 </r>
       <r>    4.3952    1.0000 </r>
       <r>    5.2371    1.0000 </r>
       <r>    5.4892    1.0000 </r>
       <r>    5.7676    1.0000 </r>
       <r>    5.8049    1.0000 </r>
       <r>    6.7371    1.0000 </r>
       <r>    6.8833    1.0000 </r>
       <r>    7.0647    1.0000 </r>
       <r>    7.4994    1.0000 </r>
       <r>   13.4661    0.0000 </r>
       <r>   14.5583    0.0000 </r>
       <r>   15.8351    0.0000 </r>
       <r>   20.2967    0.0000 </r>
       <r>   22.0417    0.0000 </r>
       <r>   22.7674    0.0000 </r>
       <r>   27.7326    0.0000 </r>
       <r>   29.0907    0.0000 </r>
       <r>   29.1026    0.0000 </r>
       <r>   34.5796    0.0000 </r>
       <r>   36.7968    0.0000 </r>
       <r>   38.1442    0.0000 </r>
       <r>   39.4854    0.0000 </r>
      </set>
      <set comment="kpoint 12">
       <r>    3.9299    1.0000 </r>
       <r>    4.0804    1.0000 </r>
       <r>    4.2433    1.0000 </r>
       <r>    5.4505    1.0000 </r>
       <r>    5.5500    1.0000 </r>
       <r>    5.6744    1.0000 </r>
       <r>    5.9240    1.0000 </r>
       <r>    7.0001    1.0000 </r>
       <r>    7.0540    1.0000 </r>
       <r>    7.0728    1.0000 </r>
       <r>    8.6872    0.0000 </r>
       <r>   11.2546    0.0000 </r>
       <r>   16.2918    0.0000 </r>
       <r>   16.7864    0.0000 </r>
       <r>   19.6239    0.0000 </r>
       <r>   19.8451    0.0000 </r>
       <r>   20.5893    0.0000 </r>
       <r>   27.3215    0.0000 </r>
       <r>   28.5641    0.0000 </r>
       <r>   28.8490    0.0000 </r>
       <r>   34.4104    0.0000 </r>
       <r>   36.9440    0.0000 </r>
       <r>   40.0790    0.0000 </r>
       <r>   40.3924    0.0000 </r>
      </set>
      <set comment="kpoint 13">
       <r>    2.4196    1.0000 </r>
       <r>    4.4793    1.0000 </r>
       <r>    4.7890    1.0000 </r>
       <r>    4.8561    1.0000 </r>
       <r>    5.5311    1.0000 </r>
       <r>    5.6517    1.0000 </r>
       <r>    5.9777    1.0000 </r>
       <r>    6.1816    1.0000 </r>
       <r>    6.5572    1.0000 </r>
       <r>    6.8515    1.0000 </r>
       <r>    7.0185    1.0000 </r>
       <r>   12.5419    0.0000 </r>
       <r>   13.9218    0.0000 </r>
       <r>   19.1925    0.0000 </r>
       <r>   19.3397    0.0000 </r>
       <r>   26.4621    0.0000 </r>
       <r>   26.6880    0.0000 </r>
       <r>   27.4824    0.0000 </r>
       <r>   28.0515    0.0000 </r>
       <r>   32.4549    0.0000 </r>
       <r>   34.4800    0.0000 </r>
       <r>   35.0050    0.0000 </r>
       <r>   38.1414    0.0000 </r>
       <r>   39.3301    0.0000 </r>
      </set>
      <set comment="kpoint 14">
       <r>    3.4196    1.0000 </r>
       <r>    4.4750    1.0000 </r>
       <r>    4.5043    1.0000 </r>
       <r>    4.8464    1.0000 </r>
       <r>    5.4161    1.0000 </r>
       <r>    5.7656    1.0000 </r>
       <r>    5.8348    1.0000 </r>
       <r>    6.4137    1.0000 </r>
       <r>    6.8865    1.0000 </r>
       <r>    7.0169    1.0000 </r>
       <r>    7.5022    1.0000 </r>
       <r>   14.1908    0.0000 </r>
       <r>   14.4509    0.0000 </r>
       <r>   16.3931    0.0000 </r>
       <r>   18.1816    0.0000 </r>
       <r>   23.7067    0.0000 </r>
       <r>   24.5720    0.0000 </r>
       <r>   25.6605    0.0000 </r>
       <r>   26.8252    0.0000 </r>
       <r>   32.5525    0.0000 </r>
       <r>   36.3152    0.0000 </r>
       <r>   36.8869    0.0000 </r>
       <r>   38.7515    0.0000 </r>
       <r>   39.2200    0.0000 </r>
      </set>
      <set comment="kpoint 15">
       <r>    4.0596    1.0000 </r>
       <r>    4.3225    1.0000 </r>
       <r>    4.3291    1.0000 </r>
       <r>    5.1066    1.0000 </r>
       <r>    5.3836    1.0000 </r>
       <r>    5.6814    1.0000 </r>
       <r>    5.9208    1.0000 </r>
       <r>    6.7194    1.0000 </r>
       <r>    7.0149    1.0000 </r>
       <r>    7.0478    1.0000 </r>
       <r>    8.5497    0.0000 </r>
       <r>   12.8101    0.0000 </r>
       <r>   16.0046    0.0000 </r>
       <r>   16.4458    0.0000 </r>
       <r>   17.5003    0.0000 </r>
       <r>   21.1696    0.0000 </r>
       <r>   21.8484    0.0000 </r>
       <r>   25.1076    0.0000 </r>
       <r>   26.1412    0.0000 </r>
       <r>   32.2148    0.0000 </r>
       <r>   37.0526    0.0000 </r>
       <r>   39.2254    0.0000 </r>
       <r>   40.0917    0.0000 </r>
       <r>   40.1272    0.0000 </r>
      </set>
      <set comment="kpoint 16">
       <r>    4.2102    1.0000 </r>
       <r>    4.2530    1.0000 </r>
       <r>    4.2706    1.0000 </r>
       <r>    5.2903    1.0000 </r>
       <r>    5.3945    1.0000 </r>
       <r>    5.6029    1.0000 </r>
       <r>    5.9862    1.0000 </r>
       <r>    6.9238    1.0000 </r>
       <r>    7.0140    1.0000 </r>
       <r>    7.0313    1.0000 </r>
       <r>    9.8050    0.0000 </r>
       <r>   10.9941    0.0000 </r>
       <r>   17.0377    0.0000 </r>
       <r>   17.3007    0.0000 </r>
       <r>   17.5710    0.0000 </r>
       <r>   19.6345    0.0000 </r>
       <r>   20.3658    0.0000 </r>
       <r>   24.9225    0.0000 </r>
       <r>   25.9035    0.0000 </r>
       <r>   32.0869    0.0000 </r>
       <r>   37.1528    0.0000 </r>
       <r>   39.8072    0.0000 </r>
       <r>   40.2951    0.0000 </r>
       <r>   41.9155    0.0000 </r>
      </set>
      <set comment="kpoint 17">
       <r>    4.1574    1.0000 </r>
       <r>    4.3784    1.0000 </r>
       <r>    4.6254    1.0000 </r>
       <r>    4.6928    1.0000 </r>
       <r>    5.3381    1.0000 </r>
       <r>    5.6918    1.0000 </r>
       <r>    5.9260    1.0000 </r>
       <r>    6.5481    1.0000 </r>
       <r>    6.9851    1.0000 </r>
       <r>    7.0529    1.0000 </r>
       <r>    8.5320    0.0000 </r>
       <r>   14.4822    0.0000 </r>
       <r>   15.1148    0.0000 </r>
       <r>   15.8904    0.0000 </r>
       <r>   16.7858    0.0000 </r>
       <r>   22.6768    0.0000 </r>
       <r>   23.2947    0.0000 </r>
       <r>   23.4418    0.0000 </r>
       <r>   24.1544    0.0000 </r>
       <r>   35.5050    0.0000 </r>
       <r>   36.8755    0.0000 </r>
       <r>   38.1298    0.0000 </r>
       <r>   39.9990    0.0000 </r>
       <r>   41.9154    0.0000 </r>
      </set>
      <set comment="kpoint 18">
       <r>    4.3191    1.0000 </r>
       <r>    4.4199    1.0000 </r>
       <r>    4.5265    1.0000 </r>
       <r>    4.9387    1.0000 </r>
       <r>    5.3535    1.0000 </r>
       <r>    5.5438    1.0000 </r>
       <r>    6.0534    1.0000 </r>
       <r>    6.7538    1.0000 </r>
       <r>    6.9663    1.0000 </r>
       <r>    7.0117    1.0000 </r>
       <r>   10.0697    0.0000 </r>
       <r>   12.3420    0.0000 </r>
       <r>   14.5202    0.0000 </r>
       <r>   17.7184    0.0000 </r>
       <r>   17.9490    0.0000 </r>
       <r>   20.5318    0.0000 </r>
       <r>   21.3263    0.0000 </r>
       <r>   22.7690    0.0000 </r>
       <r>   23.4569    0.0000 </r>
       <r>   35.8056    0.0000 </r>
       <r>   39.5988    0.0000 </r>
       <r>   39.6479    0.0000 </r>
       <r>   41.3629    0.0000 </r>
       <r>   42.2152    0.0000 </r>
      </set>
      <set comment="kpoint 19">
       <r>    4.3237    1.0000 </r>
       <r>    4.5858    1.0000 </r>
       <r>    4.5858    1.0000 </r>
       <r>    4.8569    1.0000 </r>
       <r>    5.4145    1.0000 </r>
       <r>    5.4145    1.0000 </r>
       <r>    6.1281    1.0000 </r>
       <r>    6.8624    1.0000 </r>
       <r>    6.8624    1.0000 </r>
       <r>    6.9469    1.0000 </r>
       <r>   11.7989    0.0000 </r>
       <r>   12.2807    0.0000 </r>
       <r>   12.2807    0.0000 </r>
       <r>   18.8669    0.0000 </r>
       <r>   19.4874    0.0000 </r>
       <r>   19.4874    0.0000 </r>
       <r>   21.6037    0.0000 </r>
       <r>   21.6037    0.0000 </r>
       <r>   21.6242    0.0000 </r>
       <r>   38.6268    0.0000 </r>
       <r>   40.1104    0.0000 </r>
       <r>   40.1104    0.0000 </r>
       <r>   42.0561    0.0000 </r>
       <r>   42.0561    0.0000 </r>
      </set>
      <set comment="kpoint 20">
       <r>    0.2336    1.0000 </r>
       <r>    3.5678    1.0000 </r>
       <r>    5.5652    1.0000 </r>
       <r>    5.5696    1.0000 </r>
       <r>    5.5696    1.0000 </r>
       <r>    5.8042    1.0000 </r>
       <r>    5.8042    1.0000 </r>
       <r>    6.1619    1.0000 </r>
       <r>    6.1619    1.0000 </r>
       <r>    6.9264    1.0000 </r>
       <r>    6.9264    1.0000 </r>
       <r>    7.4686    1.0000 </r>
       <r>   13.9447    0.0000 </r>
       <r>   28.5054    0.0000 </r>
       <r>   29.6580    0.0000 </r>
       <r>   29.6580    0.0000 </r>
       <r>   30.0993    0.0000 </r>
       <r>   30.8704    0.0000 </r>
       <r>   31.1004    0.0000 </r>
       <r>   31.1004    0.0000 </r>
       <r>   35.5058    0.0000 </r>
       <r>   35.5058    0.0000 </r>
       <r>   36.5675    0.0000 </r>
       <r>   36.9966    0.0000 </r>
      </set>
      <set comment="kpoint 21">
       <r>    0.4452    1.0000 </r>
       <r>    3.6951    1.0000 </r>
       <r>    5.4272    1.0000 </r>
       <r>    5.6462    1.0000 </r>
       <r>    5.6593    1.0000 </r>
       <r>    5.7314    1.0000 </r>
       <r>    5.8767    1.0000 </r>
       <r>    6.0942    1.0000 </r>
       <r>    6.1249    1.0000 </r>
       <r>    6.3743    1.0000 </r>
       <r>    6.9452    1.0000 </r>
       <r>    8.2565    0.0000 </r>
       <r>   14.0474    0.0000 </r>
       <r>   26.1561    0.0000 </r>
       <r>   27.8825    0.0000 </r>
       <r>   28.3891    0.0000 </r>
       <r>   30.1557    0.0000 </r>
       <r>   31.1357    0.0000 </r>
       <r>   32.4910    0.0000 </r>
       <r>   33.0198    0.0000 </r>
       <r>   34.4709    0.0000 </r>
       <r>   34.6616    0.0000 </r>
       <r>   35.0240    0.0000 </r>
       <r>   36.5453    0.0000 </r>
      </set>
      <set comment="kpoint 22">
       <r>    1.0594    1.0000 </r>
       <r>    4.0139    1.0000 </r>
       <r>    5.2416    1.0000 </r>
       <r>    5.3724    1.0000 </r>
       <r>    5.6357    1.0000 </r>
       <r>    5.8044    1.0000 </r>
       <r>    5.9290    1.0000 </r>
       <r>    6.0425    1.0000 </r>
       <r>    6.1310    1.0000 </r>
       <r>    6.2028    1.0000 </r>
       <r>    6.9853    1.0000 </r>
       <r>    9.3811    0.0000 </r>
       <r>   14.3851    0.0000 </r>
       <r>   22.4752    0.0000 </r>
       <r>   25.8044    0.0000 </r>
       <r>   27.3112    0.0000 </r>
       <r>   28.6571    0.0000 </r>
       <r>   30.4958    0.0000 </r>
       <r>   31.9150    0.0000 </r>
       <r>   32.7208    0.0000 </r>
       <r>   33.3581    0.0000 </r>
       <r>   34.5365    0.0000 </r>
       <r>   35.8380    0.0000 </r>
       <r>   36.9511    0.0000 </r>
      </set>
      <set comment="kpoint 23">
       <r>    1.9934    1.0000 </r>
       <r>    4.2805    1.0000 </r>
       <r>    4.8747    1.0000 </r>
       <r>    5.1390    1.0000 </r>
       <r>    5.5393    1.0000 </r>
       <r>    5.7620    1.0000 </r>
       <r>    5.9531    1.0000 </r>
       <r>    6.3101    1.0000 </r>
       <r>    6.3495    1.0000 </r>
       <r>    6.4055    1.0000 </r>
       <r>    7.0239    1.0000 </r>
       <r>   10.5965    0.0000 </r>
       <r>   15.0151    0.0000 </r>
       <r>   19.0101    0.0000 </r>
       <r>   24.0146    0.0000 </r>
       <r>   24.7831    0.0000 </r>
       <r>   27.1347    0.0000 </r>
       <r>   29.3630    0.0000 </r>
       <r>   30.1977    0.0000 </r>
       <r>   31.2960    0.0000 </r>
       <r>   33.0139    0.0000 </r>
       <r>   35.3246    0.0000 </r>
       <r>   35.3866    0.0000 </r>
       <r>   39.2830    0.0000 </r>
      </set>
      <set comment="kpoint 24">
       <r>    3.0085    1.0000 </r>
       <r>    4.2353    1.0000 </r>
       <r>    4.5441    1.0000 </r>
       <r>    5.1334    1.0000 </r>
       <r>    5.6431    1.0000 </r>
       <r>    5.6681    1.0000 </r>
       <r>    5.9984    1.0000 </r>
       <r>    6.6671    1.0000 </r>
       <r>    6.7185    1.0000 </r>
       <r>    6.8057    1.0000 </r>
       <r>    7.0543    1.0000 </r>
       <r>   11.8216    0.0000 </r>
       <r>   15.4147    0.0000 </r>
       <r>   16.5436    0.0000 </r>
       <r>   21.9090    0.0000 </r>
       <r>   22.6130    0.0000 </r>
       <r>   25.2910    0.0000 </r>
       <r>   27.7520    0.0000 </r>
       <r>   29.3512    0.0000 </r>
       <r>   30.0751    0.0000 </r>
       <r>   33.9466    0.0000 </r>
       <r>   34.5309    0.0000 </r>
       <r>   36.1915    0.0000 </r>
       <r>   41.1428    0.0000 </r>
      </set>
      <set comment="kpoint 25">
       <r>    3.6263    1.0000 </r>
       <r>    4.0712    1.0000 </r>
       <r>    4.4339    1.0000 </r>
       <r>    5.1437    1.0000 </r>
       <r>    5.5543    1.0000 </r>
       <r>    5.8691    1.0000 </r>
       <r>    6.2037    1.0000 </r>
       <r>    6.9194    1.0000 </r>
       <r>    6.9747    1.0000 </r>
       <r>    7.0923    1.0000 </r>
       <r>    7.7341    1.0000 </r>
       <r>   11.8834    0.0000 </r>
       <r>   14.4717    0.0000 </r>
       <r>   17.1024    0.0000 </r>
       <r>   19.8373    0.0000 </r>
       <r>   21.7041    0.0000 </r>
       <r>   22.7953    0.0000 </r>
       <r>   27.3008    0.0000 </r>
       <r>   28.7465    0.0000 </r>
       <r>   29.2512    0.0000 </r>
       <r>   34.0837    0.0000 </r>
       <r>   35.0560    0.0000 </r>
       <r>   36.8394    0.0000 </r>
       <r>   40.6694    0.0000 </r>
      </set>
      <set comment="kpoint 26">
       <r>    3.7638    1.0000 </r>
       <r>    3.9900    1.0000 </r>
       <r>    4.4276    1.0000 </r>
       <r>    5.1600    1.0000 </r>
       <r>    5.5223    1.0000 </r>
       <r>    5.9307    1.0000 </r>
       <r>    6.3467    1.0000 </r>
       <r>    6.9852    1.0000 </r>
       <r>    7.0711    1.0000 </r>
       <r>    7.1375    1.0000 </r>
       <r>    8.8485    0.0000 </r>
       <r>   10.4675    0.0000 </r>
       <r>   15.8233    0.0000 </r>
       <r>   16.0959    0.0000 </r>
       <r>   20.3720    0.0000 </r>
       <r>   20.8244    0.0000 </r>
       <r>   21.3868    0.0000 </r>
       <r>   27.1925    0.0000 </r>
       <r>   28.5343    0.0000 </r>
       <r>   28.9601    0.0000 </r>
       <r>   33.9407    0.0000 </r>
       <r>   35.5699    0.0000 </r>
       <r>   37.2879    0.0000 </r>
       <r>   39.7674    0.0000 </r>
      </set>
      <set comment="kpoint 27">
       <r>    0.8588    1.0000 </r>
       <r>    3.9230    1.0000 </r>
       <r>    5.2804    1.0000 </r>
       <r>    5.5062    1.0000 </r>
       <r>    5.6897    1.0000 </r>
       <r>    5.7676    1.0000 </r>
       <r>    5.8878    1.0000 </r>
       <r>    5.9875    1.0000 </r>
       <r>    6.1341    1.0000 </r>
       <r>    6.2217    1.0000 </r>
       <r>    6.9693    1.0000 </r>
       <r>    9.0703    0.0000 </r>
       <r>   14.2689    0.0000 </r>
       <r>   24.2385    0.0000 </r>
       <r>   24.5758    0.0000 </r>
       <r>   29.3984    0.0000 </r>
       <r>   29.5485    0.0000 </r>
       <r>   30.3202    0.0000 </r>
       <r>   31.7005    0.0000 </r>
       <r>   31.8427    0.0000 </r>
       <r>   34.4402    0.0000 </r>
       <r>   34.5354    0.0000 </r>
       <r>   36.5638    0.0000 </r>
       <r>   36.7022    0.0000 </r>
      </set>
      <set comment="kpoint 28">
       <r>    1.6402    1.0000 </r>
       <r>    4.2546    1.0000 </r>
       <r>    5.0453    1.0000 </r>
       <r>    5.0984    1.0000 </r>
       <r>    5.5887    1.0000 </r>
       <r>    5.7400    1.0000 </r>
       <r>    5.9484    1.0000 </r>
       <r>    6.1168    1.0000 </r>
       <r>    6.2898    1.0000 </r>
       <r>    6.3847    1.0000 </r>
       <r>    7.0013    1.0000 </r>
       <r>   10.1682    0.0000 </r>
       <r>   14.7671    0.0000 </r>
       <r>   20.7976    0.0000 </r>
       <r>   22.8219    0.0000 </r>
       <r>   26.5557    0.0000 </r>
       <r>   28.5780    0.0000 </r>
       <r>   29.3731    0.0000 </r>
       <r>   30.9895    0.0000 </r>
       <r>   31.9382    0.0000 </r>
       <r>   32.6735    0.0000 </r>
       <r>   34.2592    0.0000 </r>
       <r>   36.8281    0.0000 </r>
       <r>   38.2485    0.0000 </r>
      </set>
      <set comment="kpoint 29">
       <r>    2.6489    1.0000 </r>
       <r>    4.3754    1.0000 </r>
       <r>    4.6551    1.0000 </r>
       <r>    5.0516    1.0000 </r>
       <r>    5.5201    1.0000 </r>
       <r>    5.7214    1.0000 </r>
       <r>    5.9066    1.0000 </r>
       <r>    6.3660    1.0000 </r>
       <r>    6.6051    1.0000 </r>
       <r>    6.7699    1.0000 </r>
       <r>    7.0540    1.0000 </r>
       <r>   11.3876    0.0000 </r>
       <r>   15.5446    0.0000 </r>
       <r>   17.5641    0.0000 </r>
       <r>   21.4713    0.0000 </r>
       <r>   23.4875    0.0000 </r>
       <r>   27.0112    0.0000 </r>
       <r>   27.5073    0.0000 </r>
       <r>   29.7698    0.0000 </r>
       <r>   31.0532    0.0000 </r>
       <r>   32.9682    0.0000 </r>
       <r>   35.2277    0.0000 </r>
       <r>   37.6743    0.0000 </r>
       <r>   38.9546    0.0000 </r>
      </set>
      <set comment="kpoint 30">
       <r>    3.5086    1.0000 </r>
       <r>    4.2294    1.0000 </r>
       <r>    4.4622    1.0000 </r>
       <r>    5.0794    1.0000 </r>
       <r>    5.5432    1.0000 </r>
       <r>    5.8016    1.0000 </r>
       <r>    5.9611    1.0000 </r>
       <r>    6.7149    1.0000 </r>
       <r>    6.9101    1.0000 </r>
       <r>    6.9862    1.0000 </r>
       <r>    7.5012    1.0000 </r>
       <r>   12.4154    0.0000 </r>
       <r>   14.7084    0.0000 </r>
       <r>   16.9491    0.0000 </r>
       <r>   20.3708    0.0000 </r>
       <r>   20.9168    0.0000 </r>
       <r>   24.2692    0.0000 </r>
       <r>   26.7106    0.0000 </r>
       <r>   29.1748    0.0000 </r>
       <r>   30.0445    0.0000 </r>
       <r>   33.6445    0.0000 </r>
       <r>   35.8425    0.0000 </r>
       <r>   38.1019    0.0000 </r>
       <r>   41.2723    0.0000 </r>
      </set>
      <set comment="kpoint 31">
       <r>    3.8190    1.0000 </r>
       <r>    4.0923    1.0000 </r>
       <r>    4.4556    1.0000 </r>
       <r>    5.1212    1.0000 </r>
       <r>    5.4803    1.0000 </r>
       <r>    5.9443    1.0000 </r>
       <r>    6.1280    1.0000 </r>
       <r>    6.9547    1.0000 </r>
       <r>    7.0359    1.0000 </r>
       <r>    7.0670    1.0000 </r>
       <r>    8.6822    0.0000 </r>
       <r>   11.1798    0.0000 </r>
       <r>   15.2293    0.0000 </r>
       <r>   16.9484    0.0000 </r>
       <r>   19.7144    0.0000 </r>
       <r>   20.1702    0.0000 </r>
       <r>   21.8323    0.0000 </r>
       <r>   26.2888    0.0000 </r>
       <r>   28.9165    0.0000 </r>
       <r>   29.5014    0.0000 </r>
       <r>   33.8692    0.0000 </r>
       <r>   36.9315    0.0000 </r>
       <r>   37.9355    0.0000 </r>
       <r>   40.3306    0.0000 </r>
      </set>
      <set comment="kpoint 32">
       <r>    2.5197    1.0000 </r>
       <r>    4.5218    1.0000 </r>
       <r>    4.7270    1.0000 </r>
       <r>    4.8773    1.0000 </r>
       <r>    5.5258    1.0000 </r>
       <r>    5.6576    1.0000 </r>
       <r>    5.9151    1.0000 </r>
       <r>    6.2143    1.0000 </r>
       <r>    6.6128    1.0000 </r>
       <r>    6.7674    1.0000 </r>
       <r>    7.0543    1.0000 </r>
       <r>   11.2375    0.0000 </r>
       <r>   15.4784    0.0000 </r>
       <r>   19.3251    0.0000 </r>
       <r>   19.4880    0.0000 </r>
       <r>   25.2111    0.0000 </r>
       <r>   25.5226    0.0000 </r>
       <r>   28.9381    0.0000 </r>
       <r>   29.2165    0.0000 </r>
       <r>   32.3473    0.0000 </r>
       <r>   33.2993    0.0000 </r>
       <r>   34.4800    0.0000 </r>
       <r>   38.6987    0.0000 </r>
       <r>   38.7201    0.0000 </r>
      </set>
      <set comment="kpoint 33">
       <r>    3.4688    1.0000 </r>
       <r>    4.4634    1.0000 </r>
       <r>    4.5312    1.0000 </r>
       <r>    4.8771    1.0000 </r>
       <r>    5.4532    1.0000 </r>
       <r>    5.7757    1.0000 </r>
       <r>    5.7918    1.0000 </r>
       <r>    6.4250    1.0000 </r>
       <r>    6.9193    1.0000 </r>
       <r>    6.9265    1.0000 </r>
       <r>    7.5460    1.0000 </r>
       <r>   12.4774    0.0000 </r>
       <r>   15.9829    0.0000 </r>
       <r>   16.8928    0.0000 </r>
       <r>   18.3352    0.0000 </r>
       <r>   22.4107    0.0000 </r>
       <r>   24.4105    0.0000 </r>
       <r>   26.1019    0.0000 </r>
       <r>   28.1998    0.0000 </r>
       <r>   32.5841    0.0000 </r>
       <r>   34.3460    0.0000 </r>
       <r>   36.6784    0.0000 </r>
       <r>   38.4382    0.0000 </r>
       <r>   40.5798    0.0000 </r>
      </set>
      <set comment="kpoint 34">
       <r>    3.9880    1.0000 </r>
       <r>    4.3568    1.0000 </r>
       <r>    4.4578    1.0000 </r>
       <r>    4.9794    1.0000 </r>
       <r>    5.4319    1.0000 </r>
       <r>    5.7590    1.0000 </r>
       <r>    5.9484    1.0000 </r>
       <r>    6.7136    1.0000 </r>
       <r>    6.9272    1.0000 </r>
       <r>    7.0763    1.0000 </r>
       <r>    8.5989    0.0000 </r>
       <r>   12.6219    0.0000 </r>
       <r>   14.8863    0.0000 </r>
       <r>   17.5121    0.0000 </r>
       <r>   17.8035    0.0000 </r>
       <r>   20.2545    0.0000 </r>
       <r>   23.2789    0.0000 </r>
       <r>   23.9517    0.0000 </r>
       <r>   27.5853    0.0000 </r>
       <r>   32.2772    0.0000 </r>
       <r>   35.4938    0.0000 </r>
       <r>   37.5863    0.0000 </r>
       <r>   40.6477    0.0000 </r>
       <r>   40.9231    0.0000 </r>
      </set>
      <set comment="kpoint 35">
       <r>    4.0423    1.0000 </r>
       <r>    4.2886    1.0000 </r>
       <r>    4.5285    1.0000 </r>
       <r>    5.0398    1.0000 </r>
       <r>    5.3794    1.0000 </r>
       <r>    5.8258    1.0000 </r>
       <r>    6.0167    1.0000 </r>
       <r>    6.9149    1.0000 </r>
       <r>    6.9221    1.0000 </r>
       <r>    7.0585    1.0000 </r>
       <r>    9.8763    0.0000 </r>
       <r>   10.9984    0.0000 </r>
       <r>   16.3664    0.0000 </r>
       <r>   16.6496    0.0000 </r>
       <r>   17.3925    0.0000 </r>
       <r>   20.7467    0.0000 </r>
       <r>   21.3891    0.0000 </r>
       <r>   23.6843    0.0000 </r>
       <r>   27.3715    0.0000 </r>
       <r>   32.1526    0.0000 </r>
       <r>   36.0461    0.0000 </r>
       <r>   37.7042    0.0000 </r>
       <r>   40.1465    0.0000 </r>
       <r>   41.6485    0.0000 </r>
      </set>
      <set comment="kpoint 36">
       <r>    4.1659    1.0000 </r>
       <r>    4.3504    1.0000 </r>
       <r>    4.6884    1.0000 </r>
       <r>    4.7126    1.0000 </r>
       <r>    5.4213    1.0000 </r>
       <r>    5.6275    1.0000 </r>
       <r>    5.9209    1.0000 </r>
       <r>    6.5625    1.0000 </r>
       <r>    6.8926    1.0000 </r>
       <r>    7.0823    1.0000 </r>
       <r>    8.5976    0.0000 </r>
       <r>   13.6251    0.0000 </r>
       <r>   15.2602    0.0000 </r>
       <r>   15.7132    0.0000 </r>
       <r>   18.0249    0.0000 </r>
       <r>   21.4949    0.0000 </r>
       <r>   21.8437    0.0000 </r>
       <r>   25.2625    0.0000 </r>
       <r>   25.5049    0.0000 </r>
       <r>   35.1660    0.0000 </r>
       <r>   36.3318    0.0000 </r>
       <r>   36.8880    0.0000 </r>
       <r>   40.1114    0.0000 </r>
       <r>   40.6334    0.0000 </r>
      </set>
      <set comment="kpoint 37">
       <r>    4.2722    1.0000 </r>
       <r>    4.4991    1.0000 </r>
       <r>    4.5867    1.0000 </r>
       <r>    4.8749    1.0000 </r>
       <r>    5.3816    1.0000 </r>
       <r>    5.5482    1.0000 </r>
       <r>    6.0548    1.0000 </r>
       <r>    6.7633    1.0000 </r>
       <r>    6.8692    1.0000 </r>
       <r>    7.0325    1.0000 </r>
       <r>   10.1685    0.0000 </r>
       <r>   12.3879    0.0000 </r>
       <r>   14.5799    0.0000 </r>
       <r>   16.4705    0.0000 </r>
       <r>   18.2526    0.0000 </r>
       <r>   20.2500    0.0000 </r>
       <r>   21.5991    0.0000 </r>
       <r>   22.9731    0.0000 </r>
       <r>   25.0107    0.0000 </r>
       <r>   35.7591    0.0000 </r>
       <r>   37.4906    0.0000 </r>
       <r>   38.9407    0.0000 </r>
       <r>   40.0675    0.0000 </r>
       <r>   41.6259    0.0000 </r>
      </set>
      <set comment="kpoint 38">
       <r>    4.3666    1.0000 </r>
       <r>    4.5950    1.0000 </r>
       <r>    4.5950    1.0000 </r>
       <r>    4.8664    1.0000 </r>
       <r>    5.4062    1.0000 </r>
       <r>    5.4062    1.0000 </r>
       <r>    6.1149    1.0000 </r>
       <r>    6.8444    1.0000 </r>
       <r>    6.8803    1.0000 </r>
       <r>    6.8803    1.0000 </r>
       <r>   11.9937    0.0000 </r>
       <r>   12.3400    0.0000 </r>
       <r>   12.3400    0.0000 </r>
       <r>   18.0524    0.0000 </r>
       <r>   18.4986    0.0000 </r>
       <r>   18.4986    0.0000 </r>
       <r>   22.6462    0.0000 </r>
       <r>   22.8510    0.0000 </r>
       <r>   22.8510    0.0000 </r>
       <r>   37.8669    0.0000 </r>
       <r>   39.2122    0.0000 </r>
       <r>   39.2122    0.0000 </r>
       <r>   40.3354    0.0000 </r>
       <r>   41.0171    0.0000 </r>
      </set>
      <set comment="kpoint 39">
       <r>    0.6428    1.0000 </r>
       <r>    3.3936    1.0000 </r>
       <r>    5.4869    1.0000 </r>
       <r>    5.5203    1.0000 </r>
       <r>    5.5203    1.0000 </r>
       <r>    5.7221    1.0000 </r>
       <r>    5.7221    1.0000 </r>
       <r>    6.3314    1.0000 </r>
       <r>    6.3314    1.0000 </r>
       <r>    6.3731    1.0000 </r>
       <r>    6.8949    1.0000 </r>
       <r>    6.8949    1.0000 </r>
       <r>   15.9887    0.0000 </r>
       <r>   27.1547    0.0000 </r>
       <r>   28.6608    0.0000 </r>
       <r>   30.0518    0.0000 </r>
       <r>   30.0518    0.0000 </r>
       <r>   30.2965    0.0000 </r>
       <r>   31.2461    0.0000 </r>
       <r>   31.2461    0.0000 </r>
       <r>   34.6073    0.0000 </r>
       <r>   34.6073    0.0000 </r>
       <r>   35.3808    0.0000 </r>
       <r>   35.3808    0.0000 </r>
      </set>
      <set comment="kpoint 40">
       <r>    0.8491    1.0000 </r>
       <r>    3.5420    1.0000 </r>
       <r>    5.4330    1.0000 </r>
       <r>    5.5059    1.0000 </r>
       <r>    5.5556    1.0000 </r>
       <r>    5.5895    1.0000 </r>
       <r>    5.7935    1.0000 </r>
       <r>    6.0440    1.0000 </r>
       <r>    6.3077    1.0000 </r>
       <r>    6.3447    1.0000 </r>
       <r>    6.9059    1.0000 </r>
       <r>    7.4337    1.0000 </r>
       <r>   16.1303    0.0000 </r>
       <r>   26.4660    0.0000 </r>
       <r>   27.3003    0.0000 </r>
       <r>   28.3028    0.0000 </r>
       <r>   28.5218    0.0000 </r>
       <r>   30.1193    0.0000 </r>
       <r>   31.5461    0.0000 </r>
       <r>   32.2937    0.0000 </r>
       <r>   34.0071    0.0000 </r>
       <r>   35.0761    0.0000 </r>
       <r>   35.4320    0.0000 </r>
       <r>   37.1119    0.0000 </r>
      </set>
      <set comment="kpoint 41">
       <r>    1.4426    1.0000 </r>
       <r>    3.9244    1.0000 </r>
       <r>    5.1181    1.0000 </r>
       <r>    5.2843    1.0000 </r>
       <r>    5.4790    1.0000 </r>
       <r>    5.7465    1.0000 </r>
       <r>    5.8572    1.0000 </r>
       <r>    5.9911    1.0000 </r>
       <r>    6.2917    1.0000 </r>
       <r>    6.3934    1.0000 </r>
       <r>    6.9290    1.0000 </r>
       <r>    8.2505    0.0000 </r>
       <r>   16.5650    0.0000 </r>
       <r>   22.8428    0.0000 </r>
       <r>   26.2823    0.0000 </r>
       <r>   26.3779    0.0000 </r>
       <r>   27.8922    0.0000 </r>
       <r>   28.3984    0.0000 </r>
       <r>   30.8550    0.0000 </r>
       <r>   30.9784    0.0000 </r>
       <r>   34.8184    0.0000 </r>
       <r>   35.9441    0.0000 </r>
       <r>   36.2064    0.0000 </r>
       <r>   38.5136    0.0000 </r>
      </set>
      <set comment="kpoint 42">
       <r>    2.3186    1.0000 </r>
       <r>    4.2663    1.0000 </r>
       <r>    4.7334    1.0000 </r>
       <r>    5.1865    1.0000 </r>
       <r>    5.4241    1.0000 </r>
       <r>    5.8134    1.0000 </r>
       <r>    5.9075    1.0000 </r>
       <r>    6.2815    1.0000 </r>
       <r>    6.4342    1.0000 </r>
       <r>    6.5093    1.0000 </r>
       <r>    6.9542    1.0000 </r>
       <r>    9.1623    0.0000 </r>
       <r>   17.2748    0.0000 </r>
       <r>   19.4025    0.0000 </r>
       <r>   23.3577    0.0000 </r>
       <r>   24.5418    0.0000 </r>
       <r>   27.5388    0.0000 </r>
       <r>   28.3075    0.0000 </r>
       <r>   29.5228    0.0000 </r>
       <r>   29.9464    0.0000 </r>
       <r>   32.3091    0.0000 </r>
       <r>   36.8615    0.0000 </r>
       <r>   37.2131    0.0000 </r>
       <r>   40.0139    0.0000 </r>
      </set>
      <set comment="kpoint 43">
       <r>    3.1791    1.0000 </r>
       <r>    4.2182    1.0000 </r>
       <r>    4.5688    1.0000 </r>
       <r>    5.0531    1.0000 </r>
       <r>    5.6736    1.0000 </r>
       <r>    5.7591    1.0000 </r>
       <r>    6.3025    1.0000 </r>
       <r>    6.5869    1.0000 </r>
       <r>    6.7090    1.0000 </r>
       <r>    6.7479    1.0000 </r>
       <r>    6.9942    1.0000 </r>
       <r>   10.1867    0.0000 </r>
       <r>   16.2054    0.0000 </r>
       <r>   18.1698    0.0000 </r>
       <r>   20.6992    0.0000 </r>
       <r>   23.1806    0.0000 </r>
       <r>   26.5795    0.0000 </r>
       <r>   28.0401    0.0000 </r>
       <r>   28.3391    0.0000 </r>
       <r>   28.7753    0.0000 </r>
       <r>   31.7246    0.0000 </r>
       <r>   36.5980    0.0000 </r>
       <r>   37.3906    0.0000 </r>
       <r>   40.1249    0.0000 </r>
      </set>
      <set comment="kpoint 44">
       <r>    3.5848    1.0000 </r>
       <r>    4.0766    1.0000 </r>
       <r>    4.6139    1.0000 </r>
       <r>    4.8836    1.0000 </r>
       <r>    5.6968    1.0000 </r>
       <r>    5.9333    1.0000 </r>
       <r>    6.7579    1.0000 </r>
       <r>    6.7979    1.0000 </r>
       <r>    6.9629    1.0000 </r>
       <r>    7.0763    1.0000 </r>
       <r>    7.6018    1.0000 </r>
       <r>   10.9268    0.0000 </r>
       <r>   14.1778    0.0000 </r>
       <r>   16.9310    0.0000 </r>
       <r>   20.7305    0.0000 </r>
       <r>   22.3000    0.0000 </r>
       <r>   24.6563    0.0000 </r>
       <r>   27.4834    0.0000 </r>
       <r>   27.5604    0.0000 </r>
       <r>   28.2433    0.0000 </r>
       <r>   32.8422    0.0000 </r>
       <r>   36.1427    0.0000 </r>
       <r>   36.5655    0.0000 </r>
       <r>   38.8163    0.0000 </r>
      </set>
      <set comment="kpoint 45">
       <r>    3.6480    1.0000 </r>
       <r>    4.0215    1.0000 </r>
       <r>    4.7211    1.0000 </r>
       <r>    4.7600    1.0000 </r>
       <r>    5.6724    1.0000 </r>
       <r>    6.0160    1.0000 </r>
       <r>    6.7959    1.0000 </r>
       <r>    6.9210    1.0000 </r>
       <r>    7.0676    1.0000 </r>
       <r>    7.1279    1.0000 </r>
       <r>    8.7563    0.0000 </r>
       <r>   10.2964    0.0000 </r>
       <r>   14.8029    0.0000 </r>
       <r>   14.9380    0.0000 </r>
       <r>   21.9932    0.0000 </r>
       <r>   22.2977    0.0000 </r>
       <r>   22.7079    0.0000 </r>
       <r>   27.2877    0.0000 </r>
       <r>   27.3426    0.0000 </r>
       <r>   28.0797    0.0000 </r>
       <r>   34.2123    0.0000 </r>
       <r>   35.0372    0.0000 </r>
       <r>   35.9884    0.0000 </r>
       <r>   38.6779    0.0000 </r>
      </set>
      <set comment="kpoint 46">
       <r>    1.2500    1.0000 </r>
       <r>    3.8128    1.0000 </r>
       <r>    5.2390    1.0000 </r>
       <r>    5.3150    1.0000 </r>
       <r>    5.4978    1.0000 </r>
       <r>    5.7171    1.0000 </r>
       <r>    5.8602    1.0000 </r>
       <r>    5.9273    1.0000 </r>
       <r>    6.3343    1.0000 </r>
       <r>    6.3424    1.0000 </r>
       <r>    6.9216    1.0000 </r>
       <r>    8.0247    0.5715 </r>
       <r>   16.4200    0.0000 </r>
       <r>   24.5719    0.0000 </r>
       <r>   24.9720    0.0000 </r>
       <r>   27.4567    0.0000 </r>
       <r>   28.2073    0.0000 </r>
       <r>   29.2737    0.0000 </r>
       <r>   30.4988    0.0000 </r>
       <r>   32.0193    0.0000 </r>
       <r>   35.0894    0.0000 </r>
       <r>   35.2864    0.0000 </r>
       <r>   36.5031    0.0000 </r>
       <r>   37.4060    0.0000 </r>
      </set>
      <set comment="kpoint 47">
       <r>    1.9949    1.0000 </r>
       <r>    4.2259    1.0000 </r>
       <r>    4.8433    1.0000 </r>
       <r>    5.1486    1.0000 </r>
       <r>    5.4546    1.0000 </r>
       <r>    5.7579    1.0000 </r>
       <r>    5.8387    1.0000 </r>
       <r>    6.1561    1.0000 </r>
       <r>    6.4182    1.0000 </r>
       <r>    6.4618    1.0000 </r>
       <r>    6.9506    1.0000 </r>
       <r>    8.8405    0.0000 </r>
       <r>   17.0123    0.0000 </r>
       <r>   21.1828    0.0000 </r>
       <r>   23.2233    0.0000 </r>
       <r>   25.1306    0.0000 </r>
       <r>   27.0932    0.0000 </r>
       <r>   28.6980    0.0000 </r>
       <r>   29.9953    0.0000 </r>
       <r>   32.7061    0.0000 </r>
       <r>   33.4377    0.0000 </r>
       <r>   34.2350    0.0000 </r>
       <r>   37.4296    0.0000 </r>
       <r>   38.4833    0.0000 </r>
      </set>
      <set comment="kpoint 48">
       <r>    2.9050    1.0000 </r>
       <r>    4.3741    1.0000 </r>
       <r>    4.5921    1.0000 </r>
       <r>    5.1070    1.0000 </r>
       <r>    5.4444    1.0000 </r>
       <r>    5.8068    1.0000 </r>
       <r>    5.8944    1.0000 </r>
       <r>    6.4033    1.0000 </r>
       <r>    6.6545    1.0000 </r>
       <r>    6.7121    1.0000 </r>
       <r>    7.0476    1.0000 </r>
       <r>    9.8170    0.0000 </r>
       <r>   17.5682    0.0000 </r>
       <r>   18.1876    0.0000 </r>
       <r>   21.7470    0.0000 </r>
       <r>   22.2503    0.0000 </r>
       <r>   26.0901    0.0000 </r>
       <r>   28.2237    0.0000 </r>
       <r>   29.5004    0.0000 </r>
       <r>   31.4128    0.0000 </r>
       <r>   31.8838    0.0000 </r>
       <r>   34.8719    0.0000 </r>
       <r>   38.9163    0.0000 </r>
       <r>   39.9823    0.0000 </r>
      </set>
      <set comment="kpoint 49">
       <r>    3.5565    1.0000 </r>
       <r>    4.2257    1.0000 </r>
       <r>    4.5566    1.0000 </r>
       <r>    4.9882    1.0000 </r>
       <r>    5.5806    1.0000 </r>
       <r>    5.8802    1.0000 </r>
       <r>    6.2741    1.0000 </r>
       <r>    6.6355    1.0000 </r>
       <r>    6.8272    1.0000 </r>
       <r>    6.9908    1.0000 </r>
       <r>    7.5198    1.0000 </r>
       <r>   10.8859    0.0000 </r>
       <r>   15.0614    0.0000 </r>
       <r>   18.0519    0.0000 </r>
       <r>   20.2839    0.0000 </r>
       <r>   21.0934    0.0000 </r>
       <r>   25.2994    0.0000 </r>
       <r>   26.1003    0.0000 </r>
       <r>   29.3307    0.0000 </r>
       <r>   30.6974    0.0000 </r>
       <r>   31.8825    0.0000 </r>
       <r>   34.9241    0.0000 </r>
       <r>   38.8254    0.0000 </r>
       <r>   40.1790    0.0000 </r>
      </set>
      <set comment="kpoint 50">
       <r>    3.7216    1.0000 </r>
       <r>    4.1263    1.0000 </r>
       <r>    4.6893    1.0000 </r>
       <r>    4.8389    1.0000 </r>
       <r>    5.5354    1.0000 </r>
       <r>    6.0616    1.0000 </r>
       <r>    6.5433    1.0000 </r>
       <r>    6.7521    1.0000 </r>
       <r>    7.0089    1.0000 </r>
       <r>    7.1155    1.0000 </r>
       <r>    8.7233    0.0000 </r>
       <r>   10.8802    0.0000 </r>
       <r>   14.2823    0.0000 </r>
       <r>   15.9814    0.0000 </r>
       <r>   20.4438    0.0000 </r>
       <r>   21.6874    0.0000 </r>
       <r>   23.7793    0.0000 </r>
       <r>   24.8982    0.0000 </r>
       <r>   29.1031    0.0000 </r>
       <r>   30.1883    0.0000 </r>
       <r>   33.0728    0.0000 </r>
       <r>   34.5339    0.0000 </r>
       <r>   37.2251    0.0000 </r>
       <r>   40.2559    0.0000 </r>
      </set>
      <set comment="kpoint 51">
       <r>    2.8055    1.0000 </r>
       <r>    4.5254    1.0000 </r>
       <r>    4.6423    1.0000 </r>
       <r>    4.9431    1.0000 </r>
       <r>    5.4691    1.0000 </r>
       <r>    5.6468    1.0000 </r>
       <r>    5.8289    1.0000 </r>
       <r>    6.3229    1.0000 </r>
       <r>    6.6419    1.0000 </r>
       <r>    6.7239    1.0000 </r>
       <r>    7.0862    1.0000 </r>
       <r>    9.7061    0.0000 </r>
       <r>   17.7566    0.0000 </r>
       <r>   19.7125    0.0000 </r>
       <r>   19.9281    0.0000 </r>
       <r>   23.7886    0.0000 </r>
       <r>   24.0210    0.0000 </r>
       <r>   29.0139    0.0000 </r>
       <r>   30.9513    0.0000 </r>
       <r>   31.8457    0.0000 </r>
       <r>   33.1202    0.0000 </r>
       <r>   34.4466    0.0000 </r>
       <r>   37.4535    0.0000 </r>
       <r>   38.1115    0.0000 </r>
      </set>
      <set comment="kpoint 52">
       <r>    3.6040    1.0000 </r>
       <r>    4.3797    1.0000 </r>
       <r>    4.6328    1.0000 </r>
       <r>    4.9905    1.0000 </r>
       <r>    5.4607    1.0000 </r>
       <r>    5.6989    1.0000 </r>
       <r>    5.8379    1.0000 </r>
       <r>    6.4809    1.0000 </r>
       <r>    6.7385    1.0000 </r>
       <r>    7.0130    1.0000 </r>
       <r>    7.6428    1.0000 </r>
       <r>   10.8424    0.0000 </r>
       <r>   16.6462    0.0000 </r>
       <r>   18.5838    0.0000 </r>
       <r>   18.8567    0.0000 </r>
       <r>   21.1519    0.0000 </r>
       <r>   22.9692    0.0000 </r>
       <r>   27.8548    0.0000 </r>
       <r>   29.8626    0.0000 </r>
       <r>   31.7191    0.0000 </r>
       <r>   33.1733    0.0000 </r>
       <r>   35.9359    0.0000 </r>
       <r>   37.8520    0.0000 </r>
       <r>   39.6047    0.0000 </r>
      </set>
      <set comment="kpoint 53">
       <r>    3.9333    1.0000 </r>
       <r>    4.3991    1.0000 </r>
       <r>    4.5728    1.0000 </r>
       <r>    4.9770    1.0000 </r>
       <r>    5.3841    1.0000 </r>
       <r>    5.8808    1.0000 </r>
[...]
       </set>
       <set comment="band 12">
        <r>  0.0001  0.0009  0.0773  0.0027  0.0014  0.0339  0.0002  0.0364  0.0033 </r>
        <r>  0.0094  0.0653  0.0011  0.1900  0.1005  0.0005  0.0133  0.0005  0.2302 </r>
       </set>
       <set comment="band 13">
        <r>  0.0923  0.0098  0.0141  0.0071  0.0414  0.0357  0.0042  0.1047  0.0147 </r>
        <r>  0.2268  0.0240  0.0057  0.0174  0.1017  0.0145  0.0103  0.0426  0.0360 </r>
       </set>
       <set comment="band 14">
        <r>  0.2268  0.0240  0.0057  0.0174  0.1017  0.0145  0.0103  0.0426  0.0360 </r>
        <r>  0.0923  0.0098  0.0141  0.0071  0.0414  0.0357  0.0042  0.1047  0.0147 </r>
       </set>
       <set comment="band 15">
        <r>  0.0983  0.1418  0.0072  0.0475  0.0459  0.0281  0.0192  0.0106  0.0153 </r>
        <r>  0.0464  0.0669  0.0153  0.0224  0.0216  0.0596  0.0090  0.0224  0.0072 </r>
       </set>
       <set comment="band 16">
        <r>  0.0464  0.0669  0.0153  0.0224  0.0216  0.0596  0.0090  0.0224  0.0072 </r>
        <r>  0.0983  0.1418  0.0072  0.0475  0.0459  0.0281  0.0192  0.0106  0.0153 </r>
       </set>
       <set comment="band 17">
        <r>  0.0005  0.0032  0.2485  0.0096  0.0009  0.0222  0.0008  0.0402  0.0012 </r>
        <r>  0.0039  0.0253  0.0313  0.0760  0.0072  0.0028  0.0060  0.0051  0.0094 </r>
       </set>
       <set comment="band 18">
        <r>  0.0039  0.0253  0.0313  0.0760  0.0072  0.0028  0.0060  0.0051  0.0094 </r>
        <r>  0.0005  0.0032  0.2485  0.0096  0.0009  0.0222  0.0008  0.0402  0.0012 </r>
       </set>
       <set comment="band 19">
        <r>  0.0138  0.0002  0.0280  0.0005  0.0225  0.0575  0.0524  0.1485  0.0075 </r>
        <r>  0.0419  0.0005  0.0092  0.0014  0.0681  0.0190  0.1587  0.0490  0.0227 </r>
       </set>
       <set comment="band 20">
        <r>  0.0419  0.0005  0.0092  0.0014  0.0681  0.0190  0.1587  0.0490  0.0227 </r>
        <r>  0.0138  0.0002  0.0280  0.0005  0.0225  0.0575  0.0524  0.1485  0.0075 </r>
       </set>
       <set comment="band 21">
        <r>  0.0095  0.0734  0.0831  0.0247  0.0107  0.0035  0.0206  0.0035  0.0037 </r>
        <r>  0.0120  0.0926  0.0659  0.0311  0.0135  0.0028  0.0260  0.0028  0.0046 </r>
       </set>
       <set comment="band 22">
        <r>  0.0120  0.0926  0.0659  0.0311  0.0135  0.0028  0.0260  0.0028  0.0046 </r>
        <r>  0.0095  0.0734  0.0831  0.0247  0.0107  0.0035  0.0206  0.0035  0.0037 </r>
       </set>
       <set comment="band 23">
        <r>  0.0494  0.0009  0.0000  0.0004  0.0411  0.1569  0.0162  0.0601  0.0137 </r>
        <r>  0.1062  0.0020  0.0000  0.0008  0.0883  0.0731  0.0347  0.0280  0.0295 </r>
       </set>
       <set comment="band 24">
        <r>  0.1062  0.0020  0.0000  0.0008  0.0883  0.0731  0.0347  0.0280  0.0295 </r>
        <r>  0.0494  0.0009  0.0000  0.0004  0.0411  0.1569  0.0162  0.0601  0.0137 </r>
       </set>
      </set>
      <set comment="kpoint 93">
       <set comment="band 1">
        <r>  0.0469  0.0024  0.0128  0.0254  0.0117  0.0004  0.0186  0.2432  0.0318 </r>
        <r>  0.0623  0.0032  0.0097  0.0338  0.0155  0.0003  0.0247  0.1832  0.0423 </r>
       </set>
       <set comment="band 2">
        <r>  0.0623  0.0032  0.0097  0.0338  0.0155  0.0003  0.0247  0.1832  0.0423 </r>
        <r>  0.0469  0.0024  0.0128  0.0254  0.0117  0.0004  0.0186  0.2432  0.0318 </r>
       </set>
       <set comment="band 3">
        <r>  0.0117  0.0315  0.0079  0.0082  0.4517  0.0173  0.0006  0.0008  0.0295 </r>
        <r>  0.0054  0.0145  0.0171  0.0038  0.2079  0.0375  0.0003  0.0018  0.0136 </r>
       </set>
       <set comment="band 4">
        <r>  0.0054  0.0145  0.0171  0.0038  0.2079  0.0375  0.0003  0.0018  0.0136 </r>
        <r>  0.0117  0.0315  0.0079  0.0082  0.4517  0.0173  0.0006  0.0008  0.0295 </r>
       </set>
       <set comment="band 5">
        <r>  0.0004  0.0002  0.0017  0.0467  0.0001  0.0814  0.2460  0.0103  0.1044 </r>
        <r>  0.0002  0.0001  0.0038  0.0210  0.0000  0.1813  0.1105  0.0228  0.0469 </r>
       </set>
       <set comment="band 6">
        <r>  0.0002  0.0001  0.0038  0.0210  0.0000  0.1813  0.1105  0.0228  0.0469 </r>
        <r>  0.0004  0.0002  0.0017  0.0467  0.0001  0.0814  0.2460  0.0103  0.1044 </r>
       </set>
       <set comment="band 7">
        <r>  0.0010  0.0000  0.0000  0.0001  0.0172  0.4276  0.0055  0.0810  0.0263 </r>
        <r>  0.0063  0.0000  0.0000  0.0006  0.1084  0.0678  0.0346  0.0128  0.1657 </r>
       </set>
       <set comment="band 8">
        <r>  0.0063  0.0000  0.0000  0.0006  0.1084  0.0678  0.0346  0.0128  0.1657 </r>
        <r>  0.0010  0.0000  0.0000  0.0001  0.0172  0.4276  0.0055  0.0810  0.0263 </r>
       </set>
       <set comment="band 9">
        <r>  0.0000  0.0000  0.0000  0.0022  0.0093  0.0012  0.4978  0.0028  0.1629 </r>
        <r>  0.0000  0.0000  0.0022  0.0000  0.0001  0.0903  0.0067  0.2084  0.0022 </r>
       </set>
       <set comment="band 10">
        <r>  0.0000  0.0000  0.0022  0.0000  0.0001  0.0903  0.0067  0.2084  0.0022 </r>
        <r>  0.0000  0.0000  0.0000  0.0022  0.0093  0.0012  0.4978  0.0028  0.1629 </r>
       </set>
       <set comment="band 11">
        <r>  0.0326  0.0011  0.0329  0.0607  0.0088  0.0031  0.0005  0.0888  0.1607 </r>
        <r>  0.0435  0.0015  0.0247  0.0809  0.0117  0.0023  0.0006  0.0666  0.2142 </r>
       </set>
       <set comment="band 12">
        <r>  0.0435  0.0015  0.0247  0.0809  0.0117  0.0023  0.0006  0.0666  0.2142 </r>
        <r>  0.0326  0.0011  0.0329  0.0607  0.0088  0.0031  0.0005  0.0888  0.1607 </r>
       </set>
       <set comment="band 13">
        <r>  0.0016  0.1120  0.0359  0.0015  0.1081  0.0159  0.0003  0.0383  0.0004 </r>
        <r>  0.0024  0.1662  0.0242  0.0022  0.1605  0.0107  0.0004  0.0258  0.0007 </r>
       </set>
       <set comment="band 14">
        <r>  0.0024  0.1662  0.0242  0.0022  0.1605  0.0107  0.0004  0.0258  0.0007 </r>
        <r>  0.0016  0.1120  0.0359  0.0015  0.1081  0.0159  0.0003  0.0383  0.0004 </r>
       </set>
       <set comment="band 15">
        <r>  0.1054  0.0000  0.0026  0.0467  0.0000  0.0743  0.0146  0.0406  0.0000 </r>
        <r>  0.2521  0.0000  0.0011  0.1119  0.0000  0.0310  0.0349  0.0170  0.0000 </r>
       </set>
       <set comment="band 16">
        <r>  0.2521  0.0000  0.0011  0.1119  0.0000  0.0310  0.0349  0.0170  0.0000 </r>
        <r>  0.1054  0.0000  0.0026  0.0467  0.0000  0.0743  0.0146  0.0406  0.0000 </r>
       </set>
       <set comment="band 17">
        <r>  0.0169  0.0004  0.1642  0.0251  0.0012  0.0110  0.0278  0.0474  0.0066 </r>
        <r>  0.0281  0.0007  0.0985  0.0419  0.0020  0.0066  0.0464  0.0284  0.0109 </r>
       </set>
       <set comment="band 18">
        <r>  0.0281  0.0007  0.0985  0.0419  0.0020  0.0066  0.0464  0.0284  0.0109 </r>
        <r>  0.0169  0.0004  0.1642  0.0251  0.0012  0.0110  0.0278  0.0474  0.0066 </r>
       </set>
       <set comment="band 19">
        <r>  0.0007  0.0122  0.0853  0.0014  0.0128  0.0843  0.0035  0.0896  0.0008 </r>
        <r>  0.0036  0.0660  0.0158  0.0077  0.0690  0.0156  0.0188  0.0166  0.0041 </r>
       </set>
       <set comment="band 20">
        <r>  0.0036  0.0660  0.0158  0.0077  0.0690  0.0156  0.0188  0.0166  0.0041 </r>
        <r>  0.0007  0.0122  0.0853  0.0014  0.0128  0.0843  0.0035  0.0896  0.0008 </r>
       </set>
       <set comment="band 21">
        <r>  0.0091  0.0016  0.0475  0.0141  0.0037  0.0136  0.0577  0.1028  0.0075 </r>
        <r>  0.0278  0.0050  0.0156  0.0430  0.0112  0.0045  0.1759  0.0337  0.0229 </r>
       </set>
       <set comment="band 22">
        <r>  0.0278  0.0050  0.0156  0.0430  0.0112  0.0045  0.1759  0.0337  0.0229 </r>
        <r>  0.0091  0.0016  0.0475  0.0141  0.0037  0.0136  0.0577  0.1028  0.0075 </r>
       </set>
       <set comment="band 23">
        <r>  0.0003  0.0964  0.0253  0.0004  0.0763  0.0140  0.0000  0.0091  0.0000 </r>
        <r>  0.0005  0.1546  0.0158  0.0006  0.1225  0.0087  0.0000  0.0057  0.0000 </r>
       </set>
       <set comment="band 24">
        <r>  0.0005  0.1546  0.0158  0.0006  0.1225  0.0087  0.0000  0.0057  0.0000 </r>
        <r>  0.0003  0.0964  0.0253  0.0004  0.0763  0.0140  0.0000  0.0091  0.0000 </r>
       </set>
      </set>
      <set comment="kpoint 94">
       <set comment="band 1">
        <r>  0.0332  0.0096  0.0016  0.0169  0.0574  0.0170  0.0405  0.1860  0.0380 </r>
        <r>  0.0255  0.0074  0.0020  0.0130  0.0441  0.0221  0.0311  0.2423  0.0292 </r>
       </set>
       <set comment="band 2">
        <r>  0.0255  0.0074  0.0020  0.0130  0.0441  0.0221  0.0311  0.2423  0.0292 </r>
        <r>  0.0332  0.0096  0.0016  0.0169  0.0574  0.0170  0.0405  0.1860  0.0380 </r>
       </set>
       <set comment="band 3">
        <r>  0.0101  0.0319  0.0016  0.0004  0.2764  0.0484  0.1198  0.0158  0.0115 </r>
        <r>  0.0029  0.0090  0.0058  0.0001  0.0783  0.1708  0.0339  0.0558  0.0033 </r>
       </set>
       <set comment="band 4">
        <r>  0.0029  0.0090  0.0058  0.0001  0.0783  0.1708  0.0339  0.0558  0.0033 </r>
        <r>  0.0101  0.0319  0.0016  0.0004  0.2764  0.0484  0.1198  0.0158  0.0115 </r>
       </set>
       <set comment="band 5">
        <r>  0.0055  0.0153  0.0001  0.0892  0.1548  0.0007  0.0711  0.0000  0.2773 </r>
        <r>  0.0000  0.0001  0.0293  0.0003  0.0006  0.1891  0.0003  0.0030  0.0010 </r>
       </set>
       <set comment="band 6">
        <r>  0.0000  0.0001  0.0293  0.0003  0.0006  0.1891  0.0003  0.0030  0.0010 </r>
        <r>  0.0055  0.0153  0.0001  0.0892  0.1548  0.0007  0.0711  0.0000  0.2773 </r>
       </set>
       <set comment="band 7">
        <r>  0.0002  0.0001  0.0009  0.0006  0.0137  0.2978  0.0018  0.1232  0.0243 </r>
        <r>  0.0024  0.0016  0.0001  0.0069  0.1519  0.0268  0.0201  0.0111  0.2701 </r>
       </set>
       <set comment="band 8">
        <r>  0.0024  0.0016  0.0001  0.0069  0.1519  0.0268  0.0201  0.0111  0.2701 </r>
        <r>  0.0002  0.0001  0.0009  0.0006  0.0137  0.2978  0.0018  0.1232  0.0243 </r>
       </set>
       <set comment="band 9">
        <r>  0.0010  0.0001  0.0001  0.0011  0.0096  0.0075  0.5872  0.0131  0.0467 </r>
        <r>  0.0001  0.0000  0.0007  0.0001  0.0007  0.0978  0.0451  0.1698  0.0036 </r>
       </set>
       <set comment="band 10">
        <r>  0.0001  0.0000  0.0007  0.0001  0.0007  0.0978  0.0451  0.1698  0.0036 </r>
        <r>  0.0010  0.0001  0.0001  0.0011  0.0096  0.0075  0.5872  0.0131  0.0467 </r>
       </set>
       <set comment="band 11">
        <r>  0.0332  0.0198  0.0105  0.1874  0.0345  0.0010  0.0015  0.0081  0.2624 </r>
        <r>  0.0046  0.0027  0.0767  0.0257  0.0047  0.0070  0.0002  0.0592  0.0360 </r>
       </set>
       <set comment="band 12">
        <r>  0.0046  0.0027  0.0767  0.0257  0.0047  0.0070  0.0002  0.0592  0.0360 </r>
        <r>  0.0332  0.0198  0.0105  0.1874  0.0345  0.0010  0.0015  0.0081  0.2624 </r>
       </set>
       <set comment="band 13">
        <r>  0.0964  0.1026  0.0125  0.0091  0.1182  0.0208  0.0052  0.0411  0.0067 </r>
        <r>  0.0662  0.0705  0.0181  0.0063  0.0812  0.0302  0.0036  0.0598  0.0046 </r>
       </set>
       <set comment="band 14">
        <r>  0.0662  0.0705  0.0181  0.0063  0.0812  0.0302  0.0036  0.0598  0.0046 </r>
        <r>  0.0964  0.1026  0.0125  0.0091  0.1182  0.0208  0.0052  0.0411  0.0067 </r>
       </set>
       <set comment="band 15">
        <r>  0.1579  0.0511  0.0074  0.0348  0.0265  0.0502  0.0168  0.0248  0.0039 </r>
        <r>  0.1442  0.0467  0.0081  0.0318  0.0242  0.0549  0.0153  0.0271  0.0036 </r>
       </set>
       <set comment="band 16">
        <r>  0.1442  0.0467  0.0081  0.0318  0.0242  0.0549  0.0153  0.0271  0.0036 </r>
        <r>  0.1579  0.0511  0.0074  0.0348  0.0265  0.0502  0.0168  0.0248  0.0039 </r>
       </set>
       <set comment="band 17">
        <r>  0.0117  0.0083  0.0180  0.0873  0.0046  0.0016  0.0206  0.0041  0.0235 </r>
        <r>  0.0008  0.0006  0.2653  0.0059  0.0003  0.0240  0.0014  0.0605  0.0016 </r>
       </set>
       <set comment="band 18">
        <r>  0.0008  0.0006  0.2653  0.0059  0.0003  0.0240  0.0014  0.0605  0.0016 </r>
        <r>  0.0117  0.0083  0.0180  0.0873  0.0046  0.0016  0.0206  0.0041  0.0235 </r>
       </set>
       <set comment="band 19">
        <r>  0.0025  0.0089  0.1034  0.0003  0.0079  0.0798  0.0059  0.1315  0.0006 </r>
        <r>  0.0178  0.0632  0.0146  0.0020  0.0559  0.0113  0.0417  0.0186  0.0045 </r>
       </set>
       <set comment="band 20">
        <r>  0.0178  0.0632  0.0146  0.0020  0.0559  0.0113  0.0417  0.0186  0.0045 </r>
        <r>  0.0025  0.0089  0.1034  0.0003  0.0079  0.0798  0.0059  0.1315  0.0006 </r>
       </set>
       <set comment="band 21">
        <r>  0.0242  0.0157  0.0216  0.0130  0.0004  0.0379  0.1146  0.0396  0.0022 </r>
        <r>  0.0309  0.0201  0.0169  0.0166  0.0005  0.0296  0.1465  0.0310  0.0028 </r>
       </set>
       <set comment="band 22">
        <r>  0.0309  0.0201  0.0169  0.0166  0.0005  0.0296  0.1465  0.0310  0.0028 </r>
        <r>  0.0242  0.0157  0.0216  0.0130  0.0004  0.0379  0.1146  0.0396  0.0022 </r>
       </set>
       <set comment="band 23">
        <r>  0.0772  0.1346  0.0008  0.0089  0.2080  0.0032  0.0015  0.0013  0.0367 </r>
        <r>  0.0026  0.0045  0.0240  0.0003  0.0070  0.0949  0.0001  0.0398  0.0012 </r>
       </set>
       <set comment="band 24">
        <r>  0.0026  0.0045  0.0240  0.0003  0.0070  0.0949  0.0001  0.0398  0.0012 </r>
        <r>  0.0772  0.1346  0.0008  0.0089  0.2080  0.0032  0.0015  0.0013  0.0367 </r>
       </set>
      </set>
      <set comment="kpoint 95">
       <set comment="band 1">
        <r>  0.0000  0.0238  0.0000  0.0238  0.0738  0.1031  0.0000  0.1031  0.0738 </r>
        <r>  0.0000  0.0245  0.0000  0.0245  0.0757  0.1005  0.0000  0.1005  0.0757 </r>
       </set>
       <set comment="band 2">
        <r>  0.0000  0.0245  0.0000  0.0245  0.0757  0.1005  0.0000  0.1005  0.0757 </r>
        <r>  0.0000  0.0238  0.0000  0.0238  0.0738  0.1031  0.0000  0.1031  0.0738 </r>
       </set>
       <set comment="band 3">
        <r>  0.0055  0.0000  0.0000  0.0000  0.0000  0.2588  0.0235  0.2588  0.0000 </r>
        <r>  0.0546  0.0000  0.0000  0.0000  0.0000  0.0260  0.2336  0.0260  0.0000 </r>
       </set>
       <set comment="band 4">
        <r>  0.0546  0.0000  0.0000  0.0000  0.0000  0.0260  0.2336  0.0260  0.0000 </r>
        <r>  0.0055  0.0000  0.0000  0.0000  0.0000  0.2588  0.0235  0.2588  0.0000 </r>
       </set>
       <set comment="band 5">
        <r>  0.0000  0.0221  0.0213  0.0221  0.1480  0.0000  0.0000  0.0000  0.1480 </r>
        <r>  0.0000  0.0304  0.0155  0.0304  0.2039  0.0000  0.0000  0.0000  0.2039 </r>
       </set>
       <set comment="band 6">
        <r>  0.0000  0.0304  0.0155  0.0304  0.2039  0.0000  0.0000  0.0000  0.2039 </r>
        <r>  0.0000  0.0221  0.0213  0.0221  0.1480  0.0000  0.0000  0.0000  0.1480 </r>
       </set>
       <set comment="band 7">
        <r>  0.0000  0.0013  0.0000  0.0013  0.1321  0.1064  0.0000  0.1064  0.1321 </r>
        <r>  0.0000  0.0012  0.0000  0.0012  0.1230  0.1143  0.0000  0.1143  0.1230 </r>
       </set>
       <set comment="band 8">
        <r>  0.0000  0.0012  0.0000  0.0012  0.1230  0.1143  0.0000  0.1143  0.1230 </r>
        <r>  0.0000  0.0013  0.0000  0.0013  0.1321  0.1064  0.0000  0.1064  0.1321 </r>
       </set>
       <set comment="band 9">
        <r>  0.0029  0.0000  0.0000  0.0000  0.0000  0.0111  0.6415  0.0111  0.0000 </r>
        <r>  0.0002  0.0000  0.0000  0.0000  0.0000  0.1308  0.0546  0.1308  0.0000 </r>
       </set>
       <set comment="band 10">
        <r>  0.0002  0.0000  0.0000  0.0000  0.0000  0.1308  0.0546  0.1308  0.0000 </r>
        <r>  0.0029  0.0000  0.0000  0.0000  0.0000  0.0111  0.6415  0.0111  0.0000 </r>
       </set>
       <set comment="band 11">
        <r>  0.0000  0.0699  0.0687  0.0699  0.0859  0.0000  0.0000  0.0000  0.0859 </r>
        <r>  0.0000  0.0679  0.0707  0.0679  0.0835  0.0000  0.0000  0.0000  0.0835 </r>
       </set>
       <set comment="band 12">
        <r>  0.0000  0.0679  0.0707  0.0679  0.0835  0.0000  0.0000  0.0000  0.0835 </r>
        <r>  0.0000  0.0699  0.0687  0.0699  0.0859  0.0000  0.0000  0.0000  0.0859 </r>
       </set>
       <set comment="band 13">
        <r>  0.0000  0.1015  0.0000  0.1015  0.0790  0.0283  0.0000  0.0283  0.0790 </r>
        <r>  0.0000  0.0547  0.0000  0.0547  0.0426  0.0525  0.0000  0.0525  0.0426 </r>
       </set>
       <set comment="band 14">
        <r>  0.0000  0.0547  0.0000  0.0547  0.0426  0.0525  0.0000  0.0525  0.0426 </r>
        <r>  0.0000  0.1015  0.0000  0.1015  0.0790  0.0283  0.0000  0.0283  0.0790 </r>
       </set>
       <set comment="band 15">
        <r>  0.0689  0.0000  0.0000  0.0000  0.0000  0.0940  0.0051  0.0940  0.0000 </r>
        <r>  0.4579  0.0000  0.0000  0.0000  0.0000  0.0142  0.0336  0.0142  0.0000 </r>
       </set>
       <set comment="band 16">
        <r>  0.4579  0.0000  0.0000  0.0000  0.0000  0.0142  0.0336  0.0142  0.0000 </r>
        <r>  0.0689  0.0000  0.0000  0.0000  0.0000  0.0940  0.0051  0.0940  0.0000 </r>
       </set>
       <set comment="band 17">
        <r>  0.0000  0.0276  0.2283  0.0276  0.0135  0.0000  0.0000  0.0000  0.0135 </r>
        <r>  0.0000  0.0302  0.2083  0.0302  0.0148  0.0000  0.0000  0.0000  0.0148 </r>
       </set>
       <set comment="band 18">
        <r>  0.0000  0.0302  0.2083  0.0302  0.0148  0.0000  0.0000  0.0000  0.0148 </r>
        <r>  0.0000  0.0276  0.2283  0.0276  0.0135  0.0000  0.0000  0.0000  0.0135 </r>
       </set>
       <set comment="band 19">
        <r>  0.0000  0.0242  0.0000  0.0242  0.0077  0.0849  0.0000  0.0849  0.0077 </r>
        <r>  0.0000  0.0281  0.0000  0.0281  0.0089  0.0732  0.0000  0.0732  0.0089 </r>
       </set>
       <set comment="band 20">
        <r>  0.0000  0.0281  0.0000  0.0281  0.0089  0.0732  0.0000  0.0732  0.0089 </r>
        <r>  0.0000  0.0242  0.0000  0.0242  0.0077  0.0849  0.0000  0.0849  0.0077 </r>
       </set>
       <set comment="band 21">
        <r>  0.0253  0.0000  0.0000  0.0000  0.0000  0.0723  0.0800  0.0723  0.0000 </r>
        <r>  0.0815  0.0000  0.0000  0.0000  0.0000  0.0224  0.2581  0.0224  0.0000 </r>
       </set>
       <set comment="band 22">
        <r>  0.0815  0.0000  0.0000  0.0000  0.0000  0.0224  0.2581  0.0224  0.0000 </r>
        <r>  0.0253  0.0000  0.0000  0.0000  0.0000  0.0723  0.0800  0.0723  0.0000 </r>
       </set>
       <set comment="band 23">
        <r>  0.0000  0.0448  0.0000  0.0450  0.0977  0.0238  0.0000  0.0238  0.0981 </r>
        <r>  0.0000  0.0352  0.0000  0.0354  0.0768  0.0302  0.0000  0.0302  0.0773 </r>
       </set>
       <set comment="band 24">
        <r>  0.0000  0.0353  0.0000  0.0353  0.0771  0.0302  0.0000  0.0302  0.0770 </r>
        <r>  0.0000  0.0452  0.0000  0.0446  0.0984  0.0238  0.0000  0.0238  0.0974 </r>
       </set>
      </set>
     </set>
    </set>
   </array>
  </projected>
 </calculation>
 <structure name="finalpos" >
  <crystal>
   <varray name="basis" >
    <v>       1.32090607      -2.28787643       0.00000000 </v>
    <v>       1.32090607       2.28787643       0.00000000 </v>
    <v>       0.00000000       0.00000000       4.26136793 </v>
   </varray>
   <i name="volume">     25.75630329 </i>
   <varray name="rec_basis" >
    <v>       0.37852805      -0.21854327       0.00000000 </v>
    <v>       0.37852805       0.21854327       0.00000000 </v>
    <v>       0.00000000       0.00000000       0.23466643 </v>
   </varray>
  </crystal>
  <varray name="positions" >
   <v>       0.33333333       0.66666667       0.25000000 </v>
   <v>       0.66666667       0.33333333       0.75000000 </v>
  </varray>
 </structure>
</modeling>
