Pt-hcc                                  
   1.00000000000000     
     2.642853    0.000000    0.000000
    -1.321427    2.288778    0.000000
     0.000000    0.000000    4.578682
   Pt
     2
Direct
  0.000000  0.000000  0.000000
  0.333333  0.666667  0.500000
 
   36   36   64
  242.55      242.22      240.52      235.70      225.68      208.98      185.53      156.91      126.03      96.278    
  70.543      50.495      36.348      27.113      21.152      17.257      14.892      13.647      13.261      13.647    
  14.892      17.257      21.152      27.113      36.348      50.495      70.543      96.278      126.03      156.91    
  185.53      208.98      225.68      235.70      240.52      242.22      242.22      242.22      241.19      237.89    
  230.35      216.78      196.41      170.03      139.98      109.49      81.756      59.051      42.266      30.933    
  23.654      18.863      15.828      14.086      13.301      13.301      14.086      15.828      18.863      23.654    
  30.933      42.266      59.051      81.756      109.49      139.98      170.03      196.41      216.78      230.35    
  237.89      241.19      240.52      241.20      240.52      237.89      231.78      220.45      202.75      178.84    
  150.41      120.29      91.648      67.138      48.199      34.905      26.220      20.553      16.841      14.588    
  13.400      13.032      13.400      14.588      16.841      20.553      26.220      34.906      48.199      67.138    
  91.648      120.29      150.41      178.84      202.75      220.45      231.78      237.89      235.70      237.91    
  237.91      235.70      230.35      220.45      204.82      183.24      156.82      127.87      99.353      73.991    
  53.602      38.729      28.735      22.225      17.880      15.129      13.548      12.835      12.835      13.548    
  15.129      17.880      22.225      28.735      38.729      53.602      73.991      99.353      127.87      156.82    
  183.24      204.82      220.45      230.35      225.68      230.39      231.83      230.39      225.68      216.78    
  202.75      183.24      158.97      131.78      104.23      78.954      57.928      42.038      31.023      23.763    
  18.877      15.674      13.728      12.699      12.379      12.699      13.728      15.674      18.877      23.763    
  31.023      42.038      57.928      78.954      104.23      131.78      158.97      183.24      202.75      216.78    
  208.98      216.82      220.52      220.52      216.82      208.98      196.41      178.84      156.82      131.78    
  105.90      81.557      60.723      44.479      32.867      25.054      19.758      16.183      13.917      12.610    
  12.018      12.018      12.610      13.917      16.183      19.758      25.054      32.867      44.479      60.723    
  81.557      105.90      131.78      156.82      178.84      196.41      185.53      196.44      202.82      204.90    
  202.82      196.44      185.53      170.03      150.41      127.87      104.23      81.557      61.689      45.775    
  34.068      25.993      20.450      16.612      14.094      12.556      11.737      11.482      11.737      12.556    
  14.094      16.612      20.450      25.993      34.068      45.775      61.689      81.557      104.23      127.87    
  150.41      170.03      156.91      170.05      178.89      183.31      183.31      178.89      170.05      156.91    
  139.98      120.29      99.353      78.954      60.723      45.775      34.486      26.489      20.891      16.923    
  14.238      12.525      11.526      11.070      11.070      11.526      12.525      14.238      16.923      20.891    
  26.489      34.486      45.775      60.723      78.954      99.353      120.29      139.98      126.03      139.98    
  150.43      156.85      159.01      156.85      150.43      139.98      126.03      109.49      91.648      73.991    
  57.928      44.479      34.068      26.489      21.043      17.086      14.332      12.508      11.378      10.768    
  10.576      10.768      11.378      12.508      14.332      17.086      21.043      26.489      34.068      44.479    
  57.928      73.991      91.648      109.49      96.278      109.47      120.26      127.85      131.76      131.76    
  127.85      120.26      109.47      96.278      81.756      67.138      53.602      42.038      32.867      25.993    
  20.891      17.086      14.365      12.501      11.290      10.569      10.235      10.235      10.569      11.290    
  12.501      14.365      17.086      20.891      25.993      32.867      42.038      53.602      67.138      81.756    
  70.543      81.717      91.584      99.276      104.15      105.81      104.15      99.276      91.584      81.717    
  70.543      59.051      48.199      38.729      31.023      25.054      20.450      16.923      14.332      12.501    
  11.260      10.470      10.033      9.8936      10.033      10.470      11.260      12.501      14.332      16.923    
  20.450      25.054      31.023      38.729      48.199      59.051      50.495      59.003      67.049      73.873    
  78.818      81.413      81.413      78.818      73.873      67.049      59.003      50.495      42.266      34.906    
  28.735      23.763      19.758      16.612      14.238      12.508      11.290      10.470      9.9665      9.7271    
  9.7271      9.9665      10.470      11.290      12.508      14.238      16.612      19.758      23.763      28.735    
  34.906      42.266      36.348      42.217      48.102      53.464      57.760      60.537      61.497      60.537    
  57.760      53.464      48.102      42.217      36.348      30.933      26.220      22.225      18.877      16.183    
  14.094      12.525      11.378      10.569      10.033      9.7271      9.6276      9.7271      10.033      10.569    
  11.378      12.525      14.094      16.183      18.877      22.225      26.220      30.933      27.113      30.889    
  34.814      38.592      41.864      44.279      45.561      45.561      44.279      41.864      38.592      34.814    
  30.889      27.113      23.654      20.553      17.880      15.674      13.917      12.556      11.526      10.768    
  10.235      9.8936      9.7271      9.7271      9.8936      10.235      10.768      11.526      12.556      13.917    
  15.674      17.880      20.553      23.654      21.152      23.617      26.141      28.614      30.863      32.677    
  33.858      34.269      33.858      32.677      30.863      28.614      26.141      23.617      21.152      18.863    
  16.841      15.129      13.728      12.610      11.737      11.070      10.576      10.235      10.033      9.9665    
  10.033      10.235      10.576      11.070      11.737      12.610      13.728      15.129      16.841      18.863    
  17.257      18.834      20.490      22.126      23.629      24.889      25.806      26.291      26.291      25.806    
  24.889      23.629      22.126      20.490      18.834      17.257      15.828      14.588      13.548      12.699    
  12.018      11.482      11.070      10.768      10.569      10.470      10.470      10.569      10.768      11.070    
  11.482      12.018      12.699      13.548      14.588      15.828      14.892      15.805      16.792      17.803    
  18.771      19.626      20.297      20.725      20.873      20.725      20.297      19.626      18.771      17.803    
  16.792      15.805      14.892      14.086      13.400      12.835      12.379      12.018      11.737      11.526    
  11.378      11.290      11.260      11.290      11.378      11.526      11.737      12.018      12.379      12.835    
  13.400      14.086      13.647      14.068      14.550      15.069      15.593      16.081      16.493      16.792    
  16.949      16.949      16.792      16.493      16.081      15.593      15.069      14.550      14.068      13.647    
  13.301      13.032      12.835      12.699      12.610      12.556      12.525      12.508      12.501      12.501    
  12.508      12.525      12.556      12.610      12.699      12.835      13.032      13.301      13.261      13.285    
  13.368      13.501      13.664      13.839      14.004      14.139      14.227      14.258      14.227      14.139    
  14.004      13.839      13.664      13.501      13.368      13.285      13.261      13.301      13.400      13.548    
  13.728      13.917      14.094      14.238      14.332      14.365      14.332      14.238      14.094      13.917    
  13.728      13.548      13.400      13.301      13.647      13.285      13.002      12.793      12.647      12.549    
  12.487      12.451      12.431      12.422      12.422      12.431      12.451      12.487      12.549      12.647    
  12.793      13.002      13.285      13.647      14.086      14.588      15.129      15.674      16.183      16.612    
  16.923      17.086      17.086      16.923      16.612      16.183      15.674      15.129      14.588      14.086    
  14.892      14.068      13.368      12.793      12.331      11.965      11.682      11.470      11.321      11.233    
  11.203      11.233      11.321      11.470      11.682      11.965      12.331      12.793      13.368      14.068    
  14.892      15.828      16.841      17.880      18.877      19.758      20.450      20.891      21.043      20.891    
  20.450      19.758      18.877      17.880      16.841      15.828      17.257      15.805      14.550      13.501    
  12.647      11.965      11.431      11.022      10.723      10.527      10.429      10.429      10.527      10.723    
  11.022      11.431      11.965      12.647      13.501      14.550      15.805      17.257      18.863      20.553    
  22.225      23.763      25.054      25.993      26.489      26.489      25.993      25.054      23.763      22.225    
  20.553      18.863      21.152      18.834      16.792      15.069      13.664      12.549      11.682      11.022    
  10.535      10.200      10.002      9.9370      10.002      10.200      10.535      11.022      11.682      12.549    
  13.664      15.069      16.792      18.834      21.152      23.654      26.220      28.735      31.023      32.867    
  34.068      34.486      34.068      32.867      31.023      28.735      26.220      23.654      27.113      23.617    
  20.490      17.803      15.593      13.839      12.487      11.470      10.723      10.200      9.8661      9.7033    
  9.7033      9.8661      10.200      10.723      11.470      12.487      13.839      15.593      17.803      20.490    
  23.617      27.113      30.933      34.906      38.729      42.038      44.479      45.775      45.775      44.479    
  42.038      38.729      34.905      30.933      36.348      30.889      26.141      22.126      18.771      16.081    
  14.004      12.451      11.321      10.527      10.002      9.7033      9.6061      9.7033      10.002      10.527    
  11.321      12.451      14.004      16.081      18.771      22.126      26.141      30.889      36.348      42.266    
  48.199      53.602      57.928      60.723      61.689      60.723      57.928      53.602      48.199      42.266    
  50.495      42.217      34.814      28.614      23.629      19.626      16.493      14.139      12.431      11.233    
  10.429      9.9371      9.7033      9.7033      9.9370      10.429      11.233      12.431      14.139      16.493    
  19.626      23.629      28.614      34.814      42.217      50.495      59.051      67.138      73.991      78.954    
  81.557      81.557      78.954      73.991      67.138      59.051      70.543      59.003      48.102      38.592    
  30.863      24.889      20.297      16.792      14.227      12.422      11.203      10.429      10.002      9.8661    
  10.002      10.429      11.203      12.422      14.227      16.792      20.297      24.889      30.863      38.592    
  48.102      59.003      70.543      81.756      91.648      99.353      104.23      105.90      104.23      99.353    
  91.648      81.756      96.278      81.717      67.049      53.464      41.864      32.677      25.806      20.725    
  16.948      14.258      12.422      11.233      10.527      10.200      10.200      10.527      11.233      12.422    
  14.258      16.949      20.725      25.806      32.677      41.864      53.464      67.049      81.717      96.278    
  109.49      120.29      127.87      131.78      131.78      127.87      120.29      109.49      126.03      109.47    
  91.584      73.873      57.760      44.279      33.858      26.291      20.873      16.948      14.227      12.431    
  11.321      10.723      10.535      10.723      11.321      12.431      14.227      16.949      20.873      26.291    
  33.858      44.279      57.760      73.873      91.584      109.47      126.03      139.98      150.41      156.82    
  158.97      156.82      150.41      139.98      156.91      139.98      120.26      99.276      78.818      60.537    
  45.561      34.269      26.291      20.725      16.792      14.139      12.451      11.470      11.022      11.022    
  11.470      12.451      14.139      16.792      20.725      26.291      34.269      45.561      60.537      78.818    
  99.276      120.26      139.98      156.91      170.03      178.84      183.24      183.24      178.84      170.03    
  185.53      170.05      150.43      127.85      104.15      81.413      61.497      45.561      33.858      25.806    
  20.297      16.493      14.004      12.487      11.682      11.431      11.682      12.487      14.004      16.493    
  20.297      25.806      33.858      45.561      61.497      81.413      104.15      127.85      150.43      170.05    
  185.53      196.41      202.75      204.82      202.75      196.41      208.98      196.44      178.89      156.85    
  131.76      105.81      81.413      60.537      44.279      32.677      24.889      19.626      16.081      13.839    
  12.549      11.965      11.965      12.549      13.839      16.081      19.626      24.889      32.677      44.279    
  60.537      81.413      105.81      131.76      156.85      178.89      196.44      208.98      216.78      220.45    
  220.45      216.78      225.68      216.82      202.82      183.31      159.01      131.76      104.15      78.818    
  57.760      41.864      30.863      23.629      18.771      15.593      13.664      12.647      12.331      12.647    
  13.664      15.593      18.771      23.629      30.863      41.864      57.760      78.818      104.15      131.76    
  159.01      183.31      202.82      216.82      225.68      230.35      231.78      230.35      235.70      230.39    
  220.52      204.90      183.31      156.85      127.85      99.276      73.873      53.464      38.592      28.614    
  22.126      17.803      15.069      13.501      12.793      12.793      13.501      15.069      17.803      22.126    
  28.614      38.592      53.464      73.873      99.276      127.85      156.85      183.31      204.90      220.52    
  230.39      235.70      237.89      237.89      240.52      237.91      231.83      220.52      202.82      178.89    
  150.43      120.26      91.584      67.049      48.102      34.814      26.141      20.490      16.792      14.550    
  13.368      13.002      13.368      14.550      16.792      20.490      26.141      34.814      48.102      67.049    
  91.584      120.26      150.43      178.89      202.82      220.52      231.83      237.91      240.52      241.19    
  242.22      241.20      237.91      230.39      216.82      196.44      170.05      139.98      109.47      81.717    
  59.003      42.217      30.889      23.617      18.834      15.805      14.068      13.285      13.285      14.068    
  15.805      18.834      23.617      30.889      42.217      59.003      81.717      109.47      139.98      170.05    
  196.44      216.82      230.39      237.91      241.20      242.22      242.40      241.98      240.05      234.91    
  224.54      207.54      183.91      155.27      124.53      95.018      69.581      49.823      35.911      26.833    
  20.956      17.114      14.783      13.554      13.174      13.554      14.783      17.114      20.956      26.833    
  35.911      49.823      69.581      95.018      124.53      155.27      183.91      207.54      224.54      234.91    
  240.05      241.98      241.98      241.98      240.80      237.22      229.35      215.45      194.85      168.38    
  138.40      108.11      80.652      58.247      41.726      30.588      23.423      18.697      15.704      13.986    
  13.211      13.211      13.986      15.704      18.697      23.423      30.588      41.726      58.247      80.652    
  108.11      138.40      168.38      194.85      215.45      229.35      237.22      240.80      240.05      240.81    
  240.05      237.22      230.83      219.19      201.24      177.20      148.79      118.82      90.432      66.217    
  47.560      34.489      25.950      20.362      16.701      14.479      13.308      12.944      13.308      14.479    
  16.701      20.362      25.950      34.489      47.560      66.217      90.432      118.82      148.79      177.20    
  201.24      219.19      230.83      237.22      234.91      237.24      237.24      234.91      229.35      219.19    
  203.33      181.61      155.17      126.35      98.057      72.979      52.875      38.244      28.423      22.010    
  17.724      15.011      13.452      12.748      12.748      13.452      15.011      17.724      22.010      28.423    
  38.244      52.875      72.979      98.057      126.35      155.17      181.61      203.33      219.19      229.35    
  224.54      229.39      230.88      229.39      224.54      215.45      201.24      181.61      157.32      130.23    
  102.89      77.879      57.135      41.496      30.670      23.526      18.706      15.547      13.627      12.612    
  12.296      12.612      13.627      15.547      18.706      23.526      30.670      41.496      57.135      77.879    
  102.89      130.23      157.32      181.61      201.24      215.45      207.54      215.50      219.26      219.26    
  215.50      207.54      194.85      177.20      155.17      130.23      104.54      80.450      59.888      43.895    
  32.481      24.797      19.574      16.047      13.812      12.522      11.938      11.938      12.522      13.812    
  16.047      19.574      24.797      32.481      43.895      59.888      80.450      104.54      130.23      155.17    
  177.20      194.85      183.91      194.89      201.32      203.42      201.32      194.89      183.91      168.38    
  148.79      126.35      102.89      80.450      60.840      45.170      33.661      25.721      20.255      16.469    
  13.985      12.467      11.659      11.407      11.659      12.467      13.985      16.469      20.255      25.721    
  33.661      45.170      60.840      80.450      102.89      126.35      148.79      168.38      155.27      168.41    
  177.26      181.69      181.69      177.26      168.41      155.27      138.40      118.82      98.057      77.879    
  59.888      45.170      34.070      26.209      20.691      16.775      14.126      12.435      11.449      10.998    
  10.998      11.449      12.435      14.126      16.775      20.691      26.209      34.070      45.170      59.888    
  77.879      98.057      118.82      138.40      124.53      138.40      148.81      155.22      157.38      155.22    
  148.81      138.40      124.53      108.11      90.432      72.978      57.135      43.895      33.661      26.209    
  20.840      16.936      14.218      12.418      11.301      10.699      10.509      10.699      11.301      12.418    
  14.218      16.936      20.840      26.209      33.661      43.895      57.135      72.979      90.432      108.11    
  95.018      108.09      118.80      126.34      130.23      130.23      126.34      118.80      108.09      95.018    
  80.652      66.217      52.875      41.496      32.481      25.721      20.691      16.936      14.250      12.411    
  11.213      10.501      10.170      10.170      10.501      11.213      12.411      14.250      16.936      20.691    
  25.721      32.481      41.496      52.875      66.217      80.652      69.581      80.620      90.379      97.996    
  102.82      104.48      102.82      97.996      90.379      80.619      69.581      58.247      47.559      38.244    
  30.670      24.797      20.255      16.775      14.218      12.411      11.184      10.402      9.9700      9.8319    
  9.9700      10.402      11.184      12.411      14.218      16.775      20.255      24.797      30.670      38.244    
  47.560      58.247      49.823      58.205      66.140      72.877      77.764      80.328      80.328      77.764    
  72.877      66.140      58.205      49.823      41.726      34.489      28.423      23.526      19.574      16.469    
  14.126      12.418      11.213      10.402      9.9039      9.6667      9.6667      9.9039      10.402      11.213    
  12.418      14.126      16.469      19.574      23.526      28.423      34.489      41.726      35.911      41.682    
  47.473      52.754      56.987      59.725      60.672      59.725      56.987      52.754      47.473      41.682    
  35.911      30.588      25.950      22.010      18.706      16.047      13.985      12.435      11.301      10.501    
  9.9700      9.6667      9.5679      9.6667      9.9700      10.501      11.301      12.435      13.985      16.047    
  18.706      22.010      25.950      30.588      26.833      30.548      34.407      38.122      41.341      43.717    
  44.979      44.979      43.717      41.341      38.122      34.407      30.548      26.833      23.423      20.362    
  17.724      15.547      13.812      12.467      11.449      10.699      10.170      9.8319      9.6667      9.6667    
  9.8319      10.170      10.699      11.449      12.467      13.812      15.547      17.724      20.362      23.423    
  20.956      23.390      25.880      28.315      30.527      32.311      33.473      33.877      33.473      32.311    
  30.527      28.315      25.880      23.390      20.956      18.697      16.701      15.011      13.627      12.522    
  11.659      10.998      10.509      10.170      9.9700      9.9039      9.9700      10.170      10.509      10.998    
  11.659      12.522      13.627      15.011      16.701      18.697      17.114      18.672      20.307      21.923    
  23.408      24.652      25.556      26.033      26.033      25.556      24.652      23.408      21.923      20.307    
  18.672      17.114      15.704      14.479      13.452      12.612      11.938      11.407      10.998      10.699    
  10.501      10.402      10.402      10.501      10.699      10.998      11.407      11.938      12.612      13.452    
  14.479      15.704      14.783      15.685      16.659      17.657      18.614      19.459      20.122      20.546    
  20.691      20.546      20.122      19.459      18.614      17.657      16.659      15.685      14.783      13.986    
  13.308      12.748      12.296      11.938      11.659      11.449      11.301      11.213      11.184      11.213    
  11.301      11.449      11.659      11.938      12.296      12.748      13.308      13.986      13.554      13.971    
  14.448      14.961      15.478      15.961      16.368      16.664      16.819      16.819      16.664      16.368    
  15.961      15.478      14.961      14.448      13.971      13.554      13.211      12.944      12.748      12.612    
  12.522      12.467      12.435      12.418      12.411      12.411      12.418      12.435      12.467      12.522    
  12.612      12.748      12.944      13.211      13.174      13.199      13.282      13.413      13.576      13.749    
  13.913      14.046      14.133      14.164      14.133      14.046      13.913      13.749      13.576      13.413    
  13.282      13.198      13.173      13.211      13.308      13.452      13.627      13.812      13.985      14.126    
  14.218      14.250      14.218      14.126      13.985      13.812      13.627      13.452      13.308      13.211    
  13.554      13.198      12.921      12.715      12.571      12.476      12.415      12.379      12.360      12.351    
  12.351      12.360      12.379      12.415      12.476      12.571      12.715      12.921      13.198      13.554    
  13.986      14.479      15.011      15.547      16.047      16.469      16.775      16.936      16.936      16.775    
  16.469      16.047      15.547      15.011      14.479      13.986      14.783      13.971      13.282      12.715    
  12.260      11.899      11.620      11.410      11.263      11.176      11.147      11.176      11.263      11.410    
  11.620      11.899      12.260      12.715      13.282      13.971      14.783      15.704      16.701      17.724    
  18.706      19.574      20.255      20.691      20.840      20.691      20.255      19.574      18.706      17.724    
  16.701      15.704      17.114      15.685      14.447      13.413      12.571      11.899      11.372      10.967    
  10.672      10.478      10.381      10.381      10.478      10.672      10.967      11.372      11.899      12.571    
  13.413      14.448      15.685      17.114      18.697      20.362      22.010      23.526      24.797      25.721    
  26.209      26.209      25.721      24.797      23.526      22.010      20.362      18.697      20.956      18.672    
  16.659      14.961      13.576      12.476      11.620      10.967      10.486      10.154      9.9587      9.8940    
  9.9587      10.154      10.486      10.967      11.620      12.476      13.576      14.961      16.659      18.672    
  20.956      23.423      25.950      28.423      30.670      32.481      33.661      34.070      33.661      32.481    
  30.670      28.423      25.950      23.423      26.833      23.390      20.307      17.657      15.478      13.749    
  12.415      11.410      10.672      10.154      9.8238      9.6625      9.6625      9.8238      10.154      10.672    
  11.410      12.415      13.749      15.478      17.657      20.307      23.390      26.833      30.588      34.489    
  38.244      41.496      43.895      45.170      45.170      43.895      41.496      38.244      34.489      30.588    
  35.911      30.548      25.880      21.923      18.614      15.961      13.913      12.379      11.263      10.478    
  9.9587      9.6625      9.5662      9.6625      9.9587      10.478      11.263      12.379      13.913      15.961    
  18.614      21.923      25.880      30.548      35.911      41.726      47.559      52.875      57.135      59.888    
  60.840      59.888      57.135      52.875      47.560      41.726      49.823      41.682      34.407      28.315    
  23.408      19.459      16.368      14.046      12.360      11.176      10.381      9.8940      9.6625      9.6625    
  9.8940      10.381      11.176      12.360      14.046      16.368      19.459      23.408      28.315      34.407    
  41.682      49.823      58.247      66.217      72.978      77.879      80.450      80.450      77.879      72.979    
  66.217      58.247      69.581      58.205      47.473      38.122      30.527      24.652      20.122      16.664    
  14.133      12.351      11.147      10.381      9.9587      9.8238      9.9587      10.381      11.147      12.351    
  14.133      16.664      20.122      24.652      30.527      38.122      47.473      58.205      69.581      80.652    
  90.432      98.057      102.89      104.54      102.89      98.057      90.432      80.652      95.018      80.620    
  66.140      52.754      41.341      32.311      25.556      20.546      16.819      14.164      12.351      11.176    
  10.478      10.154      10.154      10.478      11.176      12.351      14.164      16.819      20.546      25.556    
  32.311      41.341      52.754      66.140      80.619      95.018      108.11      118.82      126.35      130.23    
  130.23      126.35      118.82      108.11      124.53      108.09      90.379      72.877      56.987      43.717    
  33.473      26.033      20.691      16.819      14.133      12.360      11.263      10.672      10.486      10.672    
  11.263      12.360      14.133      16.819      20.691      26.033      33.473      43.717      56.987      72.877    
  90.379      108.09      124.53      138.40      148.79      155.17      157.32      155.17      148.79      138.40    
  155.27      138.40      118.80      97.996      77.764      59.725      44.979      33.877      26.033      20.546    
  16.664      14.046      12.379      11.410      10.967      10.967      11.410      12.379      14.046      16.664    
  20.546      26.033      33.877      44.979      59.725      77.764      97.996      118.80      138.40      155.27    
  168.38      177.20      181.61      181.61      177.20      168.38      183.91      168.41      148.81      126.34    
  102.82      80.328      60.672      44.979      33.473      25.556      20.122      16.368      13.913      12.415    
  11.620      11.372      11.620      12.415      13.913      16.368      20.122      25.556      33.473      44.979    
  60.672      80.328      102.82      126.34      148.81      168.41      183.91      194.85      201.24      203.33    
  201.24      194.85      207.54      194.89      177.26      155.22      130.23      104.48      80.328      59.725    
  43.717      32.311      24.652      19.459      15.961      13.749      12.476      11.899      11.899      12.476    
  13.749      15.961      19.459      24.652      32.311      43.717      59.725      80.328      104.48      130.23    
  155.22      177.26      194.89      207.54      215.45      219.19      219.19      215.45      224.54      215.50    