Pt-hcc                                  
   1.00000000000000     
     2.642853    0.000000    0.000000
    -1.321427    2.288778    0.000000
     0.000000    0.000000    4.578682
   Pt
     2
Direct
  0.000000  0.000000  0.000000
  0.333333  0.666667  0.500000
 
   36   36   64
 0.24255466380E+03 0.24221624360E+03 0.24051922874E+03 0.23570286305E+03 0.22567997233E+03
 0.20898187973E+03 0.18552958395E+03 0.15691061852E+03 0.12603093761E+03 0.96277767512E+02
 0.70542546359E+02 0.50494936590E+02 0.36348490109E+02 0.27112862195E+02 0.21151978807E+02
 0.17256599363E+02 0.14892359443E+02 0.13646923253E+02 0.13260875780E+02 0.13646923999E+02
 0.14892360560E+02 0.17256600296E+02 0.21151979118E+02 0.27112861808E+02 0.36348489379E+02
 0.50494936174E+02 0.70542546912E+02 0.96277769366E+02 0.12603094059E+03 0.15691062199E+03
 0.18552958703E+03 0.20898188170E+03 0.22567997291E+03 0.23570286248E+03 0.24051922770E+03
 0.24221624283E+03 0.24221624283E+03 0.24221622783E+03 0.24118902003E+03 0.23788839422E+03
 0.23035383968E+03 0.21678164036E+03 0.19640501071E+03 0.17002814132E+03 0.13997997557E+03
 0.10949198188E+03 0.81756058312E+02 0.59051215677E+02 0.42266333753E+02 0.30933366919E+02
 0.23653603065E+02 0.18863206406E+02 0.15828043631E+02 0.14085874550E+02 0.13300672923E+02
 0.13300670600E+02 0.14085869000E+02 0.15828038292E+02 0.18863204772E+02 0.23653606595E+02
 0.30933374036E+02 0.42266340557E+02 0.59051218151E+02 0.81756054938E+02 0.10949197538E+03
 0.13997997256E+03 0.17002814997E+03 0.19640503699E+03 0.21678168471E+03 0.23035389565E+03
 0.23788844960E+03 0.24118906079E+03 0.24051922770E+03 0.24119798780E+03 0.24051918270E+03
 0.23788837276E+03 0.23178451274E+03 0.22045025980E+03 0.20274856147E+03 0.17884334417E+03
 0.15041261454E+03 0.12028616614E+03 0.91648446815E+02 0.67137631790E+02 0.48199355991E+02
 0.34905497574E+02 0.26219723881E+02 0.20552880784E+02 0.16841471632E+02 0.14588223858E+02
 0.13400295041E+02 0.13031840824E+02 0.13400287135E+02 0.14588212807E+02 0.16841464278E+02
 0.20552882121E+02 0.26219733994E+02 0.34905511211E+02 0.48199365182E+02 0.67137630429E+02
 0.91648434857E+02 0.12028615123E+03 0.15041260981E+03 0.17884336286E+03 0.20274861057E+03
 0.22045033547E+03 0.23178459998E+03 0.23788844960E+03 0.23570286248E+03 0.23791137337E+03
 0.23791135208E+03 0.23570280543E+03 0.23035382054E+03 0.22045026424E+03 0.20482012856E+03
 0.18323949188E+03 0.15681706270E+03 0.12787445497E+03 0.99353317292E+02 0.73991020727E+02
 0.53601905743E+02 0.38728538574E+02 0.28735384466E+02 0.22225271814E+02 0.17880362477E+02
 0.15129260745E+02 0.13548399804E+02 0.12834883796E+02 0.12834878858E+02 0.13548387898E+02
 0.15129249006E+02 0.17880358284E+02 0.22225278539E+02 0.28735399215E+02 0.38728553296E+02
 0.53601911300E+02 0.73991012115E+02 0.99353297268E+02 0.12787443424E+03 0.15681705594E+03
 0.18323951136E+03 0.20482017794E+03 0.22045033547E+03 0.23035389565E+03 0.22567997291E+03
 0.23038962687E+03 0.23183432161E+03 0.23038960717E+03 0.22567994127E+03 0.21678165336E+03
 0.20274859117E+03 0.18323951029E+03 0.15897072130E+03 0.13177733080E+03 0.10423013368E+03
 0.78954120145E+02 0.57927923172E+02 0.42037854010E+02 0.31022759475E+02 0.23763016869E+02
 0.18877470263E+02 0.15674451070E+02 0.13727666512E+02 0.12698758198E+02 0.12379031381E+02
 0.12698750410E+02 0.13727655385E+02 0.15674443132E+02 0.18877470573E+02 0.23763026098E+02
 0.31022773133E+02 0.42037864364E+02 0.57927922948E+02 0.78954106403E+02 0.10423010976E+03
 0.13177730551E+03 0.15897070530E+03 0.18323951136E+03 0.20274861057E+03 0.21678168471E+03
 0.20898188170E+03 0.21682300450E+03 0.22051852145E+03 0.22051852507E+03 0.21682301550E+03
 0.20898190036E+03 0.19640506283E+03 0.17884339397E+03 0.15681708873E+03 0.13177733540E+03
 0.10589747270E+03 0.81556754032E+02 0.60722632275E+02 0.44479060308E+02 0.32867224847E+02
 0.25053500873E+02 0.19758075306E+02 0.16182820397E+02 0.13917003361E+02 0.12610070225E+02
 0.12017925630E+02 0.12017923207E+02 0.12610064176E+02 0.13916996752E+02 0.16182816692E+02
 0.19758076642E+02 0.25053506915E+02 0.32867232621E+02 0.44479065248E+02 0.60722629862E+02
 0.81556741553E+02 0.10589745015E+03 0.13177730551E+03 0.15681705594E+03 0.17884336286E+03
 0.19640503699E+03 0.18552958703E+03 0.19644132133E+03 0.20281757861E+03 0.20490214609E+03
 0.20281760613E+03 0.19644137005E+03 0.18552964634E+03 0.17002820810E+03 0.15041265719E+03
 0.12787446580E+03 0.10423012541E+03 0.81556745183E+02 0.61688543509E+02 0.45775155899E+02
 0.34068435465E+02 0.25992547185E+02 0.20449573219E+02 0.16611780141E+02 0.14094117623E+02
 0.12555708304E+02 0.11737263575E+02 0.11481813487E+02 0.11737263198E+02 0.12555707184E+02
 0.14094115450E+02 0.16611777208E+02 0.20449570617E+02 0.25992546428E+02 0.34068437457E+02
 0.45775159863E+02 0.61688546249E+02 0.81556741553E+02 0.10423010976E+03 0.12787443424E+03
 0.15041260981E+03 0.17002814997E+03 0.15691062199E+03 0.17004925554E+03 0.17889266367E+03
 0.18330810815E+03 0.18330812540E+03 0.17889271042E+03 0.17004931844E+03 0.15691068426E+03
 0.13998001979E+03 0.12028617586E+03 0.99353300176E+02 0.78954095302E+02 0.60722615090E+02
 0.45775150013E+02 0.34485667044E+02 0.26488728256E+02 0.20891365052E+02 0.16922656326E+02
 0.14238130448E+02 0.12524559585E+02 0.11526159262E+02 0.11069893198E+02 0.11069895204E+02
 0.11526163799E+02 0.12524563152E+02 0.14238129694E+02 0.16922650388E+02 0.20891356489E+02
 0.26488722136E+02 0.34485668156E+02 0.45775159863E+02 0.60722629862E+02 0.78954106403E+02
 0.99353297268E+02 0.12028615123E+03 0.13997997256E+03 0.12603094059E+03 0.13997973946E+03
 0.15042640876E+03 0.15684680745E+03 0.15900725185E+03 0.15684683204E+03 0.15042644889E+03
 0.13997978066E+03 0.12603096874E+03 0.10949198214E+03 0.91648420452E+02 0.73990984577E+02
 0.57927894014E+02 0.44479045405E+02 0.34068431698E+02 0.26488728650E+02 0.21043309697E+02
 0.17086039258E+02 0.14332007626E+02 0.12508290256E+02 0.11377996978E+02 0.10768166891E+02
 0.10576154123E+02 0.10768173489E+02 0.11378006040E+02 0.12508295865E+02 0.14332005518E+02
 0.17086029628E+02 0.21043297651E+02 0.26488722136E+02 0.34068437457E+02 0.44479065248E+02
 0.57927922948E+02 0.73991012115E+02 0.91648434857E+02 0.10949197538E+03 0.96277769366E+02
 0.10946997466E+03 0.12025838534E+03 0.12785050683E+03 0.13175822736E+03 0.13175823193E+03
 0.12785051750E+03 0.12025839453E+03 0.10946997380E+03 0.96277753060E+02 0.81756023702E+02
 0.67137590804E+02 0.53601873218E+02 0.42037837230E+02 0.32867221270E+02 0.25992549590E+02
 0.20891367718E+02 0.17086040426E+02 0.14364595474E+02 0.12501479219E+02 0.11289710659E+02
 0.10569154214E+02 0.10234585011E+02 0.10234589262E+02 0.10569164658E+02 0.11289721482E+02
 0.12501484295E+02 0.14364591633E+02 0.17086029628E+02 0.20891356489E+02 0.25992546428E+02
 0.32867232621E+02 0.42037864364E+02 0.53601911300E+02 0.67137630429E+02 0.81756054938E+02
 0.70542546912E+02 0.81717090453E+02 0.91583901041E+02 0.99275759507E+02 0.10414787749E+03
 0.10581428704E+03 0.10414787062E+03 0.99275744576E+02 0.91583876685E+02 0.81717056782E+02
 0.70542506634E+02 0.59051176617E+02 0.48199329045E+02 0.38728528383E+02 0.31022762029E+02
 0.25053508260E+02 0.20449579257E+02 0.16922659603E+02 0.14332009630E+02 0.12501480827E+02
 0.11260335049E+02 0.10469977696E+02 0.10033162273E+02 0.98936456965E+01 0.10033169493E+02
 0.10469988693E+02 0.11260344545E+02 0.12501484295E+02 0.14332005518E+02 0.16922650388E+02
 0.20449570617E+02 0.25053506915E+02 0.31022773133E+02 0.38728553296E+02 0.48199365182E+02
 0.59051218151E+02 0.50494936174E+02 0.59003100482E+02 0.67049101494E+02 0.73873219775E+02
 0.78818401613E+02 0.81412832769E+02 0.81412825192E+02 0.78818380125E+02 0.73873187864E+02
 0.67049064228E+02 0.59003063601E+02 0.50494904905E+02 0.42266318716E+02 0.34905500277E+02
 0.28735398220E+02 0.23763032161E+02 0.19758085492E+02 0.16611784779E+02 0.14238133014E+02
 0.12508293897E+02 0.11289715299E+02 0.10469980846E+02 0.99665011884E+01 0.97271375184E+01
 0.97271399648E+01 0.99665075569E+01 0.10469988693E+02 0.11289721482E+02 0.12508295865E+02
 0.14238129694E+02 0.16611777208E+02 0.19758076642E+02 0.23763026098E+02 0.28735399215E+02
 0.34905511211E+02 0.42266340557E+02 0.36348489379E+02 0.42217074650E+02 0.48102472774E+02
 0.53464485228E+02 0.57760470283E+02 0.60537054127E+02 0.61496946941E+02 0.60537039525E+02
 0.57760445418E+02 0.53464457339E+02 0.48102449532E+02 0.42217061730E+02 0.36348488865E+02
 0.30933384113E+02 0.26219750340E+02 0.22225295855E+02 0.18877484452E+02 0.16182825084E+02
 0.14094118336E+02 0.12524562239E+02 0.11378003422E+02 0.10569162026E+02 0.10033167677E+02
 0.97271391072E+01 0.96275846045E+01 0.97271399648E+01 0.10033169493E+02 0.10569164658E+02
 0.11378006040E+02 0.12524563152E+02 0.14094115450E+02 0.16182816692E+02 0.18877470573E+02
 0.22225278539E+02 0.26219733994E+02 0.30933374036E+02 0.27112861808E+02 0.30888905605E+02
 0.34813723204E+02 0.38592002821E+02 0.41863907636E+02 0.44278525211E+02 0.45560888524E+02
 0.45560883589E+02 0.44278512834E+02 0.41863894116E+02 0.38591995641E+02 0.34813727978E+02
 0.30888923804E+02 0.27112890330E+02 0.23653639057E+02 0.20552911243E+02 0.17880379037E+02
 0.15674453989E+02 0.13916999674E+02 0.12555706339E+02 0.11526163159E+02 0.10768175227E+02
 0.10234593060E+02 0.98936495102E+01 0.97271391072E+01 0.97271375184E+01 0.98936456965E+01
 0.10234589262E+02 0.10768173489E+02 0.11526163799E+02 0.12555707184E+02 0.13916996752E+02
 0.15674443132E+02 0.17880358284E+02 0.20552882121E+02 0.23653606595E+02 0.21151979118E+02
 0.23616789820E+02 0.26141212765E+02 0.28614384449E+02 0.30863038434E+02 0.32676697976E+02
 0.33858161992E+02 0.34268602909E+02 0.33858158689E+02 0.32676695112E+02 0.30863041626E+02
 0.28614398500E+02 0.26141239104E+02 0.23616825441E+02 0.21152017403E+02 0.18863238246E+02
 0.16841487344E+02 0.15129259831E+02 0.13727656501E+02 0.12610060928E+02 0.11737261066E+02
 0.11069897532E+02 0.10576160808E+02 0.10234593060E+02 0.10033167677E+02 0.99665011884E+01
 0.10033162273E+02 0.10234585011E+02 0.10576154123E+02 0.11069895204E+02 0.11737263198E+02
 0.12610064176E+02 0.13727655385E+02 0.15129249006E+02 0.16841464278E+02 0.18863204772E+02
 0.17256600296E+02 0.18834142221E+02 0.20489900483E+02 0.22126184866E+02 0.23629015169E+02
 0.24889382292E+02 0.25806357290E+02 0.26290885342E+02 0.26290885258E+02 0.25806358368E+02
 0.24889387796E+02 0.23629028399E+02 0.22126207004E+02 0.20489929397E+02 0.18834172894E+02
 0.17256626403E+02 0.15828054592E+02 0.14588217374E+02 0.13548382896E+02 0.12698740971E+02
 0.12017915234E+02 0.11481811246E+02 0.11069897532E+02 0.10768175227E+02 0.10569162026E+02
 0.10469980846E+02 0.10469977696E+02 0.10569154214E+02 0.10768166891E+02 0.11069893198E+02
 0.11481813487E+02 0.12017923207E+02 0.12698750410E+02 0.13548387898E+02 0.14588212807E+02
 0.15828038292E+02 0.14892360560E+02 0.15805418959E+02 0.16792454178E+02 0.17802739768E+02
 0.18771284979E+02 0.19625992608E+02 0.20296824509E+02 0.20725296334E+02 0.20872642014E+02
 0.20725297149E+02 0.20296827385E+02 0.19625999181E+02 0.18771295943E+02 0.17802753997E+02
 0.16792468460E+02 0.15805428960E+02 0.14892362609E+02 0.14085861712E+02 0.13400272154E+02
 0.12834860389E+02 0.12379014758E+02 0.12017915234E+02 0.11737261066E+02 0.11526163159E+02
 0.11378003422E+02 0.11289715299E+02 0.11260335049E+02 0.11289710659E+02 0.11377996978E+02
 0.11526159262E+02 0.11737263575E+02 0.12017925630E+02 0.12379031381E+02 0.12834878858E+02
 0.13400287135E+02 0.14085869000E+02 0.13646923999E+02 0.14067729626E+02 0.14549841941E+02
 0.15069266958E+02 0.15592731235E+02 0.16080891682E+02 0.16492875757E+02 0.16791518969E+02
 0.16948502871E+02 0.16948502966E+02 0.16791519398E+02 0.16492876732E+02 0.16080893020E+02
 0.15592731950E+02 0.15069265188E+02 0.14549835492E+02 0.14067716848E+02 0.13646904616E+02
 0.13300646226E+02 0.13031814825E+02 0.12834860389E+02 0.12698740971E+02 0.12610060928E+02
 0.12555706339E+02 0.12524562239E+02 0.12508293897E+02 0.12501480827E+02 0.12501479219E+02
 0.12508290256E+02 0.12524559585E+02 0.12555708304E+02 0.12610070225E+02 0.12698758198E+02
 0.12834883796E+02 0.13031840824E+02 0.13300670600E+02 0.13260875780E+02 0.13284797037E+02
 0.13368440082E+02 0.13500580416E+02 0.13664350017E+02 0.13839402506E+02 0.14004318641E+02
 0.14139024986E+02 0.14227086770E+02 0.14257698465E+02 0.14227087174E+02 0.14139025042E+02
 0.14004316998E+02 0.13839397569E+02 0.13664340280E+02 0.13500565005E+02 0.13368419067E+02
 0.13284771601E+02 0.13260848218E+02 0.13300646226E+02 0.13400272154E+02 0.13548382896E+02
 0.13727656501E+02 0.13916999674E+02 0.14094118336E+02 0.14238133014E+02 0.14332009630E+02
 0.14364595474E+02 0.14332007626E+02 0.14238130448E+02 0.14094117623E+02 0.13917003361E+02
 0.13727666512E+02 0.13548399804E+02 0.13400295041E+02 0.13300672923E+02 0.13646923253E+02
 0.13284794021E+02 0.13002172020E+02 0.12793205713E+02 0.12646647882E+02 0.12549078282E+02
 0.12487491376E+02 0.12450899943E+02 0.12431027432E+02 0.12422433653E+02 0.12422434826E+02
 0.12431030050E+02 0.12450901688E+02 0.12487489397E+02 0.12549070325E+02 0.12646633251E+02
 0.12793185521E+02 0.13002148967E+02 0.13284771601E+02 0.13646904616E+02 0.14085861712E+02
 0.14588217374E+02 0.15129259831E+02 0.15674453989E+02 0.16182825084E+02 0.16611784779E+02
 0.16922659603E+02 0.17086040426E+02 0.17086039258E+02 0.16922656326E+02 0.16611780141E+02
 0.16182820397E+02 0.15674451070E+02 0.15129260745E+02 0.14588223858E+02 0.14085874550E+02
 0.14892359443E+02 0.14067722347E+02 0.13368431421E+02 0.12793200770E+02 0.12330660660E+02
 0.11965255808E+02 0.11682069193E+02 0.11469699223E+02 0.11321070473E+02 0.11232707444E+02
 0.11203343800E+02 0.11232712107E+02 0.11321077223E+02 0.11469704083E+02 0.11682068563E+02
 0.11965248175E+02 0.12330647314E+02 0.12793185521E+02 0.13368419067E+02 0.14067716848E+02
 0.14892362609E+02 0.15828054592E+02 0.16841487344E+02 0.17880379037E+02 0.18877484452E+02
 0.19758085492E+02 0.20449579257E+02 0.20891367718E+02 0.21043309697E+02 0.20891365052E+02
 0.20449573219E+02 0.19758075306E+02 0.18877470263E+02 0.17880362477E+02 0.16841471632E+02
 0.15828043631E+02 0.17256599363E+02 0.15805411727E+02 0.14549829773E+02 0.13500568507E+02
 0.12646640841E+02 0.11965254076E+02 0.11430945181E+02 0.11022000804E+02 0.10723449857E+02
 0.10527033805E+02 0.10429308643E+02 0.10429312119E+02 0.10527042565E+02 0.10723459682E+02
 0.11022007026E+02 0.11430945033E+02 0.11965248175E+02 0.12646633251E+02 0.13500565005E+02
 0.14549835492E+02 0.15805428960E+02 0.17256626403E+02 0.18863238246E+02 0.20552911243E+02
 0.22225295855E+02 0.23763032161E+02 0.25053508260E+02 0.25992549590E+02 0.26488728650E+02
 0.26488728256E+02 0.25992547185E+02 0.25053500873E+02 0.23763016869E+02 0.22225271814E+02
 0.20552880784E+02 0.18863206406E+02 0.21151978807E+02 0.18834139472E+02 0.16792445938E+02
 0.15069255249E+02 0.13664340018E+02 0.12549073944E+02 0.11682070272E+02 0.11022003463E+02
 0.10535483141E+02 0.10199878183E+02 0.10002353596E+02 0.99370455237E+01 0.10002360006E+02
 0.10199887884E+02 0.10535491549E+02 0.11022007026E+02 0.11682068563E+02 0.12549070325E+02
 0.13664340280E+02 0.15069265188E+02 0.16792468460E+02 0.18834172894E+02 0.21152017403E+02
 0.23653639057E+02 0.26219750340E+02 0.28735398220E+02 0.31022762029E+02 0.32867221270E+02
 0.34068431698E+02 0.34485667044E+02 0.34068435465E+02 0.32867224847E+02 0.31022759475E+02
 0.28735384466E+02 0.26219723881E+02 0.23653603065E+02 0.27112862195E+02 0.23616793524E+02
 0.20489901660E+02 0.17802735701E+02 0.15592724271E+02 0.13839397747E+02 0.12487492383E+02
 0.11469705359E+02 0.10723457122E+02 0.10199882437E+02 0.98661168064E+01 0.97033347143E+01
 0.97033369240E+01 0.98661221622E+01 0.10199887884E+02 0.10723459682E+02 0.11469704083E+02
 0.12487489397E+02 0.13839397569E+02 0.15592731950E+02 0.17802753997E+02 0.20489929397E+02
 0.23616825441E+02 0.27112890330E+02 0.30933384113E+02 0.34905500277E+02 0.38728528383E+02
 0.42037837230E+02 0.44479045405E+02 0.45775150013E+02 0.45775155899E+02 0.44479060308E+02
 0.42037854010E+02 0.38728538574E+02 0.34905497574E+02 0.30933366919E+02 0.36348490109E+02
 0.30888913959E+02 0.26141223600E+02 0.22126191911E+02 0.18771285720E+02 0.16080889010E+02
 0.14004318090E+02 0.12450905142E+02 0.11321080488E+02 0.10527044268E+02 0.10002360246E+02
 0.97033366369E+01 0.96061452742E+01 0.97033369240E+01 0.10002360006E+02 0.10527042565E+02
 0.11321077223E+02 0.12450901688E+02 0.14004316998E+02 0.16080893020E+02 0.18771295943E+02
 0.22126207004E+02 0.26141239104E+02 0.30888923804E+02 0.36348488865E+02 0.42266318716E+02
 0.48199329045E+02 0.53601873218E+02 0.57927894014E+02 0.60722615090E+02 0.61688543509E+02
 0.60722632275E+02 0.57927923172E+02 0.53601905743E+02 0.48199355991E+02 0.42266333753E+02
 0.50494936590E+02 0.42217082840E+02 0.34813738167E+02 0.28614399826E+02 0.23629024289E+02
 0.19625993658E+02 0.16492872961E+02 0.14139024870E+02 0.12431033687E+02 0.11232718320E+02
 0.10429318894E+02 0.99370506649E+01 0.97033366369E+01 0.97033347143E+01 0.99370455237E+01
 0.10429312119E+02 0.11232712107E+02 0.12431030050E+02 0.14139025042E+02 0.16492876732E+02
 0.19625999181E+02 0.23629028399E+02 0.28614398500E+02 0.34813727978E+02 0.42217061730E+02
 0.50494904905E+02 0.59051176617E+02 0.67137590804E+02 0.73990984577E+02 0.78954095302E+02
 0.81556745183E+02 0.81556754032E+02 0.78954120145E+02 0.73991020727E+02 0.67137631790E+02
 0.59051215677E+02 0.70542546359E+02 0.59003103302E+02 0.48102483300E+02 0.38592018588E+02
 0.30863051899E+02 0.24889386977E+02 0.20296820284E+02 0.16791512016E+02 0.14227084446E+02
 0.12422438794E+02 0.11203352954E+02 0.10429318894E+02 0.10002360246E+02 0.98661168064E+01
 0.10002353596E+02 0.10429308643E+02 0.11203343800E+02 0.12422434826E+02 0.14227087174E+02
 0.16791519398E+02 0.20296827385E+02 0.24889387796E+02 0.30863041626E+02 0.38591995641E+02
 0.48102449532E+02 0.59003063601E+02 0.70542506634E+02 0.81756023702E+02 0.91648420452E+02
 0.99353300176E+02 0.10423012541E+03 0.10589747270E+03 0.10423013368E+03 0.99353317292E+02
 0.91648446815E+02 0.81756058312E+02 0.96277767512E+02 0.81717085467E+02 0.67049100841E+02
 0.53464492321E+02 0.41863918455E+02 0.32676704274E+02 0.25806353751E+02 0.20725285139E+02
 0.16948491880E+02 0.14257694603E+02 0.12422438794E+02 0.11232718320E+02 0.10527044268E+02
 0.10199882437E+02 0.10199878183E+02 0.10527033805E+02 0.11232707444E+02 0.12422433653E+02
 0.14257698465E+02 0.16948502966E+02 0.20725297149E+02 0.25806358368E+02 0.32676695112E+02
 0.41863894116E+02 0.53464457339E+02 0.67049064228E+02 0.81717056782E+02 0.96277753060E+02
 0.10949198214E+03 0.12028617586E+03 0.12787446580E+03 0.13177733540E+03 0.13177733080E+03
 0.12787445497E+03 0.12028616614E+03 0.10949198188E+03 0.12603093761E+03 0.10946996441E+03
 0.91583888796E+02 0.73873213180E+02 0.57760471879E+02 0.44278529787E+02 0.33858161271E+02
 0.26290875686E+02 0.20872627555E+02 0.16948491880E+02 0.14227084446E+02 0.12431033687E+02
 0.11321080488E+02 0.10723457122E+02 0.10535483141E+02 0.10723449857E+02 0.11321070473E+02
 0.12431027432E+02 0.14227086770E+02 0.16948502871E+02 0.20872642014E+02 0.26290885258E+02
 0.33858158689E+02 0.44278512834E+02 0.57760445418E+02 0.73873187864E+02 0.91583876685E+02
 0.10946997380E+03 0.12603096874E+03 0.13998001979E+03 0.15041265719E+03 0.15681708873E+03
 0.15897072130E+03 0.15681706270E+03 0.15041261454E+03 0.13997997557E+03 0.15691061852E+03
 0.13997973127E+03 0.12025836922E+03 0.99275741888E+02 0.78818391348E+02 0.60537053398E+02
 0.45560891131E+02 0.34268600642E+02 0.26290875686E+02 0.20725285139E+02 0.16791512016E+02
 0.14139024870E+02 0.12450905142E+02 0.11469705359E+02 0.11022003463E+02 0.11022000804E+02
 0.11469699223E+02 0.12450899943E+02 0.14139024986E+02 0.16791518969E+02 0.20725296334E+02
 0.26290885342E+02 0.34268602909E+02 0.45560883589E+02 0.60537039525E+02 0.78818380125E+02
 0.99275744576E+02 0.12025839453E+03 0.13997978066E+03 0.15691068426E+03 0.17002820810E+03
 0.17884339397E+03 0.18323951029E+03 0.18323949188E+03 0.17884334417E+03 0.17002814132E+03
 0.18552958395E+03 0.17004925891E+03 0.15042640241E+03 0.12785048872E+03 0.10414785842E+03
 0.81412824186E+02 0.61496950412E+02 0.45560891131E+02 0.33858161271E+02 0.25806353751E+02
 0.20296820284E+02 0.16492872961E+02 0.14004318090E+02 0.12487492383E+02 0.11682070272E+02
 0.11430945181E+02 0.11682069193E+02 0.12487491376E+02 0.14004318641E+02 0.16492875757E+02
 0.20296824509E+02 0.25806357290E+02 0.33858161992E+02 0.45560888524E+02 0.61496946941E+02
 0.81412825192E+02 0.10414787062E+03 0.12785051750E+03 0.15042644889E+03 0.17004931844E+03
 0.18552964634E+03 0.19640506283E+03 0.20274859117E+03 0.20482012856E+03 0.20274856147E+03
 0.19640501071E+03 0.20898187973E+03 0.19644134362E+03 0.17889268103E+03 0.15684680328E+03
 0.13175820748E+03 0.10581426986E+03 0.81412824186E+02 0.60537053398E+02 0.44278529787E+02
 0.32676704274E+02 0.24889386977E+02 0.19625993658E+02 0.16080889010E+02 0.13839397747E+02
 0.12549073944E+02 0.11965254076E+02 0.11965255808E+02 0.12549078282E+02 0.13839402506E+02
 0.16080891682E+02 0.19625992608E+02 0.24889382292E+02 0.32676697976E+02 0.44278525211E+02
 0.60537054127E+02 0.81412832769E+02 0.10581428704E+03 0.13175823193E+03 0.15684683204E+03
 0.17889271042E+03 0.19644137005E+03 0.20898190036E+03 0.21678165336E+03 0.22045026424E+03
 0.22045025980E+03 0.21678164036E+03 0.22567997233E+03 0.21682304708E+03 0.20281762728E+03
 0.18330812999E+03 0.15900724076E+03 0.13175820748E+03 0.10414785842E+03 0.78818391348E+02
 0.57760471879E+02 0.41863918455E+02 0.30863051899E+02 0.23629024289E+02 0.18771285720E+02
 0.15592724271E+02 0.13664340018E+02 0.12646640841E+02 0.12330660660E+02 0.12646647882E+02
 0.13664350017E+02 0.15592731235E+02 0.18771284979E+02 0.23629015169E+02 0.30863038434E+02
 0.41863907636E+02 0.57760470283E+02 0.78818401613E+02 0.10414787749E+03 0.13175822736E+03
 0.15900725185E+03 0.18330812540E+03 0.20281760613E+03 0.21682301550E+03 0.22567994127E+03
 0.23035382054E+03 0.23178451274E+03 0.23035383968E+03 0.23570286305E+03 0.23038968327E+03
 0.22051859778E+03 0.20490219744E+03 0.18330812999E+03 0.15684680328E+03 0.12785048872E+03
 0.99275741888E+02 0.73873213180E+02 0.53464492321E+02 0.38592018588E+02 0.28614399826E+02
 0.22126191911E+02 0.17802735701E+02 0.15069255249E+02 0.13500568507E+02 0.12793200770E+02
 0.12793205713E+02 0.13500580416E+02 0.15069266958E+02 0.17802739768E+02 0.22126184866E+02
 0.28614384449E+02 0.38592002821E+02 0.53464485228E+02 0.73873219775E+02 0.99275759507E+02
 0.12785050683E+03 0.15684680745E+03 0.18330810815E+03 0.20490214609E+03 0.22051852507E+03
 0.23038960717E+03 0.23570280543E+03 0.23788837276E+03 0.23788839422E+03 0.24051922874E+03
 0.23791143054E+03 0.23183441030E+03 0.22051859778E+03 0.20281762728E+03 0.17889268103E+03
 0.15042640241E+03 0.12025836922E+03 0.91583888796E+02 0.67049100841E+02 0.48102483300E+02
 0.34813738167E+02 0.26141223600E+02 0.20489901660E+02 0.16792445938E+02 0.14549829773E+02
 0.13368431421E+02 0.13002172020E+02 0.13368440082E+02 0.14549841941E+02 0.16792454178E+02
 0.20489900483E+02 0.26141212765E+02 0.34813723204E+02 0.48102472774E+02 0.67049101494E+02
 0.91583901041E+02 0.12025838534E+03 0.15042640876E+03 0.17889266367E+03 0.20281757861E+03
 0.22051852145E+03 0.23183432161E+03 0.23791135208E+03 0.24051918270E+03 0.24118902003E+03
 0.24221624360E+03 0.24119803041E+03 0.23791143054E+03 0.23038968327E+03 0.21682304708E+03
 0.19644134362E+03 0.17004925891E+03 0.13997973127E+03 0.10946996441E+03 0.81717085467E+02
 0.59003103302E+02 0.42217082840E+02 0.30888913959E+02 0.23616793524E+02 0.18834139472E+02
 0.15805411727E+02 0.14067722347E+02 0.13284794021E+02 0.13284797037E+02 0.14067729626E+02
 0.15805418959E+02 0.18834142221E+02 0.23616789820E+02 0.30888905605E+02 0.42217074650E+02
 0.59003100482E+02 0.81717090453E+02 0.10946997466E+03 0.13997973946E+03 0.17004925554E+03
 0.19644132133E+03 0.21682300450E+03 0.23038962687E+03 0.23791137337E+03 0.24119798780E+03
 0.24221622783E+03 0.24240026392E+03 0.24197991703E+03 0.24005451452E+03 0.23491254750E+03
 0.22453873870E+03 0.20754338357E+03 0.18391396696E+03 0.15527414282E+03 0.12452637318E+03
 0.95018404736E+02 0.69581251765E+02 0.49823046745E+02 0.35911236703E+02 0.26832823683E+02
 0.20956359056E+02 0.17114130284E+02 0.14782564315E+02 0.13554281011E+02 0.13173518818E+02
 0.13554281694E+02 0.14782565324E+02 0.17114131096E+02 0.20956359259E+02 0.26832823216E+02
 0.35911235928E+02 0.49823046303E+02 0.69581252287E+02 0.95018406541E+02 0.12452637609E+03
 0.15527414620E+03 0.18391396997E+03 0.20754338550E+03 0.22453873927E+03 0.23491254695E+03
 0.24005451351E+03 0.24197991628E+03 0.24197991628E+03 0.24197990218E+03 0.24079732293E+03
 0.23721963897E+03 0.22934765275E+03 0.21545407711E+03 0.19484572166E+03 0.16837827805E+03
 0.13839615727E+03 0.10810756020E+03 0.80652348482E+02 0.58246987422E+02 0.41726031300E+02
 0.30587618963E+02 0.23422910049E+02 0.18696929665E+02 0.15703642837E+02 0.13985556400E+02
 0.13211136567E+02 0.13211134314E+02 0.13985551000E+02 0.15703637593E+02 0.18696927948E+02
 0.23422913291E+02 0.30587625698E+02 0.41726037822E+02 0.58246989885E+02 0.80652345385E+02
 0.10810755405E+03 0.13839615430E+03 0.16837828597E+03 0.19484574614E+03 0.21545411863E+03
 0.22934770527E+03 0.23721969100E+03 0.24079736125E+03 0.24005451351E+03 0.24080681820E+03
 0.24005447124E+03 0.23721961887E+03 0.23082791586E+03 0.21918945144E+03 0.20124002181E+03
 0.17720325283E+03 0.14878740295E+03 0.11881534423E+03 0.90431800867E+02 0.66217104441E+02
 0.47559514277E+02 0.34489046624E+02 0.25949971200E+02 0.20361890377E+02 0.16701316588E+02
 0.14479194766E+02 0.13307570792E+02 0.12944135665E+02 0.13307563169E+02 0.14479184083E+02
 0.16701309414E+02 0.20361891526E+02 0.25949980811E+02 0.34489059725E+02 0.47559523261E+02
 0.66217103425E+02 0.90431789688E+02 0.11881533003E+03 0.14878739811E+03 0.17720326991E+03
 0.20124006750E+03 0.21918952221E+03 0.23082799764E+03 0.23721969100E+03 0.23491254695E+03
 0.23724409405E+03 0.23724407412E+03 0.23491249355E+03 0.22934763506E+03 0.21918945578E+03
 0.20333160455E+03 0.18161080018E+03 0.15517478165E+03 0.12635173812E+03 0.98056924624E+02
 0.72978527640E+02 0.52875399429E+02 0.38244239744E+02 0.28423031120E+02 0.22010297082E+02
 0.17724232707E+02 0.15010976175E+02 0.13451742743E+02 0.12747875489E+02 0.12747870758E+02
 0.13451731327E+02 0.15010964898E+02 0.17724228637E+02 0.22010303489E+02 0.28423045294E+02
 0.38244254040E+02 0.52875405112E+02 0.72978519855E+02 0.98056905851E+02 0.12635171839E+03
 0.15517477482E+03 0.18161081788E+03 0.20333165036E+03 0.21918952221E+03 0.22934770527E+03
 0.22453873927E+03 0.22938610343E+03 0.23088133695E+03 0.22938608518E+03 0.22453871003E+03
 0.21545408980E+03 0.20124004992E+03 0.18161081743E+03 0.15732422774E+03 0.13023088743E+03
 0.10288701325E+03 0.77878760544E+02 0.57134882898E+02 0.41495848922E+02 0.30669895179E+02
 0.23526328177E+02 0.18706241454E+02 0.15546998896E+02 0.13626707018E+02 0.12611579883E+02
 0.12296080557E+02 0.12611572489E+02 0.13626696457E+02 0.15546991373E+02 0.18706241792E+02
 0.23526337051E+02 0.30669908360E+02 0.41495859089E+02 0.57134883119E+02 0.77878747950E+02
 0.10288699090E+03 0.13023086353E+03 0.15732421234E+03 0.18161081788E+03 0.20124006750E+03
 0.21545411863E+03 0.20754338550E+03 0.21549932386E+03 0.21926373370E+03 0.21926373724E+03
 0.21549933459E+03 0.20754340356E+03 0.19484577091E+03 0.17720329946E+03 0.15517480572E+03
 0.13023089147E+03 0.10453905159E+03 0.80449673196E+02 0.59887974235E+02 0.43895315701E+02
 0.32481193646E+02 0.24797103457E+02 0.19573738151E+02 0.16046979569E+02 0.13811797511E+02
 0.12522180293E+02 0.11937711141E+02 0.11937708889E+02 0.12522174674E+02 0.13811791379E+02
 0.16046976154E+02 0.19573739458E+02 0.24797109198E+02 0.32481201065E+02 0.43895320547E+02
 0.59887972262E+02 0.80449661805E+02 0.10453903070E+03 0.13023086353E+03 0.15517477482E+03
 0.17720326991E+03 0.19484574614E+03 0.18391396997E+03 0.19488698163E+03 0.20131735068E+03
 0.20342312595E+03 0.20131737667E+03 0.19488702757E+03 0.18391402578E+03 0.16837834048E+03
 0.14878744230E+03 0.12635174756E+03 0.10288700509E+03 0.80449664845E+02 0.60839750664E+02
 0.45169568734E+02 0.33660744254E+02 0.25720848948E+02 0.20255107998E+02 0.16468989131E+02
 0.13985134482E+02 0.12466881168E+02 0.11658823406E+02 0.11406543880E+02 0.11658823198E+02
 0.12466880327E+02 0.13985132595E+02 0.16468986374E+02 0.20255105368E+02 0.25720847936E+02
 0.33660745845E+02 0.45169572340E+02 0.60839753372E+02 0.80449661805E+02 0.10288699090E+03
 0.12635171839E+03 0.14878739811E+03 0.16837828597E+03 0.15527414620E+03 0.16840512932E+03
 0.17726274985E+03 0.18169202068E+03 0.18169203682E+03 0.17726279353E+03 0.16840518799E+03
 0.15527420409E+03 0.13839619790E+03 0.11881535236E+03 0.98056907911E+02 0.77878737152E+02
 0.59887958398E+02 0.45169563476E+02 0.34070457178E+02 0.26208696275E+02 0.20690510169E+02
 0.16774904726E+02 0.14126189719E+02 0.12434828456E+02 0.11448838119E+02 0.10998033950E+02
 0.10998035932E+02 0.11448842617E+02 0.12434832037E+02 0.14126189068E+02 0.16774898924E+02
 0.20690501619E+02 0.26208689860E+02 0.34070457596E+02 0.45169572340E+02 0.59887972262E+02
 0.77878747950E+02 0.98056905851E+02 0.11881533003E+03 0.13839615430E+03 0.12452637609E+03
 0.13840210937E+03 0.14881263299E+03 0.15521948943E+03 0.15737696558E+03 0.15521951212E+03
 0.14881266992E+03 0.13840214708E+03 0.12452640148E+03 0.10810755946E+03 0.90431775504E+02
 0.72978493735E+02 0.57134856108E+02 0.43895302447E+02 0.33660741184E+02 0.26208696759E+02
 0.20840272287E+02 0.16935706853E+02 0.14218188092E+02 0.12417869388E+02 0.11301356910E+02
 0.10698574436E+02 0.10508703981E+02 0.10698580782E+02 0.11301365632E+02 0.12417874792E+02
 0.14218186038E+02 0.16935697448E+02 0.20840260348E+02 0.26208689860E+02 0.33660745845E+02
 0.43895320547E+02 0.57134883119E+02 0.72978519855E+02 0.90431789688E+02 0.10810755405E+03
 0.95018406541E+02 0.10809186056E+03 0.11879959784E+03 0.12634419660E+03 0.13023056150E+03
 0.13023056553E+03 0.12634420592E+03 0.11879960550E+03 0.10809185877E+03 0.95018390457E+02