   2   2   1   0
  0.1384800E+02  0.2642853E-09  0.2642853E-09  0.4578682E-09  0.5000000E-15
  1.000000000000000E-004
  CAR 
 Pt-hcc                                  
     40.04209846    -43.47224802  301     13.79827477      1.00000000
    -43.472  0.0000E+00  0.0000E+00
    -43.194  0.0000E+00  0.0000E+00
    -42.915  0.0000E+00  0.0000E+00
    -42.637  0.0000E+00  0.0000E+00
    -42.359  0.0000E+00  0.0000E+00
    -42.080  0.0000E+00  0.0000E+00
    -41.802  0.0000E+00  0.0000E+00
    -41.524  0.0000E+00  0.0000E+00
    -41.245  0.0000E+00  0.0000E+00
    -40.967  0.0000E+00  0.0000E+00
    -40.688  0.0000E+00  0.0000E+00
    -40.410  0.0000E+00  0.0000E+00
    -40.132  0.0000E+00  0.0000E+00
    -39.853  0.4117E-09  0.1146E-09
    -39.575  0.3707E-01  0.1032E-01
    -39.297  0.1138E+00  0.4199E-01
    -39.018  0.2267E+00  0.1051E+00
    -38.740  0.5348E-01  0.1200E+00
    -38.461  0.0000E+00  0.1200E+00
    -38.183  0.0000E+00  0.1200E+00
    -37.905  0.0000E+00  0.1200E+00
    -37.626  0.0000E+00  0.1200E+00
    -37.348  0.0000E+00  0.1200E+00
    -37.069  0.0000E+00  0.1200E+00
    -36.791  0.0000E+00  0.1200E+00
    -36.513  0.0000E+00  0.1200E+00
    -36.234  0.0000E+00  0.1200E+00
    -35.956  0.0000E+00  0.1200E+00
    -35.678  0.0000E+00  0.1200E+00
    -35.399  0.0000E+00  0.1200E+00
    -35.121  0.0000E+00  0.1200E+00
    -34.842  0.0000E+00  0.1200E+00
    -34.564  0.0000E+00  0.1200E+00
    -34.286  0.0000E+00  0.1200E+00
    -34.007  0.0000E+00  0.1200E+00
    -33.729  0.0000E+00  0.1200E+00
    -33.451  0.0000E+00  0.1200E+00
    -33.172  0.0000E+00  0.1200E+00
    -32.894  0.0000E+00  0.1200E+00
    -32.615  0.0000E+00  0.1200E+00
    -32.337  0.0000E+00  0.1200E+00
    -32.059  0.0000E+00  0.1200E+00
    -31.780  0.0000E+00  0.1200E+00
    -31.502  0.0000E+00  0.1200E+00
    -31.223  0.0000E+00  0.1200E+00
    -30.945  0.0000E+00  0.1200E+00
    -30.667  0.0000E+00  0.1200E+00
    -30.388  0.0000E+00  0.1200E+00
    -30.110  0.0000E+00  0.1200E+00
    -29.832  0.0000E+00  0.1200E+00
    -29.553  0.0000E+00  0.1200E+00
    -29.275  0.0000E+00  0.1200E+00
    -28.996  0.0000E+00  0.1200E+00
    -28.718  0.0000E+00  0.1200E+00
    -28.440  0.0000E+00  0.1200E+00
    -28.161  0.0000E+00  0.1200E+00
    -27.883  0.0000E+00  0.1200E+00
    -27.605  0.0000E+00  0.1200E+00
    -27.326  0.0000E+00  0.1200E+00
    -27.048  0.0000E+00  0.1200E+00
    -26.769  0.0000E+00  0.1200E+00
    -26.491  0.0000E+00  0.1200E+00
    -26.213  0.0000E+00  0.1200E+00
    -25.934  0.0000E+00  0.1200E+00
    -25.656  0.0000E+00  0.1200E+00
    -25.377  0.0000E+00  0.1200E+00
    -25.099  0.0000E+00  0.1200E+00
    -24.821  0.0000E+00  0.1200E+00
    -24.542  0.0000E+00  0.1200E+00
    -24.264  0.0000E+00  0.1200E+00
    -23.986  0.0000E+00  0.1200E+00
    -23.707  0.0000E+00  0.1200E+00
    -23.429  0.0000E+00  0.1200E+00
    -23.150  0.0000E+00  0.1200E+00
    -22.872  0.0000E+00  0.1200E+00
    -22.594  0.0000E+00  0.1200E+00
    -22.315  0.0000E+00  0.1200E+00
    -22.037  0.0000E+00  0.1200E+00
    -21.759  0.0000E+00  0.1200E+00
    -21.480  0.0000E+00  0.1200E+00
    -21.202  0.0000E+00  0.1200E+00
    -20.923  0.0000E+00  0.1200E+00
    -20.645  0.0000E+00  0.1200E+00
    -20.367  0.0000E+00  0.1200E+00
    -20.088  0.0000E+00  0.1200E+00
    -19.810  0.0000E+00  0.1200E+00
    -19.531  0.0000E+00  0.1200E+00
    -19.253  0.0000E+00  0.1200E+00
    -18.975  0.0000E+00  0.1200E+00
    -18.696  0.0000E+00  0.1200E+00
    -18.418  0.0000E+00  0.1200E+00
    -18.140  0.0000E+00  0.1200E+00
    -17.861  0.0000E+00  0.1200E+00
    -17.583  0.0000E+00  0.1200E+00
    -17.304  0.0000E+00  0.1200E+00
    -17.026  0.0000E+00  0.1200E+00
    -16.748  0.0000E+00  0.1200E+00
    -16.469  0.0000E+00  0.1200E+00
    -16.191  0.0000E+00  0.1200E+00
    -15.913  0.0000E+00  0.1200E+00
    -15.634  0.0000E+00  0.1200E+00
    -15.356  0.0000E+00  0.1200E+00
    -15.077  0.0000E+00  0.1200E+00
    -14.799  0.0000E+00  0.1200E+00
    -14.521  0.0000E+00  0.1200E+00
    -14.242  0.0000E+00  0.1200E+00
    -13.964  0.0000E+00  0.1200E+00
    -13.685  0.0000E+00  0.1200E+00
    -13.407  0.0000E+00  0.1200E+00
    -13.129  0.0000E+00  0.1200E+00
    -12.850  0.0000E+00  0.1200E+00
    -12.572  0.0000E+00  0.1200E+00
    -12.294  0.0000E+00  0.1200E+00
    -12.015  0.0000E+00  0.1200E+00
    -11.737  0.0000E+00  0.1200E+00
    -11.458  0.0000E+00  0.1200E+00
    -11.180  0.0000E+00  0.1200E+00
    -10.902  0.0000E+00  0.1200E+00
    -10.623  0.0000E+00  0.1200E+00
    -10.345  0.0000E+00  0.1200E+00
    -10.067  0.0000E+00  0.1200E+00
     -9.788  0.0000E+00  0.1200E+00
     -9.510  0.0000E+00  0.1200E+00
     -9.231  0.0000E+00  0.1200E+00
     -8.953  0.0000E+00  0.1200E+00
     -8.675  0.0000E+00  0.1200E+00
     -8.396  0.0000E+00  0.1200E+00
     -8.118  0.0000E+00  0.1200E+00
     -7.839  0.0000E+00  0.1200E+00
     -7.561  0.0000E+00  0.1200E+00
     -7.283  0.0000E+00  0.1200E+00
     -7.004  0.0000E+00  0.1200E+00
     -6.726  0.0000E+00  0.1200E+00
     -6.448  0.0000E+00  0.1200E+00
     -6.169  0.0000E+00  0.1200E+00
     -5.891  0.0000E+00  0.1200E+00
     -5.612  0.0000E+00  0.1200E+00
     -5.334  0.0000E+00  0.1200E+00
     -5.056  0.0000E+00  0.1200E+00
     -4.777  0.0000E+00  0.1200E+00
     -4.499  0.0000E+00  0.1200E+00
     -4.221  0.0000E+00  0.1200E+00
     -3.942  0.0000E+00  0.1200E+00
     -3.664  0.0000E+00  0.1200E+00
     -3.385  0.0000E+00  0.1200E+00
     -3.107  0.0000E+00  0.1200E+00
     -2.829  0.0000E+00  0.1200E+00
     -2.550  0.0000E+00  0.1200E+00
     -2.272  0.0000E+00  0.1200E+00
     -1.993  0.0000E+00  0.1200E+00
     -1.715  0.0000E+00  0.1200E+00
     -1.437  0.0000E+00  0.1200E+00
     -1.158  0.0000E+00  0.1200E+00
     -0.880  0.0000E+00  0.1200E+00
     -0.602  0.0000E+00  0.1200E+00
     -0.323  0.0000E+00  0.1200E+00
     -0.045  0.0000E+00  0.1200E+00
      0.234  0.0000E+00  0.1200E+00
      0.512  0.0000E+00  0.1200E+00
      0.790  0.0000E+00  0.1200E+00
      1.069  0.0000E+00  0.1200E+00
      1.347  0.0000E+00  0.1200E+00
      1.625  0.0000E+00  0.1200E+00
      1.904  0.0000E+00  0.1200E+00
      2.182  0.0000E+00  0.1200E+00
      2.461  0.1133E-07  0.1200E+00
      2.739  0.1708E-03  0.1200E+00
      3.017  0.4608E-03  0.1202E+00
      3.296  0.1434E-02  0.1206E+00
      3.574  0.4588E-03  0.1207E+00
      3.853  0.1347E-02  0.1211E+00
      4.131  0.1487E-02  0.1215E+00
      4.409  0.3351E-02  0.1224E+00
      4.688  0.1249E-02  0.1228E+00
      4.966  0.1994E-02  0.1233E+00
      5.244  0.4674E-02  0.1246E+00
      5.523  0.5343E-02  0.1261E+00
      5.801  0.8090E-02  0.1284E+00
      6.080  0.1672E-01  0.1330E+00
      6.358  0.1988E-01  0.1386E+00
      6.636  0.2293E-01  0.1449E+00
      6.915  0.2248E-01  0.1512E+00
      7.193  0.1710E-01  0.1560E+00
      7.472  0.2070E-01  0.1617E+00
      7.750  0.3128E-01  0.1704E+00
      8.028  0.2244E-01  0.1767E+00
      8.307  0.2508E-01  0.1837E+00
      8.585  0.2753E-01  0.1913E+00
      8.863  0.2123E-01  0.1972E+00
      9.142  0.2242E-01  0.2035E+00
      9.420  0.2855E-01  0.2114E+00
      9.699  0.2881E-01  0.2194E+00
      9.977  0.3285E-01  0.2286E+00
     10.255  0.2085E-01  0.2344E+00
     10.534  0.3755E-01  0.2448E+00
     10.812  0.2725E-01  0.2524E+00
     11.090  0.2818E-01  0.2603E+00
     11.369  0.1216E-01  0.2637E+00
     11.647  0.1986E-01  0.2692E+00
     11.926  0.1907E-01  0.2745E+00
     12.204  0.2144E-01  0.2805E+00
     12.482  0.2210E-01  0.2866E+00
     12.761  0.1927E-01  0.2920E+00
     13.039  0.1960E-01  0.2974E+00
     13.318  0.1926E-01  0.3028E+00
     13.596  0.3613E-01  0.3129E+00
     13.874  0.3449E-01  0.3225E+00
     14.153  0.1935E-01  0.3279E+00
     14.431  0.2008E-01  0.3334E+00
     14.709  0.6790E-02  0.3353E+00
     14.988  0.4108E-02  0.3365E+00
     15.266  0.1635E-02  0.3369E+00
     15.545  0.2012E-02  0.3375E+00
     15.823  0.4059E-02  0.3386E+00
     16.101  0.7928E-02  0.3408E+00
     16.380  0.9418E-02  0.3435E+00
     16.658  0.5989E-02  0.3451E+00
     16.936  0.9270E-03  0.3454E+00
     17.215  0.3479E-02  0.3463E+00
     17.493  0.6217E-02  0.3481E+00
     17.772  0.2172E-02  0.3487E+00
     18.050  0.6740E-02  0.3506E+00
     18.328  0.4263E-02  0.3517E+00
     18.607  0.2828E-02  0.3525E+00
     18.885  0.6879E-02  0.3544E+00
     19.164  0.4820E-02  0.3558E+00
     19.442  0.7980E-02  0.3580E+00
     19.720  0.1696E-02  0.3585E+00
     19.999  0.3935E-02  0.3596E+00
     20.277  0.3105E-03  0.3597E+00
     20.555  0.3351E-02  0.3606E+00
     20.834  0.4233E-02  0.3618E+00
     21.112  0.4820E-02  0.3631E+00
     21.391  0.1007E-01  0.3659E+00
     21.669  0.9576E-02  0.3686E+00
     21.947  0.9421E-02  0.3712E+00
     22.226  0.5539E-02  0.3727E+00
     22.504  0.7484E-02  0.3748E+00
     22.782  0.7844E-02  0.3770E+00
     23.061  0.2005E-02  0.3776E+00
     23.339  0.1220E-01  0.3810E+00
     23.618  0.6087E-02  0.3827E+00
     23.896  0.6193E-02  0.3844E+00
     24.174  0.9409E-02  0.3870E+00
     24.453  0.3226E-02  0.3879E+00
     24.731  0.3652E-02  0.3889E+00
     25.010  0.1107E-01  0.3920E+00
     25.288  0.5886E-02  0.3936E+00
     25.566  0.5323E-02  0.3951E+00
     25.845  0.4950E-02  0.3965E+00
     26.123  0.8209E-02  0.3988E+00
     26.401  0.4219E-02  0.4000E+00
     26.680  0.4611E-02  0.4012E+00
     26.958  0.7925E-02  0.4035E+00
     27.237  0.1214E-01  0.4068E+00
     27.515  0.8547E-02  0.4092E+00
     27.793  0.1009E-01  0.4120E+00
     28.072  0.1050E-01  0.4149E+00
     28.350  0.7741E-02  0.4171E+00
     28.628  0.8379E-02  0.4194E+00
     28.907  0.2338E-01  0.4259E+00
     29.185  0.2162E-01  0.4320E+00
     29.464  0.1282E-01  0.4355E+00
     29.742  0.9766E-02  0.4382E+00
     30.020  0.9692E-02  0.4409E+00
     30.299  0.1858E-01  0.4461E+00
     30.577  0.1149E-01  0.4493E+00
     30.856  0.1508E-01  0.4535E+00
     31.134  0.1495E-01  0.4577E+00
     31.412  0.1488E-01  0.4618E+00
     31.691  0.9716E-02  0.4645E+00
     31.969  0.1074E-01  0.4675E+00
     32.247  0.9008E-02  0.4700E+00
     32.526  0.8354E-02  0.4723E+00
     32.804  0.6037E-02  0.4740E+00
     33.083  0.1670E-02  0.4745E+00
     33.361  0.5771E-02  0.4761E+00
     33.639  0.4165E-02  0.4773E+00
     33.918  0.1939E-02  0.4778E+00
     34.196  0.2479E-02  0.4785E+00
     34.474  0.4600E-02  0.4798E+00
     34.753  0.1116E-03  0.4798E+00
     35.031  0.1728E-03  0.4799E+00
     35.310  0.3592E-03  0.4799E+00
     35.588  0.0000E+00  0.4800E+00
     35.866  0.0000E+00  0.4800E+00
     36.145  0.3768E-06  0.4800E+00
     36.423  0.1792E-03  0.4800E+00
     36.702  0.0000E+00  0.4800E+00
     36.980  0.0000E+00  0.4800E+00
     37.258  0.0000E+00  0.4800E+00
     37.537  0.0000E+00  0.4800E+00
     37.815  0.0000E+00  0.4800E+00
     38.093  0.0000E+00  0.4800E+00
     38.372  0.0000E+00  0.4800E+00
     38.650  0.0000E+00  0.4800E+00
     38.929  0.0000E+00  0.4800E+00
     39.207  0.0000E+00  0.4800E+00
     39.485  0.0000E+00  0.4800E+00
     39.764  0.0000E+00  0.4800E+00
     40.042  0.0000E+00  0.4800E+00
     40.04209846    -43.47224802  301     13.79827477      1.00000000
    -43.472  0.0000E+00  0.0000E+00  0.0000E+00  0.0000E+00  0.0000E+00  0.0000E+00  0.0000E+00  0.0000E+00  0.0000E+00
    -43.194  0.0000E+00  0.0000E+00  0.0000E+00  0.0000E+00  0.0000E+00  0.0000E+00  0.0000E+00  0.0000E+00  0.0000E+00
    -42.915  0.0000E+00  0.0000E+00  0.0000E+00  0.0000E+00  0.0000E+00  0.0000E+00  0.0000E+00  0.0000E+00  0.0000E+00
    -42.637  0.0000E+00  0.0000E+00  0.0000E+00  0.0000E+00  0.0000E+00  0.0000E+00  0.0000E+00  0.0000E+00  0.0000E+00
    -42.359  0.0000E+00  0.0000E+00  0.0000E+00  0.0000E+00  0.0000E+00  0.0000E+00  0.0000E+00  0.0000E+00  0.0000E+00
    -42.080  0.0000E+00  0.0000E+00  0.0000E+00  0.0000E+00  0.0000E+00  0.0000E+00  0.0000E+00  0.0000E+00  0.0000E+00
    -41.802  0.0000E+00  0.0000E+00  0.0000E+00  0.0000E+00  0.0000E+00  0.0000E+00  0.0000E+00  0.0000E+00  0.0000E+00
    -41.524  0.0000E+00  0.0000E+00  0.0000E+00  0.0000E+00  0.0000E+00  0.0000E+00  0.0000E+00  0.0000E+00  0.0000E+00
    -41.245  0.0000E+00  0.0000E+00  0.0000E+00  0.0000E+00  0.0000E+00  0.0000E+00  0.0000E+00  0.0000E+00  0.0000E+00
    -40.967  0.0000E+00  0.0000E+00  0.0000E+00  0.0000E+00  0.0000E+00  0.0000E+00  0.0000E+00  0.0000E+00  0.0000E+00
    -40.688  0.0000E+00  0.0000E+00  0.0000E+00  0.0000E+00  0.0000E+00  0.0000E+00  0.0000E+00  0.0000E+00  0.0000E+00
    -40.410  0.0000E+00  0.0000E+00  0.0000E+00  0.0000E+00  0.0000E+00  0.0000E+00  0.0000E+00  0.0000E+00  0.0000E+00
    -40.132  0.0000E+00  0.0000E+00  0.0000E+00  0.0000E+00  0.0000E+00  0.0000E+00  0.0000E+00  0.0000E+00  0.0000E+00
    -39.853  0.2079E-12  0.9756E-08  0.6490E-09  0.9756E-08  0.1055E-13  0.1659E-13  0.2480E-12  0.1659E-13  0.1055E-13
    -39.575  0.7028E-04  0.8783E+00  0.6233E-01  0.8783E+00  0.3886E-04  0.4363E-05  0.4280E-04  0.4363E-05  0.3886E-04
    -39.297  0.5048E-03  0.2417E+01  0.7706E+00  0.2417E+01  0.1969E-03  0.2765E-04  0.2066E-03  0.2765E-04  0.1969E-03
    -39.018  0.2251E-03  0.3605E+01  0.4044E+01  0.3605E+01  0.2546E-03  0.1249E-03  0.1823E-03  0.1249E-03  0.2546E-03
    -38.740  0.1351E-04  0.2119E+00  0.2236E+01  0.2119E+00  0.5203E-05  0.2727E-04  0.2900E-04  0.2727E-04  0.5203E-05
    -38.461  0.0000E+00  0.0000E+00  0.0000E+00  0.0000E+00  0.0000E+00  0.0000E+00  0.0000E+00  0.0000E+00  0.0000E+00
    -38.183  0.0000E+00  0.0000E+00  0.0000E+00  0.0000E+00  0.0000E+00  0.0000E+00  0.0000E+00  0.0000E+00  0.0000E+00
    -37.905  0.0000E+00  0.0000E+00  0.0000E+00  0.0000E+00  0.0000E+00  0.0000E+00  0.0000E+00  0.0000E+00  0.0000E+00
    -37.626  0.0000E+00  0.0000E+00  0.0000E+00  0.0000E+00  0.0000E+00  0.0000E+00  0.0000E+00  0.0000E+00  0.0000E+00
    -37.348  0.0000E+00  0.0000E+00  0.0000E+00  0.0000E+00  0.0000E+00  0.0000E+00  0.0000E+00  0.0000E+00  0.0000E+00
    -37.069  0.0000E+00  0.0000E+00  0.0000E+00  0.0000E+00  0.0000E+00  0.0000E+00  0.0000E+00  0.0000E+00  0.0000E+00
    -36.791  0.0000E+00  0.0000E+00  0.0000E+00  0.0000E+00  0.0000E+00  0.0000E+00  0.0000E+00  0.0000E+00  0.0000E+00
    -36.513  0.0000E+00  0.0000E+00  0.0000E+00  0.0000E+00  0.0000E+00  0.0000E+00  0.0000E+00  0.0000E+00  0.0000E+00
    -36.234  0.0000E+00  0.0000E+00  0.0000E+00  0.0000E+00  0.0000E+00  0.0000E+00  0.0000E+00  0.0000E+00  0.0000E+00
    -35.956  0.0000E+00  0.0000E+00  0.0000E+00  0.0000E+00  0.0000E+00  0.0000E+00  0.0000E+00  0.0000E+00  0.0000E+00
    -35.678  0.0000E+00  0.0000E+00  0.0000E+00  0.0000E+00  0.0000E+00  0.0000E+00  0.0000E+00  0.0000E+00  0.0000E+00
    -35.399  0.0000E+00  0.0000E+00  0.0000E+00  0.0000E+00  0.0000E+00  0.0000E+00  0.0000E+00  0.0000E+00  0.0000E+00
    -35.121  0.0000E+00  0.0000E+00  0.0000E+00  0.0000E+00  0.0000E+00  0.0000E+00  0.0000E+00  0.0000E+00  0.0000E+00
    -34.842  0.0000E+00  0.0000E+00  0.0000E+00  0.0000E+00  0.0000E+00  0.0000E+00  0.0000E+00  0.0000E+00  0.0000E+00
    -34.564  0.0000E+00  0.0000E+00  0.0000E+00  0.0000E+00  0.0000E+00  0.0000E+00  0.0000E+00  0.0000E+00  0.0000E+00
    -34.286  0.0000E+00  0.0000E+00  0.0000E+00  0.0000E+00  0.0000E+00  0.0000E+00  0.0000E+00  0.0000E+00  0.0000E+00
    -34.007  0.0000E+00  0.0000E+00  0.0000E+00  0.0000E+00  0.0000E+00  0.0000E+00  0.0000E+00  0.0000E+00  0.0000E+00
    -33.729  0.0000E+00  0.0000E+00  0.0000E+00  0.0000E+00  0.0000E+00  0.0000E+00  0.0000E+00  0.0000E+00  0.0000E+00
    -33.451  0.0000E+00  0.0000E+00  0.0000E+00  0.0000E+00  0.0000E+00  0.0000E+00  0.0000E+00  0.0000E+00  0.0000E+00
    -33.172  0.0000E+00  0.0000E+00  0.0000E+00  0.0000E+00  0.0000E+00  0.0000E+00  0.0000E+00  0.0000E+00  0.0000E+00
    -32.894  0.0000E+00  0.0000E+00  0.0000E+00  0.0000E+00  0.0000E+00  0.0000E+00  0.0000E+00  0.0000E+00  0.0000E+00
    -32.615  0.0000E+00  0.0000E+00  0.0000E+00  0.0000E+00  0.0000E+00  0.0000E+00  0.0000E+00  0.0000E+00  0.0000E+00
    -32.337  0.0000E+00  0.0000E+00  0.0000E+00  0.0000E+00  0.0000E+00  0.0000E+00  0.0000E+00  0.0000E+00  0.0000E+00
    -32.059  0.0000E+00  0.0000E+00  0.0000E+00  0.0000E+00  0.0000E+00  0.0000E+00  0.0000E+00  0.0000E+00  0.0000E+00
    -31.780  0.0000E+00  0.0000E+00  0.0000E+00  0.0000E+00  0.0000E+00  0.0000E+00  0.0000E+00  0.0000E+00  0.0000E+00
    -31.502  0.0000E+00  0.0000E+00  0.0000E+00  0.0000E+00  0.0000E+00  0.0000E+00  0.0000E+00  0.0000E+00  0.0000E+00
    -31.223  0.0000E+00  0.0000E+00  0.0000E+00  0.0000E+00  0.0000E+00  0.0000E+00  0.0000E+00  0.0000E+00  0.0000E+00
    -30.945  0.0000E+00  0.0000E+00  0.0000E+00  0.0000E+00  0.0000E+00  0.0000E+00  0.0000E+00  0.0000E+00  0.0000E+00
    -30.667  0.0000E+00  0.0000E+00  0.0000E+00  0.0000E+00  0.0000E+00  0.0000E+00  0.0000E+00  0.0000E+00  0.0000E+00
    -30.388  0.0000E+00  0.0000E+00  0.0000E+00  0.0000E+00  0.0000E+00  0.0000E+00  0.0000E+00  0.0000E+00  0.0000E+00
    -30.110  0.0000E+00  0.0000E+00  0.0000E+00  0.0000E+00  0.0000E+00  0.0000E+00  0.0000E+00  0.0000E+00  0.0000E+00
    -29.832  0.0000E+00  0.0000E+00  0.0000E+00  0.0000E+00  0.0000E+00  0.0000E+00  0.0000E+00  0.0000E+00  0.0000E+00
    -29.553  0.0000E+00  0.0000E+00  0.0000E+00  0.0000E+00  0.0000E+00  0.0000E+00  0.0000E+00  0.0000E+00  0.0000E+00
    -29.275  0.0000E+00  0.0000E+00  0.0000E+00  0.0000E+00  0.0000E+00  0.0000E+00  0.0000E+00  0.0000E+00  0.0000E+00
    -28.996  0.0000E+00  0.0000E+00  0.0000E+00  0.0000E+00  0.0000E+00  0.0000E+00  0.0000E+00  0.0000E+00  0.0000E+00
    -28.718  0.0000E+00  0.0000E+00  0.0000E+00  0.0000E+00  0.0000E+00  0.0000E+00  0.0000E+00  0.0000E+00  0.0000E+00
    -28.440  0.0000E+00  0.0000E+00  0.0000E+00  0.0000E+00  0.0000E+00  0.0000E+00  0.0000E+00  0.0000E+00  0.0000E+00
    -28.161  0.0000E+00  0.0000E+00  0.0000E+00  0.0000E+00  0.0000E+00  0.0000E+00  0.0000E+00  0.0000E+00  0.0000E+00
    -27.883  0.0000E+00  0.0000E+00  0.0000E+00  0.0000E+00  0.0000E+00  0.0000E+00  0.0000E+00  0.0000E+00  0.0000E+00
    -27.605  0.0000E+00  0.0000E+00  0.0000E+00  0.0000E+00  0.0000E+00  0.0000E+00  0.0000E+00  0.0000E+00  0.0000E+00
    -27.326  0.0000E+00  0.0000E+00  0.0000E+00  0.0000E+00  0.0000E+00  0.0000E+00  0.0000E+00  0.0000E+00  0.0000E+00
    -27.048  0.0000E+00  0.0000E+00  0.0000E+00  0.0000E+00  0.0000E+00  0.0000E+00  0.0000E+00  0.0000E+00  0.0000E+00
    -26.769  0.0000E+00  0.0000E+00  0.0000E+00  0.0000E+00  0.0000E+00  0.0000E+00  0.0000E+00  0.0000E+00  0.0000E+00
    -26.491  0.0000E+00  0.0000E+00  0.0000E+00  0.0000E+00  0.0000E+00  0.0000E+00  0.0000E+00  0.0000E+00  0.0000E+00
    -26.213  0.0000E+00  0.0000E+00  0.0000E+00  0.0000E+00  0.0000E+00  0.0000E+00  0.0000E+00  0.0000E+00  0.0000E+00
    -25.934  0.0000E+00  0.0000E+00  0.0000E+00  0.0000E+00  0.0000E+00  0.0000E+00  0.0000E+00  0.0000E+00  0.0000E+00
    -25.656  0.0000E+00  0.0000E+00  0.0000E+00  0.0000E+00  0.0000E+00  0.0000E+00  0.0000E+00  0.0000E+00  0.0000E+00
    -25.377  0.0000E+00  0.0000E+00  0.0000E+00  0.0000E+00  0.0000E+00  0.0000E+00  0.0000E+00  0.0000E+00  0.0000E+00
    -25.099  0.0000E+00  0.0000E+00  0.0000E+00  0.0000E+00  0.0000E+00  0.0000E+00  0.0000E+00  0.0000E+00  0.0000E+00
    -24.821  0.0000E+00  0.0000E+00  0.0000E+00  0.0000E+00  0.0000E+00  0.0000E+00  0.0000E+00  0.0000E+00  0.0000E+00
    -24.542  0.0000E+00  0.0000E+00  0.0000E+00  0.0000E+00  0.0000E+00  0.0000E+00  0.0000E+00  0.0000E+00  0.0000E+00
    -24.264  0.0000E+00  0.0000E+00  0.0000E+00  0.0000E+00  0.0000E+00  0.0000E+00  0.0000E+00  0.0000E+00  0.0000E+00
    -23.986  0.0000E+00  0.0000E+00  0.0000E+00  0.0000E+00  0.0000E+00  0.0000E+00  0.0000E+00  0.0000E+00  0.0000E+00
    -23.707  0.0000E+00  0.0000E+00  0.0000E+00  0.0000E+00  0.0000E+00  0.0000E+00  0.0000E+00  0.0000E+00  0.0000E+00
    -23.429  0.0000E+00  0.0000E+00  0.0000E+00  0.0000E+00  0.0000E+00  0.0000E+00  0.0000E+00  0.0000E+00  0.0000E+00
    -23.150  0.0000E+00  0.0000E+00  0.0000E+00  0.0000E+00  0.0000E+00  0.0000E+00  0.0000E+00  0.0000E+00  0.0000E+00
    -22.872  0.0000E+00  0.0000E+00  0.0000E+00  0.0000E+00  0.0000E+00  0.0000E+00  0.0000E+00  0.0000E+00  0.0000E+00
    -22.594  0.0000E+00  0.0000E+00  0.0000E+00  0.0000E+00  0.0000E+00  0.0000E+00  0.0000E+00  0.0000E+00  0.0000E+00
    -22.315  0.0000E+00  0.0000E+00  0.0000E+00  0.0000E+00  0.0000E+00  0.0000E+00  0.0000E+00  0.0000E+00  0.0000E+00
    -22.037  0.0000E+00  0.0000E+00  0.0000E+00  0.0000E+00  0.0000E+00  0.0000E+00  0.0000E+00  0.0000E+00  0.0000E+00
    -21.759  0.0000E+00  0.0000E+00  0.0000E+00  0.0000E+00  0.0000E+00  0.0000E+00  0.0000E+00  0.0000E+00  0.0000E+00
    -21.480  0.0000E+00  0.0000E+00  0.0000E+00  0.0000E+00  0.0000E+00  0.0000E+00  0.0000E+00  0.0000E+00  0.0000E+00
    -21.202  0.0000E+00  0.0000E+00  0.0000E+00  0.0000E+00  0.0000E+00  0.0000E+00  0.0000E+00  0.0000E+00  0.0000E+00
    -20.923  0.0000E+00  0.0000E+00  0.0000E+00  0.0000E+00  0.0000E+00  0.0000E+00  0.0000E+00  0.0000E+00  0.0000E+00
    -20.645  0.0000E+00  0.0000E+00  0.0000E+00  0.0000E+00  0.0000E+00  0.0000E+00  0.0000E+00  0.0000E+00  0.0000E+00
    -20.367  0.0000E+00  0.0000E+00  0.0000E+00  0.0000E+00  0.0000E+00  0.0000E+00  0.0000E+00  0.0000E+00  0.0000E+00
    -20.088  0.0000E+00  0.0000E+00  0.0000E+00  0.0000E+00  0.0000E+00  0.0000E+00  0.0000E+00  0.0000E+00  0.0000E+00
    -19.810  0.0000E+00  0.0000E+00  0.0000E+00  0.0000E+00  0.0000E+00  0.0000E+00  0.0000E+00  0.0000E+00  0.0000E+00
    -19.531  0.0000E+00  0.0000E+00  0.0000E+00  0.0000E+00  0.0000E+00  0.0000E+00  0.0000E+00  0.0000E+00  0.0000E+00
    -19.253  0.0000E+00  0.0000E+00  0.0000E+00  0.0000E+00  0.0000E+00  0.0000E+00  0.0000E+00  0.0000E+00  0.0000E+00
    -18.975  0.0000E+00  0.0000E+00  0.0000E+00  0.0000E+00  0.0000E+00  0.0000E+00  0.0000E+00  0.0000E+00  0.0000E+00
    -18.696  0.0000E+00  0.0000E+00  0.0000E+00  0.0000E+00  0.0000E+00  0.0000E+00  0.0000E+00  0.0000E+00  0.0000E+00
    -18.418  0.0000E+00  0.0000E+00  0.0000E+00  0.0000E+00  0.0000E+00  0.0000E+00  0.0000E+00  0.0000E+00  0.0000E+00
    -18.140  0.0000E+00  0.0000E+00  0.0000E+00  0.0000E+00  0.0000E+00  0.0000E+00  0.0000E+00  0.0000E+00  0.0000E+00
    -17.861  0.0000E+00  0.0000E+00  0.0000E+00  0.0000E+00  0.0000E+00  0.0000E+00  0.0000E+00  0.0000E+00  0.0000E+00
    -17.583  0.0000E+00  0.0000E+00  0.0000E+00  0.0000E+00  0.0000E+00  0.0000E+00  0.0000E+00  0.0000E+00  0.0000E+00
    -17.304  0.0000E+00  0.0000E+00  0.0000E+00  0.0000E+00  0.0000E+00  0.0000E+00  0.0000E+00  0.0000E+00  0.0000E+00
    -17.026  0.0000E+00  0.0000E+00  0.0000E+00  0.0000E+00  0.0000E+00  0.0000E+00  0.0000E+00  0.0000E+00  0.0000E+00
    -16.748  0.0000E+00  0.0000E+00  0.0000E+00  0.0000E+00  0.0000E+00  0.0000E+00  0.0000E+00  0.0000E+00  0.0000E+00
    -16.469  0.0000E+00  0.0000E+00  0.0000E+00  0.0000E+00  0.0000E+00  0.0000E+00  0.0000E+00  0.0000E+00  0.0000E+00
    -16.191  0.0000E+00  0.0000E+00  0.0000E+00  0.0000E+00  0.0000E+00  0.0000E+00  0.0000E+00  0.0000E+00  0.0000E+00
    -15.913  0.0000E+00  0.0000E+00  0.0000E+00  0.0000E+00  0.0000E+00  0.0000E+00  0.0000E+00  0.0000E+00  0.0000E+00
    -15.634  0.0000E+00  0.0000E+00  0.0000E+00  0.0000E+00  0.0000E+00  0.0000E+00  0.0000E+00  0.0000E+00  0.0000E+00
    -15.356  0.0000E+00  0.0000E+00  0.0000E+00  0.0000E+00  0.0000E+00  0.0000E+00  0.0000E+00  0.0000E+00  0.0000E+00
    -15.077  0.0000E+00  0.0000E+00  0.0000E+00  0.0000E+00  0.0000E+00  0.0000E+00  0.0000E+00  0.0000E+00  0.0000E+00
    -14.799  0.0000E+00  0.0000E+00  0.0000E+00  0.0000E+00  0.0000E+00  0.0000E+00  0.0000E+00  0.0000E+00  0.0000E+00
    -14.521  0.0000E+00  0.0000E+00  0.0000E+00  0.0000E+00  0.0000E+00  0.0000E+00  0.0000E+00  0.0000E+00  0.0000E+00
    -14.242  0.0000E+00  0.0000E+00  0.0000E+00  0.0000E+00  0.0000E+00  0.0000E+00  0.0000E+00  0.0000E+00  0.0000E+00
    -13.964  0.0000E+00  0.0000E+00  0.0000E+00  0.0000E+00  0.0000E+00  0.0000E+00  0.0000E+00  0.0000E+00  0.0000E+00
    -13.685  0.0000E+00  0.0000E+00  0.0000E+00  0.0000E+00  0.0000E+00  0.0000E+00  0.0000E+00  0.0000E+00  0.0000E+00
    -13.407  0.0000E+00  0.0000E+00  0.0000E+00  0.0000E+00  0.0000E+00  0.0000E+00  0.0000E+00  0.0000E+00  0.0000E+00
    -13.129  0.0000E+00  0.0000E+00  0.0000E+00  0.0000E+00  0.0000E+00  0.0000E+00  0.0000E+00  0.0000E+00  0.0000E+00
    -12.850  0.0000E+00  0.0000E+00  0.0000E+00  0.0000E+00  0.0000E+00  0.0000E+00  0.0000E+00  0.0000E+00  0.0000E+00
    -12.572  0.0000E+00  0.0000E+00  0.0000E+00  0.0000E+00  0.0000E+00  0.0000E+00  0.0000E+00  0.0000E+00  0.0000E+00
    -12.294  0.0000E+00  0.0000E+00  0.0000E+00  0.0000E+00  0.0000E+00  0.0000E+00  0.0000E+00  0.0000E+00  0.0000E+00
    -12.015  0.0000E+00  0.0000E+00  0.0000E+00  0.0000E+00  0.0000E+00  0.0000E+00  0.0000E+00  0.0000E+00  0.0000E+00
    -11.737  0.0000E+00  0.0000E+00  0.0000E+00  0.0000E+00  0.0000E+00  0.0000E+00  0.0000E+00  0.0000E+00  0.0000E+00
    -11.458  0.0000E+00  0.0000E+00  0.0000E+00  0.0000E+00  0.0000E+00  0.0000E+00  0.0000E+00  0.0000E+00  0.0000E+00
    -11.180  0.0000E+00  0.0000E+00  0.0000E+00  0.0000E+00  0.0000E+00  0.0000E+00  0.0000E+00  0.0000E+00  0.0000E+00
    -10.902  0.0000E+00  0.0000E+00  0.0000E+00  0.0000E+00  0.0000E+00  0.0000E+00  0.0000E+00  0.0000E+00  0.0000E+00
    -10.623  0.0000E+00  0.0000E+00  0.0000E+00  0.0000E+00  0.0000E+00  0.0000E+00  0.0000E+00  0.0000E+00  0.0000E+00
    -10.345  0.0000E+00  0.0000E+00  0.0000E+00  0.0000E+00  0.0000E+00  0.0000E+00  0.0000E+00  0.0000E+00  0.0000E+00
    -10.067  0.0000E+00  0.0000E+00  0.0000E+00  0.0000E+00  0.0000E+00  0.0000E+00  0.0000E+00  0.0000E+00  0.0000E+00
     -9.788  0.0000E+00  0.0000E+00  0.0000E+00  0.0000E+00  0.0000E+00  0.0000E+00  0.0000E+00  0.0000E+00  0.0000E+00
     -9.510  0.0000E+00  0.0000E+00  0.0000E+00  0.0000E+00  0.0000E+00  0.0000E+00  0.0000E+00  0.0000E+00  0.0000E+00
     -9.231  0.0000E+00  0.0000E+00  0.0000E+00  0.0000E+00  0.0000E+00  0.0000E+00  0.0000E+00  0.0000E+00  0.0000E+00
     -8.953  0.0000E+00  0.0000E+00  0.0000E+00  0.0000E+00  0.0000E+00  0.0000E+00  0.0000E+00  0.0000E+00  0.0000E+00
     -8.675  0.0000E+00  0.0000E+00  0.0000E+00  0.0000E+00  0.0000E+00  0.0000E+00  0.0000E+00  0.0000E+00  0.0000E+00
     -8.396  0.0000E+00  0.0000E+00  0.0000E+00  0.0000E+00  0.0000E+00  0.0000E+00  0.0000E+00  0.0000E+00  0.0000E+00
     -8.118  0.0000E+00  0.0000E+00  0.0000E+00  0.0000E+00  0.0000E+00  0.0000E+00  0.0000E+00  0.0000E+00  0.0000E+00
     -7.839  0.0000E+00  0.0000E+00  0.0000E+00  0.0000E+00  0.0000E+00  0.0000E+00  0.0000E+00  0.0000E+00  0.0000E+00
     -7.561  0.0000E+00  0.0000E+00  0.0000E+00  0.0000E+00  0.0000E+00  0.0000E+00  0.0000E+00  0.0000E+00  0.0000E+00
     -7.283  0.0000E+00  0.0000E+00  0.0000E+00  0.0000E+00  0.0000E+00  0.0000E+00  0.0000E+00  0.0000E+00  0.0000E+00
     -7.004  0.0000E+00  0.0000E+00  0.0000E+00  0.0000E+00  0.0000E+00  0.0000E+00  0.0000E+00  0.0000E+00  0.0000E+00
     -6.726  0.0000E+00  0.0000E+00  0.0000E+00  0.0000E+00  0.0000E+00  0.0000E+00  0.0000E+00  0.0000E+00  0.0000E+00
     -6.448  0.0000E+00  0.0000E+00  0.0000E+00  0.0000E+00  0.0000E+00  0.0000E+00  0.0000E+00  0.0000E+00  0.0000E+00
     -6.169  0.0000E+00  0.0000E+00  0.0000E+00  0.0000E+00  0.0000E+00  0.0000E+00  0.0000E+00  0.0000E+00  0.0000E+00
     -5.891  0.0000E+00  0.0000E+00  0.0000E+00  0.0000E+00  0.0000E+00  0.0000E+00  0.0000E+00  0.0000E+00  0.0000E+00
     -5.612  0.0000E+00  0.0000E+00  0.0000E+00  0.0000E+00  0.0000E+00  0.0000E+00  0.0000E+00  0.0000E+00  0.0000E+00
     -5.334  0.0000E+00  0.0000E+00  0.0000E+00  0.0000E+00  0.0000E+00  0.0000E+00  0.0000E+00  0.0000E+00  0.0000E+00
     -5.056  0.0000E+00  0.0000E+00  0.0000E+00  0.0000E+00  0.0000E+00  0.0000E+00  0.0000E+00  0.0000E+00  0.0000E+00
     -4.777  0.0000E+00  0.0000E+00  0.0000E+00  0.0000E+00  0.0000E+00  0.0000E+00  0.0000E+00  0.0000E+00  0.0000E+00
     -4.499  0.0000E+00  0.0000E+00  0.0000E+00  0.0000E+00  0.0000E+00  0.0000E+00  0.0000E+00  0.0000E+00  0.0000E+00
     -4.221  0.0000E+00  0.0000E+00  0.0000E+00  0.0000E+00  0.0000E+00  0.0000E+00  0.0000E+00  0.0000E+00  0.0000E+00
     -3.942  0.0000E+00  0.0000E+00  0.0000E+00  0.0000E+00  0.0000E+00  0.0000E+00  0.0000E+00  0.0000E+00  0.0000E+00
     -3.664  0.0000E+00  0.0000E+00  0.0000E+00  0.0000E+00  0.0000E+00  0.0000E+00  0.0000E+00  0.0000E+00  0.0000E+00
     -3.385  0.0000E+00  0.0000E+00  0.0000E+00  0.0000E+00  0.0000E+00  0.0000E+00  0.0000E+00  0.0000E+00  0.0000E+00
     -3.107  0.0000E+00  0.0000E+00  0.0000E+00  0.0000E+00  0.0000E+00  0.0000E+00  0.0000E+00  0.0000E+00  0.0000E+00
     -2.829  0.0000E+00  0.0000E+00  0.0000E+00  0.0000E+00  0.0000E+00  0.0000E+00  0.0000E+00  0.0000E+00  0.0000E+00
     -2.550  0.0000E+00  0.0000E+00  0.0000E+00  0.0000E+00  0.0000E+00  0.0000E+00  0.0000E+00  0.0000E+00  0.0000E+00
     -2.272  0.0000E+00  0.0000E+00  0.0000E+00  0.0000E+00  0.0000E+00  0.0000E+00  0.0000E+00  0.0000E+00  0.0000E+00
     -1.993  0.0000E+00  0.0000E+00  0.0000E+00  0.0000E+00  0.0000E+00  0.0000E+00  0.0000E+00  0.0000E+00  0.0000E+00
     -1.715  0.0000E+00  0.0000E+00  0.0000E+00  0.0000E+00  0.0000E+00  0.0000E+00  0.0000E+00  0.0000E+00  0.0000E+00
     -1.437  0.0000E+00  0.0000E+00  0.0000E+00  0.0000E+00  0.0000E+00  0.0000E+00  0.0000E+00  0.0000E+00  0.0000E+00
     -1.158  0.0000E+00  0.0000E+00  0.0000E+00  0.0000E+00  0.0000E+00  0.0000E+00  0.0000E+00  0.0000E+00  0.0000E+00
     -0.880  0.0000E+00  0.0000E+00  0.0000E+00  0.0000E+00  0.0000E+00  0.0000E+00  0.0000E+00  0.0000E+00  0.0000E+00
     -0.602  0.0000E+00  0.0000E+00  0.0000E+00  0.0000E+00  0.0000E+00  0.0000E+00  0.0000E+00  0.0000E+00  0.0000E+00
     -0.323  0.0000E+00  0.0000E+00  0.0000E+00  0.0000E+00  0.0000E+00  0.0000E+00  0.0000E+00  0.0000E+00  0.0000E+00
     -0.045  0.0000E+00  0.0000E+00  0.0000E+00  0.0000E+00  0.0000E+00  0.0000E+00  0.0000E+00  0.0000E+00  0.0000E+00