 vasp.6.3.2 27Jun22 (build Aug 12 2022 00:53:59) complex                        
  
 executed on               tv2STD date 2024.12.03  01:38:24
 running   24 mpi-ranks, with    1 threads/rank
 distrk:  each k-point on   24 cores,    1 groups
 distr:  one band on NCORE=   1 cores,   24 groups


--------------------------------------------------------------------------------------------------------


 INCAR:
   SYSTEM = Pt-hcc
   NWRITE = 2    write-flag
   ISTART = 0    job   : 0-new, 1-cont, 2-samecut
   ICHARG = 2    charge: 0-wave, 1-file, 2-atom, >10-const
   INIWAV = 1    electr: 0-lowe 1-rand  2-diag
   ENCUT = 450.0     energy cutoff in eV
   PREC = Accurate      normal | accurate
   ADDGRID = .FALSE.  (use fine grid)
   NELM = 100     number of ELM steps
   EDIFF = 1E-06    energy stopping-criterion for ELM
   LREAL = .FALSE.      real-space projection (.FALSE., .TRUE., On, Auto)
   ALGO = Normal     Normal, Fast, Very_Fast
   LWAVE = .TRUE.
   LCHARG = .TRUE.
   NSW = 100       max number of geometry steps
   IBRION = 2     ionic relax: 0-MD, 1-quasi-Newton, 2-CG, 3-Damped MD
   EDIFFG = -0.02  force (eV/A) stopping-criterion for geometry steps
   ISIF = 2     (1:force\=y stress\=trace only ions\=y shape\=n volume\=n)
   ISYM = 1     (1-use symmetry, 0-no symmetry)
   ISMEAR = 0     (-1-Fermi, 1-Methfessel/Paxton)
   SIGMA = 0.05   broadening in eV
   LORBIT = 11

 POTCAR:    PAW_PBE Pt_pv 12Dec2005               
 POTCAR:    PAW_PBE Pt_pv 12Dec2005               
   SHA256 =  e5abf7e8cd8db70d0153315afc5ad66b6e3eeee29cc2d5b91b16730957c1d208 Pt_pv/POTCAR          
   COPYR  = (c) Copyright 12Dec2005 Georg Kresse                                                    
   COPYR  = This file is part of the software VASP. Any use, copying, and all other rights are regul
   COPYR  = If you do not have a valid VASP license, you may not use, copy or distribute this file. 
   VRHFIN =Pt: 5ps1d9                                                                               
   LEXCH  = PE                                                                                      
   EATOM  =  2428.2504 eV,  178.4714 Ry                                                             
                                                                                                    
   TITEL  = PAW_PBE Pt_pv 12Dec2005                                                                 
   LULTRA =        F    use ultrasoft PP ?                                                          
   IUNSCR =        1    unscreen: 0-lin 1-nonlin 2-no                                               
   RPACOR =    2.000    partial core radius                                                         
   POMASS =  195.080; ZVAL   =   16.000    mass and valenz                                          
   RCORE  =    2.200    outmost cutoff radius                                                       
   RWIGS  =    2.200; RWIGS  =    1.164    wigner-seitz radius (au A)                               
   ENMAX  =  294.607; ENMIN  =  220.955 eV                                                          
   ICORE  =        3    local potential                                                             
   LCOR   =        T    correct aug charges                                                         
   LPAW   =        T    paw PP                                                                      
   EAUG   =  527.014                                                                                
   DEXC   =    0.000                                                                                
   RMAX   =    2.247    core radius for proj-oper                                                   
   RAUG   =    1.300    factor for augmentation sphere                                              
   RDEP   =    2.279    radius for radial grids                                                     
   RDEPT  =    1.878    core radius for aug-charge                                                  
                                                                                                    
   Atomic configuration                                                                             
   16 entries                                                                                       
     n  l   j            E        occ.                                                              
     1  0  0.50    -78401.1885   2.0000                                                             
     2  0  0.50    -13770.7750   2.0000                                                             
     2  1  1.50    -11931.0468   6.0000                                                             
     3  0  0.50     -3234.7234   2.0000                                                             
     3  1  1.50     -2699.2216   6.0000                                                             
     3  2  2.50     -2119.5714  10.0000                                                             
     4  0  0.50      -695.1528   2.0000                                                             
     4  1  1.50      -519.6034   6.0000                                                             
     4  2  2.50      -306.6786  10.0000                                                             
     4  3  3.50       -70.1041  14.0000                                                             
     5  0  0.50      -101.7747   2.0000                                                             
     5  1  1.50       -55.9873   6.0000                                                             
     6  1  1.50        -6.8029   0.0000                                                             
     5  2  2.50        -6.1423   9.0000                                                             
     6  0  0.50        -5.6573   1.0000                                                             
     5  3  2.50        -1.3606   0.0000                                                             
   Description                                                                                      
     l       E           TYP  RCUT    TYP  RCUT                                                     
     1    -55.9873477     23  2.000                                                                 
     1     27.2116520     23  2.000                                                                 
     2     -6.1423404     23  2.200                                                                 
     2     -4.6754623     23  2.200                                                                 
     0     -5.6573207     23  2.200                                                                 
     0     47.6203910     23  2.200                                                                 
     3      6.8029130     23  2.200                                                                 
  local pseudopotential read in
  partial core-charges read in
  partial kinetic energy density read in
  atomic valenz-charges read in
  non local Contribution for L=           1  read in
    real space projection operators read in
  non local Contribution for L=           1  read in
    real space projection operators read in
  non local Contribution for L=           2  read in
    real space projection operators read in
  non local Contribution for L=           2  read in
    real space projection operators read in
  non local Contribution for L=           0  read in
    real space projection operators read in
  non local Contribution for L=           0  read in
    real space projection operators read in
    PAW grid and wavefunctions read in
 
   number of l-projection  operators is LMAX  =           6
   number of lm-projection operators is LMMAX =          18
 
  PAW_PBE Pt_pv 12Dec2005               :
 energy of atom  1       EATOM=-2428.2504
 kinetic energy error for atom=    0.0356 (will be added to EATOM!!)
 
 
 POSCAR: Pt
  positions in cartesian coordinates
  No initial velocities read in
 exchange correlation table for  LEXCH =        8
   RHO(1)=    0.500       N(1)  =     2000
   RHO(2)=  100.500       N(2)  =     4000
 


--------------------------------------------------------------------------------------------------------


 ion  position               nearest neighbor table
   1  0.000  0.000  0.000-   2 2.75   2 2.75   2 2.75   2 2.75   2 2.75   2 2.75
   2  0.333  0.667  0.500-   1 2.75   1 2.75   1 2.75   1 2.75   1 2.75   1 2.75
 
  LATTYP: Found a hexagonal cell.
 ALAT       =     2.6428532370
 C/A-ratio  =     1.7324766951
  
  Lattice vectors:
  
 A1 = (   2.6428532370,   0.0000000000,   0.0000000000)
 A2 = (  -1.3214266185,   2.2887780418,   0.0000000000)
 A3 = (   0.0000000000,   0.0000000000,   4.5786816419)


Analysis of symmetry for initial positions (statically):
=====================================================================
 Subroutine PRICEL returns:
 Original cell was already a primitive cell.
 

 Routine SETGRP: Setting up the symmetry group for a 
 hexagonal supercell.


 Subroutine GETGRP returns: Found 24 space group operations
 (whereof 12 operations were pure point group operations)
 out of a pool of 24 trial point group operations.


The static configuration has the point symmetry D_3h.
 The point group associated with its full space group is D_6h.


Analysis of symmetry for dynamics (positions and initial velocities):
=====================================================================
 Subroutine PRICEL returns:
 Original cell was already a primitive cell.
 

 Routine SETGRP: Setting up the symmetry group for a 
 hexagonal supercell.


 Subroutine GETGRP returns: Found 24 space group operations
 (whereof 12 operations were pure point group operations)
 out of a pool of 24 trial point group operations.


The dynamic configuration has the point symmetry D_3h.
 The point group associated with its full space group is D_6h.


 Subroutine INISYM returns: Found 24 space group operations
 (whereof 12 operations are pure point group operations),
 and found     1 'primitive' translations


----------------------------------------------------------------------------------------

                                     Primitive cell                                     

  volume of cell :      27.6960

  direct lattice vectors                    reciprocal lattice vectors
     2.642853237  0.000000000  0.000000000     0.378378938  0.218457181  0.000000000
    -1.321426619  2.288778042  0.000000000     0.000000000  0.436914363  0.000000000
     0.000000000  0.000000000  4.578681642     0.000000000  0.000000000  0.218403479

  length of vectors
     2.642853237  2.642853237  4.578681642     0.436914363  0.436914363  0.218403479

  position of ions in fractional coordinates (direct lattice)
     0.000000000  0.000000000  0.000000000
     0.333333333  0.666666667  0.500000000

  ion indices of the primitive-cell ions
   primitive index   ion index
                 1           1
                 2           2

----------------------------------------------------------------------------------------

 
 
 KPOINTS: Automatic mesh                          

Automatic generation of k-mesh.
 Grid dimensions read from file:
 generate k-points for:   10   10    8

 Generating k-lattice:

  Cartesian coordinates                     Fractional coordinates (reciprocal lattice)
     0.037837894  0.021845718  0.000000000     0.100000000  0.000000000  0.000000000
     0.000000000  0.043691436  0.000000000     0.000000000  0.100000000  0.000000000
     0.000000000  0.000000000  0.027300435     0.000000000  0.000000000  0.125000000

  Length of vectors
     0.043691436  0.043691436  0.027300435

  Shift w.r.t. Gamma in fractional coordinates (k-lattice)
     0.000000000  0.000000000  0.000000000

 
 Subroutine IBZKPT returns following result:
 ===========================================
 
 Found     70 irreducible k-points:
 
 Following reciprocal coordinates:
            Coordinates               Weight
  0.000000  0.000000  0.000000      1.000000
  0.100000  0.000000  0.000000      6.000000
  0.200000  0.000000  0.000000      6.000000
  0.300000  0.000000  0.000000      6.000000
  0.400000  0.000000  0.000000      6.000000
  0.500000  0.000000  0.000000      3.000000
  0.100000  0.100000  0.000000      6.000000
  0.200000  0.100000  0.000000     12.000000
  0.300000  0.100000  0.000000     12.000000
  0.400000  0.100000  0.000000     12.000000
  0.200000  0.200000  0.000000      6.000000
  0.300000  0.200000  0.000000     12.000000
  0.400000  0.200000  0.000000      6.000000
  0.300000  0.300000  0.000000      6.000000
  0.000000  0.000000  0.125000      2.000000
  0.100000  0.000000  0.125000     12.000000
  0.200000  0.000000  0.125000     12.000000
  0.300000  0.000000  0.125000     12.000000
  0.400000  0.000000  0.125000     12.000000
  0.500000  0.000000  0.125000      6.000000
  0.100000  0.100000  0.125000     12.000000
  0.200000  0.100000  0.125000     24.000000
  0.300000  0.100000  0.125000     24.000000
  0.400000  0.100000  0.125000     24.000000
  0.200000  0.200000  0.125000     12.000000
  0.300000  0.200000  0.125000     24.000000
  0.400000  0.200000  0.125000     12.000000
  0.300000  0.300000  0.125000     12.000000
  0.000000  0.000000  0.250000      2.000000
  0.100000  0.000000  0.250000     12.000000
  0.200000  0.000000  0.250000     12.000000
  0.300000  0.000000  0.250000     12.000000
  0.400000  0.000000  0.250000     12.000000
  0.500000  0.000000  0.250000      6.000000
  0.100000  0.100000  0.250000     12.000000
  0.200000  0.100000  0.250000     24.000000
  0.300000  0.100000  0.250000     24.000000
  0.400000  0.100000  0.250000     24.000000
  0.200000  0.200000  0.250000     12.000000
  0.300000  0.200000  0.250000     24.000000
  0.400000  0.200000  0.250000     12.000000
  0.300000  0.300000  0.250000     12.000000
  0.000000  0.000000  0.375000      2.000000
  0.100000  0.000000  0.375000     12.000000
  0.200000  0.000000  0.375000     12.000000
  0.300000  0.000000  0.375000     12.000000
  0.400000  0.000000  0.375000     12.000000
  0.500000  0.000000  0.375000      6.000000
  0.100000  0.100000  0.375000     12.000000
  0.200000  0.100000  0.375000     24.000000
  0.300000  0.100000  0.375000     24.000000
  0.400000  0.100000  0.375000     24.000000
  0.200000  0.200000  0.375000     12.000000
  0.300000  0.200000  0.375000     24.000000
  0.400000  0.200000  0.375000     12.000000
  0.300000  0.300000  0.375000     12.000000
  0.000000  0.000000  0.500000      1.000000
  0.100000  0.000000  0.500000      6.000000
  0.200000  0.000000  0.500000      6.000000
  0.300000  0.000000  0.500000      6.000000
  0.400000  0.000000  0.500000      6.000000
  0.500000  0.000000  0.500000      3.000000
  0.100000  0.100000  0.500000      6.000000
  0.200000  0.100000  0.500000     12.000000
  0.300000  0.100000  0.500000     12.000000
  0.400000  0.100000  0.500000     12.000000
  0.200000  0.200000  0.500000      6.000000
  0.300000  0.200000  0.500000     12.000000
  0.400000  0.200000  0.500000      6.000000
  0.300000  0.300000  0.500000      6.000000
 
 Following cartesian coordinates:
            Coordinates               Weight
  0.000000  0.000000  0.000000      1.000000
  0.037838  0.021846  0.000000      6.000000
  0.075676  0.043691  0.000000      6.000000
  0.113514  0.065537  0.000000      6.000000
  0.151352  0.087383  0.000000      6.000000
  0.189189  0.109229  0.000000      3.000000
  0.037838  0.065537  0.000000      6.000000
  0.075676  0.087383  0.000000     12.000000
  0.113514  0.109229  0.000000     12.000000
  0.151352  0.131074  0.000000     12.000000
  0.075676  0.131074  0.000000      6.000000
  0.113514  0.152920  0.000000     12.000000
  0.151352  0.174766  0.000000      6.000000
  0.113514  0.196611  0.000000      6.000000
  0.000000  0.000000  0.027300      2.000000
  0.037838  0.021846  0.027300     12.000000
  0.075676  0.043691  0.027300     12.000000
  0.113514  0.065537  0.027300     12.000000
  0.151352  0.087383  0.027300     12.000000
  0.189189  0.109229  0.027300      6.000000
  0.037838  0.065537  0.027300     12.000000
  0.075676  0.087383  0.027300     24.000000
  0.113514  0.109229  0.027300     24.000000
  0.151352  0.131074  0.027300     24.000000
  0.075676  0.131074  0.027300     12.000000
  0.113514  0.152920  0.027300     24.000000
  0.151352  0.174766  0.027300     12.000000
  0.113514  0.196611  0.027300     12.000000
  0.000000  0.000000  0.054601      2.000000
  0.037838  0.021846  0.054601     12.000000
  0.075676  0.043691  0.054601     12.000000
  0.113514  0.065537  0.054601     12.000000
  0.151352  0.087383  0.054601     12.000000
  0.189189  0.109229  0.054601      6.000000
  0.037838  0.065537  0.054601     12.000000
  0.075676  0.087383  0.054601     24.000000
  0.113514  0.109229  0.054601     24.000000
  0.151352  0.131074  0.054601     24.000000
  0.075676  0.131074  0.054601     12.000000
  0.113514  0.152920  0.054601     24.000000
  0.151352  0.174766  0.054601     12.000000
  0.113514  0.196611  0.054601     12.000000
  0.000000  0.000000  0.081901      2.000000
  0.037838  0.021846  0.081901     12.000000
  0.075676  0.043691  0.081901     12.000000
  0.113514  0.065537  0.081901     12.000000
  0.151352  0.087383  0.081901     12.000000
  0.189189  0.109229  0.081901      6.000000
  0.037838  0.065537  0.081901     12.000000
  0.075676  0.087383  0.081901     24.000000
  0.113514  0.109229  0.081901     24.000000
  0.151352  0.131074  0.081901     24.000000
  0.075676  0.131074  0.081901     12.000000
  0.113514  0.152920  0.081901     24.000000
  0.151352  0.174766  0.081901     12.000000
  0.113514  0.196611  0.081901     12.000000
  0.000000  0.000000  0.109202      1.000000
  0.037838  0.021846  0.109202      6.000000
  0.075676  0.043691  0.109202      6.000000
  0.113514  0.065537  0.109202      6.000000
  0.151352  0.087383  0.109202      6.000000
  0.189189  0.109229  0.109202      3.000000
  0.037838  0.065537  0.109202      6.000000
  0.075676  0.087383  0.109202     12.000000
  0.113514  0.109229  0.109202     12.000000
  0.151352  0.131074  0.109202     12.000000
  0.075676  0.131074  0.109202      6.000000
  0.113514  0.152920  0.109202     12.000000
  0.151352  0.174766  0.109202      6.000000
  0.113514  0.196611  0.109202      6.000000
 


--------------------------------------------------------------------------------------------------------




 Dimension of arrays:
   k-points           NKPTS =     70   k-points in BZ     NKDIM =     70   number of bands    NBANDS=     24
   number of dos      NEDOS =    301   number of ions     NIONS =      2
   non local maximal  LDIM  =      6   non local SUM 2l+1 LMDIM =     18
   total plane-waves  NPLWV =  10368
   max r-space proj   IRMAX =      1   max aug-charges    IRDMAX=  12944
   dimension x,y,z NGX =    18 NGY =   18 NGZ =   32
   dimension x,y,z NGXF=    36 NGYF=   36 NGZF=   64
   support grid    NGXF=    36 NGYF=   36 NGZF=   64
   ions per type =               2
   NGX,Y,Z   is equivalent  to a cutoff of  11.32, 11.32, 11.62 a.u.
   NGXF,Y,Z  is equivalent  to a cutoff of  22.65, 22.65, 23.24 a.u.

 SYSTEM =  Pt-hcc                                  
 POSCAR =  Pt                                      

 Startparameter for this run:
   NWRITE =      2    write-flag & timer
   PREC   = accura    normal or accurate (medium, high low for compatibility)
   ISTART =      0    job   : 0-new  1-cont  2-samecut
   ICHARG =      2    charge: 1-file 2-atom 10-const
   ISPIN  =      1    spin polarized calculation?
   LNONCOLLINEAR =      F non collinear calculations
   LSORBIT =      F    spin-orbit coupling
   INIWAV =      1    electr: 0-lowe 1-rand  2-diag
   LASPH  =      F    aspherical Exc in radial PAW
 Electronic Relaxation 1
   ENCUT  =  450.0 eV  33.07 Ry    5.75 a.u.   4.57  4.57  7.92*2*pi/ulx,y,z
   ENINI  =  450.0     initial cutoff
   ENAUG  =  527.0 eV  augmentation charge cutoff
   NELM   =    100;   NELMIN=  2; NELMDL= -5     # of ELM steps 
   EDIFF  = 0.1E-05   stopping-criterion for ELM
   LREAL  =      F    real-space projection
   NLSPLINE    = F    spline interpolate recip. space projectors
   LCOMPAT=      F    compatible to vasp.4.4
   GGA_COMPAT  = T    GGA compatible to vasp.4.4-vasp.4.6
   LMAXPAW     = -100 max onsite density
   LMAXMIX     =    2 max onsite mixed and CHGCAR
   VOSKOWN=      0    Vosko Wilk Nusair interpolation
   ROPT   =    0.00000
 Ionic relaxation
   EDIFFG = -.2E-01   stopping-criterion for IOM
   NSW    =    100    number of steps for IOM
   NBLOCK =      1;   KBLOCK =    100    inner block; outer block 
   IBRION =      2    ionic relax: 0-MD 1-quasi-New 2-CG
   NFREE  =      1    steps in history (QN), initial steepest desc. (CG)
   ISIF   =      2    stress and relaxation
   IWAVPR =     11    prediction:  0-non 1-charg 2-wave 3-comb
   ISYM   =      1    0-nonsym 1-usesym 2-fastsym
   LCORR  =      T    Harris-Foulkes like correction to forces

   POTIM  = 0.5000    time-step for ionic-motion
   TEIN   =    0.0    initial temperature
   TEBEG  =    0.0;   TEEND  =   0.0 temperature during run
   SMASS  =  -3.00    Nose mass-parameter (am)
   estimated Nose-frequenzy (Omega)   =  0.10E-29 period in steps = 0.13E+47 mass=  -0.160E-27a.u.
   SCALEE = 1.0000    scale energy and forces
   NPACO  =    256;   APACO  = 10.0  distance and # of slots for P.C.
   PSTRESS=    0.0 pullay stress

  Mass of Ions in am
   POMASS = 195.08
  Ionic Valenz
   ZVAL   =  16.00
  Atomic Wigner-Seitz radii
   RWIGS  =  -1.00
  virtual crystal weights 
   VCA    =   1.00
   NELECT =      32.0000    total number of electrons
   NUPDOWN=      -1.0000    fix difference up-down

 DOS related values:
   EMIN   =  10.00;   EMAX   =-10.00  energy-range for DOS
   EFERMI =   0.00
   ISMEAR =     0;   SIGMA  =   0.05  broadening in eV -4-tet -1-fermi 0-gaus

 Electronic relaxation 2 (details)
   IALGO  =     38    algorithm
   LDIAG  =      T    sub-space diagonalisation (order eigenvalues)
   LSUBROT=      F    optimize rotation matrix (better conditioning)
   TURBO    =      0    0=normal 1=particle mesh
   IRESTART =      0    0=no restart 2=restart with 2 vectors
   NREBOOT  =      0    no. of reboots
   NMIN     =      0    reboot dimension
   EREF     =   0.00    reference energy to select bands
   IMIX   =      4    mixing-type and parameters
     AMIX     =   0.40;   BMIX     =  1.00
     AMIX_MAG =   1.60;   BMIX_MAG =  1.00
     AMIN     =   0.10
     WC   =   100.;   INIMIX=   1;  MIXPRE=   1;  MAXMIX= -45

 Intra band minimization:
   WEIMIN = 0.0010     energy-eigenvalue tresh-hold
   EBREAK =  0.10E-07  absolut break condition
   DEPER  =   0.30     relativ break condition  

   TIME   =   0.40     timestep for ELM

  volume/ion in A,a.u.               =      13.85        93.45
  Fermi-wavevector in a.u.,A,eV,Ry     =   1.717852  3.246270 40.151007  2.951016
  Thomas-Fermi vector in A             =   2.794775
 
 Write flags
   LWAVE        =      T    write WAVECAR
   LDOWNSAMPLE  =      F    k-point downsampling of WAVECAR
   LCHARG       =      T    write CHGCAR
   LVTOT        =      F    write LOCPOT, total local potential
   LVHAR        =      F    write LOCPOT, Hartree potential only
   LELF         =      F    write electronic localiz. function (ELF)
   LORBIT       =     11    0 simple, 1 ext, 2 COOP (PROOUT), +10 PAW based schemes


 Dipole corrections
   LMONO  =      F    monopole corrections only (constant potential shift)
   LDIPOL =      F    correct potential (dipole corrections)
   IDIPOL =      0    1-x, 2-y, 3-z, 4-all directions 
   EPSILON=  1.0000000 bulk dielectric constant

 Exchange correlation treatment:
   GGA     =    --    GGA type
   LEXCH   =     8    internal setting for exchange type
   LIBXC   =     F    Libxc                    
   VOSKOWN =     0    Vosko Wilk Nusair interpolation
   LHFCALC =     F    Hartree Fock is set to
   LHFONE  =     F    Hartree Fock one center treatment
   AEXX    =    0.0000 exact exchange contribution

 Linear response parameters
   LEPSILON=     F    determine dielectric tensor
   LRPA    =     F    only Hartree local field effects (RPA)
   LNABLA  =     F    use nabla operator in PAW spheres
   LVEL    =     F    velocity operator in full k-point grid
   CSHIFT  =0.1000    complex shift for real part using Kramers Kronig
   OMEGAMAX=  -1.0    maximum frequency
   DEG_THRESHOLD= 0.2000000E-02 threshold for treating states as degnerate
   RTIME   =   -0.100 relaxation time in fs
  (WPLASMAI=    0.000 imaginary part of plasma frequency in eV, 0.658/RTIME)
   DFIELD  = 0.0000000 0.0000000 0.0000000 field for delta impulse in time
 
  Optional k-point grid parameters
   LKPOINTS_OPT  =     F    use optional k-point grid
   KPOINTS_OPT_MODE=     1    mode for optional k-point grid
 
 Orbital magnetization related:
   ORBITALMAG=     F  switch on orbital magnetization
   LCHIMAG   =     F  perturbation theory with respect to B field
   DQ        =  0.001000  dq finite difference perturbation B field
   LLRAUG    =     F  two centre corrections for induced B field



--------------------------------------------------------------------------------------------------------


 conjugate gradient relaxation of ions
 charge density and potential will be updated during run
 non-spin polarized calculation
 Variant of blocked Davidson
 Davidson routine will perform the subspace rotation
 perform sub-space diagonalisation
    after iterative eigenvector-optimisation
 modified Broyden-mixing scheme, WC =      100.0
 initial mixing is a Kerker type mixing with AMIX =  0.4000 and BMIX =      1.0000
 Hartree-type preconditioning will be used
 using additional bands            8
 reciprocal scheme for non local part
 use partial core corrections
 calculate Harris-corrections to forces 
   (improved forces if not selfconsistent)
 use gradient corrections 
 use of overlap-Matrix (Vanderbilt PP)
 Gauss-broadening in eV      SIGMA  =   0.05


--------------------------------------------------------------------------------------------------------


  energy-cutoff  :      450.00
  volume of cell :       27.70
      direct lattice vectors                 reciprocal lattice vectors
     2.642853237  0.000000000  0.000000000     0.378378938  0.218457181  0.000000000
    -1.321426619  2.288778042  0.000000000     0.000000000  0.436914363  0.000000000
     0.000000000  0.000000000  4.578681642     0.000000000  0.000000000  0.218403479

  length of vectors
     2.642853237  2.642853237  4.578681642     0.436914363  0.436914363  0.218403479


 
 k-points in units of 2pi/SCALE and weight: Automatic mesh                          
   0.00000000  0.00000000  0.00000000       0.001
   0.03783789  0.02184572  0.00000000       0.007
   0.07567579  0.04369144  0.00000000       0.007
   0.11351368  0.06553715  0.00000000       0.007
   0.15135158  0.08738287  0.00000000       0.007
   0.18918947  0.10922859  0.00000000       0.004
   0.03783789  0.06553715  0.00000000       0.007
   0.07567579  0.08738287  0.00000000       0.015
   0.11351368  0.10922859  0.00000000       0.015
   0.15135158  0.13107431  0.00000000       0.015
   0.07567579  0.13107431  0.00000000       0.007
   0.11351368  0.15292003  0.00000000       0.015
   0.15135158  0.17476575  0.00000000       0.007
   0.11351368  0.19661146  0.00000000       0.007
   0.00000000  0.00000000  0.02730043       0.003
   0.03783789  0.02184572  0.02730043       0.015
   0.07567579  0.04369144  0.02730043       0.015
   0.11351368  0.06553715  0.02730043       0.015
   0.15135158  0.08738287  0.02730043       0.015
   0.18918947  0.10922859  0.02730043       0.007
   0.03783789  0.06553715  0.02730043       0.015
   0.07567579  0.08738287  0.02730043       0.030
   0.11351368  0.10922859  0.02730043       0.030
   0.15135158  0.13107431  0.02730043       0.030
   0.07567579  0.13107431  0.02730043       0.015
   0.11351368  0.15292003  0.02730043       0.030
   0.15135158  0.17476575  0.02730043       0.015
   0.11351368  0.19661146  0.02730043       0.015
   0.00000000  0.00000000  0.05460087       0.003
   0.03783789  0.02184572  0.05460087       0.015
   0.07567579  0.04369144  0.05460087       0.015
   0.11351368  0.06553715  0.05460087       0.015
   0.15135158  0.08738287  0.05460087       0.015
   0.18918947  0.10922859  0.05460087       0.007
   0.03783789  0.06553715  0.05460087       0.015
   0.07567579  0.08738287  0.05460087       0.030
   0.11351368  0.10922859  0.05460087       0.030
   0.15135158  0.13107431  0.05460087       0.030
   0.07567579  0.13107431  0.05460087       0.015
   0.11351368  0.15292003  0.05460087       0.030
   0.15135158  0.17476575  0.05460087       0.015
   0.11351368  0.19661146  0.05460087       0.015
   0.00000000  0.00000000  0.08190130       0.003
   0.03783789  0.02184572  0.08190130       0.015
   0.07567579  0.04369144  0.08190130       0.015
   0.11351368  0.06553715  0.08190130       0.015
   0.15135158  0.08738287  0.08190130       0.015
   0.18918947  0.10922859  0.08190130       0.007
   0.03783789  0.06553715  0.08190130       0.015
   0.07567579  0.08738287  0.08190130       0.030
   0.11351368  0.10922859  0.08190130       0.030
   0.15135158  0.13107431  0.08190130       0.030
   0.07567579  0.13107431  0.08190130       0.015
   0.11351368  0.15292003  0.08190130       0.030
   0.15135158  0.17476575  0.08190130       0.015
   0.11351368  0.19661146  0.08190130       0.015
   0.00000000  0.00000000  0.10920174       0.001
   0.03783789  0.02184572  0.10920174       0.007
   0.07567579  0.04369144  0.10920174       0.007
   0.11351368  0.06553715  0.10920174       0.007
   0.15135158  0.08738287  0.10920174       0.007
   0.18918947  0.10922859  0.10920174       0.004
   0.03783789  0.06553715  0.10920174       0.007
   0.07567579  0.08738287  0.10920174       0.015
   0.11351368  0.10922859  0.10920174       0.015
   0.15135158  0.13107431  0.10920174       0.015
   0.07567579  0.13107431  0.10920174       0.007
   0.11351368  0.15292003  0.10920174       0.015
   0.15135158  0.17476575  0.10920174       0.007
   0.11351368  0.19661146  0.10920174       0.007
 
 k-points in reciprocal lattice and weights: Automatic mesh                          
   0.00000000  0.00000000  0.00000000       0.001
   0.10000000  0.00000000  0.00000000       0.007
   0.20000000  0.00000000  0.00000000       0.007
   0.30000000  0.00000000  0.00000000       0.007
   0.40000000  0.00000000  0.00000000       0.007
   0.50000000  0.00000000  0.00000000       0.004
   0.10000000  0.10000000  0.00000000       0.007
   0.20000000  0.10000000  0.00000000       0.015
   0.30000000  0.10000000  0.00000000       0.015
   0.40000000  0.10000000  0.00000000       0.015
   0.20000000  0.20000000  0.00000000       0.007
   0.30000000  0.20000000  0.00000000       0.015
   0.40000000  0.20000000  0.00000000       0.007
   0.30000000  0.30000000  0.00000000       0.007
   0.00000000  0.00000000  0.12500000       0.003
   0.10000000  0.00000000  0.12500000       0.015
   0.20000000  0.00000000  0.12500000       0.015
   0.30000000  0.00000000  0.12500000       0.015
   0.40000000  0.00000000  0.12500000       0.015
   0.50000000  0.00000000  0.12500000       0.007
   0.10000000  0.10000000  0.12500000       0.015
   0.20000000  0.10000000  0.12500000       0.030
   0.30000000  0.10000000  0.12500000       0.030
   0.40000000  0.10000000  0.12500000       0.030
   0.20000000  0.20000000  0.12500000       0.015
   0.30000000  0.20000000  0.12500000       0.030
   0.40000000  0.20000000  0.12500000       0.015
   0.30000000  0.30000000  0.12500000       0.015
   0.00000000  0.00000000  0.25000000       0.003
   0.10000000  0.00000000  0.25000000       0.015
   0.20000000  0.00000000  0.25000000       0.015
   0.30000000  0.00000000  0.25000000       0.015
   0.40000000  0.00000000  0.25000000       0.015
   0.50000000  0.00000000  0.25000000       0.007
   0.10000000  0.10000000  0.25000000       0.015
   0.20000000  0.10000000  0.25000000       0.030
   0.30000000  0.10000000  0.25000000       0.030
   0.40000000  0.10000000  0.25000000       0.030
   0.20000000  0.20000000  0.25000000       0.015
   0.30000000  0.20000000  0.25000000       0.030
   0.40000000  0.20000000  0.25000000       0.015
   0.30000000  0.30000000  0.25000000       0.015
   0.00000000  0.00000000  0.37500000       0.003
   0.10000000  0.00000000  0.37500000       0.015
   0.20000000  0.00000000  0.37500000       0.015
   0.30000000  0.00000000  0.37500000       0.015
   0.40000000  0.00000000  0.37500000       0.015
   0.50000000  0.00000000  0.37500000       0.007
   0.10000000  0.10000000  0.37500000       0.015
   0.20000000  0.10000000  0.37500000       0.030
   0.30000000  0.10000000  0.37500000       0.030
   0.40000000  0.10000000  0.37500000       0.030
   0.20000000  0.20000000  0.37500000       0.015
   0.30000000  0.20000000  0.37500000       0.030
   0.40000000  0.20000000  0.37500000       0.015
   0.30000000  0.30000000  0.37500000       0.015
   0.00000000  0.00000000  0.50000000       0.001
   0.10000000  0.00000000  0.50000000       0.007
   0.20000000  0.00000000  0.50000000       0.007
   0.30000000  0.00000000  0.50000000       0.007
   0.40000000  0.00000000  0.50000000       0.007
   0.50000000  0.00000000  0.50000000       0.004
   0.10000000  0.10000000  0.50000000       0.007
   0.20000000  0.10000000  0.50000000       0.015
   0.30000000  0.10000000  0.50000000       0.015
   0.40000000  0.10000000  0.50000000       0.015
   0.20000000  0.20000000  0.50000000       0.007
   0.30000000  0.20000000  0.50000000       0.015
   0.40000000  0.20000000  0.50000000       0.007
   0.30000000  0.30000000  0.50000000       0.007
 
 position of ions in fractional coordinates (direct lattice) 
   0.00000000  0.00000000  0.00000000
   0.33333333  0.66666667  0.50000000
 
 position of ions in cartesian coordinates  (Angst):
   0.00000000  0.00000000  0.00000000
   0.00000000  1.52585203  2.28934082
 


--------------------------------------------------------------------------------------------------------


 k-point   1 :   0.0000 0.0000 0.0000  plane waves:     597
 k-point   2 :   0.1000 0.0000 0.0000  plane waves:     604
 k-point   3 :   0.2000 0.0000 0.0000  plane waves:     604
 k-point   4 :   0.3000 0.0000 0.0000  plane waves:     600
 k-point   5 :   0.4000 0.0000 0.0000  plane waves:     600
 k-point   6 :   0.5000 0.0000 0.0000  plane waves:     596
 k-point   7 :   0.1000 0.1000 0.0000  plane waves:     603
 k-point   8 :   0.2000 0.1000 0.0000  plane waves:     610
 k-point   9 :   0.3000 0.1000 0.0000  plane waves:     601
 k-point  10 :   0.4000 0.1000 0.0000  plane waves:     595
 k-point  11 :   0.2000 0.2000 0.0000  plane waves:     601
 k-point  12 :   0.3000 0.2000 0.0000  plane waves:     596
 k-point  13 :   0.4000 0.2000 0.0000  plane waves:     582
 k-point  14 :   0.3000 0.3000 0.0000  plane waves:     592
 k-point  15 :   0.0000 0.0000 0.1250  plane waves:     604
 k-point  16 :   0.1000 0.0000 0.1250  plane waves:     603
 k-point  17 :   0.2000 0.0000 0.1250  plane waves:     608
 k-point  18 :   0.3000 0.0000 0.1250  plane waves:     599
 k-point  19 :   0.4000 0.0000 0.1250  plane waves:     593
 k-point  20 :   0.5000 0.0000 0.1250  plane waves:     590
 k-point  21 :   0.1000 0.1000 0.1250  plane waves:     603
 k-point  22 :   0.2000 0.1000 0.1250  plane waves:     603
 k-point  23 :   0.3000 0.1000 0.1250  plane waves:     607
 k-point  24 :   0.4000 0.1000 0.1250  plane waves:     594
 k-point  25 :   0.2000 0.2000 0.1250  plane waves:     599
 k-point  26 :   0.3000 0.2000 0.1250  plane waves:     596
 k-point  27 :   0.4000 0.2000 0.1250  plane waves:     594
 k-point  28 :   0.3000 0.3000 0.1250  plane waves:     590
 k-point  29 :   0.0000 0.0000 0.2500  plane waves:     610
 k-point  30 :   0.1000 0.0000 0.2500  plane waves:     607
 k-point  31 :   0.2000 0.0000 0.2500  plane waves:     608
 k-point  32 :   0.3000 0.0000 0.2500  plane waves:     613
 k-point  33 :   0.4000 0.0000 0.2500  plane waves:     593
 k-point  34 :   0.5000 0.0000 0.2500  plane waves:     594
 k-point  35 :   0.1000 0.1000 0.2500  plane waves:     606
 k-point  36 :   0.2000 0.1000 0.2500  plane waves:     603
 k-point  37 :   0.3000 0.1000 0.2500  plane waves:     599
 k-point  38 :   0.4000 0.1000 0.2500  plane waves:     598
 k-point  39 :   0.2000 0.2000 0.2500  plane waves:     602
 k-point  40 :   0.3000 0.2000 0.2500  plane waves:     596
 k-point  41 :   0.4000 0.2000 0.2500  plane waves:     599
 k-point  42 :   0.3000 0.3000 0.2500  plane waves:     597
 k-point  43 :   0.0000 0.0000 0.3750  plane waves:     604
 k-point  44 :   0.1000 0.0000 0.3750  plane waves:     614
 k-point  45 :   0.2000 0.0000 0.3750  plane waves:     609
 k-point  46 :   0.3000 0.0000 0.3750  plane waves:     610
 k-point  47 :   0.4000 0.0000 0.3750  plane waves:     597
 k-point  48 :   0.5000 0.0000 0.3750  plane waves:     600
 k-point  49 :   0.1000 0.1000 0.3750  plane waves:     615
 k-point  50 :   0.2000 0.1000 0.3750  plane waves:     605
 k-point  51 :   0.3000 0.1000 0.3750  plane waves:     597
 k-point  52 :   0.4000 0.1000 0.3750  plane waves:     598
 k-point  53 :   0.2000 0.2000 0.3750  plane waves:     603
 k-point  54 :   0.3000 0.2000 0.3750  plane waves:     594
 k-point  55 :   0.4000 0.2000 0.3750  plane waves:     598
 k-point  56 :   0.3000 0.3000 0.3750  plane waves:     594
 k-point  57 :   0.0000 0.0000 0.5000  plane waves:     604
 k-point  58 :   0.1000 0.0000 0.5000  plane waves:     614
 k-point  59 :   0.2000 0.0000 0.5000  plane waves:     614
 k-point  60 :   0.3000 0.0000 0.5000  plane waves:     606
 k-point  61 :   0.4000 0.0000 0.5000  plane waves:     602
 k-point  62 :   0.5000 0.0000 0.5000  plane waves:     588
 k-point  63 :   0.1000 0.1000 0.5000  plane waves:     610
 k-point  64 :   0.2000 0.1000 0.5000  plane waves:     610
 k-point  65 :   0.3000 0.1000 0.5000  plane waves:     590
 k-point  66 :   0.4000 0.1000 0.5000  plane waves:     600
 k-point  67 :   0.2000 0.2000 0.5000  plane waves:     594
 k-point  68 :   0.3000 0.2000 0.5000  plane waves:     590
 k-point  69 :   0.4000 0.2000 0.5000  plane waves:     600
 k-point  70 :   0.3000 0.3000 0.5000  plane waves:     596

 maximum and minimum number of plane-waves per node :       615      582

 maximum number of plane-waves:       615
 maximum index in each direction: 
   IXMAX=    4   IYMAX=    4   IZMAX=    7
   IXMIN=   -5   IYMIN=   -4   IZMIN=   -8


 serial   3D FFT for wavefunctions
 parallel 3D FFT for charge:
    minimum data exchange during FFTs selected (reduces bandwidth)


 total amount of memory used by VASP MPI-rank0    37932. kBytes
=======================================================================

   base      :      30000. kBytes
   nonl-proj :       6309. kBytes
   fftplans  :        195. kBytes
   grid      :        645. kBytes
   one-center:         31. kBytes
   wavefun   :        752. kBytes
 
     INWAV:  cpu time      0.0000: real time      0.0003
 Broyden mixing: mesh for mixing (old mesh)
   NGX =  9   NGY =  9   NGZ = 15
  (NGX  = 36   NGY  = 36   NGZ  = 64)
  gives a total of   1215 points

 initial charge density was supplied:
 charge density of overlapping atoms calculated
 number of electron      32.0000000 magnetization 
 keeping initial charge density in first step


--------------------------------------------------------------------------------------------------------


 Maximum index for augmentation-charges          830 (set IRDMAX)


--------------------------------------------------------------------------------------------------------


 First call to EWALD:  gamma=   0.586
 Maximum number of real-space cells 3x 3x 2
 Maximum number of reciprocal cells 2x 2x 4

    FEWALD:  cpu time      0.0015: real time      0.0015


--------------------------------------- Iteration      1(   1)  ---------------------------------------


    POTLOK:  cpu time      0.0041: real time      0.0050
    SETDIJ:  cpu time      0.0023: real time      0.0023
     EDDAV:  cpu time      0.2845: real time      0.2864
       DOS:  cpu time      0.0005: real time      0.0006
    --------------------------------------------
      LOOP:  cpu time      0.2915: real time      0.2943

 eigenvalue-minimisations  :  3384
 total energy-change (2. order) : 0.1384072E+03  (-0.2343580E+04)
 number of electron      32.0000000 magnetization 
 augmentation part       32.0000000 magnetization 

 Free energy of the ion-electron system (eV)
  ---------------------------------------------------
  alpha Z        PSCENC =       346.52193606
  Ewald energy   TEWEN  =     -4431.38450057
  -Hartree energ DENC   =      -733.08570176
  -exchange      EXHF   =         0.00000000
  -V(xc)+E(xc)   XCENC  =       128.73372811
  PAW double counting   =      4131.50523274    -4061.67189606
  entropy T*S    EENTRO =        -0.00050375
  eigenvalues    EBANDS =       -98.64073307
  atomic energy  EATOM  =      4856.42966544
  Solvation  Ediel_sol  =         0.00000000
  ---------------------------------------------------
  free energy    TOTEN  =       138.40722713 eV

  energy without entropy =      138.40773089  energy(sigma->0) =      138.40747901


--------------------------------------------------------------------------------------------------------




--------------------------------------- Iteration      1(   2)  ---------------------------------------


     EDDAV:  cpu time      0.2908: real time      0.2928
       DOS:  cpu time      0.0004: real time      0.0004
    --------------------------------------------
      LOOP:  cpu time      0.2911: real time      0.2932

 eigenvalue-minimisations  :  3432
 total energy-change (2. order) :-0.1494560E+03  (-0.1487550E+03)
 number of electron      32.0000000 magnetization 
 augmentation part       32.0000000 magnetization 

 Free energy of the ion-electron system (eV)
  ---------------------------------------------------
  alpha Z        PSCENC =       346.52193606
  Ewald energy   TEWEN  =     -4431.38450057
  -Hartree energ DENC   =      -733.08570176
  -exchange      EXHF   =         0.00000000
  -V(xc)+E(xc)   XCENC  =       128.73372811
  PAW double counting   =      4131.50523274    -4061.67189606
  entropy T*S    EENTRO =        -0.00325197
  eigenvalues    EBANDS =      -248.09396439
  atomic energy  EATOM  =      4856.42966544
  Solvation  Ediel_sol  =         0.00000000
  ---------------------------------------------------
  free energy    TOTEN  =       -11.04875240 eV

  energy without entropy =      -11.04550043  energy(sigma->0) =      -11.04712642


--------------------------------------------------------------------------------------------------------




--------------------------------------- Iteration      1(   3)  ---------------------------------------


     EDDAV:  cpu time      0.4524: real time      0.4555
       DOS:  cpu time      0.0004: real time      0.0004
    --------------------------------------------
      LOOP:  cpu time      0.4527: real time      0.4559

 eigenvalue-minimisations  :  4440
 total energy-change (2. order) :-0.1161111E+01  (-0.1158586E+01)
 number of electron      32.0000000 magnetization 
 augmentation part       32.0000000 magnetization 

 Free energy of the ion-electron system (eV)
  ---------------------------------------------------
  alpha Z        PSCENC =       346.52193606
  Ewald energy   TEWEN  =     -4431.38450057
  -Hartree energ DENC   =      -733.08570176
  -exchange      EXHF   =         0.00000000
  -V(xc)+E(xc)   XCENC  =       128.73372811
  PAW double counting   =      4131.50523274    -4061.67189606
  entropy T*S    EENTRO =        -0.00319897
  eigenvalues    EBANDS =      -249.25512824
  atomic energy  EATOM  =      4856.42966544
  Solvation  Ediel_sol  =         0.00000000
  ---------------------------------------------------
  free energy    TOTEN  =       -12.20986325 eV

  energy without entropy =      -12.20666428  energy(sigma->0) =      -12.20826376


--------------------------------------------------------------------------------------------------------




--------------------------------------- Iteration      1(   4)  ---------------------------------------


     EDDAV:  cpu time      0.5373: real time      0.5404
       DOS:  cpu time      0.0004: real time      0.0004
    --------------------------------------------
      LOOP:  cpu time      0.5377: real time      0.5407

 eigenvalue-minimisations  :  4920
 total energy-change (2. order) :-0.3682689E-02  (-0.3682641E-02)
 number of electron      32.0000000 magnetization 
 augmentation part       32.0000000 magnetization 

 Free energy of the ion-electron system (eV)
  ---------------------------------------------------
  alpha Z        PSCENC =       346.52193606
  Ewald energy   TEWEN  =     -4431.38450057
  -Hartree energ DENC   =      -733.08570176
  -exchange      EXHF   =         0.00000000
  -V(xc)+E(xc)   XCENC  =       128.73372811
  PAW double counting   =      4131.50523274    -4061.67189606
  entropy T*S    EENTRO =        -0.00319919
  eigenvalues    EBANDS =      -249.25881071
  atomic energy  EATOM  =      4856.42966544
  Solvation  Ediel_sol  =         0.00000000
  ---------------------------------------------------
  free energy    TOTEN  =       -12.21354594 eV

  energy without entropy =      -12.21034675  energy(sigma->0) =      -12.21194634


--------------------------------------------------------------------------------------------------------




--------------------------------------- Iteration      1(   5)  ---------------------------------------


     EDDAV:  cpu time      0.5432: real time      0.5462
       DOS:  cpu time      0.0004: real time      0.0004
    CHARGE:  cpu time      0.0162: real time      0.0163
    MIXING:  cpu time      0.0003: real time      0.0003
    --------------------------------------------
      LOOP:  cpu time      0.5600: real time      0.5631

 eigenvalue-minimisations  :  4848
 total energy-change (2. order) :-0.2172170E-05  (-0.2172199E-05)
 number of electron      31.9999976 magnetization 
 augmentation part        7.9842222 magnetization 

 Broyden mixing:
  rms(total) = 0.27139E+01    rms(broyden)= 0.27137E+01
  rms(prec ) = 0.28673E+01
  weight for this iteration     100.00

 Free energy of the ion-electron system (eV)
  ---------------------------------------------------
  alpha Z        PSCENC =       346.52193606
  Ewald energy   TEWEN  =     -4431.38450057
  -Hartree energ DENC   =      -733.08570176
  -exchange      EXHF   =         0.00000000
  -V(xc)+E(xc)   XCENC  =       128.73372811
  PAW double counting   =      4131.50523274    -4061.67189606
  entropy T*S    EENTRO =        -0.00319916
  eigenvalues    EBANDS =      -249.25881290
  atomic energy  EATOM  =      4856.42966544
  Solvation  Ediel_sol  =         0.00000000
  ---------------------------------------------------
  free energy    TOTEN  =       -12.21354811 eV

  energy without entropy =      -12.21034894  energy(sigma->0) =      -12.21194853


--------------------------------------------------------------------------------------------------------




--------------------------------------- Iteration      1(   6)  ---------------------------------------


    POTLOK:  cpu time      0.0031: real time      0.0032
    SETDIJ:  cpu time      0.0021: real time      0.0021
     EDDAV:  cpu time      0.2961: real time      0.2977
       DOS:  cpu time      0.0004: real time      0.0004
    CHARGE:  cpu time      0.0150: real time      0.0151
    MIXING:  cpu time      0.0003: real time      0.0003
    --------------------------------------------
      LOOP:  cpu time      0.3169: real time      0.3188

 eigenvalue-minimisations  :  3480
 total energy-change (2. order) : 0.5983357E+00  (-0.1926090E+00)
 number of electron      31.9999975 magnetization 
 augmentation part        8.1809907 magnetization 

 Broyden mixing:
  rms(total) = 0.10399E+01    rms(broyden)= 0.10399E+01
  rms(prec ) = 0.10703E+01
  weight for this iteration     100.00

 eigenvalues of (default mixing * dielectric matrix)
  average eigenvalue GAMMA=   1.6060
  1.6060

 Free energy of the ion-electron system (eV)
  ---------------------------------------------------
  alpha Z        PSCENC =       346.52193606
  Ewald energy   TEWEN  =     -4431.38450057
  -Hartree energ DENC   =      -705.57668755
  -exchange      EXHF   =         0.00000000
  -V(xc)+E(xc)   XCENC  =       127.53620031
  PAW double counting   =      4624.47451879    -4558.91811575
  entropy T*S    EENTRO =        -0.00361351
  eigenvalues    EBANDS =      -270.69461564
  atomic energy  EATOM  =      4856.42966544
  Solvation  Ediel_sol  =         0.00000000
  ---------------------------------------------------
  free energy    TOTEN  =       -11.61521242 eV

  energy without entropy =      -11.61159891  energy(sigma->0) =      -11.61340566


--------------------------------------------------------------------------------------------------------




--------------------------------------- Iteration      1(   7)  ---------------------------------------


    POTLOK:  cpu time      0.0029: real time      0.0031
    SETDIJ:  cpu time      0.0019: real time      0.0019
     EDDAV:  cpu time      0.4604: real time      0.4629
       DOS:  cpu time      0.0004: real time      0.0004
    CHARGE:  cpu time      0.0149: real time      0.0152
    MIXING:  cpu time      0.0003: real time      0.0003
    --------------------------------------------
      LOOP:  cpu time      0.4808: real time      0.4838

 eigenvalue-minimisations  :  4536
 total energy-change (2. order) : 0.4638110E-01  (-0.2243262E-01)
 number of electron      31.9999975 magnetization 
 augmentation part        8.2430919 magnetization 

 Broyden mixing:
  rms(total) = 0.24360E+00    rms(broyden)= 0.24360E+00
  rms(prec ) = 0.25167E+00
  weight for this iteration     100.00

 eigenvalues of (default mixing * dielectric matrix)
  average eigenvalue GAMMA=   1.9610
  1.2431  2.6789

 Free energy of the ion-electron system (eV)
  ---------------------------------------------------
  alpha Z        PSCENC =       346.52193606
  Ewald energy   TEWEN  =     -4431.38450057
  -Hartree energ DENC   =      -695.77617475
  -exchange      EXHF   =         0.00000000
  -V(xc)+E(xc)   XCENC  =       127.09109544
  PAW double counting   =      4941.76686884    -4878.02790999
  entropy T*S    EENTRO =        -0.00367667
  eigenvalues    EBANDS =      -278.18613511
  atomic energy  EATOM  =      4856.42966544
  Solvation  Ediel_sol  =         0.00000000
  ---------------------------------------------------
  free energy    TOTEN  =       -11.56883132 eV

  energy without entropy =      -11.56515464  energy(sigma->0) =      -11.56699298


--------------------------------------------------------------------------------------------------------




--------------------------------------- Iteration      1(   8)  ---------------------------------------


    POTLOK:  cpu time      0.0030: real time      0.0032
    SETDIJ:  cpu time      0.0020: real time      0.0020
     EDDAV:  cpu time      0.2966: real time      0.2983
       DOS:  cpu time      0.0004: real time      0.0004
    CHARGE:  cpu time      0.0149: real time      0.0149
    MIXING:  cpu time      0.0002: real time      0.0002
    --------------------------------------------
      LOOP:  cpu time      0.3170: real time      0.3189

 eigenvalue-minimisations  :  3480
 total energy-change (2. order) : 0.3105328E-02  (-0.1005463E-02)
 number of electron      31.9999975 magnetization 
 augmentation part        8.2306564 magnetization 

 Broyden mixing:
  rms(total) = 0.41317E-01    rms(broyden)= 0.41313E-01
  rms(prec ) = 0.42576E-01
  weight for this iteration     100.00

 eigenvalues of (default mixing * dielectric matrix)
  average eigenvalue GAMMA=   1.6177
  1.1312  1.3199  2.4021

 Free energy of the ion-electron system (eV)
  ---------------------------------------------------
  alpha Z        PSCENC =       346.52193606
  Ewald energy   TEWEN  =     -4431.38450057
  -Hartree energ DENC   =      -696.26825580
  -exchange      EXHF   =         0.00000000
  -V(xc)+E(xc)   XCENC  =       127.09105320
  PAW double counting   =      5090.02410623    -5026.48452211
  entropy T*S    EENTRO =        -0.00368059
  eigenvalues    EBANDS =      -277.49152785
  atomic energy  EATOM  =      4856.42966544
  Solvation  Ediel_sol  =         0.00000000
  ---------------------------------------------------
  free energy    TOTEN  =       -11.56572599 eV

  energy without entropy =      -11.56204540  energy(sigma->0) =      -11.56388569


--------------------------------------------------------------------------------------------------------




--------------------------------------- Iteration      1(   9)  ---------------------------------------


    POTLOK:  cpu time      0.0028: real time      0.0030
    SETDIJ:  cpu time      0.0019: real time      0.0019
     EDDAV:  cpu time      0.4608: real time      0.4637
       DOS:  cpu time      0.0004: real time      0.0004
    CHARGE:  cpu time      0.0151: real time      0.0151
    MIXING:  cpu time      0.0003: real time      0.0003
    --------------------------------------------
      LOOP:  cpu time      0.4813: real time      0.4845

 eigenvalue-minimisations  :  4440
 total energy-change (2. order) : 0.1723326E-03  (-0.2031579E-04)
 number of electron      31.9999975 magnetization 
 augmentation part        8.2300372 magnetization 

 Broyden mixing:
  rms(total) = 0.45133E-02    rms(broyden)= 0.45127E-02
  rms(prec ) = 0.48819E-02
  weight for this iteration     100.00

 eigenvalues of (default mixing * dielectric matrix)
  average eigenvalue GAMMA=   1.7039
  2.5395  1.0374  1.2637  1.9750

 Free energy of the ion-electron system (eV)
  ---------------------------------------------------
  alpha Z        PSCENC =       346.52193606
  Ewald energy   TEWEN  =     -4431.38450057
  -Hartree energ DENC   =      -696.54450078
  -exchange      EXHF   =         0.00000000
  -V(xc)+E(xc)   XCENC  =       127.10497602
  PAW double counting   =      5070.54688287    -5006.89937274
  entropy T*S    EENTRO =        -0.00366002
  eigenvalues    EBANDS =      -277.33697994
  atomic energy  EATOM  =      4856.42966544
  Solvation  Ediel_sol  =         0.00000000
  ---------------------------------------------------
  free energy    TOTEN  =       -11.56555366 eV

  energy without entropy =      -11.56189364  energy(sigma->0) =      -11.56372365


--------------------------------------------------------------------------------------------------------




--------------------------------------- Iteration      1(  10)  ---------------------------------------


    POTLOK:  cpu time      0.0029: real time      0.0031
    SETDIJ:  cpu time      0.0020: real time      0.0020
     EDDAV:  cpu time      0.4425: real time      0.4447
       DOS:  cpu time      0.0004: real time      0.0004
    CHARGE:  cpu time      0.0149: real time      0.0150
    MIXING:  cpu time      0.0003: real time      0.0003
    --------------------------------------------
      LOOP:  cpu time      0.4630: real time      0.4655

 eigenvalue-minimisations  :  4344
 total energy-change (2. order) :-0.9222184E-05  (-0.9817158E-06)
 number of electron      31.9999975 magnetization 
 augmentation part        8.2302123 magnetization 

 Broyden mixing:
  rms(total) = 0.10219E-02    rms(broyden)= 0.10215E-02
  rms(prec ) = 0.11588E-02
  weight for this iteration     100.00

 eigenvalues of (default mixing * dielectric matrix)
  average eigenvalue GAMMA=   1.7440
  2.6295  2.2241  0.9865  1.2655  1.6143

 Free energy of the ion-electron system (eV)
  ---------------------------------------------------
  alpha Z        PSCENC =       346.52193606
  Ewald energy   TEWEN  =     -4431.38450057
  -Hartree energ DENC   =      -696.55670753
  -exchange      EXHF   =         0.00000000
  -V(xc)+E(xc)   XCENC  =       127.10517495
  PAW double counting   =      5074.82987727    -5011.15442925
  entropy T*S    EENTRO =        -0.00365534
  eigenvalues    EBANDS =      -277.35292391
  atomic energy  EATOM  =      4856.42966544
  Solvation  Ediel_sol  =         0.00000000
  ---------------------------------------------------
  free energy    TOTEN  =       -11.56556288 eV

  energy without entropy =      -11.56190754  energy(sigma->0) =      -11.56373521


--------------------------------------------------------------------------------------------------------




--------------------------------------- Iteration      1(  11)  ---------------------------------------


    POTLOK:  cpu time      0.0028: real time      0.0030
    SETDIJ:  cpu time      0.0020: real time      0.0020
     EDDAV:  cpu time      0.2546: real time      0.2560
       DOS:  cpu time      0.0004: real time      0.0004
    --------------------------------------------
      LOOP:  cpu time      0.2597: real time      0.2613

 eigenvalue-minimisations  :  2688
 total energy-change (2. order) : 0.6828386E-06  (-0.6370148E-07)
 number of electron      31.9999975 magnetization 
 augmentation part        8.2302123 magnetization 

 Free energy of the ion-electron system (eV)
  ---------------------------------------------------
  alpha Z        PSCENC =       346.52193606
  Ewald energy   TEWEN  =     -4431.38450057
  -Hartree energ DENC   =      -696.57050627
  -exchange      EXHF   =         0.00000000
  -V(xc)+E(xc)   XCENC  =       127.10573267
  PAW double counting   =      5075.37353692    -5011.68478019
  entropy T*S    EENTRO =        -0.00365611
  eigenvalues    EBANDS =      -277.35299014
  atomic energy  EATOM  =      4856.42966544
  Solvation  Ediel_sol  =         0.00000000
  ---------------------------------------------------
  free energy    TOTEN  =       -11.56556220 eV

  energy without entropy =      -11.56190609  energy(sigma->0) =      -11.56373414


--------------------------------------------------------------------------------------------------------




 average (electrostatic) potential at core
  the test charge radii are     0.9952
  (the norm of the test charge is              1.0000)
       1 -87.2537       2 -87.2537
 
 
 
 E-fermi :  13.7983     XC(G=0): -14.5601     alpha+bet :-18.9434

 Fermi energy:        13.7982747671

 k-point     1 :       0.0000    0.0000    0.0000
  band No.  band energies     occupation 
      1     -39.4410      2.00000
      2     -39.0588      2.00000
      3     -39.0588      2.00000
      4     -38.9940      2.00000
      5     -38.9940      2.00000
      6     -38.8940      2.00000
      7       2.5900      2.00000
      8       5.3418      2.00000
      9       8.9442      2.00000
     10       9.5648      2.00000
     11       9.5648      2.00000
     12      10.0287      2.00000
     13      10.0287      2.00000
     14      11.5499      2.00000
     15      11.5499      2.00000
     16      12.4962      2.00000
     17      13.5288      2.00000
     18      13.5288      2.00000
     19      19.4245      0.00000
     20      28.5829      0.00000
     21      29.3887      0.00000
     22      31.0074      0.00000
     23      36.2460      0.00000
     24      36.2460      0.00000

 k-point     2 :       0.1000    0.0000    0.0000
  band No.  band energies     occupation 
      1     -39.4218      2.00000
      2     -39.1181      2.00000
      3     -39.0761      2.00000
      4     -39.0546      2.00000
      5     -39.0055      2.00000
      6     -38.8986      2.00000
      7       3.0017      2.00000
      8       5.7195      2.00000
      9       8.8592      2.00000
     10       9.5714      2.00000
     11       9.8383      2.00000
     12       9.8989      2.00000
     13      10.3477      2.00000
     14      10.7585      2.00000
     15      11.3321      2.00000
     16      11.4608      2.00000
     17      13.6148      2.00000
     18      15.3860      0.00000
     19      19.3667      0.00000
     20      29.2508      0.00000
     21      29.9932      0.00000
     22      31.6517      0.00000
     23      34.0763      0.00000
     24      34.3416      0.00000

 k-point     3 :       0.2000    0.0000    0.0000
  band No.  band energies     occupation 
      1     -39.3673      2.00000
      2     -39.2727      2.00000
      3     -39.2100      2.00000
      4     -39.1196      2.00000
      5     -39.0367      2.00000
      6     -38.9131      2.00000
      7       4.1058      2.00000
      8       6.5242      2.00000
      9       8.5826      2.00000
     10       9.1200      2.00000
     11       9.2300      2.00000
     12      10.3354      2.00000
     13      10.8500      2.00000
     14      10.8524      2.00000
     15      10.8553      2.00000
     16      11.2480      2.00000
     17      13.7521      1.80838
     18      17.8384      0.00000
     19      19.2236      0.00000
     20      28.8490      0.00000
     21      30.6317      0.00000
     22      32.0486      0.00000
     23      32.3548      0.00000
     24      32.4407      0.00000

 k-point     4 :       0.3000    0.0000    0.0000
  band No.  band energies     occupation 
      1     -39.4613      2.00000
      2     -39.3959      2.00000
      3     -39.2915      2.00000
      4     -39.1720      2.00000
      5     -39.0764      2.00000
      6     -38.9397      2.00000
      7       5.3884      2.00000
      8       6.5897      2.00000
      9       7.8474      2.00000
     10       8.9163      2.00000
     11       9.3673      2.00000
     12      10.2309      2.00000
     13      10.3699      2.00000
     14      11.7469      2.00000
     15      12.2327      2.00000
     16      12.5382      2.00000
     17      13.8263      0.42792
     18      19.2264      0.00000
     19      20.2833      0.00000
     20      25.1640      0.00000
     21      29.0803      0.00000
     22      29.4142      0.00000
     23      32.3389      0.00000
     24      32.6949      0.00000

 k-point     5 :       0.4000    0.0000    0.0000
  band No.  band energies     occupation 
      1     -39.6128      2.00000
      2     -39.5418      2.00000
      3     -39.2151      2.00000
      4     -39.2139      2.00000
      5     -39.1087      2.00000
      6     -38.9766      2.00000
      7       5.9727      2.00000
      8       6.2255      2.00000
      9       7.0521      2.00000
     10       9.5521      2.00000
     11       9.7818      2.00000
     12      10.0278      2.00000
     13      10.3182      2.00000
     14      13.5992      2.00000
     15      13.8303      0.36443
     16      13.8431      0.20457
     17      13.9995      0.00000
     18      19.8755      0.00000
     19      21.3826      0.00000
     20      22.3638      0.00000
     21      27.2175      0.00000
     22      27.6355      0.00000
     23      27.8402      0.00000
     24      31.5397      0.00000

 k-point     6 :       0.5000    0.0000    0.0000
  band No.  band energies     occupation 
      1     -39.6696      2.00000
      2     -39.5971      2.00000
      3     -39.2296      2.00000
      4     -39.1770      2.00000
      5     -39.1208      2.00000
      6     -38.9994      2.00000
      7       5.9434      2.00000
      8       6.1568      2.00000
      9       6.7814      2.00000
     10       9.6208      2.00000
     11       9.9060      2.00000
     12      10.1860      2.00000
     13      10.5219      2.00000
     14      13.8426      0.21018
     15      14.1893      0.00000
     16      14.4470      0.00000
     17      16.3542      0.00000
     18      18.0331      0.00000
     19      21.7934      0.00000
     20      23.3092      0.00000
     21      24.5608      0.00000
     22      26.2862      0.00000
     23      27.3370      0.00000
     24      30.9192      0.00000

 k-point     7 :       0.1000    0.1000    0.0000
  band No.  band energies     occupation 
      1     -39.3847      2.00000
      2     -39.2140      2.00000
      3     -39.1743      2.00000
      4     -39.0964      2.00000
      5     -39.0360      2.00000
      6     -38.9081      2.00000
      7       3.7710      2.00000
      8       6.3737      2.00000
      9       8.5239      2.00000
     10       9.4737      2.00000
     11       9.6042      2.00000
     12       9.8379      2.00000
     13      10.5911      2.00000
     14      10.6093      2.00000
     15      11.0651      2.00000
     16      11.3944      2.00000
     17      13.6458      1.99998
     18      17.2011      0.00000
     19      19.2686      0.00000
     20      29.8100      0.00000
     21      31.0111      0.00000
     22      31.1090      0.00000
     23      32.1953      0.00000
     24      33.4466      0.00000

 k-point     8 :       0.2000    0.1000    0.0000
  band No.  band energies     occupation 
      1     -39.3732      2.00000
      2     -39.3322      2.00000
      3     -39.3196      2.00000
      4     -39.1581      2.00000
      5     -39.0833      2.00000
      6     -38.9293      2.00000
      7       5.0618      2.00000
      8       7.0254      2.00000
      9       8.3218      2.00000
     10       8.3449      2.00000
     11       9.1530      2.00000
     12       9.9769      2.00000
     13      10.5884      2.00000
     14      10.9430      2.00000
     15      11.9040      2.00000
     16      12.4199      2.00000
     17      13.6515      1.99997
     18      19.2238      0.00000
     19      19.5405      0.00000
     20      27.0980      0.00000
     21      28.9339      0.00000
     22      30.2007      0.00000
     23      32.4615      0.00000
     24      33.7957      0.00000

 k-point     9 :       0.3000    0.1000    0.0000
  band No.  band energies     occupation 
      1     -39.5375      2.00000
      2     -39.4783      2.00000
      3     -39.2413      2.00000
      4     -39.2209      2.00000
      5     -39.1285      2.00000
      6     -38.9626      2.00000
      7       6.1405      2.00000
      8       6.6950      2.00000
      9       7.4042      2.00000
     10       8.9452      2.00000
     11       9.6187      2.00000
     12       9.6982      2.00000
     13      10.3395      2.00000
     14      11.9400      2.00000
     15      13.2510      2.00000
     16      13.6385      1.99999
     17      14.1650      0.00000
     18      19.7414      0.00000
     19      21.8644      0.00000
     20      23.0916      0.00000
     21      26.6051      0.00000
     22      28.7748      0.00000
     23      30.3815      0.00000
     24      31.9338      0.00000

 k-point    10 :       0.4000    0.1000    0.0000
  band No.  band energies     occupation 
      1     -39.6382      2.00000
      2     -39.5674      2.00000
      3     -39.2590      2.00000
      4     -39.1773      2.00000
      5     -39.1559      2.00000
      6     -38.9989      2.00000
      7       6.3020      2.00000
      8       6.4774      2.00000
      9       6.9105      2.00000
     10       9.5591      2.00000
     11       9.8461      2.00000
     12       9.8819      2.00000
     13      10.2841      2.00000
     14      13.4766      2.00000
     15      13.6176      2.00000
     16      13.9614      0.00000
     17      16.1321      0.00000
     18      19.4094      0.00000
     19      21.4904      0.00000
     20      23.5905      0.00000
     21      24.3781      0.00000
     22      26.9508      0.00000
     23      27.9165      0.00000
     24      30.8307      0.00000

 k-point    11 :       0.2000    0.2000    0.0000
  band No.  band energies     occupation 
      1     -39.4669      2.00000
      2     -39.4626      2.00000
      3     -39.2510      2.00000
      4     -39.2294      2.00000
      5     -39.1642      2.00000
      6     -38.9579      2.00000
      7       6.3832      2.00000
      8       7.6492      2.00000
      9       7.7207      2.00000
     10       7.7749      2.00000
     11       9.3787      2.00000
     12       9.4274      2.00000
     13      10.5749      2.00000
     14      11.0266      2.00000
     15      13.2273      2.00000
     16      13.4213      2.00000
     17      14.2619      0.00000
     18      19.7665      0.00000
     19      21.7806      0.00000
     20      24.5287      0.00000
     21      25.3811      0.00000
     22      29.6651      0.00000
     23      31.9101      0.00000
     24      31.9973      0.00000

 k-point    12 :       0.3000    0.2000    0.0000
  band No.  band energies     occupation 
      1     -39.5647      2.00000
      2     -39.5163      2.00000
      3     -39.3122      2.00000
      4     -39.2330      2.00000
      5     -39.1782      2.00000
      6     -38.9980      2.00000
      7       7.1513      2.00000
      8       7.1690      2.00000
      9       7.3035      2.00000
     10       8.7024      2.00000
     11       9.2076      2.00000
     12       9.9755      2.00000
     13      10.0809      2.00000
     14      12.0047      2.00000
     15      13.2473      2.00000
     16      13.7825      1.34431
     17      16.2412      0.00000
     18      20.7783      0.00000
     19      21.6962      0.00000
     20      23.1845      0.00000
     21      24.0428      0.00000
     22      28.8209      0.00000
     23      29.0926      0.00000
     24      30.6612      0.00000

 k-point    13 :       0.4000    0.2000    0.0000
  band No.  band energies     occupation 
      1     -39.6002      2.00000
      2     -39.5291      2.00000
      3     -39.3520      2.00000
      4     -39.2583      2.00000
      5     -39.1368      2.00000
      6     -39.0266      2.00000
      7       6.9979      2.00000
      8       7.1106      2.00000
      9       7.2645      2.00000
     10       9.3760      2.00000
     11       9.3778      2.00000
     12       9.5169      2.00000
     13      10.4007      2.00000
     14      12.9512      2.00000
     15      13.1839      2.00000
     16      13.5483      2.00000
     17      17.8875      0.00000
     18      18.5958      0.00000
     19      21.8051      0.00000
     20      23.7576      0.00000
     21      25.2886      0.00000
     22      26.6377      0.00000
     23      28.7100      0.00000
     24      29.8580      0.00000

 k-point    14 :       0.3000    0.3000    0.0000
  band No.  band energies     occupation 
      1     -39.5423      2.00000
      2     -39.4879      2.00000
      3     -39.4133      2.00000
      4     -39.3445      2.00000
      5     -39.1141      2.00000
      6     -39.0453      2.00000
      7       7.0997      2.00000
      8       7.7499      2.00000
      9       8.0336      2.00000
     10       8.5584      2.00000
     11       9.1537      2.00000
     12       9.4847      2.00000
     13      10.5154      2.00000
     14      12.4520      2.00000
     15      12.9722      2.00000
     16      13.3433      2.00000
     17      17.9766      0.00000
     18      19.2075      0.00000
     19      20.6259      0.00000
     20      24.8116      0.00000
     21      26.3693      0.00000
     22      27.7674      0.00000
     23      28.7944      0.00000
     24      28.9314      0.00000

 k-point    15 :       0.0000    0.0000    0.1250
  band No.  band energies     occupation 
      1     -39.4208      2.00000
      2     -39.0566      2.00000
      3     -39.0566      2.00000
      4     -38.9966      2.00000
      5     -38.9966      2.00000
      6     -38.9159      2.00000
      7       2.7434      2.00000
      8       5.3338      2.00000
      9       8.9010      2.00000
     10       9.5405      2.00000
     11       9.5405      2.00000
     12       9.9795      2.00000
     13       9.9795      2.00000
     14      11.6733      2.00000
     15      11.6733      2.00000
     16      11.8723      2.00000
     17      13.4978      2.00000
     18      13.4978      2.00000
     19      20.2943      0.00000
     20      28.1226      0.00000
     21      30.0250      0.00000
     22      30.6778      0.00000
     23      35.1670      0.00000
     24      35.1670      0.00000

 k-point    16 :       0.1000    0.0000    0.1250
  band No.  band energies     occupation 
      1     -39.4029      2.00000
      2     -39.1147      2.00000
      3     -39.0734      2.00000
      4     -39.0592      2.00000
      5     -39.0084      2.00000
      6     -38.9173      2.00000
      7       3.1515      2.00000
      8       5.7185      2.00000
      9       8.8623      2.00000
     10       9.4610      2.00000
     11       9.7025      2.00000
     12       9.8634      2.00000
     13      10.2926      2.00000
     14      10.6970      2.00000
     15      11.4782      2.00000
     16      11.4973      2.00000
     17      13.5693      2.00000
     18      14.8743      0.00000
     19      20.3489      0.00000
     20      28.8038      0.00000
     21      30.5903      0.00000
     22      31.2916      0.00000
     23      33.3898      0.00000
     24      34.3955      0.00000

 k-point    17 :       0.2000    0.0000    0.1250
  band No.  band energies     occupation 
      1     -39.3613      2.00000
      2     -39.2601      2.00000
      3     -39.2151      2.00000
      4     -39.1166      2.00000
      5     -39.0402      2.00000
      6     -38.9274      2.00000
      7       4.2344      2.00000
      8       6.5478      2.00000
      9       8.6196      2.00000
     10       8.8415      2.00000
     11       9.2135      2.00000
     12      10.1835      2.00000
     13      10.6412      2.00000
     14      11.0759      2.00000
     15      11.1319      2.00000
     16      11.2964      2.00000
     17      13.6764      1.99943
     18      16.6758      0.00000
     19      20.6492      0.00000
     20      28.9180      0.00000
     21      30.4981      0.00000
     22      31.8066      0.00000
     23      32.2003      0.00000
     24      33.0147      0.00000

 k-point    18 :       0.3000    0.0000    0.1250
  band No.  band energies     occupation 
      1     -39.4676      2.00000
      2     -39.4033      2.00000
      3     -39.2681      2.00000
      4     -39.1683      2.00000
      5     -39.0799      2.00000
      6     -38.9494      2.00000
      7       5.4320      2.00000
      8       6.6299      2.00000
      9       7.8446      2.00000
     10       8.6965      2.00000
     11       9.3971      2.00000
     12      10.3804      2.00000
     13      10.4462      2.00000
     14      11.8096      2.00000
     15      12.2595      2.00000
     16      12.4758      2.00000
     17      13.7369      1.91732
     18      17.9504      0.00000
     19      21.5218      0.00000
     20      25.4821      0.00000
     21      29.1291      0.00000
     22      29.6938      0.00000
     23      31.5312      0.00000
     24      33.2798      0.00000

 k-point    19 :       0.4000    0.0000    0.1250
  band No.  band energies     occupation 
      1     -39.6154      2.00000
      2     -39.5489      2.00000
      3     -39.2097      2.00000
      4     -39.1997      2.00000
      5     -39.1126      2.00000
      6     -38.9811      2.00000
      7       5.8874      2.00000
      8       6.2123      2.00000
      9       7.2696      2.00000
     10       8.7585      2.00000
     11      10.0838      2.00000
     12      10.1320      2.00000
     13      10.9553      2.00000
     14      13.5015      2.00000
     15      13.6179      2.00000
     16      13.8953      0.00609
     17      13.9644      0.00000
     18      18.9238      0.00000
     19      21.4010      0.00000
     20      23.2681      0.00000
     21      27.2370      0.00000
     22      27.5494      0.00000
     23      28.3321      0.00000
     24      31.7001      0.00000

 k-point    20 :       0.5000    0.0000    0.1250
  band No.  band energies     occupation 
      1     -39.6719      2.00000
      2     -39.6042      2.00000
      3     -39.2255      2.00000
      4     -39.1645      2.00000
      5     -39.1249      2.00000
      6     -39.0012      2.00000
      7       5.9307      2.00000
      8       5.9824      2.00000
      9       7.0857      2.00000
     10       8.8260      2.00000
     11      10.0164      2.00000
     12      10.2661      2.00000
     13      11.4691      2.00000
     14      13.6103      2.00000
     15      14.2146      0.00000
     16      14.4389      0.00000
     17      16.0407      0.00000
     18      17.8783      0.00000
     19      21.6994      0.00000
     20      22.5852      0.00000
     21      25.5408      0.00000
     22      26.6377      0.00000
     23      27.5075      0.00000
     24      31.1706      0.00000

 k-point    21 :       0.1000    0.1000    0.1250
  band No.  band energies     occupation 
      1     -39.3718      2.00000
      2     -39.2072      2.00000
      3     -39.1774      2.00000
      4     -39.0961      2.00000
      5     -39.0385      2.00000
      6     -38.9233      2.00000
      7       3.9097      2.00000
      8       6.3893      2.00000
      9       8.5627      2.00000
     10       9.1049      2.00000
     11       9.5508      2.00000
     12       9.8175      2.00000
     13      10.5222      2.00000
     14      10.7845      2.00000
     15      11.1567      2.00000
     16      11.4918      2.00000
     17      13.5831      2.00000
     18      16.2590      0.00000
     19      20.5332      0.00000
     20      29.6372      0.00000
     21      31.1202      0.00000
     22      31.1624      0.00000
     23      31.7486      0.00000
     24      33.6678      0.00000

 k-point    22 :       0.2000    0.1000    0.1250
  band No.  band energies     occupation 
      1     -39.3878      2.00000
      2     -39.3394      2.00000
      3     -39.2855      2.00000
      4     -39.1561      2.00000
      5     -39.0864      2.00000
      6     -38.9397      2.00000
      7       5.1564      2.00000
      8       7.0739      2.00000
      9       8.1470      2.00000
     10       8.4043      2.00000
     11       9.0966      2.00000
     12       9.8810      2.00000
     13      10.7515      2.00000
     14      10.9350      2.00000
     15      12.0410      2.00000
     16      12.3528      2.00000
     17      13.5877      2.00000
     18      17.6623      0.00000
     19      21.2281      0.00000
     20      27.2939      0.00000
     21      29.0641      0.00000
     22      30.2773      0.00000
     23      32.0686      0.00000
     24      34.2639      0.00000

 k-point    23 :       0.3000    0.1000    0.1250
  band No.  band energies     occupation 
      1     -39.5413      2.00000
      2     -39.4854      2.00000
      3     -39.2304      2.00000
      4     -39.2120      2.00000
      5     -39.1324      2.00000
      6     -38.9683      2.00000
      7       6.0902      2.00000
      8       6.7383      2.00000
      9       7.5140      2.00000
     10       8.5800      2.00000
     11       9.6341      2.00000
     12      10.0762      2.00000
     13      10.3615      2.00000
     14      11.9569      2.00000
     15      13.3111      2.00000
     16      13.3876      2.00000
     17      14.2491      0.00000
     18      18.8323      0.00000
     19      22.1441      0.00000
     20      23.9139      0.00000
     21      26.7866      0.00000
     22      28.7677      0.00000
     23      30.1825      0.00000
     24      32.1979      0.00000

 k-point    24 :       0.4000    0.1000    0.1250
  band No.  band energies     occupation 
      1     -39.6405      2.00000
      2     -39.5745      2.00000
      3     -39.2574      2.00000
      4     -39.1652      2.00000
      5     -39.1585      2.00000
      6     -38.9999      2.00000
      7       6.1980      2.00000
      8       6.3704      2.00000
      9       7.2667      2.00000
     10       8.7592      2.00000
     11       9.6975      2.00000
     12      10.4141      2.00000
[...]
      1     -39.4641      2.00000
      2     -39.4641      2.00000
      3     -39.1249      2.00000
      4     -39.1249      2.00000
      5     -39.0802      2.00000
      6     -39.0802      2.00000
      7       6.1983      2.00000
      8       6.1983      2.00000
      9       7.8541      2.00000
     10       7.8541      2.00000
     11      10.1641      2.00000
     12      10.1641      2.00000
     13      11.4156      2.00000
     14      11.4156      2.00000
     15      12.9061      2.00000
     16      12.9061      2.00000
     17      13.6348      2.00000
     18      13.6348      2.00000
     19      26.0388      0.00000
     20      26.0388      0.00000
     21      29.1679      0.00000
     22      29.1679      0.00000
     23      33.2121      0.00000
     24      33.2121      0.00000

 k-point    61 :       0.4000    0.0000    0.5000
  band No.  band energies     occupation 
      1     -39.6092      2.00000
      2     -39.6092      2.00000
      3     -39.1617      2.00000
      4     -39.1617      2.00000
      5     -39.0625      2.00000
      6     -39.0625      2.00000
      7       5.9801      2.00000
      8       5.9801      2.00000
      9       7.5239      2.00000
     10       7.5239      2.00000
     11      11.5497      2.00000
     12      11.5497      2.00000
     13      11.9415      2.00000
     14      11.9415      2.00000
     15      13.8301      0.36729
     16      13.8301      0.36729
     17      14.4383      0.00000
     18      14.4383      0.00000
     19      23.2049      0.00000
     20      23.2049      0.00000
     21      28.6635      0.00000
     22      28.6635      0.00000
     23      31.2886      0.00000
     24      31.2886      0.00000

 k-point    62 :       0.5000    0.0000    0.5000
  band No.  band energies     occupation 
      1     -39.6645      2.00000
      2     -39.6645      2.00000
      3     -39.1752      2.00000
      4     -39.1752      2.00000
      5     -39.0549      2.00000
      6     -39.0549      2.00000
      7       5.8523      2.00000
      8       5.8523      2.00000
      9       7.3925      2.00000
     10       7.3925      2.00000
     11      11.5295      2.00000
     12      11.5295      2.00000
     13      12.6155      2.00000
     14      12.6155      2.00000
     15      14.3374      0.00000
     16      14.3374      0.00000
     17      15.4887      0.00000
     18      15.4887      0.00000
     19      21.3052      0.00000
     20      21.3052      0.00000
     21      28.5183      0.00000
     22      28.5183      0.00000
     23      30.4098      0.00000
     24      30.4098      0.00000

 k-point    63 :       0.1000    0.1000    0.5000
  band No.  band energies     occupation 
      1     -39.2454      2.00000
      2     -39.2454      2.00000
      3     -39.0977      2.00000
      4     -39.0977      2.00000
      5     -39.0671      2.00000
      6     -39.0671      2.00000
      7       5.6105      2.00000
      8       5.6105      2.00000
      9       8.3338      2.00000
     10       8.3338      2.00000
     11       9.1894      2.00000
     12       9.1894      2.00000
     13      10.4687      2.00000
     14      10.4687      2.00000
     15      12.6394      2.00000
     16      12.6394      2.00000
     17      13.1590      2.00000
     18      13.1590      2.00000
     19      27.1633      0.00000
     20      27.1633      0.00000
     21      30.6166      0.00000
     22      30.6166      0.00000
     23      32.0471      0.00000
     24      32.0471      0.00000

 k-point    64 :       0.2000    0.1000    0.5000
  band No.  band energies     occupation 
      1     -39.3887      2.00000
      2     -39.3887      2.00000
      3     -39.1336      2.00000
      4     -39.1336      2.00000
      5     -39.0766      2.00000
      6     -39.0766      2.00000
      7       6.3903      2.00000
      8       6.3903      2.00000
      9       8.0792      2.00000
     10       8.0792      2.00000
     11       9.1131      2.00000
     12       9.1131      2.00000
     13      11.2161      2.00000
     14      11.2161      2.00000
     15      12.8732      2.00000
     16      12.8732      2.00000
     17      13.5470      2.00000
     18      13.5470      2.00000
     19      27.0356      0.00000
     20      27.0356      0.00000
     21      29.7130      0.00000
     22      29.7130      0.00000
     23      31.2852      0.00000
     24      31.2852      0.00000

 k-point    65 :       0.3000    0.1000    0.5000
  band No.  band energies     occupation 
      1     -39.5394      2.00000
      2     -39.5394      2.00000
      3     -39.1835      2.00000
      4     -39.1835      2.00000
      5     -39.0601      2.00000
      6     -39.0601      2.00000
      7       6.3740      2.00000
      8       6.3740      2.00000
      9       7.8106      2.00000
     10       7.8106      2.00000
     11      10.2953      2.00000
     12      10.2953      2.00000
     13      11.3552      2.00000
     14      11.3552      2.00000
     15      13.6602      1.99991
     16      13.6602      1.99991
     17      14.5357      0.00000
     18      14.5357      0.00000
     19      24.8171      0.00000
     20      24.8171      0.00000
     21      28.9634      0.00000
     22      28.9634      0.00000
     23      30.1792      0.00000
     24      30.1792      0.00000

 k-point    66 :       0.4000    0.1000    0.5000
  band No.  band energies     occupation 
      1     -39.6335      2.00000
      2     -39.6335      2.00000
      3     -39.2156      2.00000
      4     -39.2156      2.00000
      5     -39.0481      2.00000
      6     -39.0481      2.00000
      7       6.1700      2.00000
      8       6.1700      2.00000
      9       7.5908      2.00000
     10       7.5908      2.00000
     11      10.8394      2.00000
     12      10.8394      2.00000
     13      12.2066      2.00000
     14      12.2066      2.00000
     15      13.7736      1.51518
     16      13.7736      1.51518
     17      16.3822      0.00000
     18      16.3822      0.00000
     19      21.9275      0.00000
     20      21.9275      0.00000
     21      28.7758      0.00000
     22      28.7758      0.00000
     23      29.1632      0.00000
     24      29.1632      0.00000

 k-point    67 :       0.2000    0.2000    0.5000
  band No.  band energies     occupation 
      1     -39.4931      2.00000
      2     -39.4931      2.00000
      3     -39.2150      2.00000
      4     -39.2150      2.00000
      5     -39.0569      2.00000
      6     -39.0569      2.00000
      7       6.8064      2.00000
      8       6.8064      2.00000
      9       8.3018      2.00000
     10       8.3018      2.00000
     11       8.9818      2.00000
     12       8.9818      2.00000
     13      11.0307      2.00000
     14      11.0307      2.00000
     15      13.7899      1.18637
     16      13.7899      1.18637
     17      14.6724      0.00000
     18      14.6724      0.00000
     19      26.0352      0.00000
     20      26.0352      0.00000
     21      28.2878      0.00000
     22      28.2878      0.00000
     23      29.7695      0.00000
     24      29.7695      0.00000

 k-point    68 :       0.3000    0.2000    0.5000
  band No.  band energies     occupation 
      1     -39.5670      2.00000
      2     -39.5670      2.00000
      3     -39.2913      2.00000
      4     -39.2913      2.00000
      5     -39.0408      2.00000
      6     -39.0408      2.00000
      7       6.8420      2.00000
      8       6.8420      2.00000
      9       8.1418      2.00000
     10       8.1418      2.00000
     11       9.6865      2.00000
     12       9.6865      2.00000
     13      10.9795      2.00000
     14      10.9795      2.00000
     15      13.8695      0.04385
     16      13.8695      0.04385
     17      17.0530      0.00000
     18      17.0530      0.00000
     19      23.3195      0.00000
     20      23.3195      0.00000
     21      26.8097      0.00000
     22      26.8097      0.00000
     23      29.9996      0.00000
     24      29.9996      0.00000

 k-point    69 :       0.4000    0.2000    0.5000
  band No.  band energies     occupation 
      1     -39.5931      2.00000
      2     -39.5931      2.00000
      3     -39.3232      2.00000
      4     -39.3232      2.00000
      5     -39.0349      2.00000
      6     -39.0349      2.00000
      7       6.8266      2.00000
      8       6.8266      2.00000
      9       8.0415      2.00000
     10       8.0415      2.00000
     11       9.7645      2.00000
     12       9.7645      2.00000
     13      11.5101      2.00000
     14      11.5101      2.00000
     15      13.6906      1.99768
     16      13.6906      1.99768
     17      18.8144      0.00000
     18      18.8144      0.00000
     19      21.3690      0.00000
     20      21.3690      0.00000
     21      26.1219      0.00000
     22      26.1219      0.00000
     23      30.3859      0.00000
     24      30.3859      0.00000

 k-point    70 :       0.3000    0.3000    0.5000
  band No.  band energies     occupation 
      1     -39.5350      2.00000
      2     -39.5350      2.00000
      3     -39.4067      2.00000
      4     -39.4067      2.00000
      5     -39.0303      2.00000
      6     -39.0303      2.00000
      7       7.3478      2.00000
      8       7.3478      2.00000
      9       8.3378      2.00000
     10       8.3378      2.00000
     11       9.2966      2.00000
     12       9.2966      2.00000
     13      10.8356      2.00000
     14      10.8356      2.00000
     15      13.6691      1.99974
     16      13.6691      1.99974
     17      19.7897      0.00000
     18      19.7897      0.00000
     19      21.9514      0.00000
     20      21.9514      0.00000
     21      24.3129      0.00000
     22      24.3129      0.00000
     23      31.6791      0.00000
     24      31.6791      0.00000


--------------------------------------------------------------------------------------------------------


 soft charge-density along one line, spin component           1
         0         1         2         3         4         5         6         7         8         9
 total charge-density along one line
 
 pseudopotential strength for first ion, spin component:           1
-30.888  -0.000   0.000   9.938   0.000  -0.000   0.000  -0.000
 -0.000 -30.821  -0.000   0.000   9.870   0.000  -0.000   0.000
  0.000  -0.000 -30.888  -0.000   0.000   9.938  -0.000  -0.000
  9.938   0.000  -0.000  16.573  -0.000   0.000   0.000   0.000
  0.000   9.870   0.000  -0.000  16.597  -0.000   0.000  -0.000
 -0.000   0.000   9.938   0.000  -0.000  16.573  -0.000   0.000
  0.000  -0.000  -0.000   0.000   0.000  -0.000  -3.195  -0.000
 -0.000   0.000  -0.000   0.000  -0.000   0.000  -0.000  -3.149
  0.000  -0.000  -0.000  -0.000   0.000   0.000  -0.000  -0.000
 -0.000  -0.000  -0.000   0.000   0.000   0.000  -0.000   0.000
 -0.000  -0.000   0.000  -0.000   0.000   0.000  -0.000   0.000
  0.000  -0.000  -0.000   0.000   0.000  -0.000  -3.362  -0.000
 -0.000   0.000  -0.000   0.000  -0.000   0.000  -0.000  -3.310
  0.000  -0.000  -0.000  -0.000   0.000   0.000  -0.000  -0.000
 -0.000  -0.000  -0.000   0.000   0.000   0.000  -0.000   0.000
 -0.000  -0.000   0.000  -0.000   0.000   0.000  -0.000   0.000
 -0.000   0.000   0.000  -0.000   0.000   0.000  -0.000   0.000
  0.000  -0.000  -0.000   0.000  -0.000  -0.000   0.000  -0.000
 total augmentation occupancy for first ion, spin component:           1
  2.003   0.000  -0.000  -0.023   0.000   0.000  -0.000   0.000  -0.000   0.000   0.005   0.000   0.000   0.000   0.000  -0.004
  0.000   2.003   0.000   0.000  -0.021  -0.000   0.000   0.000   0.000   0.000   0.000   0.000  -0.000   0.000   0.000  -0.000
 -0.000   0.000   2.003   0.000  -0.000  -0.023   0.005   0.000   0.000   0.000   0.000  -0.004   0.000   0.000  -0.000   0.000
 -0.023   0.000   0.000   0.064  -0.000   0.000  -0.000   0.000   0.000   0.000  -0.034  -0.000   0.000  -0.000   0.000   0.032
  0.000  -0.021  -0.000   0.000   0.055   0.000   0.000  -0.000   0.000  -0.000  -0.000   0.000   0.000   0.000   0.000   0.000
  0.000   0.000  -0.023   0.000   0.000   0.064  -0.034   0.000  -0.000   0.000   0.000   0.032   0.000   0.000   0.000   0.000
  0.000   0.000   0.005  -0.000   0.000  -0.034   6.841   0.000   0.000   0.000   0.000  -4.172  -0.000  -0.000  -0.000  -0.000
 -0.000  -0.000   0.000   0.000   0.000   0.000  -0.000   5.911   0.000  -0.000  -0.000   0.000  -3.684   0.000  -0.000   0.000
 -0.000   0.000   0.000   0.000   0.000  -0.000   0.000  -0.000   6.916   0.000  -0.000  -0.000  -0.000  -4.249   0.000   0.000
  0.000   0.000  -0.000   0.000  -0.000  -0.000  -0.000   0.000   0.000   5.911  -0.000   0.000   0.000  -0.000  -3.684   0.000
  0.005   0.000  -0.000  -0.034  -0.000   0.000   0.000   0.000  -0.000   0.000   6.841   0.000   0.000   0.000   0.000  -4.172
 -0.000   0.000  -0.004   0.000   0.000   0.032  -4.172  -0.000  -0.000   0.000  -0.000   3.298   0.000   0.000   0.000   0.000
  0.000  -0.000   0.000   0.000  -0.000   0.000   0.000  -3.684   0.000  -0.000   0.000  -0.000   3.341   0.000  -0.000   0.000
  0.000   0.000   0.000  -0.000   0.000   0.000  -0.000   0.000  -4.249   0.000   0.000   0.000  -0.000   3.368   0.000  -0.000
  0.000  -0.000  -0.000   0.000   0.000  -0.000   0.000   0.000  -0.000  -3.684   0.000   0.000  -0.000   0.000   3.341  -0.000
 -0.004  -0.000   0.000   0.032   0.000   0.000  -0.000   0.000   0.000   0.000  -4.172   0.000   0.000  -0.000  -0.000   3.298
 -0.000   0.000   0.000   0.000   0.000   0.000  -0.000   0.000  -0.256  -0.000   0.000   0.000  -0.000   0.235   0.000  -0.000
 -0.000   0.000  -0.000   0.000   0.000   0.000  -0.000  -0.000   0.004   0.000   0.000   0.000   0.000   0.001   0.000  -0.000


------------------------ aborting loop because EDIFF is reached ----------------------------------------





 total charge

# of ion       s       p       d       tot
------------------------------------------
    1        0.372   6.114   7.111  13.597
    2        0.372   6.114   7.111  13.597
--------------------------------------------------
tot          0.743  12.228  14.223  27.194
 
    CHARGE:  cpu time      0.0149: real time      0.0149
    FORLOC:  cpu time      0.0001: real time      0.0001
    FORNL :  cpu time      0.0142: real time      0.0143
    STRESS:  cpu time      0.1596: real time      0.1604
    FORCOR:  cpu time      0.0025: real time      0.0025
    FORHAR:  cpu time      0.0005: real time      0.0005
    MIXING:  cpu time      0.0002: real time      0.0002
    OFIELD:  cpu time      0.0000: real time      0.0000

  FORCE on cell =-STRESS in cart. coord.  units (eV):
  Direction    XX          YY          ZZ          XY          YZ          ZX
  --------------------------------------------------------------------------------------
  Alpha Z   346.52194   346.52194   346.52194
  Ewald   -1437.40001 -1437.40001 -1556.58654     0.00000     0.00000     0.00000
  Hartree   248.38778   248.38778   199.79749    -0.00000    -0.00000    -0.00000
  E(xc)    -171.99079  -171.99079  -172.22619    -0.00000    -0.00000     0.00000
  Local     232.68919   232.68922   386.89819     0.00002    -0.00000    -0.00000
  n-local   -52.90344   -55.79992   -56.70858   -14.23134     3.85029     3.40872
  augment   145.34247   145.34244   149.08464    -0.00003     0.00000     0.00000
  Kinetic   701.39790   695.72121   709.97273   -18.75009     4.06045     1.01288
  Fock        0.00000     0.00000     0.00000     0.00000     0.00000     0.00000
  -------------------------------------------------------------------------------------
  Total       7.75844     7.75844     6.75367     0.00000     0.00000     0.00000
  in kB     448.81560   448.81560   390.69090     0.00000     0.00000     0.00000
  external pressure =      429.44 kB  Pullay stress =        0.00 kB


 VOLUME and BASIS-vectors are now :
 -----------------------------------------------------------------------------
  energy-cutoff  :      450.00
  volume of cell :       27.70
      direct lattice vectors                 reciprocal lattice vectors
     2.642853237  0.000000000  0.000000000     0.378378938  0.218457181  0.000000000
    -1.321426619  2.288778042  0.000000000     0.000000000  0.436914363  0.000000000
     0.000000000  0.000000000  4.578681642     0.000000000  0.000000000  0.218403479

  length of vectors
     2.642853237  2.642853237  4.578681642     0.436914363  0.436914363  0.218403479


 FORCES acting on ions
    electron-ion (+dipol)            ewald-force                    non-local-force                 convergence-correction
 -----------------------------------------------------------------------------------------------
   -.359E-07 0.207E-07 -.104E-12   0.198E-11 -.113E-11 -.742E-13   -.104E-16 0.555E-16 0.000E+00   0.282E-08 -.163E-08 0.567E-13
   0.359E-07 -.207E-07 -.210E-11   -.199E-11 0.113E-11 0.742E-13   0.104E-16 -.555E-16 0.000E+00   -.282E-08 0.163E-08 0.683E-13
 -----------------------------------------------------------------------------------------------
   -.356E-10 0.206E-10 -.220E-11   -.245E-14 0.683E-14 0.000E+00   0.000E+00 0.000E+00 0.000E+00   0.124E-12 -.343E-13 0.125E-12
 
 
 POSITION                                       TOTAL-FORCE (eV/Angst)
 -----------------------------------------------------------------------------------
      0.00000      0.00000      0.00000         0.000000      0.000000      0.000000
      0.00000      1.52585      2.28934        -0.000000      0.000000      0.000000
 -----------------------------------------------------------------------------------
    total drift:                               -0.000000      0.000000     -0.000000


--------------------------------------------------------------------------------------------------------



  FREE ENERGIE OF THE ION-ELECTRON SYSTEM (eV)
  ---------------------------------------------------
  free  energy   TOTEN  =       -11.56556220 eV

  energy  without entropy=      -11.56190609  energy(sigma->0) =      -11.56373414
 


--------------------------------------------------------------------------------------------------------


    POTLOK:  cpu time      0.0050: real time      0.0050


--------------------------------------------------------------------------------------------------------




--------------------------------------------------------------------------------------------------------


  
 reached required accuracy - stopping structural energy minimisation
 writing wavefunctions
     LOOP+:  cpu time      4.7627: real time      5.2763
    4ORBIT:  cpu time      0.0000: real time      0.0000



 total charge

# of ion       s       p       d       tot
------------------------------------------
    1        0.372   6.114   7.111  13.597
    2        0.372   6.114   7.111  13.597
--------------------------------------------------
tot          0.743  12.228  14.223  27.194
 

 total amount of memory used by VASP MPI-rank0    37932. kBytes
=======================================================================

   base      :      30000. kBytes
   nonl-proj :       6309. kBytes
   fftplans  :        195. kBytes
   grid      :        645. kBytes
   one-center:         31. kBytes
   wavefun   :        752. kBytes
 
  
  
 General timing and accounting informations for this job:
 ========================================================
  
                  Total CPU time used (sec):        5.646
                            User time (sec):        5.151
                          System time (sec):        0.495
                         Elapsed time (sec):        9.438
  
                   Maximum memory used (kb):      228608.
                   Average memory used (kb):          N/A
  
                          Minor page faults:        23398
                          Major page faults:           61
                 Voluntary context switches:         2252
