Pt-hcc                                  
           1
     2.642853    0.000000    0.000000
    -1.321427    2.288778    0.000000
     0.000000    0.000000    4.578682
   Pt
     2
Direct configuration=     1
   0.00000000  0.00000000  0.00000000
   0.33333333  0.66666667  0.50000000
