Pt-hcc                                  
   1.00000000000000     
     2.783227    0.000000    0.000000
    -1.391613    2.410345    0.000000
     0.000000    0.000000    4.821876
   Pt
     2
Direct
  0.000000  0.000000  0.000000
  0.333333  0.666667  0.500000
 
   40   40   72
 0.28316617630E+03 0.28281817733E+03 0.28113068457E+03 0.27640951622E+03 0.26655822040E+03
 0.24991716113E+03 0.22601703272E+03 0.19594912414E+03 0.16223049855E+03 0.12815947980E+03
 0.96957399370E+02 0.70958235148E+02 0.51180303901E+02 0.37307431966E+02 0.28068707818E+02
 0.21803484605E+02 0.17543424898E+02 0.14795395199E+02 0.13124714725E+02 0.12241826152E+02
 0.11963787599E+02 0.12241756078E+02 0.13124849996E+02 0.14795236769E+02 0.17543450435E+02
 0.21804463123E+02 0.28065901503E+02 0.37309970308E+02 0.51179452432E+02 0.70958618087E+02
 0.96957085381E+02 0.12815992128E+03 0.16223008274E+03 0.19594962751E+03 0.22601661940E+03
 0.24991772313E+03 0.26655792466E+03 0.27640962584E+03 0.28113063481E+03 0.28281808106E+03
 0.28281808106E+03 0.28281813622E+03 0.28179302262E+03 0.27855189448E+03 0.27116763947E+03
 0.25773443365E+03 0.23718579842E+03 0.20986690866E+03 0.17764879322E+03 0.14351780563E+03
 0.11079967600E+03 0.82291752116E+02 0.59650938120E+02 0.43160703177E+02 0.31963729563E+02
 0.24480712893E+02 0.19342992785E+02 0.15930974802E+02 0.13788277094E+02 0.12551315946E+02
 0.11990673900E+02 0.11989663288E+02 0.12552384139E+02 0.13787006326E+02 0.15932587537E+02
 0.19340612358E+02 0.24483424354E+02 0.31962840486E+02 0.43160052439E+02 0.59651401453E+02
 0.82291354312E+02 0.11079994985E+03 0.14351745699E+03 0.17764913451E+03 0.20986666779E+03
 0.23718596555E+03 0.25773457617E+03 0.27116755285E+03 0.27855201071E+03 0.28179320604E+03
 0.28113063481E+03 0.28180006623E+03 0.28113036383E+03 0.27855211417E+03 0.27257461465E+03
 0.26139055245E+03 0.24364250687E+03 0.21910378886E+03 0.18899343444E+03 0.15580920929E+03
 0.12270896934E+03 0.92698434107E+02 0.67889494610E+02 0.49129685318E+02 0.36009581473E+02
 0.27238463027E+02 0.21237072503E+02 0.17151790977E+02 0.14513474757E+02 0.12906710835E+02
 0.12055616440E+02 0.11787701435E+02 0.12055473718E+02 0.12906946018E+02 0.14513047010E+02
 0.17152305328E+02 0.21237195084E+02 0.27236537032E+02 0.36012155642E+02 0.49127783258E+02
 0.67891173635E+02 0.92697206107E+02 0.12270982764E+03 0.15580856043E+03 0.18899373256E+03
 0.21910378451E+03 0.24364241377E+03 0.26139083688E+03 0.27257508491E+03 0.27855201071E+03
 0.27640962584E+03 0.27856957011E+03 0.27856978569E+03 0.27640957889E+03 0.27116743844E+03
 0.26139075684E+03 0.24574194960E+03 0.22367752577E+03 0.19588546189E+03 0.16432856641E+03
 0.13181871692E+03 0.10132275917E+03 0.75206249424E+02 0.54746351822E+02 0.39975673458E+02
 0.29946318604E+02 0.23128034324E+02 0.18408575342E+02 0.15274877156E+02 0.13297974112E+02
 0.12154164946E+02 0.11632983230E+02 0.11632529239E+02 0.12154629563E+02 0.13297347380E+02
 0.15275695732E+02 0.18406959189E+02 0.23130837171E+02 0.29943821930E+02 0.39977302213E+02
 0.54745364585E+02 0.75206516209E+02 0.10132253667E+03 0.13181878946E+03 0.16432858864E+03
 0.19588542810E+03 0.22367797199E+03 0.24574194130E+03 0.26139083688E+03 0.27116755285E+03
 0.26655792466E+03 0.27119596397E+03 0.27261377868E+03 0.27119554012E+03 0.26655766747E+03
 0.25773444378E+03 0.24364264056E+03 0.22367733157E+03 0.19819216437E+03 0.16867432142E+03
 0.13751784856E+03 0.10747117604E+03 0.80954165544E+02 0.59510009206E+02 0.43548580783E+02
 0.32453137600E+02 0.24906897156E+02 0.19631616048E+02 0.16038880993E+02 0.13706519631E+02
 0.12280786742E+02 0.11518683200E+02 0.11280188393E+02 0.11518465155E+02 0.12281187144E+02
 0.13705786576E+02 0.16040139925E+02 0.19629843101E+02 0.24908046310E+02 0.32452947627E+02
 0.43548287279E+02 0.59510558044E+02 0.80953859416E+02 0.10747147118E+03 0.13751729071E+03
 0.16867486245E+03 0.19819123202E+03 0.22367797199E+03 0.24364241377E+03 0.25773457617E+03
 0.24991772313E+03 0.25776708816E+03 0.26144504659E+03 0.26144482314E+03 0.25776800740E+03
 0.24991746381E+03 0.23718598453E+03 0.21910339661E+03 0.19588614785E+03 0.16867380170E+03
 0.13945539780E+03 0.11066530639E+03 0.84620887491E+02 0.62971393989E+02 0.46395836226E+02
 0.34576293756E+02 0.26456211624E+02 0.20742565671E+02 0.16760803305E+02 0.14110620271E+02
 0.12423459225E+02 0.11440923889E+02 0.10988477483E+02 0.10989337800E+02 0.11440019111E+02
 0.12424396787E+02 0.14109459678E+02 0.16762022233E+02 0.20742143096E+02 0.26455935586E+02
 0.34576981572E+02 0.46395195376E+02 0.62971948051E+02 0.84620112412E+02 0.11066605756E+03
 0.13945452673E+03 0.16867486245E+03 0.19588542810E+03 0.21910378451E+03 0.23718596555E+03
 0.22601661940E+03 0.23721603317E+03 0.24369918434E+03 0.24580889918E+03 0.24369892493E+03
 0.23721557033E+03 0.22601693121E+03 0.20986699789E+03 0.18899415394E+03 0.16432799851E+03
 0.13751835268E+03 0.11066536443E+03 0.85879609989E+02 0.64791850159E+02 0.48232568006E+02
 0.36124256714E+02 0.27664126370E+02 0.21661484238E+02 0.17392571413E+02 0.14482174804E+02
 0.12570350084E+02 0.11391455883E+02 0.10752226414E+02 0.10552290592E+02 0.10752277399E+02
 0.11391347339E+02 0.12570571984E+02 0.14481970039E+02 0.17392154152E+02 0.21662369104E+02
 0.27663096837E+02 0.36125117654E+02 0.48231829318E+02 0.64792484813E+02 0.85879073146E+02
 0.11066605756E+03 0.13751729071E+03 0.16432858864E+03 0.18899373256E+03 0.20986666779E+03
 0.19594962751E+03 0.20988500318E+03 0.21914569556E+03 0.22373549935E+03 0.22373583680E+03
 0.21914574068E+03 0.20988567396E+03 0.19594941250E+03 0.17764888721E+03 0.15580837924E+03
 0.13181966788E+03 0.10747035818E+03 0.84621090622E+02 0.64791881450E+02 0.48867144782E+02
 0.36941592067E+02 0.28434378271E+02 0.22318231978E+02 0.17886076930E+02 0.14792826594E+02
 0.12706738585E+02 0.11363081720E+02 0.10565906434E+02 0.10196433940E+02 0.10196360707E+02
 0.10565981528E+02 0.11362987685E+02 0.12706764956E+02 0.14793299590E+02 0.17885303747E+02
 0.22319043758E+02 0.28433811787E+02 0.36942083184E+02 0.48866827563E+02 0.64792484813E+02
 0.84620112412E+02 0.10747147118E+03 0.13181878946E+03 0.15580856043E+03 0.17764913451E+03
 0.16223008274E+03 0.17764994883E+03 0.18900776629E+03 0.19591346989E+03 0.19822577786E+03
 0.19591372156E+03 0.18900786071E+03 0.17764967191E+03 0.16223049448E+03 0.14351813254E+03
 0.12270982737E+03 0.10132175621E+03 0.80954721325E+02 0.62971052991E+02 0.48232469411E+02
 0.36941850097E+02 0.28698960073E+02 0.22661161514E+02 0.18199837005E+02 0.15017488579E+02
 0.12816760454E+02 0.11350078774E+02 0.10423876552E+02 0.99162810138E+01 0.97533101775E+01
 0.99163111543E+01 0.10423895496E+02 0.11350151449E+02 0.12816334397E+02 0.15018045990E+02
 0.18199227602E+02 0.22661450964E+02 0.28698632590E+02 0.36942083184E+02 0.48231829318E+02
 0.62971948051E+02 0.80953859416E+02 0.10132253667E+03 0.12270982764E+03 0.14351745699E+03
 0.12815992128E+03 0.14349948795E+03 0.15578698594E+03 0.16431169281E+03 0.16866282905E+03
 0.16866240042E+03 0.16431138864E+03 0.15578691879E+03 0.14350002199E+03 0.12815958715E+03
 0.11079935068E+03 0.92697296549E+02 0.75207640256E+02 0.59509216249E+02 0.46396149200E+02
 0.36124245817E+02 0.28434117204E+02 0.22661142587E+02 0.18307723096E+02 0.15135068008E+02
 0.12888851001E+02 0.11344987790E+02 0.10324705177E+02 0.97063721004E+01 0.94144723584E+01
 0.94143883761E+01 0.97064494868E+01 0.10324614141E+02 0.11345383439E+02 0.12888390180E+02
 0.15135538045E+02 0.18307453596E+02 0.22661450964E+02 0.28433811787E+02 0.36125117654E+02
 0.46395195376E+02 0.59510558044E+02 0.75206516209E+02 0.92697206107E+02 0.11079994985E+03
 0.96957085381E+02 0.11076487976E+03 0.12265408219E+03 0.13175328171E+03 0.13744991695E+03
 0.13938682590E+03 0.13745052599E+03 0.13175400162E+03 0.12265410351E+03 0.11076436410E+03
 0.96957220589E+02 0.82292161630E+02 0.67890388343E+02 0.54744322099E+02 0.43549794155E+02
 0.34575670604E+02 0.27664250482E+02 0.22318587747E+02 0.18199686568E+02 0.15135337705E+02
 0.12913529304E+02 0.11344178385E+02 0.10265299813E+02 0.95669671921E+01 0.91727445579E+01
 0.90465855209E+01 0.91727600174E+01 0.95670498190E+01 0.10265016914E+02 0.11344522947E+02
 0.12913083879E+02 0.15135538045E+02 0.18199227602E+02 0.22319043758E+02 0.27663096837E+02
 0.34576981572E+02 0.43548287279E+02 0.54745364585E+02 0.67891173635E+02 0.82291354312E+02
 0.70958618087E+02 0.82246428206E+02 0.92615652698E+02 0.10121680308E+03 0.10735147692E+03
 0.11054000621E+03 0.11053967451E+03 0.10735060963E+03 0.10121576913E+03 0.92615777139E+02
 0.82247025792E+02 0.70958538649E+02 0.59650278593E+02 0.49128807050E+02 0.39977873805E+02
 0.32451342741E+02 0.26457453752E+02 0.21660833215E+02 0.17886154274E+02 0.15017283788E+02
 0.12888869853E+02 0.11343855429E+02 0.10246074846E+02 0.94965180229E+01 0.90283732235E+01
 0.88027772522E+01 0.88030543319E+01 0.90280594066E+01 0.94970388842E+01 0.10245570802E+02
 0.11344522947E+02 0.12888390180E+02 0.15018045990E+02 0.17885303747E+02 0.21662369104E+02
 0.26455935586E+02 0.32452947627E+02 0.39977302213E+02 0.49127783258E+02 0.59651401453E+02
 0.51179452432E+02 0.59601412562E+02 0.67796248146E+02 0.75074756240E+02 0.80796523504E+02
 0.84447732617E+02 0.85702258152E+02 0.84448335014E+02 0.80797553459E+02 0.75075860626E+02
 0.67795615050E+02 0.59600377379E+02 0.51179070973E+02 0.43162010523E+02 0.36010009604E+02
 0.29944089911E+02 0.24909084624E+02 0.20740879456E+02 0.17393685015E+02 0.14792467351E+02
 0.12817143969E+02 0.11344960032E+02 0.10265583633E+02 0.94966923536E+01 0.89797670456E+01
 0.86818445046E+01 0.85836938179E+01 0.86819492337E+01 0.89794790651E+01 0.94970388842E+01
 0.10265016914E+02 0.11345383439E+02 0.12816334397E+02 0.14793299590E+02 0.17392154152E+02
 0.20742143096E+02 0.24908046310E+02 0.29943821930E+02 0.36012155642E+02 0.43160052439E+02
 0.37309970308E+02 0.43113011526E+02 0.49033182217E+02 0.54607146825E+02 0.59337407371E+02
 0.62774712632E+02 0.64583117937E+02 0.64582752135E+02 0.62773823349E+02 0.59335970440E+02
 0.54606001057E+02 0.49034121458E+02 0.43114940693E+02 0.37309105205E+02 0.31960712334E+02
 0.27239795080E+02 0.23129201206E+02 0.19629995318E+02 0.16762496925E+02 0.14480874234E+02
 0.12707344510E+02 0.11349399946E+02 0.10324999338E+02 0.95663973864E+01 0.90284818709E+01
 0.86814779176E+01 0.85115080699E+01 0.85111613015E+01 0.86819492337E+01 0.90280594066E+01
 0.95670498190E+01 0.10324614141E+02 0.11350151449E+02 0.12706764956E+02 0.14481970039E+02
 0.16762022233E+02 0.19629843101E+02 0.23130837171E+02 0.27236537032E+02 0.31962840486E+02
 0.28065901503E+02 0.31922102488E+02 0.35925868855E+02 0.39846291669E+02 0.43378365127E+02
 0.46195325754E+02 0.48013199218E+02 0.48641844653E+02 0.48013796560E+02 0.46196386737E+02
 0.43380002967E+02 0.39847051597E+02 0.35923766501E+02 0.31920059325E+02 0.28068882364E+02
 0.24483662307E+02 0.21234764030E+02 0.18408833665E+02 0.16039414489E+02 0.14109664222E+02
 0.12571177817E+02 0.11362836559E+02 0.10424308744E+02 0.97063905880E+01 0.91731120493E+01
 0.88029692087E+01 0.85838604340E+01 0.85115080699E+01 0.85836938179E+01 0.88030543319E+01
 0.91727600174E+01 0.97064494868E+01 0.10423895496E+02 0.11362987685E+02 0.12570571984E+02
 0.14109459678E+02 0.16040139925E+02 0.18406959189E+02 0.21237195084E+02 0.24483424354E+02
 0.21804463123E+02 0.24450505386E+02 0.27164280995E+02 0.29832069623E+02 0.32303992588E+02
 0.34395680963E+02 0.35920568539E+02 0.36725213566E+02 0.36725096730E+02 0.35919625851E+02
 0.34394321850E+02 0.32302270459E+02 0.29832273828E+02 0.27167551655E+02 0.24450674653E+02
 0.21801667548E+02 0.19341765915E+02 0.17153573112E+02 0.15274614743E+02 0.13706313677E+02
 0.12424196527E+02 0.11390677180E+02 0.10566129002E+02 0.99157876752E+01 0.94145317582E+01
 0.90461111183E+01 0.88029692087E+01 0.86814779176E+01 0.86818445046E+01 0.88027772522E+01
 0.90465855209E+01 0.94143883761E+01 0.99163111543E+01 0.10565981528E+02 0.11391347339E+02
 0.12424396787E+02 0.13705786576E+02 0.15275695732E+02 0.17152305328E+02 0.19340612358E+02
 0.17543450435E+02 0.19314830728E+02 0.21180259490E+02 0.23040973843E+02 0.24785067394E+02
 0.26300966983E+02 0.27483560246E+02 0.28238796055E+02 0.28498760979E+02 0.28239169957E+02
 0.27484818001E+02 0.26302551246E+02 0.24786344162E+02 0.23039344972E+02 0.21177921070E+02
 0.19316005001E+02 0.17545222193E+02 0.15931658231E+02 0.14512215207E+02 0.13298140974E+02
 0.12280730498E+02 0.11440367286E+02 0.10752835886E+02 0.10196405992E+02 0.97537186695E+01
 0.94145317582E+01 0.91731120493E+01 0.90284818709E+01 0.89797670456E+01 0.90283732235E+01
 0.91727445579E+01 0.94144723584E+01 0.97533101775E+01 0.10196360707E+02 0.10752277399E+02
 0.11440019111E+02 0.12281187144E+02 0.13297347380E+02 0.14513047010E+02 0.15932587537E+02
 0.14795236769E+02 0.15913030986E+02 0.17109111984E+02 0.18337604330E+02 0.19533141273E+02
 0.20619194496E+02 0.21517976285E+02 0.22159858954E+02 0.22494575442E+02 0.22494365282E+02
 0.22159193356E+02 0.21516490465E+02 0.20617712989E+02 0.19533258827E+02 0.18339405548E+02
 0.17110343390E+02 0.15912062139E+02 0.14794028608E+02 0.13787843319E+02 0.12907627100E+02
 0.12154158149E+02 0.11518739958E+02 0.10988978294E+02 0.10551622084E+02 0.10196405992E+02
 0.99157876752E+01 0.97063905880E+01 0.95663973864E+01 0.94966923536E+01 0.94965180229E+01
 0.95669671921E+01 0.97063721004E+01 0.99162810138E+01 0.10196433940E+02 0.10552290592E+02
 0.10989337800E+02 0.11518465155E+02 0.12154629563E+02 0.12906946018E+02 0.13787006326E+02
 0.13124849996E+02 0.13772063997E+02 0.14480422324E+02 0.15223293370E+02 0.15966878315E+02
 0.16668616087E+02 0.17281352177E+02 0.17760095540E+02 0.18064641811E+02 0.18169418684E+02
 0.18065133913E+02 0.17760957937E+02 0.17283020256E+02 0.16669173062E+02 0.15966228719E+02
 0.15222216747E+02 0.14479600695E+02 0.13772904661E+02 0.13125822874E+02 0.12551746720E+02
 0.12054741567E+02 0.11632839852E+02 0.11279905385E+02 0.10988978294E+02 0.10752835886E+02
 0.10566129002E+02 0.10424308744E+02 0.10324999338E+02 0.10265583633E+02 0.10246074846E+02
 0.10265299813E+02 0.10324705177E+02 0.10423876552E+02 0.10565906434E+02 0.10752226414E+02
 0.10988477483E+02 0.11280188393E+02 0.11632529239E+02 0.12055473718E+02 0.12552384139E+02
 0.12241756078E+02 0.12540505652E+02 0.12881774884E+02 0.13257796565E+02 0.13651325117E+02
 0.14040534880E+02 0.14399599897E+02 0.14699540409E+02 0.14916360602E+02 0.15029863873E+02
 0.15029631907E+02 0.14915675038E+02 0.14698478323E+02 0.14398494550E+02 0.14040588056E+02
 0.13651806475E+02 0.13258507912E+02 0.12882421449E+02 0.12539828919E+02 0.12240771035E+02
 0.11990188687E+02 0.11788349967E+02 0.11632839852E+02 0.11518739958E+02 0.11440367286E+02
 0.11390677180E+02 0.11362836559E+02 0.11349399946E+02 0.11344960032E+02 0.11343855429E+02
 0.11344178385E+02 0.11344987790E+02 0.11350078774E+02 0.11363081720E+02 0.11391455883E+02
 0.11440923889E+02 0.11518683200E+02 0.11632983230E+02 0.11787701435E+02 0.11989663288E+02
 0.11963787599E+02 0.11979207919E+02 0.12034567307E+02 0.12123301981E+02 0.12239662461E+02
 0.12373161479E+02 0.12510570118E+02 0.12639392147E+02 0.12743802553E+02 0.12812318442E+02
 0.12836276908E+02 0.12812685372E+02 0.12744751928E+02 0.12640019865E+02 0.12511256118E+02
 0.12372998560E+02 0.12239244663E+02 0.12122821314E+02 0.12033852646E+02 0.11979740902E+02
 0.11964651740E+02 0.11990188687E+02 0.12054741567E+02 0.12154158149E+02 0.12280730498E+02
 0.12424196527E+02 0.12571177817E+02 0.12707344510E+02 0.12817143969E+02 0.12888869853E+02
 0.12913529304E+02 0.12888851001E+02 0.12816760454E+02 0.12706738585E+02 0.12570350084E+02
 0.12423459225E+02 0.12280786742E+02 0.12154164946E+02 0.12055616440E+02 0.11990673900E+02
 0.12241826152E+02 0.11980237604E+02 0.11768224094E+02 0.11605279729E+02 0.11484568528E+02
 0.11400551856E+02 0.11347261758E+02 0.11315471206E+02 0.11299927578E+02 0.11293345979E+02
 0.11291288871E+02 0.11291184978E+02 0.11292708182E+02 0.11299260231E+02 0.11315178785E+02
 0.11346596726E+02 0.11400787978E+02 0.11484821153E+02 0.11605538079E+02 0.11768870661E+02
 0.11979740902E+02 0.12240771035E+02 0.12551746720E+02 0.12907627100E+02 0.13298140974E+02
 0.13706313677E+02 0.14109664222E+02 0.14480874234E+02 0.14792467351E+02 0.15017283788E+02
 0.15135337705E+02 0.15135068008E+02 0.15017488579E+02 0.14792826594E+02 0.14482174804E+02
 0.14110620271E+02 0.13706519631E+02 0.13297974112E+02 0.12906710835E+02 0.12551315946E+02
 0.13124714725E+02 0.12539379430E+02 0.12034681557E+02 0.11605660009E+02 0.11248681663E+02
 0.10955394068E+02 0.10717347664E+02 0.10530936590E+02 0.10389495642E+02 0.10290932310E+02
 0.10232654701E+02 0.10213359522E+02 0.10233056580E+02 0.10291349158E+02 0.10389961332E+02
 0.10531145276E+02 0.10717967103E+02 0.10955063050E+02 0.11248458011E+02 0.11605538079E+02
 0.12033852646E+02 0.12539828919E+02 0.13125822874E+02 0.13787843319E+02 0.14512215207E+02
 0.15274614743E+02 0.16039414489E+02 0.16762496925E+02 0.17393685015E+02 0.17886154274E+02
 0.18199686568E+02 0.18307723096E+02 0.18199837005E+02 0.17886076930E+02 0.17392571413E+02
 0.16760803305E+02 0.16038880993E+02 0.15274877156E+02 0.14513474757E+02 0.13788277094E+02
 0.14795395199E+02 0.13773340065E+02 0.12881478084E+02 0.12122842908E+02 0.11484745448E+02
 0.10954641306E+02 0.10520390581E+02 0.10167721939E+02 0.98912197338E+01 0.96850879878E+01
 0.95479457085E+01 0.94794438590E+01 0.94791027391E+01 0.95477653106E+01 0.96848613491E+01
 0.98908037348E+01 0.10167626293E+02 0.10519758824E+02 0.10955063050E+02 0.11484821153E+02
 0.12122821314E+02 0.12882421449E+02 0.13772904661E+02 0.14794028608E+02 0.15931658231E+02
 0.17153573112E+02 0.18408833665E+02 0.19629995318E+02 0.20740879456E+02 0.21660833215E+02
 0.22318587747E+02 0.22661142587E+02 0.22661161514E+02 0.22318231978E+02 0.21661484238E+02
 0.20742565671E+02 0.19631616048E+02 0.18408575342E+02 0.17151790977E+02 0.15930974802E+02
 0.17543424898E+02 0.15911364342E+02 0.14480815070E+02 0.13258308258E+02 0.12239228272E+02
 0.11401313512E+02 0.10717319372E+02 0.10167606475E+02 0.97313866160E+01 0.93986480674E+01
 0.91627641622E+01 0.90213158498E+01 0.89745319465E+01 0.90215253266E+01 0.91628470161E+01
 0.93988835075E+01 0.97318012282E+01 0.10167626293E+02 0.10717967103E+02 0.11400787978E+02
 0.12239244663E+02 0.13258507912E+02 0.14479600695E+02 0.15912062139E+02 0.17545222193E+02
 0.19341765915E+02 0.21234764030E+02 0.23129201206E+02 0.24909084624E+02 0.26457453752E+02
 0.27664250482E+02 0.28434117204E+02 0.28698960073E+02 0.28434378271E+02 0.27664126370E+02
 0.26456211624E+02 0.24906897156E+02 0.23128034324E+02 0.21237072503E+02 0.19342992785E+02
 0.21803484605E+02 0.19317234378E+02 0.17108568173E+02 0.15222501844E+02 0.13651993639E+02
 0.12372325615E+02 0.11347313039E+02 0.10531084877E+02 0.98911623515E+01 0.93990903929E+01
 0.90386932191E+01 0.88014195612E+01 0.86828574306E+01 0.86830435225E+01 0.88012656901E+01
 0.90386810717E+01 0.93988835075E+01 0.98908037348E+01 0.10531145276E+02 0.11346596726E+02
 0.12372998560E+02 0.13651806475E+02 0.15222216747E+02 0.17110343390E+02 0.19316005001E+02
 0.21801667548E+02 0.24483662307E+02 0.27239795080E+02 0.29944089911E+02 0.32451342741E+02
 0.34575670604E+02 0.36124245817E+02 0.36941850097E+02 0.36941592067E+02 0.36124256714E+02
 0.34576293756E+02 0.32453137600E+02 0.29946318604E+02 0.27238463027E+02 0.24480712893E+02
 0.28068707818E+02 0.24447766963E+02 0.21180213960E+02 0.18339135921E+02 0.15965642106E+02
 0.14041526112E+02 0.12510430359E+02 0.11315367749E+02 0.10389603391E+02 0.96846997942E+01
 0.91628147867E+01 0.88010871070E+01 0.85879155200E+01 0.85171001643E+01 0.85876967373E+01
 0.88012656901E+01 0.91628470161E+01 0.96848613491E+01 0.10389961332E+02 0.11315178785E+02
 0.12511256118E+02 0.14040588056E+02 0.15966228719E+02 0.18339405548E+02 0.21177921070E+02
 0.24450674653E+02 0.28068882364E+02 0.31960712334E+02 0.36010009604E+02 0.39977873805E+02
 0.43549794155E+02 0.46396149200E+02 0.48232469411E+02 0.48867144782E+02 0.48232568006E+02
 0.46395836226E+02 0.43548580783E+02 0.39975673458E+02 0.36009581473E+02 0.31963729563E+02
 0.37307431966E+02 0.31923118193E+02 0.27166177180E+02 0.23038274001E+02 0.19534907207E+02
 0.16667573032E+02 0.14399694326E+02 0.12639592595E+02 0.11299757041E+02 0.10291398518E+02
 0.95478444219E+01 0.90216661544E+01 0.86828870998E+01 0.85169897240E+01 0.85171001643E+01
 0.86830435225E+01 0.90215253266E+01 0.95477653106E+01 0.10291349158E+02 0.11299260231E+02
 0.12640019865E+02 0.14398494550E+02 0.16669173062E+02 0.19533258827E+02 0.23039344972E+02
 0.27167551655E+02 0.31920059325E+02 0.37309105205E+02 0.43162010523E+02 0.49128807050E+02
 0.54744322099E+02 0.59509216249E+02 0.62971052991E+02 0.64791881450E+02 0.64791850159E+02
 0.62971393989E+02 0.59510009206E+02 0.54746351822E+02 0.49129685318E+02 0.43160703177E+02
 0.51180303901E+02 0.43113615224E+02 0.35923346616E+02 0.29834600637E+02 0.24784070717E+02
 0.20619378670E+02 0.17281949429E+02 0.14698768521E+02 0.12744470120E+02 0.11292535375E+02
 0.10233156520E+02 0.94788456100E+01 0.89747781356E+01 0.86828870998E+01 0.85879155200E+01
 0.86828574306E+01 0.89745319465E+01 0.94791027391E+01 0.10233056580E+02 0.11292708182E+02
 0.12744751928E+02 0.14698478323E+02 0.17283020256E+02 0.20617712989E+02 0.24786344162E+02
 0.29832273828E+02 0.35923766501E+02 0.43114940693E+02 0.51179070973E+02 0.59650278593E+02
 0.67890388343E+02 0.75207640256E+02 0.80954721325E+02 0.84621090622E+02 0.85879609989E+02
 0.84620887491E+02 0.80954165544E+02 0.75206249424E+02 0.67889494610E+02 0.59650938120E+02
 0.70958235148E+02 0.59601010057E+02 0.49035046858E+02 0.39844901872E+02 0.32303983603E+02
 0.26301624756E+02 0.21516879481E+02 0.17761203137E+02 0.14915428286E+02 0.12813291636E+02
 0.11290664524E+02 0.10214041615E+02 0.94788456100E+01 0.90216661544E+01 0.88010871070E+01
 0.88014195612E+01 0.90213158498E+01 0.94794438590E+01 0.10213359522E+02 0.11291184978E+02
 0.12812685372E+02 0.14915675038E+02 0.17760957937E+02 0.21516490465E+02 0.26302551246E+02
 0.32302270459E+02 0.39847051597E+02 0.49034121458E+02 0.59600377379E+02 0.70958538649E+02
 0.82292161630E+02 0.92697296549E+02 0.10132175621E+03 0.10747035818E+03 0.11066536443E+03
 0.11066530639E+03 0.10747117604E+03 0.10132275917E+03 0.92698434107E+02 0.82291752116E+02
 0.96957399370E+02 0.82246603061E+02 0.67794770401E+02 0.54607907592E+02 0.43378899861E+02
 0.34394821267E+02 0.27484741360E+02 0.22158702747E+02 0.18065502002E+02 0.15028946483E+02
 0.12836821967E+02 0.11290664524E+02 0.10233156520E+02 0.95478444219E+01 0.91628147867E+01
 0.90386932191E+01 0.91627641622E+01 0.95479457085E+01 0.10232654701E+02 0.11291288871E+02
 0.12836276908E+02 0.15029631907E+02 0.18065133913E+02 0.22159193356E+02 0.27484818001E+02
 0.34394321850E+02 0.43380002967E+02 0.54606001057E+02 0.67795615050E+02 0.82247025792E+02
 0.96957220589E+02 0.11079935068E+03 0.12270982737E+03 0.13181966788E+03 0.13751835268E+03
 0.13945539780E+03 0.13751784856E+03 0.13181871692E+03 0.12270896934E+03 0.11079967600E+03
 0.12815947980E+03 0.11076483519E+03 0.92616662389E+02 0.75074612508E+02 0.59336601814E+02
 0.46196397819E+02 0.35919290929E+02 0.28239987150E+02 0.22493618867E+02 0.18170345731E+02
 0.15028946483E+02 0.12813291636E+02 0.11292535375E+02 0.10291398518E+02 0.96846997942E+01
 0.93990903929E+01 0.93986480674E+01 0.96850879878E+01 0.10290932310E+02 0.11293345979E+02
 0.12812318442E+02 0.15029863873E+02 0.18169418684E+02 0.22494365282E+02 0.28239169957E+02
 0.35919625851E+02 0.46196386737E+02 0.59335970440E+02 0.75075860626E+02 0.92615777139E+02
 0.11076436410E+03 0.12815958715E+03 0.14351813254E+03 0.15580837924E+03 0.16432799851E+03
 0.16867380170E+03 0.16867432142E+03 0.16432856641E+03 0.15580920929E+03 0.14351780563E+03
 0.16223049855E+03 0.14349950509E+03 0.12265328346E+03 0.10121663826E+03 0.80797225373E+02
 0.62773717977E+02 0.48014309016E+02 0.36724273025E+02 0.28499440187E+02 0.22493618867E+02
 0.18065502002E+02 0.14915428286E+02 0.12744470120E+02 0.11299757041E+02 0.10389603391E+02
 0.98911623515E+01 0.97313866160E+01 0.98912197338E+01 0.10389495642E+02 0.11299927578E+02
 0.12743802553E+02 0.14916360602E+02 0.18064641811E+02 0.22494575442E+02 0.28498760979E+02
 0.36725096730E+02 0.48013796560E+02 0.62773823349E+02 0.80797553459E+02 0.10121576913E+03
 0.12265410351E+03 0.14350002199E+03 0.16223049448E+03 0.17764888721E+03 0.18899415394E+03
 0.19588614785E+03 0.19819216437E+03 0.19588546189E+03 0.18899343444E+03 0.17764879322E+03
 0.19594912414E+03 0.17765004900E+03 0.15578730482E+03 0.13175360182E+03 0.10735066617E+03
 0.84448821191E+02 0.64582039735E+02 0.48642850822E+02 0.36724273025E+02 0.28239987150E+02
 0.22158702747E+02 0.17761203137E+02 0.14698768521E+02 0.12639592595E+02 0.11315367749E+02
 0.10531084877E+02 0.10167606475E+02 0.10167721939E+02 0.10530936590E+02 0.11315471206E+02
 0.12639392147E+02 0.14699540409E+02 0.17760095540E+02 0.22159858954E+02 0.28238796055E+02
 0.36725213566E+02 0.48641844653E+02 0.64582752135E+02 0.84448335014E+02 0.10735060963E+03
 0.13175400162E+03 0.15578691879E+03 0.17764967191E+03 0.19594941250E+03 0.20986699789E+03
 0.21910339661E+03 0.22367733157E+03 0.22367752577E+03 0.21910378886E+03 0.20986690866E+03
 0.22601703272E+03 0.20988507606E+03 0.18900740495E+03 0.16431153372E+03 0.13745040236E+03
 0.11053907608E+03 0.85703037662E+02 0.64582039735E+02 0.48014309016E+02 0.35919290929E+02
 0.27484741360E+02 0.21516879481E+02 0.17281949429E+02 0.14399694326E+02 0.12510430359E+02
 0.11347313039E+02 0.10717319372E+02 0.10520390581E+02 0.10717347664E+02 0.11347261758E+02
 0.12510570118E+02 0.14399599897E+02 0.17281352177E+02 0.21517976285E+02 0.27483560246E+02
 0.35920568539E+02 0.48013199218E+02 0.64583117937E+02 0.85702258152E+02 0.11053967451E+03
 0.13745052599E+03 0.16431138864E+03 0.18900786071E+03 0.20988567396E+03 0.22601693121E+03
 0.23718598453E+03 0.24364264056E+03 0.24574194960E+03 0.24364250687E+03 0.23718579842E+03
 0.24991716113E+03 0.23721611738E+03 0.21914587271E+03 0.19591376295E+03 0.16866218435E+03
 0.13938766112E+03 0.11053907608E+03 0.84448821191E+02 0.62773717977E+02 0.46196397819E+02
 0.34394821267E+02 0.26301624756E+02 0.20619378670E+02 0.16667573032E+02 0.14041526112E+02
 0.12372325615E+02 0.11401313512E+02 0.10954641306E+02 0.10955394068E+02 0.11400551856E+02
 0.12373161479E+02 0.14040534880E+02 0.16668616087E+02 0.20619194496E+02 0.26300966983E+02
 0.34395680963E+02 0.46195325754E+02 0.62774712632E+02 0.84447732617E+02 0.11054000621E+03
 0.13938682590E+03 0.16866240042E+03 0.19591372156E+03 0.21914574068E+03 0.23721557033E+03
 0.24991746381E+03 0.25773444378E+03 0.26139075684E+03 0.26139055245E+03 0.25773443365E+03
 0.26655822040E+03 0.25776768888E+03 0.24369882710E+03 0.22373587177E+03 0.19822581761E+03
 0.16866218435E+03 0.13745040236E+03 0.10735066617E+03 0.80797225373E+02 0.59336601814E+02
 0.43378899861E+02 0.32303983603E+02 0.24784070717E+02 0.19534907207E+02 0.15965642106E+02
 0.13651993639E+02 0.12239228272E+02 0.11484745448E+02 0.11248681663E+02 0.11484568528E+02
 0.12239662461E+02 0.13651325117E+02 0.15966878315E+02 0.19533141273E+02 0.24785067394E+02
 0.32303992588E+02 0.43378365127E+02 0.59337407371E+02 0.80796523504E+02 0.10735147692E+03
 0.13744991695E+03 0.16866282905E+03 0.19822577786E+03 0.22373583680E+03 0.24369892493E+03
 0.25776800740E+03 0.26655766747E+03 0.27116743844E+03 0.27257461465E+03 0.27116763947E+03
 0.27640951622E+03 0.27119549329E+03 0.26144545954E+03 0.24580878945E+03 0.22373587177E+03
 0.19591376295E+03 0.16431153372E+03 0.13175360182E+03 0.10121663826E+03 0.75074612508E+02
 0.54607907592E+02 0.39844901872E+02 0.29834600637E+02 0.23038274001E+02 0.18339135921E+02
 0.15222501844E+02 0.13258308258E+02 0.12122842908E+02 0.11605660009E+02 0.11605279729E+02
 0.12123301981E+02 0.13257796565E+02 0.15223293370E+02 0.18337604330E+02 0.23040973843E+02
 0.29832069623E+02 0.39846291669E+02 0.54607146825E+02 0.75074756240E+02 0.10121680308E+03
 0.13175328171E+03 0.16431169281E+03 0.19591346989E+03 0.22373549935E+03 0.24580889918E+03
 0.26144482314E+03 0.27119554012E+03 0.27640957889E+03 0.27855211417E+03 0.27855189448E+03
 0.28113068457E+03 0.27857004305E+03 0.27261383220E+03 0.26144545954E+03 0.24369882710E+03
 0.21914587271E+03 0.18900740495E+03 0.15578730482E+03 0.12265328346E+03 0.92616662389E+02
 0.67794770401E+02 0.49035046858E+02 0.35923346616E+02 0.27166177180E+02 0.21180213960E+02
 0.17108568173E+02 0.14480815070E+02 0.12881478084E+02 0.12034681557E+02 0.11768224094E+02
 0.12034567307E+02 0.12881774884E+02 0.14480422324E+02 0.17109111984E+02 0.21180259490E+02
 0.27164280995E+02 0.35925868855E+02 0.49033182217E+02 0.67796248146E+02 0.92615652698E+02
 0.12265408219E+03 0.15578698594E+03 0.18900776629E+03 0.21914569556E+03 0.24369918434E+03
 0.26144504659E+03 0.27261377868E+03 0.27856978569E+03 0.28113036383E+03 0.28179302262E+03
 0.28281817733E+03 0.28179982501E+03 0.27857004305E+03 0.27119549329E+03 0.25776768888E+03
 0.23721611738E+03 0.20988507606E+03 0.17765004900E+03 0.14349950509E+03 0.11076483519E+03
 0.82246603061E+02 0.59601010057E+02 0.43113615224E+02 0.31923118193E+02 0.24447766963E+02
 0.19317234378E+02 0.15911364342E+02 0.13773340065E+02 0.12539379430E+02 0.11980237604E+02
 0.11979207919E+02 0.12540505652E+02 0.13772063997E+02 0.15913030986E+02 0.19314830728E+02
 0.24450505386E+02 0.31922102488E+02 0.43113011526E+02 0.59601412562E+02 0.82246428206E+02
 0.11076487976E+03 0.14349948795E+03 0.17764994883E+03 0.20988500318E+03 0.23721603317E+03
 0.25776708816E+03 0.27119596397E+03 0.27856957011E+03 0.28180006623E+03 0.28281813622E+03
 0.28300836819E+03 0.28258504145E+03 0.28068567703E+03 0.27565687020E+03 0.26546304673E+03
 0.24851406074E+03 0.22440210226E+03 0.19426022675E+03 0.16061394794E+03 0.12673900704E+03
 0.95809618245E+02 0.70104435017E+02 0.50592512338E+02 0.36924979594E+02 0.27817669577E+02
 0.21626255938E+02 0.17415686584E+02 0.14699203736E+02 0.13047205734E+02 0.12173619100E+02
 0.11898629930E+02 0.12173528319E+02 0.13047388594E+02 0.14698959706E+02 0.17415866471E+02
 0.21626846904E+02 0.27815093764E+02 0.36927709531E+02 0.50591489958E+02 0.70104796238E+02