    2    2  100    1
  0.1617387E+02  0.2783227E-09  0.2783227E-09  0.4821876E-09  0.5000000E-15
  1.000000000000000E-004
  CAR 
 Pt-hcc                                  
     32     70     24
 
  0.0000000E+00  0.0000000E+00  0.0000000E+00  0.1250000E-02
      1        -41.814485   1.000000
      2        -41.670536   1.000000
      3        -41.670535   1.000000
      4        -41.633227   1.000000
      5        -41.633226   1.000000
      6        -41.512604   1.000000
      7          1.234299   1.000000
      8          3.864967   1.000000
      9          6.927928   1.000000
     10          7.404950   1.000000
     11          7.404950   1.000000
     12          7.757357   1.000000
     13          7.757358   1.000000
     14          8.968312   1.000000
     15          8.968312   1.000000
     16         10.102009   1.000000
     17         10.493180   1.000000
     18         10.493180   1.000000
     19         15.245423   0.000000
     20         25.814902   0.000000
     21         26.398463   0.000000
     22         27.934635   0.000000
     23         31.454072   0.000000
     24         31.454072   0.000000
 
  0.1000000E+00  0.2081668E-16  0.0000000E+00  0.7500000E-02
      1        -41.803567   1.000000
      2        -41.702648   1.000000
      3        -41.679640   1.000000
      4        -41.666477   1.000000
      5        -41.639748   1.000000
      6        -41.514963   1.000000
      7          1.586950   1.000000
      8          4.183235   1.000000
      9          6.861589   1.000000
     10          7.418230   1.000000
     11          7.616431   1.000000
     12          7.671186   1.000000
     13          8.009978   1.000000
     14          8.428164   1.000000
     15          8.805732   1.000000
     16          8.966792   1.000000
     17         10.552691   0.999937
     18         12.249311   0.000000
     19         15.212862   0.000000
     20         26.201738   0.000000
     21         26.911577   0.000000
     22         28.183911   0.000000
     23         29.910543   0.000000
     24         29.965096   0.000000
 
  0.2000000E+00  0.4163336E-16  0.0000000E+00  0.7500000E-02
      1        -41.788689   1.000000
      2        -41.773915   1.000000
      3        -41.753454   1.000000
      4        -41.704020   1.000000
      5        -41.657753   1.000000
      6        -41.523077   1.000000
      7          2.550982   1.000000
      8          4.886494   1.000000
      9          6.640896   1.000000
     10          7.115819   1.000000
     11          7.147082   1.000000
     12          8.017133   1.000000
     13          8.422821   1.000000
     14          8.443725   1.000000
     15          8.467662   1.000000
     16          8.718505   1.000000
     17         10.648020   0.872594
     18         14.374277   0.000000
     19         15.156541   0.000000
     20         24.520201   0.000000
     21         27.510402   0.000000
     22         27.572653   0.000000
     23         28.556441   0.000000
     24         28.784970   0.000000
 
  0.3000000E+00 -0.2775558E-16  0.0000000E+00  0.7500000E-02
      1        -41.895378   1.000000
      2        -41.858320   1.000000
      3        -41.733705   1.000000
      4        -41.731838   1.000000
      5        -41.681206   1.000000
      6        -41.537898   1.000000
      7          3.740684   1.000000
      8          5.019923   1.000000
      9          6.097707   1.000000
     10          6.895354   1.000000
     11          7.237555   1.000000
     12          7.979219   1.000000
     13          8.068965   1.000000
     14          9.121190   1.000000
     15          9.499227   1.000000
     16          9.719987   1.000000
     17         10.699970   0.370457
     18         15.296206   0.000000
     19         16.546250   0.000000
     20         20.806465   0.000000
     21         25.236255   0.000000
     22         25.937697   0.000000
     23         27.253697   0.000000
     24         28.511079   0.000000
 
  0.4000000E+00  0.0000000E+00  0.0000000E+00  0.7500000E-02
      1        -41.980887   1.000000
      2        -41.942168   1.000000
      3        -41.757558   1.000000
      4        -41.699649   1.000000
      5        -41.689847   1.000000
      6        -41.558052   1.000000
      7          4.410176   1.000000
      8          4.717531   1.000000
      9          5.467924   1.000000
     10          7.395330   1.000000
     11          7.621339   1.000000
     12          7.802379   1.000000
     13          8.020834   1.000000
     14         10.532600   0.999995
     15         10.702496   0.343814
     16         10.711861   0.252398
     17         10.925055   0.000000
     18         16.125894   0.000000
     19         17.196944   0.000000
     20         18.490456   0.000000
     21         22.854972   0.000000
     22         23.377696   0.000000
     23         24.554894   0.000000
     24         27.242130   0.000000
 
  0.5000000E+00  0.0000000E+00  0.0000000E+00  0.3750000E-02
      1        -42.013219   1.000000
      2        -41.974054   1.000000
      3        -41.766674   1.000000
      4        -41.706845   1.000000
      5        -41.669233   1.000000
      6        -41.570596   1.000000
      7          4.522639   1.000000
      8          4.579049   1.000000
      9          5.254820   1.000000
     10          7.491650   1.000000
     11          7.706911   1.000000
     12          7.898148   1.000000
     13          8.223808   1.000000
     14         10.711204   0.258367
     15         10.965738   0.000000
     16         11.159011   0.000000
     17         12.918522   0.000000
     18         14.350480   0.000000
     19         17.847780   0.000000
     20         19.439132   0.000000
     21         19.986861   0.000000
     22         22.623211   0.000000
     23         23.877852   0.000000
     24         26.687877   0.000000
 
  0.1000000E+00  0.1000000E+00  0.0000000E+00  0.7500000E-02
      1        -41.783558   1.000000
      2        -41.756671   1.000000
      3        -41.732936   1.000000
      4        -41.691724   1.000000
      5        -41.657043   1.000000
      6        -41.520589   1.000000
      7          2.253148   1.000000
      8          4.739589   1.000000
      9          6.603339   1.000000
     10          7.333952   1.000000
     11          7.505444   1.000000
     12          7.632711   1.000000
     13          8.232041   1.000000
     14          8.252435   1.000000
     15          8.574427   1.000000
     16          8.871211   1.000000
     17         10.573798   0.999398
     18         13.811899   0.000000
     19         15.170219   0.000000
     20         26.003406   0.000000
     21         26.509311   0.000000
     22         27.792020   0.000000
     23         28.761226   0.000000
     24         29.422777   0.000000
 
  0.2000000E+00  0.1000000E+00  0.0000000E+00  0.1500000E-01
      1        -41.845801   1.000000
      2        -41.822212   1.000000
      3        -41.747387   1.000000
      4        -41.725900   1.000000
      5        -41.684070   1.000000
      6        -41.531952   1.000000
      7          3.400595   1.000000
      8          5.340777   1.000000
      9          6.430326   1.000000
     10          6.492786   1.000000
     11          7.074233   1.000000
     12          7.780965   1.000000
     13          8.219667   1.000000
     14          8.520107   1.000000
     15          9.246771   1.000000
     16          9.632117   1.000000
     17         10.575366   0.999298
     18         15.230670   0.000000
     19         15.854583   0.000000
     20         22.696650   0.000000
     21         24.608650   0.000000
     22         26.914136   0.000000
     23         28.754413   0.000000
     24         29.260560   0.000000
 
  0.3000000E+00  0.1000000E+00  0.0000000E+00  0.1500000E-01
      1        -41.938520   1.000000
      2        -41.905886   1.000000
      3        -41.761553   1.000000
      4        -41.710103   1.000000
      5        -41.704523   1.000000
      6        -41.550393   1.000000
      7          4.451086   1.000000
      8          5.117871   1.000000
      9          5.748041   1.000000
     10          6.907379   1.000000
     11          7.497300   1.000000
     12          7.504604   1.000000
     13          8.051189   1.000000
     14          9.272684   1.000000
     15         10.282969   1.000000
     16         10.563534   0.999791
     17         10.999818   0.000000
     18         15.833949   0.000000
     19         17.951889   0.000000
     20         18.909924   0.000000
     21         22.537925   0.000000
     22         25.443879   0.000000
     23         25.548261   0.000000
     24         27.642740   0.000000
 
  0.4000000E+00  0.1000000E+00  0.0000000E+00  0.1500000E-01
      1        -41.995695   1.000000
      2        -41.957009   1.000000
      3        -41.782876   1.000000
      4        -41.726275   1.000000
      5        -41.669382   1.000000
      6        -41.570753   1.000000
      7          4.776806   1.000000
      8          4.862632   1.000000
      9          5.360883   1.000000
     10          7.444898   1.000000
     11          7.665933   1.000000
     12          7.670096   1.000000
     13          7.987045   1.000000
     14         10.451867   1.000000
     15         10.547964   0.999964
     16         10.811457   0.000247
     17         12.658477   0.000000
     18         15.552611   0.000000
     19         17.498179   0.000000
     20         19.607865   0.000000
     21         20.339094   0.000000
     22         22.666579   0.000000
     23         24.328818   0.000000
     24         26.605128   0.000000
 
  0.2000000E+00  0.2000000E+00  0.0000000E+00  0.7500000E-02
      1        -41.898084   1.000000
      2        -41.897681   1.000000
      3        -41.766384   1.000000
      4        -41.729571   1.000000
      5        -41.709855   1.000000
      6        -41.547632   1.000000
      7          4.589227   1.000000
      8          5.927978   1.000000
      9          5.942855   1.000000
     10          5.997696   1.000000
     11          7.279762   1.000000
     12          7.314774   1.000000
     13          8.236746   1.000000
     14          8.566735   1.000000
     15         10.268928   1.000000
     16         10.404874   1.000000
     17         11.077531   0.000000
     18         15.800536   0.000000
     19         17.822339   0.000000
     20         20.362638   0.000000
     21         21.281937   0.000000
     22         26.181617   0.000000
     23         27.205166   0.000000
     24         27.763829   0.000000
 
  0.3000000E+00  0.2000000E+00  0.0000000E+00  0.1500000E-01
      1        -41.954008   1.000000
      2        -41.927543   1.000000
      3        -41.812811   1.000000
      4        -41.768049   1.000000
      5        -41.669834   1.000000
      6        -41.570093   1.000000
      7          5.370718   1.000000
      8          5.573490   1.000000
      9          5.597469   1.000000
     10          6.700416   1.000000
     11          7.175706   1.000000
     12          7.771803   1.000000
     13          7.809689   1.000000
     14          9.324893   1.000000
     15         10.274620   1.000000
     16         10.689570   0.485452
     17         12.697652   0.000000
     18         16.784689   0.000000
     19         17.738777   0.000000
     20         19.371581   0.000000
     21         19.874262   0.000000
     22         24.187640   0.000000
     23         25.343849   0.000000
     24         26.289346   0.000000
 
  0.4000000E+00  0.2000000E+00  0.0000000E+00  0.7500000E-02
      1        -41.974800   1.000000
      2        -41.935996   1.000000
      3        -41.835583   1.000000
      4        -41.783101   1.000000
      5        -41.647310   1.000000
      6        -41.585988   1.000000
      7          5.443441   1.000000
      8          5.451299   1.000000
      9          5.489695   1.000000
     10          7.255131   1.000000
     11          7.307034   1.000000
     12          7.411863   1.000000
     13          8.067292   1.000000
     14         10.053366   1.000000
     15         10.226925   1.000000
     16         10.504643   1.000000
     17         14.281118   0.000000
     18         14.760911   0.000000
     19         18.082355   0.000000
     20         19.608990   0.000000
     21         21.075326   0.000000
     22         22.034868   0.000000
     23         24.476971   0.000000
     24         25.843361   0.000000
 
  0.3000000E+00  0.3000000E+00  0.0000000E+00  0.7500000E-02
      1        -41.941965   1.000000
      2        -41.912294   1.000000
      3        -41.869558   1.000000
      4        -41.831525   1.000000
      5        -41.634712   1.000000
      6        -41.596342   1.000000
      7          5.533993   1.000000
      8          5.913008   1.000000
      9          6.163150   1.000000
     10          6.589848   1.000000
     11          7.130188   1.000000
     12          7.388223   1.000000
     13          8.153614   1.000000
     14          9.670083   1.000000
     15         10.068747   1.000000
     16         10.352605   1.000000
     17         14.276238   0.000000
     18         15.543065   0.000000
     19         16.971876   0.000000
     20         20.403872   0.000000
     21         21.972661   0.000000
     22         23.150869   0.000000
     23         23.934621   0.000000
     24         24.366147   0.000000
 
  0.0000000E+00  0.0000000E+00  0.1250000E+00  0.2500000E-02
      1        -41.802671   1.000000
      2        -41.669101   1.000000
      3        -41.669100   1.000000
      4        -41.634591   1.000000
      5        -41.634590   1.000000
      6        -41.524005   1.000000
      7          1.365282   1.000000
      8          3.844244   1.000000
      9          6.896127   1.000000
     10          7.386036   1.000000
     11          7.386037   1.000000
     12          7.720132   1.000000
     13          7.720132   1.000000
     14          9.062791   1.000000
     15          9.062791   1.000000
     16          9.483603   1.000000
     17         10.466682   1.000000
     18         10.466682   1.000000
     19         16.114124   0.000000
     20         25.362589   0.000000
     21         26.878032   0.000000
     22         27.655060   0.000000
     23         30.974636   0.000000
     24         30.974636   0.000000
 
  0.1000000E+00  0.2081668E-16  0.1250000E+00  0.1500000E-01
      1        -41.793358   1.000000
      2        -41.700634   1.000000
      3        -41.678215   1.000000
      4        -41.668718   1.000000
      5        -41.641432   1.000000
      6        -41.525511   1.000000
      7          1.715437   1.000000
      8          4.168752   1.000000
      9          6.864813   1.000000
     10          7.335080   1.000000
     11          7.518090   1.000000
     12          7.643229   1.000000
     13          7.968465   1.000000
     14          8.384294   1.000000
     15          8.917171   1.000000
     16          8.956536   1.000000
     17         10.515800   0.999999
     18         11.703468   0.000000
     19         16.206164   0.000000
     20         25.829056   0.000000
     21         27.271349   0.000000
     22         27.986027   0.000000
     23         29.337698   0.000000
     24         29.908170   0.000000
 
  0.2000000E+00  0.4163336E-16  0.1250000E+00  0.1500000E-01
      1        -41.796177   1.000000
      2        -41.759197   1.000000
      3        -41.751979   1.000000
      4        -41.702416   1.000000
      5        -41.659753   1.000000
      6        -41.531337   1.000000
      7          2.664944   1.000000
      8          4.894494   1.000000
      9          6.671554   1.000000
     10          6.864561   1.000000
     11          7.156142   1.000000
     12          7.910343   1.000000
     13          8.266635   1.000000
     14          8.598619   1.000000
     15          8.668038   1.000000
     16          8.766496   1.000000
     17         10.590350   0.997196
     18         13.181854   0.000000
     19         16.630944   0.000000
     20         24.620083   0.000000
     21         27.276019   0.000000
     22         27.728772   0.000000
     23         28.049402   0.000000
     24         29.172188   0.000000
 
  0.3000000E+00 -0.2775558E-16  0.1250000E+00  0.1500000E-01
      1        -41.896825   1.000000
      2        -41.861988   1.000000
      3        -41.731670   1.000000
      4        -41.721488   1.000000
      5        -41.683122   1.000000
      6        -41.543514   1.000000
      7          3.795239   1.000000
      8          5.046553   1.000000
      9          6.076480   1.000000
     10          6.738335   1.000000
     11          7.263017   1.000000
     12          8.080378   1.000000
     13          8.128537   1.000000
     14          9.172830   1.000000
     15          9.520275   1.000000
     16          9.673428   1.000000
     17         10.632890   0.941405
     18         14.246878   0.000000
     19         17.634360   0.000000
     20         21.071712   0.000000
     21         25.469683   0.000000
     22         25.575743   0.000000
     23         27.081259   0.000000
     24         28.950168   0.000000
 
  0.4000000E+00  0.0000000E+00  0.1250000E+00  0.1500000E-01
      1        -41.982015   1.000000
      2        -41.945614   1.000000
      3        -41.755337   1.000000
      4        -41.702047   1.000000
      5        -41.682571   1.000000
      6        -41.561378   1.000000
      7          4.349382   1.000000
      8          4.726861   1.000000
      9          5.614720   1.000000
     10          6.787023   1.000000
     11          7.825238   1.000000
     12          7.883968   1.000000
     13          8.555729   1.000000
     14         10.460826   1.000000
     15         10.547636   0.999965
     16         10.799299   0.000845
     17         10.840365   0.000008
     18         15.286656   0.000000
     19         17.240847   0.000000
     20         19.294328   0.000000
     21         22.589454   0.000000
     22         23.646099   0.000000
     23         24.870303   0.000000
     24         27.467801   0.000000
 
  0.5000000E+00  0.0000000E+00  0.1250000E+00  0.7500000E-02
      1        -42.014204   1.000000
      2        -41.977799   1.000000
      3        -41.764453   1.000000
      4        -41.709267   1.000000
      5        -41.662951   1.000000
      6        -41.572919   1.000000
      7          4.431984   1.000000
      8          4.550993   1.000000
      9          5.467605   1.000000
     10          6.849505   1.000000
     11          7.793366   1.000000
     12          7.969819   1.000000
     13          8.994699   1.000000
     14         10.541501   0.999983
     15         10.985253   0.000000
     16         11.152660   0.000000
     17         12.695820   0.000000
     18         14.246956   0.000000
     19         17.698860   0.000000
     20         18.411894   0.000000
     21         21.266765   0.000000
     22         22.904541   0.000000
     23         24.013030   0.000000
     24         26.965703   0.000000
 
  0.1000000E+00  0.1000000E+00  0.1250000E+00  0.1500000E-01
      1        -41.781987   1.000000
      2        -41.746777   1.000000
      3        -41.733968   1.000000
      4        -41.691265   1.000000
      5        -41.658520   1.000000
      6        -41.529116   1.000000
      7          2.373947   1.000000
      8          4.740165   1.000000
      9          6.633481   1.000000
     10          7.069406   1.000000
     11          7.416209   1.000000
     12          7.638289   1.000000
     13          8.166709   1.000000
     14          8.380515   1.000000
     15          8.661253   1.000000
     16          8.938286   1.000000
     17         10.524757   0.999998
     18         12.839501   0.000000
     19         16.471306   0.000000
     20         25.976512   0.000000
     21         26.583060   0.000000
     22         27.646040   0.000000
     23         28.305068   0.000000
     24         29.688736   0.000000
 
  0.2000000E+00  0.1000000E+00  0.1250000E+00  0.3000000E-01
      1        -41.848598   1.000000
      2        -41.824559   1.000000
      3        -41.735353   1.000000
      4        -41.724428   1.000000
      5        -41.685669   1.000000
      6        -41.538306   1.000000
      7          3.490735   1.000000
      8          5.373194   1.000000
      9          6.317622   1.000000
     10          6.494608   1.000000
     11          7.047732   1.000000
     12          7.682337   1.000000
     13          8.364540   1.000000
     14          8.507077   1.000000
     15          9.353587   1.000000
     16          9.582041   1.000000
     17         10.526611   0.999998
     18         13.974823   0.000000
     19         17.281718   0.000000
     20         22.873785   0.000000
     21         24.736783   0.000000
     22         26.798953   0.000000
     23         28.106940   0.000000
     24         29.884555   0.000000
 
  0.3000000E+00  0.1000000E+00  0.1250000E+00  0.3000000E-01
      1        -41.939501   1.000000
      2        -41.909155   1.000000
      3        -41.760149   1.000000
      4        -41.712831   1.000000
      5        -41.695021   1.000000
      6        -41.554292   1.000000
      7          4.439172   1.000000
      8          5.151187   1.000000
      9          5.806473   1.000000
     10          6.644077   1.000000
     11          7.464805   1.000000
     12          7.833132   1.000000
     13          8.064962   1.000000
     14          9.288550   1.000000
     15         10.328097   1.000000
     16         10.383891   1.000000
     17         11.056285   0.000000
     18         15.054376   0.000000
     19         18.193501   0.000000
     20         19.669831   0.000000
     21         22.639328   0.000000
     22         24.791245   0.000000
     23         26.040291   0.000000
     24         27.820319   0.000000
 
  0.4000000E+00  0.1000000E+00  0.1250000E+00  0.3000000E-01
      1        -41.996401   1.000000
      2        -41.960573   1.000000
      3        -41.781409   1.000000
      4        -41.728574   1.000000
      5        -41.662541   1.000000
      6        -41.572144   1.000000
      7          4.653124   1.000000
      8          4.860240   1.000000
      9          5.603914   1.000000
     10          6.792014   1.000000
     11          7.545956   1.000000
     12          8.088584   1.000000
     13          8.484411   1.000000
     14         10.346346   1.000000
     15         10.457199   1.000000
     16         10.851879   0.000002
     17         12.615426   0.000000
     18         15.378549   0.000000
     19         17.126369   0.000000
     20         19.479326   0.000000
     21         20.854060   0.000000
     22         22.930011   0.000000
     23         24.549757   0.000000
     24         26.666764   0.000000
 
  0.2000000E+00  0.2000000E+00  0.1250000E+00  0.1500000E-01
      1        -41.900339   1.000000
      2        -41.899134   1.000000
      3        -41.766017   1.000000
      4        -41.732613   1.000000
      5        -41.699022   1.000000
      6        -41.551817   1.000000
      7          4.624802   1.000000
      8          5.782394   1.000000
      9          6.016359   1.000000
     10          6.089718   1.000000
     11          7.290366   1.000000
     12          7.296472   1.000000
     13          8.122441   1.000000
     14          8.713494   1.000000
     15         10.201458   1.000000
     16         10.374854   1.000000
     17         11.146202   0.000000
     18         15.041419   0.000000
     19         18.431455   0.000000
     20         20.795703   0.000000
     21         21.439737   0.000000
     22         25.990437   0.000000
     23         26.366783   0.000000
     24         28.411011   0.000000
 
  0.3000000E+00  0.2000000E+00  0.1250000E+00  0.3000000E-01
      1        -41.954465   1.000000
      2        -41.930627   1.000000
      3        -41.812839   1.000000
      4        -41.771097   1.000000
      5        -41.662402   1.000000
      6        -41.571257   1.000000
      7          5.226811   1.000000
      8          5.611014   1.000000
      9          5.774063   1.000000
     10          6.511028   1.000000
     11          7.307413   1.000000
     12          7.670953   1.000000
     13          7.944432   1.000000
     14          9.384021   1.000000
     15         10.082014   1.000000
     16         10.787032   0.002610
     17         12.740076   0.000000
     18         16.792018   0.000000
     19         17.096181   0.000000
     20         19.443088   0.000000
     21         20.686782   0.000000
     22         23.691509   0.000000
     23         25.340913   0.000000
     24         26.293542   0.000000
 
  0.4000000E+00  0.2000000E+00  0.1250000E+00  0.1500000E-01
      1        -41.975151   1.000000
      2        -41.939148   1.000000
      3        -41.834985   1.000000
      4        -41.786145   1.000000
      5        -41.641519   1.000000
      6        -41.585798   1.000000
      7          5.182983   1.000000
      8          5.496107   1.000000
      9          5.862299   1.000000
     10          6.723921   1.000000
     11          7.173619   1.000000
     12          7.856098   1.000000
     13          8.227720   1.000000
     14         10.026981   1.000000
     15         10.077878   1.000000
     16         10.576979   0.999178
     17         14.362348   0.000000
     18         14.796016   0.000000
     19         18.138960   0.000000
     20         19.286797   0.000000
     21         20.257264   0.000000
     22         23.155937   0.000000
     23         24.725359   0.000000
     24         25.040914   0.000000
 
  0.3000000E+00  0.3000000E+00  0.1250000E+00  0.1500000E-01
      1        -41.940905   1.000000
      2        -41.915191   1.000000
      3        -41.870904   1.000000
      4        -41.834367   1.000000
      5        -41.629466   1.000000
      6        -41.594860   1.000000
      7          5.566000   1.000000
      8          5.893792   1.000000
      9          6.197983   1.000000
     10          6.481792   1.000000
     11          7.249577   1.000000
     12          7.291274   1.000000
     13          8.162836   1.000000
     14          9.758808   1.000000
     15          9.867224   1.000000
     16         10.442572   1.000000
     17         14.370131   0.000000
     18         15.685228   0.000000
     19         17.214715   0.000000
     20         19.542711   0.000000
     21         22.137051   0.000000
     22         22.257864   0.000000
     23         24.075027   0.000000
     24         25.385604   0.000000
 
  0.0000000E+00  0.0000000E+00  0.2500000E+00  0.2500000E-02
      1        -41.770283   1.000000
      2        -41.664607   1.000000
      3        -41.664606   1.000000
      4        -41.638600   1.000000
      5        -41.638599   1.000000
      6        -41.557289   1.000000
      7          1.742305   1.000000
      8          3.743694   1.000000
      9          6.823435   1.000000
     10          7.356279   1.000000
     11          7.356279   1.000000
     12          7.624577   1.000000
     13          7.624578   1.000000
     14          8.348679   1.000000
     15          9.307178   1.000000
     16          9.307178   1.000000
     17         10.376045   1.000000
     18         10.376046   1.000000
     19         18.017103   0.000000
     20         24.823744   0.000000
     21         27.053095   0.000000
     22         27.116766   0.000000
     23         30.508059   0.000000
     24         30.508059   0.000000
 
  0.1000000E+00  0.2081668E-16  0.2500000E+00  0.1500000E-01
      1        -41.765928   1.000000
      2        -41.693635   1.000000
      3        -41.674435   1.000000
      4        -41.673938   1.000000
      5        -41.645700   1.000000
      6        -41.555033   1.000000
      7          2.086202   1.000000
      8          4.082684   1.000000
      9          6.851268   1.000000
     10          7.187642   1.000000
     11          7.263836   1.000000
     12          7.599882   1.000000
     13          7.867197   1.000000
     14          7.990668   1.000000
     15          9.193368   1.000000
     16          9.197651   1.000000
     17         10.397234   1.000000
     18         10.991365   0.000000
     19         18.174339   0.000000
     20         25.298763   0.000000
     21         27.384189   0.000000
     22         27.488332   0.000000
     23         29.055542   0.000000
     24         29.897001   0.000000
 
  0.2000000E+00  0.4163336E-16  0.2500000E+00  0.1500000E-01
      1        -41.799320   1.000000
      2        -41.764146   1.000000
      3        -41.720387   1.000000
      4        -41.697373   1.000000
      5        -41.664720   1.000000
      6        -41.554651   1.000000
      7          2.995102   1.000000
      8          4.863356   1.000000
      9          6.500109   1.000000
     10          6.775723   1.000000
     11          6.937192   1.000000
     12          7.718835   1.000000
     13          8.187074   1.000000
     14          8.528846   1.000000
     15          9.060032   1.000000
     16          9.087513   1.000000
     17         10.420371   1.000000
     18         11.979373   0.000000
     19         18.641401   0.000000
     20         24.912591   0.000000
     21         26.643885   0.000000
     22         27.364375   0.000000
     23         28.198175   0.000000
     24         29.285441   0.000000
 
  0.3000000E+00 -0.2775558E-16  0.2500000E+00  0.1500000E-01
      1        -41.899211   1.000000
      2        -41.870809   1.000000
      3        -41.726180   1.000000
      4        -41.694091   1.000000
      5        -41.688746   1.000000
      6        -41.560397   1.000000
      7          3.959188   1.000000