PROCAR lm decomposed
# of k-points:   70         # of bands:   24         # of ions:    2

 k-point     1 :    0.00000000 0.00000000 0.00000000     weight = 0.00125000

band     1 # energy  -41.81448547 # occ.  2.00000000
 
ion      s     py     pz     px    dxy    dyz    dz2    dxz  x2-y2    tot
    1  0.000  0.000  0.492  0.000  0.000  0.000  0.000  0.000  0.000  0.492
    2  0.000  0.000  0.492  0.000  0.000  0.000  0.000  0.000  0.000  0.492
tot    0.000  0.000  0.984  0.000  0.000  0.000  0.000  0.000  0.000  0.984
 
band     2 # energy  -41.67053560 # occ.  2.00000000
 
ion      s     py     pz     px    dxy    dyz    dz2    dxz  x2-y2    tot
    1  0.000  0.124  0.000  0.373  0.000  0.000  0.000  0.000  0.000  0.498
    2  0.000  0.124  0.000  0.373  0.000  0.000  0.000  0.000  0.000  0.498
tot    0.000  0.249  0.000  0.746  0.000  0.000  0.000  0.000  0.000  0.995
 
band     3 # energy  -41.67053462 # occ.  2.00000000
 
ion      s     py     pz     px    dxy    dyz    dz2    dxz  x2-y2    tot
    1  0.000  0.373  0.000  0.124  0.000  0.000  0.000  0.000  0.000  0.498
    2  0.000  0.373  0.000  0.124  0.000  0.000  0.000  0.000  0.000  0.498
tot    0.000  0.746  0.000  0.249  0.000  0.000  0.000  0.000  0.000  0.995
 
band     4 # energy  -41.63322738 # occ.  2.00000000
 
ion      s     py     pz     px    dxy    dyz    dz2    dxz  x2-y2    tot
    1  0.000  0.125  0.000  0.374  0.000  0.000  0.000  0.000  0.000  0.498
    2  0.000  0.125  0.000  0.374  0.000  0.000  0.000  0.000  0.000  0.498
tot    0.000  0.249  0.000  0.747  0.000  0.000  0.000  0.000  0.000  0.996
 
band     5 # energy  -41.63322640 # occ.  2.00000000
 
ion      s     py     pz     px    dxy    dyz    dz2    dxz  x2-y2    tot
    1  0.000  0.374  0.000  0.125  0.000  0.000  0.000  0.000  0.000  0.498
    2  0.000  0.374  0.000  0.125  0.000  0.000  0.000  0.000  0.000  0.498
tot    0.000  0.747  0.000  0.249  0.000  0.000  0.000  0.000  0.000  0.996
 
band     6 # energy  -41.51260395 # occ.  2.00000000
 
ion      s     py     pz     px    dxy    dyz    dz2    dxz  x2-y2    tot
    1  0.000  0.000  0.497  0.000  0.000  0.000  0.000  0.000  0.000  0.497
    2  0.000  0.000  0.497  0.000  0.000  0.000  0.000  0.000  0.000  0.497
tot    0.000  0.000  0.995  0.000  0.000  0.000  0.000  0.000  0.000  0.995
 
band     7 # energy    1.23429883 # occ.  2.00000000
 
ion      s     py     pz     px    dxy    dyz    dz2    dxz  x2-y2    tot
    1  0.189  0.000  0.000  0.000  0.000  0.000  0.000  0.000  0.000  0.189
    2  0.189  0.000  0.000  0.000  0.000  0.000  0.000  0.000  0.000  0.189
tot    0.378  0.000  0.000  0.000  0.000  0.000  0.001  0.000  0.000  0.378
 
band     8 # energy    3.86496652 # occ.  2.00000000
 
ion      s     py     pz     px    dxy    dyz    dz2    dxz  x2-y2    tot
    1  0.080  0.000  0.000  0.000  0.000  0.000  0.230  0.000  0.000  0.310
    2  0.080  0.000  0.000  0.000  0.000  0.000  0.230  0.000  0.000  0.310
tot    0.159  0.000  0.000  0.000  0.000  0.000  0.460  0.000  0.000  0.619
 
band     9 # energy    6.92792833 # occ.  2.00000000
 
ion      s     py     pz     px    dxy    dyz    dz2    dxz  x2-y2    tot
    1  0.000  0.000  0.000  0.000  0.000  0.000  0.412  0.000  0.000  0.412
    2  0.000  0.000  0.000  0.000  0.000  0.000  0.412  0.000  0.000  0.412
tot    0.000  0.000  0.000  0.000  0.000  0.000  0.823  0.000  0.000  0.823
 
band    10 # energy    7.40494969 # occ.  2.00000000
 
ion      s     py     pz     px    dxy    dyz    dz2    dxz  x2-y2    tot
    1  0.000  0.000  0.000  0.000  0.105  0.000  0.000  0.000  0.316  0.421
    2  0.000  0.000  0.000  0.000  0.105  0.000  0.000  0.000  0.316  0.421
tot    0.000  0.000  0.000  0.000  0.210  0.000  0.000  0.000  0.631  0.842
 
band    11 # energy    7.40495040 # occ.  2.00000000
 
ion      s     py     pz     px    dxy    dyz    dz2    dxz  x2-y2    tot
    1  0.000  0.000  0.000  0.000  0.316  0.000  0.000  0.000  0.105  0.421
    2  0.000  0.000  0.000  0.000  0.316  0.000  0.000  0.000  0.105  0.421
tot    0.000  0.000  0.000  0.000  0.631  0.000  0.000  0.000  0.210  0.842
 
band    12 # energy    7.75735731 # occ.  2.00000000
 
ion      s     py     pz     px    dxy    dyz    dz2    dxz  x2-y2    tot
    1  0.000  0.000  0.000  0.000  0.108  0.000  0.000  0.000  0.323  0.430
    2  0.000  0.000  0.000  0.000  0.108  0.000  0.000  0.000  0.323  0.430
tot    0.000  0.000  0.000  0.000  0.215  0.000  0.000  0.000  0.645  0.861
 
band    13 # energy    7.75735805 # occ.  2.00000000
 
ion      s     py     pz     px    dxy    dyz    dz2    dxz  x2-y2    tot
    1  0.000  0.000  0.000  0.000  0.323  0.000  0.000  0.000  0.108  0.430
    2  0.000  0.000  0.000  0.000  0.323  0.000  0.000  0.000  0.108  0.430
tot    0.000  0.000  0.000  0.000  0.645  0.000  0.000  0.000  0.215  0.861
 
band    14 # energy    8.96831210 # occ.  2.00000000
 
ion      s     py     pz     px    dxy    dyz    dz2    dxz  x2-y2    tot
    1  0.000  0.000  0.000  0.000  0.000  0.111  0.000  0.332  0.000  0.443
    2  0.000  0.000  0.000  0.000  0.000  0.111  0.000  0.332  0.000  0.443
tot    0.000  0.000  0.000  0.000  0.000  0.221  0.000  0.664  0.000  0.886
 
band    15 # energy    8.96831234 # occ.  2.00000000
 
ion      s     py     pz     px    dxy    dyz    dz2    dxz  x2-y2    tot
    1  0.000  0.000  0.000  0.000  0.000  0.332  0.000  0.111  0.000  0.443
    2  0.000  0.000  0.000  0.000  0.000  0.332  0.000  0.111  0.000  0.443
tot    0.000  0.000  0.000  0.000  0.000  0.664  0.000  0.221  0.000  0.886
 
band    16 # energy   10.10200924 # occ.  2.00000000
 
ion      s     py     pz     px    dxy    dyz    dz2    dxz  x2-y2    tot
    1  0.000  0.000  0.082  0.000  0.000  0.000  0.000  0.000  0.000  0.082
    2  0.000  0.000  0.082  0.000  0.000  0.000  0.000  0.000  0.000  0.082
tot    0.000  0.000  0.165  0.000  0.000  0.000  0.000  0.000  0.000  0.165
 
band    17 # energy   10.49318013 # occ.  1.99999997
 
ion      s     py     pz     px    dxy    dyz    dz2    dxz  x2-y2    tot
    1  0.000  0.000  0.000  0.000  0.000  0.116  0.000  0.348  0.000  0.464
    2  0.000  0.000  0.000  0.000  0.000  0.116  0.000  0.348  0.000  0.464
tot    0.000  0.000  0.000  0.000  0.000  0.232  0.000  0.696  0.000  0.928
 
band    18 # energy   10.49318040 # occ.  1.99999997
 
ion      s     py     pz     px    dxy    dyz    dz2    dxz  x2-y2    tot
    1  0.000  0.000  0.000  0.000  0.000  0.348  0.000  0.116  0.000  0.464
    2  0.000  0.000  0.000  0.000  0.000  0.348  0.000  0.116  0.000  0.464
tot    0.000  0.000  0.000  0.000  0.000  0.696  0.000  0.232  0.000  0.928
 
band    19 # energy   15.24542301 # occ.  0.00000000
 
ion      s     py     pz     px    dxy    dyz    dz2    dxz  x2-y2    tot
    1  0.174  0.000  0.000  0.000  0.000  0.000  0.226  0.000  0.000  0.401
    2  0.174  0.000  0.000  0.000  0.000  0.000  0.226  0.000  0.000  0.401
tot    0.349  0.000  0.000  0.000  0.000  0.000  0.452  0.000  0.000  0.801
 
band    20 # energy   25.81490168 # occ.  0.00000000
 
ion      s     py     pz     px    dxy    dyz    dz2    dxz  x2-y2    tot
    1  0.003  0.000  0.000  0.000  0.000  0.000  0.002  0.000  0.000  0.005
    2  0.003  0.000  0.000  0.000  0.000  0.000  0.002  0.000  0.000  0.005
tot    0.006  0.000  0.000  0.000  0.000  0.000  0.004  0.000  0.000  0.011
 
band    21 # energy   26.39846346 # occ.  0.00000000
 
ion      s     py     pz     px    dxy    dyz    dz2    dxz  x2-y2    tot
    1  0.000  0.000  0.021  0.000  0.000  0.000  0.000  0.000  0.000  0.021
    2  0.000  0.000  0.021  0.000  0.000  0.000  0.000  0.000  0.000  0.021
tot    0.000  0.000  0.042  0.000  0.000  0.000  0.000  0.000  0.000  0.042
 
band    22 # energy   27.93463470 # occ.  0.00000000
 
ion      s     py     pz     px    dxy    dyz    dz2    dxz  x2-y2    tot
    1  0.000  0.000  0.000  0.000  0.000  0.000  0.016  0.000  0.000  0.017
    2  0.000  0.000  0.000  0.000  0.000  0.000  0.016  0.000  0.000  0.017
tot    0.001  0.000  0.000  0.000  0.000  0.000  0.033  0.000  0.000  0.034
 
band    23 # energy   31.45407224 # occ.  0.00000000
 
ion      s     py     pz     px    dxy    dyz    dz2    dxz  x2-y2    tot
    1  0.000  0.033  0.000  0.093  0.015  0.000  0.000  0.000  0.005  0.146
    2  0.000  0.033  0.000  0.093  0.015  0.000  0.000  0.000  0.005  0.146
tot    0.000  0.066  0.000  0.186  0.030  0.000  0.000  0.000  0.011  0.292
 
band    24 # energy   31.45407248 # occ.  0.00000000
 
ion      s     py     pz     px    dxy    dyz    dz2    dxz  x2-y2    tot
    1  0.000  0.093  0.000  0.033  0.005  0.000  0.000  0.000  0.015  0.146
    2  0.000  0.093  0.000  0.033  0.005  0.000  0.000  0.000  0.015  0.146
tot    0.000  0.186  0.000  0.066  0.011  0.000  0.000  0.000  0.030  0.292
 

 k-point     2 :    0.10000000 0.00000000 0.00000000     weight = 0.00750000

band     1 # energy  -41.80356733 # occ.  2.00000000
 
ion      s     py     pz     px    dxy    dyz    dz2    dxz  x2-y2    tot
    1  0.000  0.000  0.492  0.000  0.000  0.000  0.000  0.000  0.000  0.492
    2  0.000  0.000  0.492  0.000  0.000  0.000  0.000  0.000  0.000  0.492
tot    0.000  0.000  0.984  0.000  0.000  0.000  0.000  0.000  0.000  0.984
 
band     2 # energy  -41.70264845 # occ.  2.00000000
 
ion      s     py     pz     px    dxy    dyz    dz2    dxz  x2-y2    tot
    1  0.000  0.124  0.000  0.373  0.000  0.000  0.000  0.000  0.000  0.497
    2  0.000  0.124  0.000  0.373  0.000  0.000  0.000  0.000  0.000  0.497
tot    0.000  0.249  0.000  0.746  0.000  0.000  0.000  0.000  0.000  0.994
 
band     3 # energy  -41.67964026 # occ.  2.00000000
 
ion      s     py     pz     px    dxy    dyz    dz2    dxz  x2-y2    tot
    1  0.000  0.373  0.000  0.124  0.000  0.000  0.000  0.000  0.000  0.497
    2  0.000  0.373  0.000  0.124  0.000  0.000  0.000  0.000  0.000  0.497
tot    0.000  0.746  0.000  0.249  0.000  0.000  0.000  0.000  0.000  0.995
 
band     4 # energy  -41.66647736 # occ.  2.00000000
 
ion      s     py     pz     px    dxy    dyz    dz2    dxz  x2-y2    tot
    1  0.000  0.124  0.000  0.373  0.000  0.000  0.000  0.000  0.000  0.498
    2  0.000  0.124  0.000  0.373  0.000  0.000  0.000  0.000  0.000  0.498
tot    0.000  0.249  0.000  0.746  0.000  0.000  0.000  0.000  0.000  0.995
 
band     5 # energy  -41.63974829 # occ.  2.00000000
 
ion      s     py     pz     px    dxy    dyz    dz2    dxz  x2-y2    tot
    1  0.000  0.374  0.000  0.125  0.000  0.000  0.000  0.000  0.000  0.498
    2  0.000  0.374  0.000  0.125  0.000  0.000  0.000  0.000  0.000  0.498
tot    0.000  0.747  0.000  0.249  0.000  0.000  0.000  0.000  0.000  0.996
 
band     6 # energy  -41.51496328 # occ.  2.00000000
 
ion      s     py     pz     px    dxy    dyz    dz2    dxz  x2-y2    tot
    1  0.000  0.000  0.497  0.000  0.000  0.000  0.000  0.000  0.000  0.497
    2  0.000  0.000  0.497  0.000  0.000  0.000  0.000  0.000  0.000  0.497
tot    0.000  0.000  0.995  0.000  0.000  0.000  0.000  0.000  0.000  0.995
 
band     7 # energy    1.58695041 # occ.  2.00000000
 
ion      s     py     pz     px    dxy    dyz    dz2    dxz  x2-y2    tot
    1  0.185  0.001  0.000  0.002  0.000  0.000  0.000  0.000  0.000  0.188
    2  0.185  0.001  0.000  0.002  0.000  0.000  0.000  0.000  0.000  0.188
tot    0.370  0.001  0.000  0.003  0.001  0.000  0.000  0.000  0.000  0.376
 
band     8 # energy    4.18323533 # occ.  2.00000000
 
ion      s     py     pz     px    dxy    dyz    dz2    dxz  x2-y2    tot
    1  0.073  0.000  0.000  0.001  0.002  0.000  0.234  0.000  0.001  0.312
    2  0.073  0.000  0.000  0.001  0.002  0.000  0.234  0.000  0.001  0.312
tot    0.146  0.001  0.000  0.003  0.003  0.000  0.469  0.000  0.001  0.623
 
band     9 # energy    6.86158923 # occ.  2.00000000
 
ion      s     py     pz     px    dxy    dyz    dz2    dxz  x2-y2    tot
    1  0.000  0.000  0.000  0.000  0.116  0.000  0.252  0.000  0.039  0.407
    2  0.000  0.000  0.000  0.000  0.116  0.000  0.252  0.000  0.039  0.407
tot    0.000  0.000  0.000  0.001  0.232  0.000  0.504  0.000  0.077  0.815
 
band    10 # energy    7.41822968 # occ.  2.00000000
 
ion      s     py     pz     px    dxy    dyz    dz2    dxz  x2-y2    tot
    1  0.000  0.000  0.000  0.000  0.211  0.000  0.137  0.000  0.070  0.418
    2  0.000  0.000  0.000  0.000  0.211  0.000  0.137  0.000  0.070  0.418
tot    0.000  0.000  0.000  0.001  0.421  0.000  0.274  0.000  0.140  0.837
 
band    11 # energy    7.61643110 # occ.  2.00000000
 
ion      s     py     pz     px    dxy    dyz    dz2    dxz  x2-y2    tot
    1  0.002  0.000  0.000  0.000  0.297  0.000  0.025  0.000  0.099  0.423
    2  0.002  0.000  0.000  0.000  0.297  0.000  0.025  0.000  0.099  0.423
tot    0.003  0.000  0.000  0.001  0.594  0.000  0.051  0.000  0.198  0.847
 
band    12 # energy    7.67118648 # occ.  2.00000000
 
ion      s     py     pz     px    dxy    dyz    dz2    dxz  x2-y2    tot
    1  0.000  0.000  0.000  0.000  0.106  0.000  0.000  0.000  0.317  0.423
    2  0.000  0.000  0.000  0.000  0.106  0.000  0.000  0.000  0.317  0.423
tot    0.000  0.001  0.000  0.000  0.211  0.000  0.000  0.000  0.633  0.845
 
band    13 # energy    8.00997801 # occ.  2.00000000
 
ion      s     py     pz     px    dxy    dyz    dz2    dxz  x2-y2    tot
    1  0.000  0.000  0.000  0.000  0.108  0.000  0.000  0.000  0.324  0.432
    2  0.000  0.000  0.000  0.000  0.108  0.000  0.000  0.000  0.324  0.432
tot    0.000  0.001  0.000  0.000  0.216  0.000  0.000  0.000  0.648  0.865
 
band    14 # energy    8.42816373 # occ.  2.00000000
 
ion      s     py     pz     px    dxy    dyz    dz2    dxz  x2-y2    tot
    1  0.000  0.000  0.018  0.000  0.000  0.082  0.000  0.247  0.000  0.346
    2  0.000  0.000  0.018  0.000  0.000  0.082  0.000  0.247  0.000  0.346
tot    0.000  0.000  0.035  0.000  0.000  0.164  0.000  0.493  0.000  0.693
 
band    15 # energy    8.80573152 # occ.  2.00000000
 
ion      s     py     pz     px    dxy    dyz    dz2    dxz  x2-y2    tot
    1  0.000  0.000  0.000  0.000  0.000  0.329  0.000  0.110  0.000  0.439
    2  0.000  0.000  0.000  0.000  0.000  0.329  0.000  0.110  0.000  0.439
tot    0.000  0.000  0.000  0.000  0.000  0.658  0.000  0.219  0.000  0.877
 
band    16 # energy    8.96679188 # occ.  2.00000000
 
ion      s     py     pz     px    dxy    dyz    dz2    dxz  x2-y2    tot
    1  0.000  0.000  0.019  0.000  0.000  0.084  0.000  0.251  0.000  0.354
    2  0.000  0.000  0.019  0.000  0.000  0.084  0.000  0.251  0.000  0.354
tot    0.000  0.000  0.038  0.000  0.000  0.167  0.000  0.502  0.000  0.708
 
band    17 # energy   10.55269147 # occ.  1.99987445
 
ion      s     py     pz     px    dxy    dyz    dz2    dxz  x2-y2    tot
    1  0.000  0.000  0.000  0.000  0.000  0.350  0.000  0.117  0.000  0.467
    2  0.000  0.000  0.000  0.000  0.000  0.350  0.000  0.117  0.000  0.467
tot    0.000  0.000  0.000  0.000  0.000  0.700  0.000  0.233  0.000  0.933
 
band    18 # energy   12.24931116 # occ.  0.00000000
 
ion      s     py     pz     px    dxy    dyz    dz2    dxz  x2-y2    tot
    1  0.000  0.000  0.046  0.000  0.000  0.059  0.000  0.177  0.000  0.283
    2  0.000  0.000  0.046  0.000  0.000  0.059  0.000  0.177  0.000  0.283
tot    0.000  0.000  0.093  0.000  0.000  0.118  0.000  0.354  0.000  0.565
 
band    19 # energy   15.21286198 # occ.  0.00000000
 
ion      s     py     pz     px    dxy    dyz    dz2    dxz  x2-y2    tot
    1  0.176  0.000  0.000  0.001  0.001  0.000  0.218  0.000  0.000  0.396
    2  0.176  0.000  0.000  0.001  0.001  0.000  0.218  0.000  0.000  0.396
tot    0.351  0.000  0.000  0.001  0.003  0.000  0.435  0.000  0.001  0.792
 
band    20 # energy   26.20173819 # occ.  0.00000000
 
ion      s     py     pz     px    dxy    dyz    dz2    dxz  x2-y2    tot
    1  0.005  0.001  0.000  0.003  0.018  0.000  0.003  0.000  0.006  0.037
    2  0.005  0.001  0.000  0.003  0.018  0.000  0.003  0.000  0.006  0.037
tot    0.010  0.002  0.000  0.007  0.036  0.000  0.006  0.000  0.012  0.073
 
band    21 # energy   26.91157672 # occ.  0.00000000
 
ion      s     py     pz     px    dxy    dyz    dz2    dxz  x2-y2    tot
    1  0.000  0.000  0.018  0.000  0.000  0.002  0.000  0.005  0.000  0.025
    2  0.000  0.000  0.018  0.000  0.000  0.002  0.000  0.005  0.000  0.025
tot    0.000  0.000  0.037  0.000  0.000  0.004  0.000  0.011  0.000  0.051
 
band    22 # energy   28.18391092 # occ.  0.00000000
 
ion      s     py     pz     px    dxy    dyz    dz2    dxz  x2-y2    tot
    1  0.003  0.005  0.000  0.015  0.017  0.000  0.023  0.000  0.006  0.070
    2  0.003  0.005  0.000  0.015  0.017  0.000  0.023  0.000  0.006  0.070
tot    0.007  0.010  0.000  0.030  0.035  0.000  0.047  0.000  0.012  0.140
 
band    23 # energy   29.91054266 # occ.  0.00000000
 
ion      s     py     pz     px    dxy    dyz    dz2    dxz  x2-y2    tot
    1  0.006  0.022  0.000  0.065  0.009  0.000  0.001  0.000  0.003  0.106
    2  0.006  0.022  0.000  0.065  0.009  0.000  0.001  0.000  0.003  0.106
tot    0.012  0.043  0.000  0.130  0.018  0.000  0.002  0.000  0.006  0.211
 
band    24 # energy   29.96509606 # occ.  0.00000000
 
ion      s     py     pz     px    dxy    dyz    dz2    dxz  x2-y2    tot
    1  0.000  0.085  0.000  0.028  0.009  0.000  0.000  0.000  0.028  0.150
    2  0.000  0.085  0.000  0.028  0.009  0.000  0.000  0.000  0.028  0.150
tot    0.000  0.169  0.000  0.056  0.018  0.000  0.000  0.000  0.055  0.299
 

 k-point     3 :    0.20000000 0.00000000 0.00000000     weight = 0.00750000

band     1 # energy  -41.78868930 # occ.  2.00000000
 
ion      s     py     pz     px    dxy    dyz    dz2    dxz  x2-y2    tot
    1  0.000  0.124  0.000  0.372  0.000  0.000  0.000  0.000  0.000  0.496
    2  0.000  0.124  0.000  0.372  0.000  0.000  0.000  0.000  0.000  0.496
tot    0.000  0.248  0.000  0.743  0.000  0.000  0.000  0.000  0.000  0.991
 
band     2 # energy  -41.77391500 # occ.  2.00000000
 
ion      s     py     pz     px    dxy    dyz    dz2    dxz  x2-y2    tot
    1  0.000  0.000  0.493  0.000  0.000  0.000  0.000  0.000  0.000  0.493
    2  0.000  0.000  0.493  0.000  0.000  0.000  0.000  0.000  0.000  0.493
tot    0.000  0.000  0.985  0.000  0.000  0.000  0.000  0.000  0.000  0.985
 
band     3 # energy  -41.75345361 # occ.  2.00000000
 
ion      s     py     pz     px    dxy    dyz    dz2    dxz  x2-y2    tot
    1  0.000  0.124  0.000  0.372  0.000  0.000  0.000  0.000  0.000  0.496
    2  0.000  0.124  0.000  0.372  0.000  0.000  0.000  0.000  0.000  0.496
tot    0.000  0.248  0.000  0.744  0.000  0.000  0.000  0.000  0.000  0.992
 
band     4 # energy  -41.70402006 # occ.  2.00000000
 
ion      s     py     pz     px    dxy    dyz    dz2    dxz  x2-y2    tot
    1  0.000  0.373  0.000  0.124  0.000  0.000  0.000  0.000  0.000  0.497
    2  0.000  0.373  0.000  0.124  0.000  0.000  0.000  0.000  0.000  0.497
tot    0.000  0.746  0.000  0.249  0.000  0.000  0.000  0.000  0.000  0.994
 
band     5 # energy  -41.65775290 # occ.  2.00000000
 
ion      s     py     pz     px    dxy    dyz    dz2    dxz  x2-y2    tot
    1  0.000  0.373  0.000  0.124  0.000  0.000  0.000  0.000  0.000  0.498
    2  0.000  0.373  0.000  0.124  0.000  0.000  0.000  0.000  0.000  0.498
tot    0.000  0.747  0.000  0.249  0.000  0.000  0.000  0.000  0.000  0.996
 
band     6 # energy  -41.52307665 # occ.  2.00000000
 
ion      s     py     pz     px    dxy    dyz    dz2    dxz  x2-y2    tot
    1  0.000  0.000  0.497  0.000  0.000  0.000  0.000  0.000  0.000  0.497
    2  0.000  0.000  0.497  0.000  0.000  0.000  0.000  0.000  0.000  0.497
tot    0.000  0.000  0.995  0.000  0.000  0.000  0.000  0.000  0.000  0.995
 
band     7 # energy    2.55098218 # occ.  2.00000000
 
ion      s     py     pz     px    dxy    dyz    dz2    dxz  x2-y2    tot
    1  0.172  0.002  0.000  0.006  0.006  0.000  0.001  0.000  0.002  0.188
    2  0.172  0.002  0.000  0.006  0.006  0.000  0.001  0.000  0.002  0.188
tot    0.343  0.004  0.000  0.012  0.012  0.000  0.001  0.000  0.004  0.376
 
band     8 # energy    4.88649364 # occ.  2.00000000
 
ion      s     py     pz     px    dxy    dyz    dz2    dxz  x2-y2    tot
    1  0.049  0.001  0.000  0.004  0.038  0.000  0.220  0.000  0.013  0.326
    2  0.049  0.001  0.000  0.004  0.038  0.000  0.220  0.000  0.013  0.326
tot    0.099  0.002  0.000  0.007  0.077  0.000  0.441  0.000  0.026  0.652
 
band     9 # energy    6.64089580 # occ.  2.00000000
 
ion      s     py     pz     px    dxy    dyz    dz2    dxz  x2-y2    tot
    1  0.003  0.001  0.000  0.003  0.187  0.000  0.127  0.000  0.062  0.383
    2  0.003  0.001  0.000  0.003  0.187  0.000  0.127  0.000  0.062  0.383
tot    0.006  0.002  0.000  0.006  0.373  0.000  0.255  0.000  0.124  0.767
 
band    10 # energy    7.11581868 # occ.  2.00000000
 
ion      s     py     pz     px    dxy    dyz    dz2    dxz  x2-y2    tot
    1  0.000  0.000  0.017  0.000  0.000  0.076  0.000  0.227  0.000  0.320
    2  0.000  0.000  0.017  0.000  0.000  0.076  0.000  0.227  0.000  0.320
tot    0.000  0.000  0.034  0.000  0.000  0.152  0.000  0.455  0.000  0.640
 
band    11 # energy    7.14708202 # occ.  2.00000000
 
ion      s     py     pz     px    dxy    dyz    dz2    dxz  x2-y2    tot
    1  0.005  0.000  0.000  0.001  0.257  0.000  0.055  0.000  0.086  0.405
    2  0.005  0.000  0.000  0.001  0.257  0.000  0.055  0.000  0.086  0.405
tot    0.010  0.001  0.000  0.002  0.514  0.000  0.110  0.000  0.171  0.809
 
band    12 # energy    8.01713257 # occ.  2.00000000
 
ion      s     py     pz     px    dxy    dyz    dz2    dxz  x2-y2    tot
    1  0.003  0.000  0.000  0.001  0.109  0.000  0.268  0.000  0.036  0.420
    2  0.003  0.000  0.000  0.001  0.109  0.000  0.268  0.000  0.036  0.420
tot    0.007  0.001  0.000  0.003  0.219  0.000  0.537  0.000  0.073  0.839
 
band    13 # energy    8.42282105 # occ.  2.00000000
 
ion      s     py     pz     px    dxy    dyz    dz2    dxz  x2-y2    tot
    1  0.000  0.001  0.000  0.000  0.107  0.000  0.000  0.000  0.321  0.429
    2  0.000  0.001  0.000  0.000  0.107  0.000  0.000  0.000  0.321  0.429
tot    0.000  0.002  0.000  0.001  0.214  0.000  0.000  0.000  0.642  0.859
 
band    14 # energy    8.44372487 # occ.  2.00000000
 
ion      s     py     pz     px    dxy    dyz    dz2    dxz  x2-y2    tot
    1  0.000  0.000  0.000  0.000  0.000  0.322  0.000  0.107  0.000  0.430
    2  0.000  0.000  0.000  0.000  0.000  0.322  0.000  0.107  0.000  0.430
tot    0.000  0.000  0.000  0.000  0.000  0.645  0.000  0.215  0.000  0.860
 
band    15 # energy    8.46766160 # occ.  2.00000000
 
ion      s     py     pz     px    dxy    dyz    dz2    dxz  x2-y2    tot
    1  0.000  0.000  0.009  0.000  0.000  0.095  0.000  0.286  0.000  0.390
    2  0.000  0.000  0.009  0.000  0.000  0.095  0.000  0.286  0.000  0.390
tot    0.000  0.000  0.018  0.000  0.000  0.190  0.000  0.571  0.000  0.779
 
band    16 # energy    8.71850535 # occ.  2.00000000
 
ion      s     py     pz     px    dxy    dyz    dz2    dxz  x2-y2    tot
    1  0.000  0.001  0.000  0.000  0.109  0.000  0.000  0.000  0.328  0.439
    2  0.000  0.001  0.000  0.000  0.109  0.000  0.000  0.000  0.328  0.439
tot    0.000  0.002  0.000  0.001  0.219  0.000  0.000  0.000  0.656  0.877
 
band    17 # energy   10.64801979 # occ.  1.74518716
 
ion      s     py     pz     px    dxy    dyz    dz2    dxz  x2-y2    tot
    1  0.000  0.000  0.000  0.000  0.000  0.353  0.000  0.118  0.000  0.470
    2  0.000  0.000  0.000  0.000  0.000  0.353  0.000  0.118  0.000  0.470
tot    0.000  0.000  0.000  0.000  0.000  0.706  0.000  0.235  0.000  0.941
 
band    18 # energy   14.37427665 # occ.  0.00000000
 
ion      s     py     pz     px    dxy    dyz    dz2    dxz  x2-y2    tot
    1  0.000  0.000  0.059  0.000  0.000  0.049  0.000  0.148  0.000  0.257
    2  0.000  0.000  0.059  0.000  0.000  0.049  0.000  0.148  0.000  0.257
tot    0.000  0.000  0.118  0.000  0.000  0.099  0.000  0.297  0.000  0.514
 
band    19 # energy   15.15654150 # occ.  0.00000000
 
ion      s     py     pz     px    dxy    dyz    dz2    dxz  x2-y2    tot
    1  0.179  0.001  0.000  0.003  0.005  0.000  0.187  0.000  0.002  0.378
    2  0.179  0.001  0.000  0.003  0.005  0.000  0.187  0.000  0.002  0.378
tot    0.359  0.002  0.000  0.006  0.010  0.000  0.375  0.000  0.003  0.755
 
band    20 # energy   24.52020067 # occ.  0.00000000
 
ion      s     py     pz     px    dxy    dyz    dz2    dxz  x2-y2    tot
    1  0.027  0.017  0.000  0.050  0.051  0.000  0.026  0.000  0.017  0.187
    2  0.027  0.017  0.000  0.050  0.051  0.000  0.026  0.000  0.017  0.187
tot    0.054  0.033  0.000  0.099  0.102  0.000  0.052  0.000  0.034  0.374
 
band    21 # energy   27.51040220 # occ.  0.00000000
 
ion      s     py     pz     px    dxy    dyz    dz2    dxz  x2-y2    tot
    1  0.000  0.000  0.011  0.000  0.000  0.003  0.000  0.008  0.000  0.021
    2  0.000  0.000  0.011  0.000  0.000  0.003  0.000  0.008  0.000  0.021
tot    0.000  0.000  0.022  0.000  0.000  0.005  0.000  0.015  0.000  0.042
 
band    22 # energy   27.57265256 # occ.  0.00000000
 
ion      s     py     pz     px    dxy    dyz    dz2    dxz  x2-y2    tot
    1  0.000  0.080  0.000  0.027  0.011  0.000  0.000  0.000  0.032  0.149
    2  0.000  0.080  0.000  0.027  0.011  0.000  0.000  0.000  0.032  0.149
tot    0.000  0.159  0.000  0.053  0.021  0.000  0.000  0.000  0.064  0.298
 
band    23 # energy   28.55644102 # occ.  0.00000000
 
ion      s     py     pz     px    dxy    dyz    dz2    dxz  x2-y2    tot
    1  0.005  0.004  0.000  0.011  0.034  0.000  0.016  0.000  0.011  0.081
    2  0.005  0.004  0.000  0.011  0.034  0.000  0.016  0.000  0.011  0.081
tot    0.010  0.007  0.000  0.022  0.068  0.000  0.032  0.000  0.023  0.162
 
band    24 # energy   28.78496972 # occ.  0.00000000
 
ion      s     py     pz     px    dxy    dyz    dz2    dxz  x2-y2    tot
    1  0.000  0.000  0.003  0.000  0.000  0.016  0.000  0.047  0.000  0.066
    2  0.000  0.000  0.003  0.000  0.000  0.016  0.000  0.047  0.000  0.066
tot    0.000  0.000  0.007  0.000  0.000  0.031  0.000  0.094  0.000  0.131
 

 k-point     4 :    0.30000000-0.00000000 0.00000000     weight = 0.00750000

band     1 # energy  -41.89537815 # occ.  2.00000000
 
ion      s     py     pz     px    dxy    dyz    dz2    dxz  x2-y2    tot
    1  0.000  0.123  0.000  0.370  0.000  0.000  0.000  0.000  0.000  0.494
    2  0.000  0.123  0.000  0.370  0.000  0.000  0.000  0.000  0.000  0.494
tot    0.000  0.247  0.000  0.741  0.000  0.000  0.000  0.000  0.000  0.988
 
band     2 # energy  -41.85831955 # occ.  2.00000000
 
ion      s     py     pz     px    dxy    dyz    dz2    dxz  x2-y2    tot
    1  0.000  0.124  0.000  0.371  0.000  0.000  0.000  0.000  0.000  0.494
    2  0.000  0.124  0.000  0.371  0.000  0.000  0.000  0.000  0.000  0.495
tot    0.000  0.247  0.000  0.742  0.000  0.000  0.000  0.000  0.000  0.989
 
band     3 # energy  -41.73370528 # occ.  2.00000000
 
ion      s     py     pz     px    dxy    dyz    dz2    dxz  x2-y2    tot
    1  0.000  0.372  0.000  0.124  0.000  0.000  0.000  0.000  0.000  0.497
    2  0.000  0.372  0.000  0.124  0.000  0.000  0.000  0.000  0.000  0.497
tot    0.000  0.745  0.000  0.248  0.000  0.000  0.000  0.000  0.000  0.993
 
band     4 # energy  -41.73183836 # occ.  2.00000000
 
ion      s     py     pz     px    dxy    dyz    dz2    dxz  x2-y2    tot
    1  0.000  0.000  0.493  0.000  0.000  0.000  0.000  0.000  0.000  0.493
    2  0.000  0.000  0.493  0.000  0.000  0.000  0.000  0.000  0.000  0.493
tot    0.000  0.000  0.987  0.000  0.000  0.000  0.000  0.000  0.000  0.987
 
band     5 # energy  -41.68120596 # occ.  2.00000000
 
ion      s     py     pz     px    dxy    dyz    dz2    dxz  x2-y2    tot
    1  0.000  0.373  0.000  0.124  0.000  0.000  0.000  0.000  0.000  0.497
    2  0.000  0.373  0.000  0.124  0.000  0.000  0.000  0.000  0.000  0.498
tot    0.000  0.746  0.000  0.249  0.000  0.000  0.000  0.000  0.000  0.995
 
band     6 # energy  -41.53789808 # occ.  2.00000000
 
ion      s     py     pz     px    dxy    dyz    dz2    dxz  x2-y2    tot
    1  0.000  0.000  0.497  0.000  0.000  0.000  0.000  0.000  0.000  0.497
    2  0.000  0.000  0.497  0.000  0.000  0.000  0.000  0.000  0.000  0.497
tot    0.000  0.000  0.994  0.000  0.000  0.000  0.000  0.000  0.000  0.994
 
band     7 # energy    3.74068397 # occ.  2.00000000
 
ion      s     py     pz     px    dxy    dyz    dz2    dxz  x2-y2    tot
    1  0.136  0.003  0.000  0.008  0.047  0.000  0.006  0.000  0.016  0.215
    2  0.136  0.003  0.000  0.008  0.047  0.000  0.006  0.000  0.016  0.215
tot    0.272  0.005  0.000  0.016  0.094  0.000  0.011  0.000  0.031  0.431
 
band     8 # energy    5.01992346 # occ.  2.00000000
 
ion      s     py     pz     px    dxy    dyz    dz2    dxz  x2-y2    tot
    1  0.020  0.000  0.000  0.001  0.161  0.000  0.119  0.000  0.054  0.356
    2  0.020  0.000  0.000  0.001  0.161  0.000  0.119  0.000  0.054  0.356
tot    0.040  0.001  0.000  0.002  0.323  0.000  0.239  0.000  0.108  0.712
 
band     9 # energy    6.09770723 # occ.  2.00000000
 
ion      s     py     pz     px    dxy    dyz    dz2    dxz  x2-y2    tot
    1  0.000  0.000  0.010  0.000  0.000  0.080  0.000  0.239  0.000  0.328
    2  0.000  0.000  0.010  0.000  0.000  0.080  0.000  0.239  0.000  0.328
tot    0.000  0.000  0.020  0.000  0.000  0.159  0.000  0.477  0.000  0.657
 
band    10 # energy    6.89535434 # occ.  2.00000000
 
ion      s     py     pz     px    dxy    dyz    dz2    dxz  x2-y2    tot
    1  0.012  0.003  0.000  0.009  0.209  0.000  0.045  0.000  0.070  0.348
    2  0.012  0.003  0.000  0.009  0.209  0.000  0.045  0.000  0.070  0.348
tot    0.025  0.006  0.000  0.017  0.418  0.000  0.090  0.000  0.139  0.696
 
band    11 # energy    7.23755466 # occ.  2.00000000
 
ion      s     py     pz     px    dxy    dyz    dz2    dxz  x2-y2    tot