 vasp.6.3.2 27Jun22 (build Aug 12 2022 00:53:59) complex                        
  
 executed on               tv2STD date 2024.11.30  15:06:49
 running   24 mpi-ranks, with    1 threads/rank
 distrk:  each k-point on   24 cores,    1 groups
 distr:  one band on NCORE=   6 cores,    4 groups


--------------------------------------------------------------------------------------------------------


 INCAR:
   SYSTEM = Co fcc
   NWRITE = 2    write-flag
   ISTART = 0    job   : 0-new, 1-cont, 2-samecut
   ICHARG = 2    charge: 0-wave, 1-file, 2-atom, >10-const
   INIWAV = 1    electr: 0-lowe 1-rand  2-diag
   ENCUT = 450     energy cutoff in eV
   PREC = Accurate      normal | accurate
   ADDGRID = .FALSE.  (use fine grid)
   NELM = 100     number of ELM steps
   EDIFF = 1E-06    energy stopping-criterion for ELM
   LREAL = .FALSE.      real-space projection (.FALSE., .TRUE., On, Auto)
   ALGO = Normal     Normal, Fast, Very_Fast
   LWAVE = .FALSE.
   LCHARG = .FALSE.
   NSW = 0       max number of geometry steps
   IBRION = -1     ionic relax: 0-MD, 1-quasi-Newton, 2-CG, 3-Damped MD
   EDIFFG = -0.02  force (eV/A) stopping-criterion for geometry steps
   ISIF = 2     (1:force\=y stress\=trace only ions\=y shape\=n volume\=n)
   ISYM = 1     (1-use symmetry, 0-no symmetry)
   ISMEAR = 1     (-1-Fermi, 1-Methfessel/Paxton)
   SIGMA = 0.2   broadening in eV
   NPAR = 4
   ISPIN = 2
   MAGMOM = 1*3

 POTCAR:    PAW_PBE Co 02Aug2007                  
 POTCAR:    PAW_PBE Co 02Aug2007                  
   SHA256 =  0e690c60710354995174544f52f9f2c30879afabeffe3b3fbd4001cb294e56d4 Co/POTCAR             
   COPYR  = (c) Copyright 02Aug2007 Georg Kresse                                                    
   COPYR  = This file is part of the software VASP. Any use, copying, and all other rights are regul
   COPYR  = If you do not have a valid VASP license, you may not use, copy or distribute this file. 
   VRHFIN =Co: d8 s1                                                                                
   LEXCH  = PE                                                                                      
   EATOM  =   813.3670 eV,   59.7808 Ry                                                             
                                                                                                    
   TITEL  = PAW_PBE Co 02Aug2007                                                                    
   LULTRA =        F    use ultrasoft PP ?                                                          
   IUNSCR =        1    unscreen: 0-lin 1-nonlin 2-no                                               
   RPACOR =    2.000    partial core radius                                                         
   POMASS =   58.933; ZVAL   =    9.000    mass and valenz                                          
   RCORE  =    2.300    outmost cutoff radius                                                       
   RWIGS  =    2.460; RWIGS  =    1.302    wigner-seitz radius (au A)                               
   ENMAX  =  267.968; ENMIN  =  200.976 eV                                                          
   RCLOC  =    1.203    cutoff for local pot                                                        
   LCOR   =        T    correct aug charges                                                         
   LPAW   =        T    paw PP                                                                      
   EAUG   =  477.818                                                                                
   DEXC   =    0.000                                                                                
   RMAX   =    2.360    core radius for proj-oper                                                   
   RAUG   =    1.300    factor for augmentation sphere                                              
   RDEP   =    2.393    radius for radial grids                                                     
   RDEPT  =    1.864    core radius for aug-charge                                                  
                                                                                                    
   Atomic configuration                                                                             
    9 entries                                                                                       
     n  l   j            E        occ.                                                              
     1  0  0.50     -7587.6674   2.0000                                                             
     2  0  0.50      -893.6084   2.0000                                                             
     2  1  1.50      -764.5805   6.0000                                                             
     3  0  0.50       -97.5973   2.0000                                                             
     3  1  1.50       -60.9648   6.0000                                                             
     3  2  2.50        -4.2382   8.0000                                                             
     4  0  0.50        -4.3746   1.0000                                                             
     4  1  1.50        -4.0817   0.0000                                                             
     4  3  2.50        -1.3606   0.0000                                                             
   Description                                                                                      
     l       E           TYP  RCUT    TYP  RCUT                                                     
     2     -4.2382362     23  2.300                                                                 
     2     -5.5988188     23  2.300                                                                 
     0     -4.3745797     23  2.300                                                                 
     0      5.7660125     23  2.300                                                                 
     1     -2.7211652     23  2.300                                                                 
     1     16.9860234     23  2.300                                                                 
  local pseudopotential read in
  partial core-charges read in
  partial kinetic energy density read in
  atomic valenz-charges read in
  non local Contribution for L=           2  read in
    real space projection operators read in
  non local Contribution for L=           2  read in
    real space projection operators read in
  non local Contribution for L=           0  read in
    real space projection operators read in
  non local Contribution for L=           0  read in
    real space projection operators read in
  non local Contribution for L=           1  read in
    real space projection operators read in
  non local Contribution for L=           1  read in
    real space projection operators read in
    PAW grid and wavefunctions read in
 
   number of l-projection  operators is LMAX  =           6
   number of lm-projection operators is LMMAX =          18
 
  PAW_PBE Co 02Aug2007                  :
 energy of atom  1       EATOM= -813.3670
 kinetic energy error for atom=    0.0036 (will be added to EATOM!!)
 
 
 POSCAR: Co
  positions in cartesian coordinates
  No initial velocities read in
 exchange correlation table for  LEXCH =        8
   RHO(1)=    0.500       N(1)  =     2000
   RHO(2)=  100.500       N(2)  =     4000
 


--------------------------------------------------------------------------------------------------------


 ion  position               nearest neighbor table
   1  0.000  0.000  0.000-
 
  LATTYP: Found a face centered cubic cell.
 ALAT       =     3.5100000000
  
  Lattice vectors:
  
 A1 = (   0.0000000000,   1.7550000000,   1.7550000000)
 A2 = (   1.7550000000,   0.0000000000,   1.7550000000)
 A3 = (   1.7550000000,   1.7550000000,   0.0000000000)


Analysis of symmetry for initial positions (statically):
=====================================================================
 Subroutine PRICEL returns:
 Original cell was already a primitive cell.
 

 Routine SETGRP: Setting up the symmetry group for a 
 face centered cubic supercell.


 Subroutine GETGRP returns: Found 48 space group operations
 (whereof 48 operations were pure point group operations)
 out of a pool of 48 trial point group operations.


The static configuration has the point symmetry O_h .


Analysis of symmetry for dynamics (positions and initial velocities):
=====================================================================
 Subroutine PRICEL returns:
 Original cell was already a primitive cell.
 

 Routine SETGRP: Setting up the symmetry group for a 
 face centered cubic supercell.


 Subroutine GETGRP returns: Found 48 space group operations
 (whereof 48 operations were pure point group operations)
 out of a pool of 48 trial point group operations.


The dynamic configuration has the point symmetry O_h .


Analysis of structural, dynamic, and magnetic symmetry:
=====================================================================
 Subroutine PRICEL returns:
 Original cell was already a primitive cell.
 

 Routine SETGRP: Setting up the symmetry group for a 
 face centered cubic supercell.


 Subroutine GETGRP returns: Found 48 space group operations
 (whereof 48 operations were pure point group operations)
 out of a pool of 48 trial point group operations.


The overall configuration has the point symmetry O_h .


 Subroutine INISYM returns: Found 48 space group operations
 (whereof 48 operations are pure point group operations),
 and found     1 'primitive' translations


----------------------------------------------------------------------------------------

                                     Primitive cell                                     

  volume of cell :      10.8109

  direct lattice vectors                    reciprocal lattice vectors
     0.000000000  1.755000000  1.755000000    -0.284900285  0.284900285  0.284900285
     1.755000000  0.000000000  1.755000000     0.284900285 -0.284900285  0.284900285
     1.755000000  1.755000000  0.000000000     0.284900285  0.284900285 -0.284900285

  length of vectors
     2.481944802  2.481944802  2.481944802     0.493461769  0.493461769  0.493461769

  position of ions in fractional coordinates (direct lattice)
     0.000000000  0.000000000  0.000000000

  ion indices of the primitive-cell ions
   primitive index   ion index
                 1           1

----------------------------------------------------------------------------------------

 
 
 KPOINTS: Automatic mesh                          

Automatic generation of k-mesh.
 Grid dimensions read from file:
 generate k-points for:    6    6    6

 Generating k-lattice:

  Cartesian coordinates                     Fractional coordinates (reciprocal lattice)
    -0.047483381  0.047483381  0.047483381     0.166666667  0.000000000  0.000000000
     0.047483381 -0.047483381  0.047483381     0.000000000  0.166666667  0.000000000
     0.047483381  0.047483381 -0.047483381     0.000000000  0.000000000  0.166666667

  Length of vectors
     0.082243628  0.082243628  0.082243628

  Shift w.r.t. Gamma in fractional coordinates (k-lattice)
     0.500000000  0.500000000  0.500000000

 
 Subroutine IBZKPT returns following result:
 ===========================================
 
 Found     28 irreducible k-points:
 
 Following reciprocal coordinates:
            Coordinates               Weight
  0.083333  0.083333  0.083333      8.000000
  0.250000  0.083333  0.083333     24.000000
  0.416667  0.083333  0.083333     24.000000
 -0.416667  0.083333  0.083333     24.000000
 -0.250000  0.083333  0.083333     24.000000
 -0.083333  0.083333  0.083333     24.000000
  0.250000  0.250000  0.083333     24.000000
  0.416667  0.250000  0.083333     48.000000
 -0.416667  0.250000  0.083333     48.000000
 -0.250000  0.250000  0.083333     48.000000
 -0.083333  0.250000  0.083333     48.000000
  0.416667  0.416667  0.083333     24.000000
 -0.416667  0.416667  0.083333     48.000000
 -0.250000  0.416667  0.083333     48.000000
 -0.083333  0.416667  0.083333     48.000000
 -0.416667 -0.416667  0.083333     24.000000
 -0.250000 -0.416667  0.083333     48.000000
 -0.250000 -0.250000  0.083333     24.000000
  0.250000  0.250000  0.250000      8.000000
  0.416667  0.250000  0.250000     24.000000
 -0.416667  0.250000  0.250000     24.000000
 -0.250000  0.250000  0.250000     24.000000
  0.416667  0.416667  0.250000     24.000000
 -0.416667  0.416667  0.250000     48.000000
 -0.250000  0.416667  0.250000     48.000000
 -0.416667 -0.416667  0.250000     24.000000
  0.416667  0.416667  0.416667      8.000000
 -0.416667  0.416667  0.416667     24.000000
 
 Following cartesian coordinates:
            Coordinates               Weight
  0.023742  0.023742  0.023742      8.000000
 -0.023742  0.071225  0.071225     24.000000
 -0.071225  0.118708  0.118708     24.000000
  0.166192 -0.118708 -0.118708     24.000000
  0.118708 -0.071225 -0.071225     24.000000
  0.071225 -0.023742 -0.023742     24.000000
  0.023742  0.023742  0.118708     24.000000
 -0.023742  0.071225  0.166192     48.000000
  0.213675 -0.166192 -0.071225     48.000000
  0.166192 -0.118708 -0.023742     48.000000
  0.118708 -0.071225  0.023742     48.000000
  0.023742  0.023742  0.213675     24.000000
  0.261159 -0.213675 -0.023742     48.000000
  0.213675 -0.166192  0.023742     48.000000
  0.166192 -0.118708  0.071225     48.000000
  0.023742  0.023742 -0.261159     24.000000
 -0.023742  0.071225 -0.213675     48.000000
  0.023742  0.023742 -0.166192     24.000000
  0.071225  0.071225  0.071225      8.000000
  0.023742  0.118708  0.118708     24.000000
  0.261159 -0.118708 -0.118708     24.000000
  0.213675 -0.071225 -0.071225     24.000000
  0.071225  0.071225  0.166192     24.000000
  0.308642 -0.166192 -0.071225     48.000000
  0.261159 -0.118708 -0.023742     48.000000
  0.071225  0.071225 -0.308642     24.000000
  0.118708  0.118708  0.118708      8.000000
  0.356125 -0.118708 -0.118708     24.000000
 


--------------------------------------------------------------------------------------------------------




 Dimension of arrays:
   k-points           NKPTS =     28   k-points in BZ     NKDIM =     28   number of bands    NBANDS=     12
   number of dos      NEDOS =    301   number of ions     NIONS =      1
   non local maximal  LDIM  =      6   non local SUM 2l+1 LMDIM =     18
   total plane-waves  NPLWV =   5832
   max r-space proj   IRMAX =      1   max aug-charges    IRDMAX=  21473
   dimension x,y,z NGX =    18 NGY =   18 NGZ =   18
   dimension x,y,z NGXF=    36 NGYF=   36 NGZF=   36
   support grid    NGXF=    36 NGYF=   36 NGZF=   36
   ions per type =               1
   NGX,Y,Z   is equivalent  to a cutoff of  12.06, 12.06, 12.06 a.u.
   NGXF,Y,Z  is equivalent  to a cutoff of  24.11, 24.11, 24.11 a.u.

 SYSTEM =  Co fcc                                  
 POSCAR =  Co                                      

 Startparameter for this run:
   NWRITE =      2    write-flag & timer
   PREC   = accura    normal or accurate (medium, high low for compatibility)
   ISTART =      0    job   : 0-new  1-cont  2-samecut
   ICHARG =      2    charge: 1-file 2-atom 10-const
   ISPIN  =      2    spin polarized calculation?
   LNONCOLLINEAR =      F non collinear calculations
   LSORBIT =      F    spin-orbit coupling
   INIWAV =      1    electr: 0-lowe 1-rand  2-diag
   LASPH  =      F    aspherical Exc in radial PAW
 Electronic Relaxation 1
   ENCUT  =  450.0 eV  33.07 Ry    5.75 a.u.   4.29  4.29  4.29*2*pi/ulx,y,z
   ENINI  =  450.0     initial cutoff
   ENAUG  =  477.8 eV  augmentation charge cutoff
   NELM   =    100;   NELMIN=  2; NELMDL= -5     # of ELM steps 
   EDIFF  = 0.1E-05   stopping-criterion for ELM
   LREAL  =      F    real-space projection
   NLSPLINE    = F    spline interpolate recip. space projectors
   LCOMPAT=      F    compatible to vasp.4.4
   GGA_COMPAT  = T    GGA compatible to vasp.4.4-vasp.4.6
   LMAXPAW     = -100 max onsite density
   LMAXMIX     =    2 max onsite mixed and CHGCAR
   VOSKOWN=      0    Vosko Wilk Nusair interpolation
   ROPT   =    0.00000
 Ionic relaxation
   EDIFFG = -.2E-01   stopping-criterion for IOM
   NSW    =      0    number of steps for IOM
   NBLOCK =      1;   KBLOCK =      1    inner block; outer block 
   IBRION =     -1    ionic relax: 0-MD 1-quasi-New 2-CG
   NFREE  =      0    steps in history (QN), initial steepest desc. (CG)
   ISIF   =      2    stress and relaxation
   IWAVPR =     10    prediction:  0-non 1-charg 2-wave 3-comb
   ISYM   =      1    0-nonsym 1-usesym 2-fastsym
   LCORR  =      T    Harris-Foulkes like correction to forces

   POTIM  = 0.5000    time-step for ionic-motion
   TEIN   =    0.0    initial temperature
   TEBEG  =    0.0;   TEEND  =   0.0 temperature during run
   SMASS  =  -3.00    Nose mass-parameter (am)
   estimated Nose-frequenzy (Omega)   =  0.10E-29 period in steps = 0.13E+47 mass=  -0.141E-27a.u.
   SCALEE = 1.0000    scale energy and forces
   NPACO  =    256;   APACO  = 10.0  distance and # of slots for P.C.
   PSTRESS=    0.0 pullay stress

  Mass of Ions in am
   POMASS =  58.93
  Ionic Valenz
   ZVAL   =   9.00
  Atomic Wigner-Seitz radii
   RWIGS  =  -1.00
  virtual crystal weights 
   VCA    =   1.00
   NELECT =       9.0000    total number of electrons
   NUPDOWN=      -1.0000    fix difference up-down

 DOS related values:
   EMIN   =  10.00;   EMAX   =-10.00  energy-range for DOS
   EFERMI =   0.00
   ISMEAR =     1;   SIGMA  =   0.20  broadening in eV -4-tet -1-fermi 0-gaus

 Electronic relaxation 2 (details)
   IALGO  =     38    algorithm
   LDIAG  =      T    sub-space diagonalisation (order eigenvalues)
   LSUBROT=      F    optimize rotation matrix (better conditioning)
   TURBO    =      0    0=normal 1=particle mesh
   IRESTART =      0    0=no restart 2=restart with 2 vectors
   NREBOOT  =      0    no. of reboots
   NMIN     =      0    reboot dimension
   EREF     =   0.00    reference energy to select bands
   IMIX   =      4    mixing-type and parameters
     AMIX     =   0.40;   BMIX     =  1.00
     AMIX_MAG =   1.60;   BMIX_MAG =  1.00
     AMIN     =   0.10
     WC   =   100.;   INIMIX=   1;  MIXPRE=   1;  MAXMIX= -45

 Intra band minimization:
   WEIMIN = 0.0000     energy-eigenvalue tresh-hold
   EBREAK =  0.21E-07  absolut break condition
   DEPER  =   0.30     relativ break condition  

   TIME   =   0.40     timestep for ELM

  volume/ion in A,a.u.               =      10.81        72.96
  Fermi-wavevector in a.u.,A,eV,Ry     =   1.540051  2.910275 32.269731  2.371758
  Thomas-Fermi vector in A             =   2.646193
 
 Write flags
   LWAVE        =      F    write WAVECAR
   LDOWNSAMPLE  =      F    k-point downsampling of WAVECAR
   LCHARG       =      F    write CHGCAR
   LVTOT        =      F    write LOCPOT, total local potential
   LVHAR        =      F    write LOCPOT, Hartree potential only
   LELF         =      F    write electronic localiz. function (ELF)
   LORBIT       =      0    0 simple, 1 ext, 2 COOP (PROOUT), +10 PAW based schemes


 Dipole corrections
   LMONO  =      F    monopole corrections only (constant potential shift)
   LDIPOL =      F    correct potential (dipole corrections)
   IDIPOL =      0    1-x, 2-y, 3-z, 4-all directions 
   EPSILON=  1.0000000 bulk dielectric constant

 Exchange correlation treatment:
   GGA     =    --    GGA type
   LEXCH   =     8    internal setting for exchange type
   LIBXC   =     F    Libxc                    
   VOSKOWN =     0    Vosko Wilk Nusair interpolation
   LHFCALC =     F    Hartree Fock is set to
   LHFONE  =     F    Hartree Fock one center treatment
   AEXX    =    0.0000 exact exchange contribution

 Linear response parameters
   LEPSILON=     F    determine dielectric tensor
   LRPA    =     F    only Hartree local field effects (RPA)
   LNABLA  =     F    use nabla operator in PAW spheres
   LVEL    =     F    velocity operator in full k-point grid
   CSHIFT  =0.1000    complex shift for real part using Kramers Kronig
   OMEGAMAX=  -1.0    maximum frequency
   DEG_THRESHOLD= 0.2000000E-02 threshold for treating states as degnerate
   RTIME   =   -0.100 relaxation time in fs
  (WPLASMAI=    0.000 imaginary part of plasma frequency in eV, 0.658/RTIME)
   DFIELD  = 0.0000000 0.0000000 0.0000000 field for delta impulse in time
 
  Optional k-point grid parameters
   LKPOINTS_OPT  =     F    use optional k-point grid
   KPOINTS_OPT_MODE=     1    mode for optional k-point grid
 
 Orbital magnetization related:
   ORBITALMAG=     F  switch on orbital magnetization
   LCHIMAG   =     F  perturbation theory with respect to B field
   DQ        =  0.001000  dq finite difference perturbation B field
   LLRAUG    =     F  two centre corrections for induced B field



--------------------------------------------------------------------------------------------------------


 Static calculation
 charge density and potential will be updated during run
 spin polarized calculation
 Variant of blocked Davidson
 Davidson routine will perform the subspace rotation
 perform sub-space diagonalisation
    after iterative eigenvector-optimisation
 modified Broyden-mixing scheme, WC =      100.0
 initial mixing is a Kerker type mixing with AMIX =  0.4000 and BMIX =      1.0000
 Hartree-type preconditioning will be used
 using additional bands            7
 reciprocal scheme for non local part
 use partial core corrections
 calculate Harris-corrections to forces 
   (improved forces if not selfconsistent)
 use gradient corrections 
 use of overlap-Matrix (Vanderbilt PP)
 Methfessel and Paxton  Order N= 1 SIGMA  =   0.20


--------------------------------------------------------------------------------------------------------


  energy-cutoff  :      450.00
  volume of cell :       10.81
      direct lattice vectors                 reciprocal lattice vectors
     0.000000000  1.755000000  1.755000000    -0.284900285  0.284900285  0.284900285
     1.755000000  0.000000000  1.755000000     0.284900285 -0.284900285  0.284900285
     1.755000000  1.755000000  0.000000000     0.284900285  0.284900285 -0.284900285

  length of vectors
     2.481944802  2.481944802  2.481944802     0.493461769  0.493461769  0.493461769


 
 k-points in units of 2pi/SCALE and weight: Automatic mesh                          
   0.02374169  0.02374169  0.02374169       0.009
  -0.02374169  0.07122507  0.07122507       0.028
  -0.07122507  0.11870845  0.11870845       0.028
   0.16619183 -0.11870845 -0.11870845       0.028
   0.11870845 -0.07122507 -0.07122507       0.028
   0.07122507 -0.02374169 -0.02374169       0.028
   0.02374169  0.02374169  0.11870845       0.028
  -0.02374169  0.07122507  0.16619183       0.056
   0.21367521 -0.16619183 -0.07122507       0.056
   0.16619183 -0.11870845 -0.02374169       0.056
   0.11870845 -0.07122507  0.02374169       0.056
   0.02374169  0.02374169  0.21367521       0.028
   0.26115859 -0.21367521 -0.02374169       0.056
   0.21367521 -0.16619183  0.02374169       0.056
   0.16619183 -0.11870845  0.07122507       0.056
   0.02374169  0.02374169 -0.26115859       0.028
  -0.02374169  0.07122507 -0.21367521       0.056
   0.02374169  0.02374169 -0.16619183       0.028
   0.07122507  0.07122507  0.07122507       0.009
   0.02374169  0.11870845  0.11870845       0.028
   0.26115859 -0.11870845 -0.11870845       0.028
   0.21367521 -0.07122507 -0.07122507       0.028
   0.07122507  0.07122507  0.16619183       0.028
   0.30864198 -0.16619183 -0.07122507       0.056
   0.26115859 -0.11870845 -0.02374169       0.056
   0.07122507  0.07122507 -0.30864198       0.028
   0.11870845  0.11870845  0.11870845       0.009
   0.35612536 -0.11870845 -0.11870845       0.028
 
 k-points in reciprocal lattice and weights: Automatic mesh                          
   0.08333333  0.08333333  0.08333333       0.009
   0.25000000  0.08333333  0.08333333       0.028
   0.41666667  0.08333333  0.08333333       0.028
  -0.41666667  0.08333333  0.08333333       0.028
  -0.25000000  0.08333333  0.08333333       0.028
  -0.08333333  0.08333333  0.08333333       0.028
   0.25000000  0.25000000  0.08333333       0.028
   0.41666667  0.25000000  0.08333333       0.056
  -0.41666667  0.25000000  0.08333333       0.056
  -0.25000000  0.25000000  0.08333333       0.056
  -0.08333333  0.25000000  0.08333333       0.056
   0.41666667  0.41666667  0.08333333       0.028
  -0.41666667  0.41666667  0.08333333       0.056
  -0.25000000  0.41666667  0.08333333       0.056
  -0.08333333  0.41666667  0.08333333       0.056
  -0.41666667 -0.41666667  0.08333333       0.028
  -0.25000000 -0.41666667  0.08333333       0.056
  -0.25000000 -0.25000000  0.08333333       0.028
   0.25000000  0.25000000  0.25000000       0.009
   0.41666667  0.25000000  0.25000000       0.028
  -0.41666667  0.25000000  0.25000000       0.028
  -0.25000000  0.25000000  0.25000000       0.028
   0.41666667  0.41666667  0.25000000       0.028
  -0.41666667  0.41666667  0.25000000       0.056
  -0.25000000  0.41666667  0.25000000       0.056
  -0.41666667 -0.41666667  0.25000000       0.028
   0.41666667  0.41666667  0.41666667       0.009
  -0.41666667  0.41666667  0.41666667       0.028
 
 position of ions in fractional coordinates (direct lattice) 
   0.00000000  0.00000000  0.00000000
 
 position of ions in cartesian coordinates  (Angst):
   0.00000000  0.00000000  0.00000000
 


--------------------------------------------------------------------------------------------------------


 k-point   1 :   0.0833 0.0833 0.0833  plane waves:     250
 k-point   2 :   0.2500 0.0833 0.0833  plane waves:     238
 k-point   3 :   0.4167 0.0833 0.0833  plane waves:     238
 k-point   4 :  -0.4167 0.0833 0.0833  plane waves:     235
 k-point   5 :  -0.2500 0.0833 0.0833  plane waves:     237
 k-point   6 :  -0.0833 0.0833 0.0833  plane waves:     233
 k-point   7 :   0.2500 0.2500 0.0833  plane waves:     233
 k-point   8 :   0.4167 0.2500 0.0833  plane waves:     233
 k-point   9 :  -0.4167 0.2500 0.0833  plane waves:     237
 k-point  10 :  -0.2500 0.2500 0.0833  plane waves:     237
 k-point  11 :  -0.0833 0.2500 0.0833  plane waves:     232
 k-point  12 :   0.4167 0.4167 0.0833  plane waves:     233
 k-point  13 :  -0.4167 0.4167 0.0833  plane waves:     233
 k-point  14 :  -0.2500 0.4167 0.0833  plane waves:     232
 k-point  15 :  -0.0833 0.4167 0.0833  plane waves:     237
 k-point  16 :  -0.4167-0.4167 0.0833  plane waves:     229
 k-point  17 :  -0.2500-0.4167 0.0833  plane waves:     233
 k-point  18 :  -0.2500-0.2500 0.0833  plane waves:     230
 k-point  19 :   0.2500 0.2500 0.2500  plane waves:     238
 k-point  20 :   0.4167 0.2500 0.2500  plane waves:     233
 k-point  21 :  -0.4167 0.2500 0.2500  plane waves:     234
 k-point  22 :  -0.2500 0.2500 0.2500  plane waves:     236
 k-point  23 :   0.4167 0.4167 0.2500  plane waves:     234
 k-point  24 :  -0.4167 0.4167 0.2500  plane waves:     236
 k-point  25 :  -0.2500 0.4167 0.2500  plane waves:     235
 k-point  26 :  -0.4167-0.4167 0.2500  plane waves:     229
 k-point  27 :   0.4167 0.4167 0.4167  plane waves:     235
 k-point  28 :  -0.4167 0.4167 0.4167  plane waves:     238

 maximum and minimum number of plane-waves per node :        46       32

 maximum number of plane-waves:       250
 maximum index in each direction: 
   IXMAX=    4   IYMAX=    4   IZMAX=    4
   IXMIN=   -4   IYMIN=   -4   IZMIN=   -4


 parallel 3D FFT for wavefunctions:
    minimum data exchange during FFTs selected (reduces bandwidth)
 parallel 3D FFT for charge:
    minimum data exchange during FFTs selected (reduces bandwidth)


 total amount of memory used by VASP MPI-rank0    30768. kBytes
=======================================================================

   base      :      30000. kBytes
   nonl-proj :        178. kBytes
   fftplans  :        113. kBytes
   grid      :        274. kBytes
   one-center:         31. kBytes
   wavefun   :        172. kBytes
 
     INWAV:  cpu time      0.0000: real time      0.0002
 Broyden mixing: mesh for mixing (old mesh)
   NGX =  9   NGY =  9   NGZ =  9
  (NGX  = 36   NGY  = 36   NGZ  = 36)
  gives a total of    729 points

 initial charge density was supplied:
 charge density of overlapping atoms calculated
 number of electron       9.0000000 magnetization       3.0000000
 keeping initial charge density in first step


--------------------------------------------------------------------------------------------------------


 Maximum index for augmentation-charges         1346 (set IRDMAX)


--------------------------------------------------------------------------------------------------------


 First call to EWALD:  gamma=   0.802
 Maximum number of real-space cells 3x 3x 3
 Maximum number of reciprocal cells 3x 3x 3

    FEWALD:  cpu time      0.0014: real time      0.0014


--------------------------------------- Iteration      1(   1)  ---------------------------------------


    POTLOK:  cpu time      0.0054: real time      0.0056
    SETDIJ:  cpu time      0.0053: real time      0.0054
     EDDAV:  cpu time      0.1343: real time      0.1352
       DOS:  cpu time      0.0010: real time      0.0010
    --------------------------------------------
      LOOP:  cpu time      0.1460: real time      0.1471

 eigenvalue-minimisations  :  1360
 total energy-change (2. order) : 0.2482013E+02  (-0.3822425E+03)
 number of electron       9.0000000 magnetization       3.0000000
 augmentation part        9.0000000 magnetization       3.0000000

 Free energy of the ion-electron system (eV)
  ---------------------------------------------------
  alpha Z        PSCENC =        39.18058524
  Ewald energy   TEWEN  =      -761.78120824
  -Hartree energ DENC   =      -149.59159932
  -exchange      EXHF   =         0.00000000
  -V(xc)+E(xc)   XCENC  =        17.82600536
  PAW double counting   =       719.99081943     -772.94345096
  entropy T*S    EENTRO =        -0.00372777
  eigenvalues    EBANDS =       118.77926716
  atomic energy  EATOM  =       813.36343992
  Solvation  Ediel_sol  =         0.00000000
  ---------------------------------------------------
  free energy    TOTEN  =        24.82013082 eV

  energy without entropy =       24.82385859  energy(sigma->0) =       24.82137341


--------------------------------------------------------------------------------------------------------




--------------------------------------- Iteration      1(   2)  ---------------------------------------


     EDDAV:  cpu time      0.1294: real time      0.1308
       DOS:  cpu time      0.0006: real time      0.0006
    --------------------------------------------
      LOOP:  cpu time      0.1301: real time      0.1314

 eigenvalue-minimisations  :  1436
 total energy-change (2. order) :-0.3167657E+02  (-0.2968120E+02)
 number of electron       9.0000000 magnetization       3.0000000
 augmentation part        9.0000000 magnetization       3.0000000

 Free energy of the ion-electron system (eV)
  ---------------------------------------------------
  alpha Z        PSCENC =        39.18058524
  Ewald energy   TEWEN  =      -761.78120824
  -Hartree energ DENC   =      -149.59159932
  -exchange      EXHF   =         0.00000000
  -V(xc)+E(xc)   XCENC  =        17.82600536
  PAW double counting   =       719.99081943     -772.94345096
  entropy T*S    EENTRO =         0.00268195
  eigenvalues    EBANDS =        87.09628318
  atomic energy  EATOM  =       813.36343992
  Solvation  Ediel_sol  =         0.00000000
  ---------------------------------------------------
  free energy    TOTEN  =        -6.85644343 eV

  energy without entropy =       -6.85912538  energy(sigma->0) =       -6.85733742


--------------------------------------------------------------------------------------------------------




--------------------------------------- Iteration      1(   3)  ---------------------------------------


     EDDAV:  cpu time      0.1394: real time      0.1404
       DOS:  cpu time      0.0006: real time      0.0006
    --------------------------------------------
      LOOP:  cpu time      0.1401: real time      0.1410

 eigenvalue-minimisations  :  1600
 total energy-change (2. order) :-0.9423604E+00  (-0.9400759E+00)
 number of electron       9.0000000 magnetization       3.0000000
 augmentation part        9.0000000 magnetization       3.0000000

 Free energy of the ion-electron system (eV)
  ---------------------------------------------------
  alpha Z        PSCENC =        39.18058524
  Ewald energy   TEWEN  =      -761.78120824
  -Hartree energ DENC   =      -149.59159932
  -exchange      EXHF   =         0.00000000
  -V(xc)+E(xc)   XCENC  =        17.82600536
  PAW double counting   =       719.99081943     -772.94345096
  entropy T*S    EENTRO =         0.00137499
  eigenvalues    EBANDS =        86.15522973
  atomic energy  EATOM  =       813.36343992
  Solvation  Ediel_sol  =         0.00000000
  ---------------------------------------------------
  free energy    TOTEN  =        -7.79880384 eV

  energy without entropy =       -7.80017883  energy(sigma->0) =       -7.79926217


--------------------------------------------------------------------------------------------------------




--------------------------------------- Iteration      1(   4)  ---------------------------------------


     EDDAV:  cpu time      0.1371: real time      0.1379
       DOS:  cpu time      0.0006: real time      0.0007
    --------------------------------------------
      LOOP:  cpu time      0.1377: real time      0.1386

 eigenvalue-minimisations  :  1580
 total energy-change (2. order) :-0.8467805E-02  (-0.8465176E-02)
 number of electron       9.0000000 magnetization       3.0000000
 augmentation part        9.0000000 magnetization       3.0000000

 Free energy of the ion-electron system (eV)
  ---------------------------------------------------
  alpha Z        PSCENC =        39.18058524
  Ewald energy   TEWEN  =      -761.78120824
  -Hartree energ DENC   =      -149.59159932
  -exchange      EXHF   =         0.00000000
  -V(xc)+E(xc)   XCENC  =        17.82600536
  PAW double counting   =       719.99081943     -772.94345096
  entropy T*S    EENTRO =         0.00136337
  eigenvalues    EBANDS =        86.14677354
  atomic energy  EATOM  =       813.36343992
  Solvation  Ediel_sol  =         0.00000000
  ---------------------------------------------------
  free energy    TOTEN  =        -7.80727165 eV

  energy without entropy =       -7.80863502  energy(sigma->0) =       -7.80772610


--------------------------------------------------------------------------------------------------------




--------------------------------------- Iteration      1(   5)  ---------------------------------------


     EDDAV:  cpu time      0.1456: real time      0.1465
       DOS:  cpu time      0.0006: real time      0.0006
    CHARGE:  cpu time      0.0118: real time      0.0119
    MIXING:  cpu time      0.0002: real time      0.0002
    --------------------------------------------
      LOOP:  cpu time      0.1583: real time      0.1592

 eigenvalue-minimisations  :  1736
 total energy-change (2. order) :-0.1941011E-03  (-0.1940950E-03)
 number of electron       8.9999999 magnetization       1.4262841
 augmentation part        4.5922653 magnetization       1.0194224

 Broyden mixing:
  rms(total) = 0.11379E+01    rms(broyden)= 0.11379E+01
  rms(prec ) = 0.32073E+01
  weight for this iteration     100.00

 Free energy of the ion-electron system (eV)
  ---------------------------------------------------
  alpha Z        PSCENC =        39.18058524
  Ewald energy   TEWEN  =      -761.78120824
  -Hartree energ DENC   =      -149.59159932
  -exchange      EXHF   =         0.00000000
  -V(xc)+E(xc)   XCENC  =        17.82600536
  PAW double counting   =       719.99081943     -772.94345096
  entropy T*S    EENTRO =         0.00136325
  eigenvalues    EBANDS =        86.14657956
  atomic energy  EATOM  =       813.36343992
  Solvation  Ediel_sol  =         0.00000000
  ---------------------------------------------------
  free energy    TOTEN  =        -7.80746575 eV

  energy without entropy =       -7.80882900  energy(sigma->0) =       -7.80792017


--------------------------------------------------------------------------------------------------------




--------------------------------------- Iteration      1(   6)  ---------------------------------------


    POTLOK:  cpu time      0.0037: real time      0.0039
    SETDIJ:  cpu time      0.0048: real time      0.0049
     EDDAV:  cpu time      0.1451: real time      0.1458
       DOS:  cpu time      0.0007: real time      0.0007
    CHARGE:  cpu time      0.0108: real time      0.0109
    MIXING:  cpu time      0.0002: real time      0.0002
    --------------------------------------------
      LOOP:  cpu time      0.1653: real time      0.1663

 eigenvalue-minimisations  :  1732
 total energy-change (2. order) : 0.6145690E+00  (-0.1149933E+01)
 number of electron       8.9999998 magnetization       1.5816905
 augmentation part        5.3280895 magnetization       1.4474902

 Broyden mixing:
  rms(total) = 0.42541E+00    rms(broyden)= 0.42540E+00
  rms(prec ) = 0.88146E+00
  weight for this iteration     100.00

 eigenvalues of (default mixing * dielectric matrix)
  average eigenvalue GAMMA=   0.8907
  0.8907

 Free energy of the ion-electron system (eV)
  ---------------------------------------------------
  alpha Z        PSCENC =        39.18058524
  Ewald energy   TEWEN  =      -761.78120824
  -Hartree energ DENC   =      -131.30660244
  -exchange      EXHF   =         0.00000000
  -V(xc)+E(xc)   XCENC  =        16.30473776
  PAW double counting   =       794.30194071     -842.23077309
  entropy T*S    EENTRO =        -0.00562290
  eigenvalues    EBANDS =        64.98060630
  atomic energy  EATOM  =       813.36343992
  Solvation  Ediel_sol  =         0.00000000
  ---------------------------------------------------
  free energy    TOTEN  =        -7.19289674 eV

  energy without entropy =       -7.18727383  energy(sigma->0) =       -7.19102244


--------------------------------------------------------------------------------------------------------




--------------------------------------- Iteration      1(   7)  ---------------------------------------


    POTLOK:  cpu time      0.0035: real time      0.0037
    SETDIJ:  cpu time      0.0047: real time      0.0047
     EDDAV:  cpu time      0.1414: real time      0.1422
       DOS:  cpu time      0.0007: real time      0.0007
    CHARGE:  cpu time      0.0109: real time      0.0109
    MIXING:  cpu time      0.0002: real time      0.0002
    --------------------------------------------
      LOOP:  cpu time      0.1614: real time      0.1624

 eigenvalue-minimisations  :  1680
 total energy-change (2. order) : 0.1607739E+00  (-0.1314929E+00)
 number of electron       8.9999999 magnetization       1.6659279
 augmentation part        5.0922477 magnetization       1.4939808

 Broyden mixing:
  rms(total) = 0.24223E+00    rms(broyden)= 0.24223E+00
  rms(prec ) = 0.39875E+00
  weight for this iteration     100.00

 eigenvalues of (default mixing * dielectric matrix)
  average eigenvalue GAMMA=   0.7445
  0.9757  0.5132

 Free energy of the ion-electron system (eV)
  ---------------------------------------------------
  alpha Z        PSCENC =        39.18058524
  Ewald energy   TEWEN  =      -761.78120824
  -Hartree energ DENC   =      -134.96963021
  -exchange      EXHF   =         0.00000000
  -V(xc)+E(xc)   XCENC  =        16.55094841
  PAW double counting   =       828.55058003     -879.75567752
  entropy T*S    EENTRO =        -0.00565439
  eigenvalues    EBANDS =        71.83449388
  atomic energy  EATOM  =       813.36343992
  Solvation  Ediel_sol  =         0.00000000
  ---------------------------------------------------
  free energy    TOTEN  =        -7.03212286 eV

  energy without entropy =       -7.02646848  energy(sigma->0) =       -7.03023807


--------------------------------------------------------------------------------------------------------




--------------------------------------- Iteration      1(   8)  ---------------------------------------


    POTLOK:  cpu time      0.0035: real time      0.0037
    SETDIJ:  cpu time      0.0047: real time      0.0047
     EDDAV:  cpu time      0.1494: real time      0.1502
       DOS:  cpu time      0.0007: real time      0.0007
    CHARGE:  cpu time      0.0106: real time      0.0107
    MIXING:  cpu time      0.0002: real time      0.0002
    --------------------------------------------
      LOOP:  cpu time      0.1691: real time      0.1701

 eigenvalue-minimisations  :  1792
 total energy-change (2. order) : 0.1003333E-01  (-0.1566976E-02)
 number of electron       8.9999999 magnetization       1.7001170
 augmentation part        5.1080278 magnetization       1.5219581

 Broyden mixing:
  rms(total) = 0.12557E+00    rms(broyden)= 0.12557E+00
  rms(prec ) = 0.21828E+00
  weight for this iteration     100.00

 eigenvalues of (default mixing * dielectric matrix)
  average eigenvalue GAMMA=   1.0900
  1.9150  0.7999  0.5550

 Free energy of the ion-electron system (eV)
  ---------------------------------------------------
  alpha Z        PSCENC =        39.18058524
  Ewald energy   TEWEN  =      -761.78120824
  -Hartree energ DENC   =      -133.64796752
  -exchange      EXHF   =         0.00000000
  -V(xc)+E(xc)   XCENC  =        16.52777553
  PAW double counting   =       857.33674024     -909.25825763
  entropy T*S    EENTRO =        -0.00457737
  eigenvalues    EBANDS =        71.26138028
  atomic energy  EATOM  =       813.36343992
  Solvation  Ediel_sol  =         0.00000000
  ---------------------------------------------------
  free energy    TOTEN  =        -7.02208954 eV

  energy without entropy =       -7.01751217  energy(sigma->0) =       -7.02056375


--------------------------------------------------------------------------------------------------------




--------------------------------------- Iteration      1(   9)  ---------------------------------------


    POTLOK:  cpu time      0.0035: real time      0.0037
    SETDIJ:  cpu time      0.0047: real time      0.0047
     EDDAV:  cpu time      0.1759: real time      0.1768
       DOS:  cpu time      0.0007: real time      0.0007
    CHARGE:  cpu time      0.0112: real time      0.0112
    MIXING:  cpu time      0.0003: real time      0.0003
    --------------------------------------------
      LOOP:  cpu time      0.1962: real time      0.1974

 eigenvalue-minimisations  :  1968
 total energy-change (2. order) : 0.6273509E-02  (-0.7230140E-03)
 number of electron       8.9999998 magnetization       1.6747353
 augmentation part        5.1229354 magnetization       1.4978854

 Broyden mixing:
  rms(total) = 0.31221E-01    rms(broyden)= 0.31221E-01
  rms(prec ) = 0.50174E-01
  weight for this iteration     100.00

 eigenvalues of (default mixing * dielectric matrix)
  average eigenvalue GAMMA=   1.0952
  2.2820  0.7330  0.7330  0.6330

 Free energy of the ion-electron system (eV)
  ---------------------------------------------------
  alpha Z        PSCENC =        39.18058524
  Ewald energy   TEWEN  =      -761.78120824
  -Hartree energ DENC   =      -132.29460439
  -exchange      EXHF   =         0.00000000
  -V(xc)+E(xc)   XCENC  =        16.49300127
  PAW double counting   =       890.76306915     -943.49542276
  entropy T*S    EENTRO =        -0.00400898
  eigenvalues    EBANDS =        70.75933276
  atomic energy  EATOM  =       813.36343992
  Solvation  Ediel_sol  =         0.00000000
  ---------------------------------------------------
  free energy    TOTEN  =        -7.01581603 eV

  energy without entropy =       -7.01180705  energy(sigma->0) =       -7.01447970


--------------------------------------------------------------------------------------------------------




--------------------------------------- Iteration      1(  10)  ---------------------------------------


    POTLOK:  cpu time      0.0037: real time      0.0039
    SETDIJ:  cpu time      0.0049: real time      0.0049
     EDDAV:  cpu time      0.1655: real time      0.1664
       DOS:  cpu time      0.0007: real time      0.0007
    CHARGE:  cpu time      0.0108: real time      0.0108
    MIXING:  cpu time      0.0002: real time      0.0002
    --------------------------------------------
      LOOP:  cpu time      0.1858: real time      0.1870

 eigenvalue-minimisations  :  2032
 total energy-change (2. order) : 0.3469195E-03  (-0.2503068E-04)
 number of electron       8.9999998 magnetization       1.6631689
 augmentation part        5.1255661 magnetization       1.4885647

 Broyden mixing:
  rms(total) = 0.68737E-02    rms(broyden)= 0.68737E-02
  rms(prec ) = 0.10459E-01
  weight for this iteration     100.00

 eigenvalues of (default mixing * dielectric matrix)
  average eigenvalue GAMMA=   1.2804
  2.5623  1.6327  0.8676  0.7087  0.6309

 Free energy of the ion-electron system (eV)
  ---------------------------------------------------
  alpha Z        PSCENC =        39.18058524
  Ewald energy   TEWEN  =      -761.78120824
  -Hartree energ DENC   =      -131.95316380
  -exchange      EXHF   =         0.00000000
  -V(xc)+E(xc)   XCENC  =        16.46801000
  PAW double counting   =       901.52415813     -954.52208848
  entropy T*S    EENTRO =        -0.00421326
  eigenvalues    EBANDS =        70.70901136
  atomic energy  EATOM  =       813.36343992
  Solvation  Ediel_sol  =         0.00000000
  ---------------------------------------------------
  free energy    TOTEN  =        -7.01546911 eV

  energy without entropy =       -7.01125585  energy(sigma->0) =       -7.01406469


--------------------------------------------------------------------------------------------------------




--------------------------------------- Iteration      1(  11)  ---------------------------------------


    POTLOK:  cpu time      0.0035: real time      0.0037
    SETDIJ:  cpu time      0.0049: real time      0.0049
     EDDAV:  cpu time      0.1573: real time      0.1581
       DOS:  cpu time      0.0007: real time      0.0007
    CHARGE:  cpu time      0.0106: real time      0.0107
    MIXING:  cpu time      0.0002: real time      0.0002
    --------------------------------------------
      LOOP:  cpu time      0.1772: real time      0.1783

 eigenvalue-minimisations  :  1920
 total energy-change (2. order) :-0.4522020E-05  (-0.1576902E-04)
 number of electron       8.9999998 magnetization       1.6621092
 augmentation part        5.1257984 magnetization       1.4869486

 Broyden mixing:
  rms(total) = 0.43331E-02    rms(broyden)= 0.43331E-02
  rms(prec ) = 0.44412E-02
  weight for this iteration     100.00

 eigenvalues of (default mixing * dielectric matrix)
  average eigenvalue GAMMA=   1.1664
  2.4618  1.6941  0.8437  0.6961  0.6961  0.6063

 Free energy of the ion-electron system (eV)
  ---------------------------------------------------
  alpha Z        PSCENC =        39.18058524
  Ewald energy   TEWEN  =      -761.78120824
  -Hartree energ DENC   =      -131.86603618
  -exchange      EXHF   =         0.00000000
  -V(xc)+E(xc)   XCENC  =        16.45404493
  PAW double counting   =       906.24672711     -959.33480763
  entropy T*S    EENTRO =        -0.00441432
  eigenvalues    EBANDS =        70.72619553
  atomic energy  EATOM  =       813.36343992
  Solvation  Ediel_sol  =         0.00000000
  ---------------------------------------------------
  free energy    TOTEN  =        -7.01547363 eV

  energy without entropy =       -7.01105931  energy(sigma->0) =       -7.01400219


--------------------------------------------------------------------------------------------------------




--------------------------------------- Iteration      1(  12)  ---------------------------------------


    POTLOK:  cpu time      0.0035: real time      0.0037
    SETDIJ:  cpu time      0.0047: real time      0.0047
     EDDAV:  cpu time      0.1252: real time      0.1259
       DOS:  cpu time      0.0007: real time      0.0007
    --------------------------------------------
      LOOP:  cpu time      0.1341: real time      0.1349

 eigenvalue-minimisations  :  1400
 total energy-change (2. order) : 0.2807898E-06  (-0.2735042E-06)
 number of electron       8.9999998 magnetization       1.6621092
 augmentation part        5.1257984 magnetization       1.4869486

 Free energy of the ion-electron system (eV)
  ---------------------------------------------------
  alpha Z        PSCENC =        39.18058524
  Ewald energy   TEWEN  =      -761.78120824
  -Hartree energ DENC   =      -131.87976038
  -exchange      EXHF   =         0.00000000
  -V(xc)+E(xc)   XCENC  =        16.45476516
  PAW double counting   =       906.09023032     -959.16395950
  entropy T*S    EENTRO =        -0.00440446
  eigenvalues    EBANDS =        70.72483859
  atomic energy  EATOM  =       813.36343992
  Solvation  Ediel_sol  =         0.00000000
  ---------------------------------------------------
  free energy    TOTEN  =        -7.01547335 eV

  energy without entropy =       -7.01106889  energy(sigma->0) =       -7.01400520


--------------------------------------------------------------------------------------------------------




 average (electrostatic) potential at core
  the test charge radii are     1.0452
  (the norm of the test charge is              1.0000)
       1 -78.2483
 
 
 
 E-fermi :  10.3988     XC(G=0): -13.4258     alpha+bet :-17.7917

 Fermi energy:        10.3988214484

 spin component 1

 k-point     1 :       0.0833    0.0833    0.0833
  band No.  band energies     occupation 
      1       1.6445      1.00000
      2       7.5833      1.00000
      3       7.7233      1.00000
      4       7.7233      1.00000
      5       8.7019      1.00000
      6       8.7019      1.00000
      7      32.7086      0.00000
      8      35.4401      0.00000
      9      37.4021      0.00000
     10      37.4021      0.00000
     11      41.7507      0.00000
     12      41.7511      0.00000

 k-point     2 :       0.2500    0.0833    0.0833
  band No.  band energies     occupation 
      1       3.0171      1.00000
      2       7.2650      1.00000
      3       7.8747      1.00000
      4       7.9653      1.00000
      5       8.5003      1.00000
      6       8.9776      1.00000
      7      28.0174      0.00000
      8      31.4748      0.00000
      9      36.6018      0.00000
     10      39.0256      0.00000
     11      39.5304      0.00000
     12      41.0721      0.00000

 k-point     3 :       0.4167    0.0833    0.0833
  band No.  band energies     occupation 
      1       5.0490      1.00000
      2       7.5835      1.00000
      3       7.7499      1.00000
      4       7.8200      1.00000
      5       9.1444      1.00000
      6       9.9470      1.00317
      7      20.2605      0.00000
      8      30.5842      0.00000
      9      34.3780      0.00000
     10      36.4319      0.00000
     11      38.9333      0.00000
     12      40.4351      0.00000

 k-point     4 :      -0.4167    0.0833    0.0833
  band No.  band energies     occupation 
      1       5.3153      1.00000
      2       7.4075      1.00000
      3       7.6584      1.00000
      4       8.6741      1.00000
      5       9.6225      1.00000
      6      11.1170     -0.00000
      7      16.7968      0.00000
      8      30.9920      0.00000
      9      33.5312      0.00000
     10      33.9197      0.00000
     11      40.0166      0.00000
     12      40.0417      0.00000

 k-point     5 :      -0.2500    0.0833    0.0833
  band No.  band energies     occupation 
      1       4.5397      1.00000
      2       7.3115      1.00000
      3       7.6794      1.00000
      4       7.8815      1.00000
      5       9.1909      1.00000
      6       9.2799      1.00000
      7      22.6665      0.00000
      8      32.2889      0.00000
      9      33.0556      0.00000
     10      36.3142      0.00000
     11      40.0157      0.00000
     12      42.5452      0.00000

 k-point     6 :      -0.0833    0.0833    0.0833
  band No.  band energies     occupation 
      1       2.3543      1.00000
      2       7.3440      1.00000
      3       7.8983      1.00000
      4       7.9080      1.00000
      5       8.4974      1.00000
      6       8.8321      1.00000
      7      30.7321      0.00000
      8      33.7559      0.00000
      9      34.4993      0.00000
     10      37.1851      0.00000
     11      41.3380      0.00000
     12      43.6475      0.00000

 k-point     7 :       0.2500    0.2500    0.0833
  band No.  band energies     occupation 
      1       3.6274      1.00000
      2       6.9132      1.00000
      3       7.9569      1.00000
      4       8.2597      1.00000
      5       8.5752      1.00000
      6       9.0594      1.00000
      7      28.4986      0.00000
      8      31.4903      0.00000
      9      31.9929      0.00000
     10      34.1184      0.00000
     11      39.0753      0.00000
     12      45.1655      0.00000

 k-point     8 :       0.4167    0.2500    0.0833
  band No.  band energies     occupation 
      1       5.3492      1.00000
      2       6.6177      1.00000
      3       7.5333      1.00000
      4       8.5430      1.00000
      5       9.1652      1.00000
      6      10.2852      0.90529
      7      23.6134      0.00000
      8      27.1003      0.00000
      9      29.5729      0.00000
     10      34.8934      0.00000
     11      39.8781      0.00000
     12      44.0945      0.00000

 k-point     9 :      -0.4167    0.2500    0.0833
  band No.  band energies     occupation 
      1       6.0306      1.00000
      2       6.7290      1.00000
      3       7.6119      1.00000
      4       8.2495      1.00000
      5       9.5756      1.00000
      6      13.6794     -0.00000
      7      17.2362      0.00000
      8      26.1439      0.00000
      9      28.0947      0.00000
     10      35.0169      0.00000
     11      41.4458      0.00000
     12      46.4314      0.00000

 k-point    10 :      -0.2500    0.2500    0.0833
  band No.  band energies     occupation 
      1       5.9347      1.00000
      2       6.9553      1.00000
      3       7.1567      1.00000
      4       8.3210      1.00000
      5       9.0538      1.00000
      6      11.4817     -0.00000
      7      21.1874      0.00000
      8      25.0058      0.00000
      9      30.6132      0.00000
     10      36.8629      0.00000
     11      39.8911      0.00000
     12      45.1632      0.00000

 k-point    11 :      -0.0833    0.2500    0.0833
  band No.  band energies     occupation 
      1       4.1870      1.00000
      2       6.9919      1.00000
      3       7.7174      1.00000
      4       8.1726      1.00000
      5       8.6483      1.00000
      6       9.4357      1.00000
      7      25.6211      0.00000
      8      29.1418      0.00000
      9      34.1805      0.00000
     10      36.5658      0.00000
     11      40.9349      0.00000
     12      41.7919      0.00000

 k-point    12 :       0.4167    0.4167    0.0833
  band No.  band energies     occupation 
      1       5.2900      1.00000
      2       6.0350      1.00000
      3       8.8736      1.00000
      4       9.1579      1.00000
      5       9.6019      1.00000
      6      10.8335     -0.00439
      7      24.0641      0.00000
      8      24.9795      0.00000
      9      26.8546      0.00000
     10      31.4737      0.00000
     11      35.7962      0.00000
     12      47.0541      0.00000

 k-point    13 :      -0.4167    0.4167    0.0833
  band No.  band energies     occupation 
      1       5.5632      1.00000
      2       6.0815      1.00000
      3       8.4195      1.00000
      4       9.1222      1.00000
      5       9.7794      1.00005
      6      14.5048     -0.00000
      7      20.6770      0.00000
      8      21.5490      0.00000
      9      24.9200      0.00000
     10      33.6087      0.00000
     11      38.7844      0.00000
     12      46.9792      0.00000

 k-point    14 :      -0.2500    0.4167    0.0833
  band No.  band energies     occupation 
      1       6.2983      1.00000
      2       6.5107      1.00000
      3       7.4097      1.00000
      4       8.5594      1.00000
      5       9.4934      1.00000
      6      15.4179     -0.00000
      7      17.7034      0.00000
      8      22.3116      0.00000
      9      27.3213      0.00000
     10      34.9263      0.00000
     11      43.3337      0.00000
     12      46.2920      0.00000

 k-point    15 :      -0.0833    0.4167    0.0833
  band No.  band energies     occupation 
      1       5.5563      1.00000
      2       7.2164      1.00000
      3       7.7918      1.00000
      4       7.9519      1.00000
      5       9.4598      1.00000
      6      11.3594     -0.00000
      7      18.4218      0.00000
      8      28.8230      0.00000
      9      31.1782      0.00000
     10      35.2709      0.00000
     11      39.9672      0.00000
     12      43.4364      0.00000

 k-point    16 :      -0.4167   -0.4167    0.0833
  band No.  band energies     occupation 
      1       5.2098      1.00000
      2       5.8119      1.00000
      3       9.4036      1.00000
      4       9.4149      1.00000
      5       9.8043      1.00011
      6      13.0123     -0.00000
      7      20.6811      0.00000
      8      23.8959      0.00000
      9      25.7594      0.00000
     10      31.2059      0.00000
     11      35.4289      0.00000
     12      47.1265      0.00000

 k-point    17 :      -0.2500   -0.4167    0.0833
  band No.  band energies     occupation 
      1       5.6788      1.00000
      2       6.2714      1.00000
      3       7.9303      1.00000
      4       8.9506      1.00000
      5       9.5565      1.00000
      6      12.0947     -0.00000
      7      22.0574      0.00000
      8      24.6213      0.00000
      9      25.9231      0.00000
     10      34.0015      0.00000
     11      39.1029      0.00000
     12      46.0237      0.00000

 k-point    18 :      -0.2500   -0.2500    0.0833
  band No.  band energies     occupation 
      1       4.9078      1.00000
      2       6.4340      1.00000
      3       8.0657      1.00000
      4       8.7202      1.00000
      5       9.3106      1.00000
      6       9.3323      1.00000
      7      26.4046      0.00000
      8      28.6475      0.00000
      9      28.8516      0.00000
     10      32.1484      0.00000
     11      36.8285      0.00000
     12      46.9698      0.00000

 k-point    19 :       0.2500    0.2500    0.2500
  band No.  band energies     occupation 
      1       3.5880      1.00000
      2       7.3423      1.00000
      3       7.8410      1.00000
      4       7.8410      1.00000
      5       8.8755      1.00000
      6       8.8755      1.00000
      7      25.1135      0.00000
      8      33.7059      0.00000
      9      36.0677      0.00000
     10      36.0677      0.00000
     11      41.3226      0.00000
     12      41.3226      0.00000

 k-point    20 :       0.4167    0.2500    0.2500
  band No.  band energies     occupation 
      1       5.0999      1.00000
      2       7.0606      1.00000
      3       7.5145      1.00000
      4       8.0940      1.00000
      5       8.6783      1.00000
      6      10.2143      1.01515
      7      23.1786      0.00000
      8      26.8390      0.00000
      9      35.1278      0.00000
     10      36.0745      0.00000
     11      40.3289      0.00000
     12      41.8366      0.00000

 k-point    21 :      -0.4167    0.2500    0.2500
  band No.  band energies     occupation 
      1       6.2667      1.00000
      2       6.8046      1.00000
      3       7.3125      1.00000
      4       8.2986      1.00000
      5       9.1845      1.00000
      6      13.1211     -0.00000
      7      19.1878      0.00000
      8      23.3670      0.00000
      9      31.4830      0.00000
     10      33.0870      0.00000
     11      44.2286      0.00000
     12      44.6250      0.00000

 k-point    22 :      -0.2500    0.2500    0.2500
  band No.  band energies     occupation 
      1       5.8527      1.00000
      2       6.4914      1.00000
      3       7.7619      1.00000
      4       8.4881      1.00000
      5       9.6803      1.00000
      6      12.7828     -0.00000
      7      19.1901      0.00000
      8      25.2177      0.00000
      9      28.7871      0.00000
     10      32.3773      0.00000
     11      42.8246      0.00000
     12      46.3994      0.00000

 k-point    23 :       0.4167    0.4167    0.2500
  band No.  band energies     occupation 
      1       5.4404      1.00000
      2       6.9541      1.00000
      3       7.5576      1.00000
      4       8.1165      1.00000
      5       9.5762      1.00000
      6      10.5011      0.12378
      7      20.6860      0.00000
      8      29.4798      0.00000
      9      30.5664      0.00000
     10      33.2399      0.00000
     11      43.3162      0.00000
     12      44.0326      0.00000

 k-point    24 :      -0.4167    0.4167    0.2500
  band No.  band energies     occupation 
      1       6.2312      1.00000
      2       6.6342      1.00000
      3       7.1789      1.00000
      4       8.6331      1.00000
      5       9.4809      1.00000
      6      13.6471     -0.00000
      7      19.6788      0.00000
      8      23.6763      0.00000
      9      25.9351      0.00000
     10      37.7140      0.00000
     11      40.1544      0.00000
     12      44.6921      0.00000

 k-point    25 :      -0.2500    0.4167    0.2500
  band No.  band energies     occupation 
      1       6.0260      1.00000
      2       6.5967      1.00000
      3       7.4046      1.00000
      4       8.7289      1.00000
      5       9.7704      1.00004
      6      16.4494      0.00000
      7      18.7568      0.00000
      8      21.6644      0.00000
      9      23.3270      0.00000
     10      37.6486      0.00000
     11      42.0964      0.00000
     12      43.8776      0.00000

 k-point    26 :      -0.4167   -0.4167    0.2500
  band No.  band energies     occupation 
      1       5.8505      1.00000
      2       6.2772      1.00000
      3       8.0271      1.00000
      4       8.8417      1.00000
      5       9.6081      1.00000
      6      15.5604     -0.00000
      7      18.1974      0.00000
      8      21.5091      0.00000
      9      27.8570      0.00000
     10      32.1482      0.00000
     11      42.5003      0.00000
     12      47.0109      0.00000

 k-point    27 :       0.4167    0.4167    0.4167
  band No.  band energies     occupation 
      1       5.0886      1.00000
      2       7.5874      1.00000
      3       7.5874      1.00000
      4       9.1486      1.00000
      5       9.5007      1.00000
      6       9.5007      1.00000
      7      18.0696      0.00000
      8      32.2690      0.00000
      9      35.4376      0.00000
     10      35.4376      0.00000
     11      38.4181      0.00000
     12      38.4181      0.00000

 k-point    28 :      -0.4167    0.4167    0.4167
  band No.  band energies     occupation 
      1       5.7419      1.00000
      2       7.0736      1.00000
      3       7.9383      1.00000
      4       7.9503      1.00000
      5       9.4795      1.00000
      6      12.6714     -0.00000
      7      16.9995      0.00000
      8      27.3019      0.00000
      9      32.1692      0.00000
     10      33.1015      0.00000
     11      42.2578      0.00000
     12      42.5652      0.00000
 Fermi energy:        10.3988214484

 spin component 2

 k-point     1 :       0.0833    0.0833    0.0833
  band No.  band energies     occupation 
      1       1.6617      1.00000
      2       9.1827      1.00000
      3       9.3530      1.00000
      4       9.3530      1.00000
      5      10.6757     -0.03233
      6      10.6757     -0.03233
      7      32.5850      0.00000
      8      35.4801      0.00000
      9      37.6265      0.00000
     10      37.6265      0.00000
     11      41.9219      0.00000
     12      41.9846      0.00000

 k-point     2 :       0.2500    0.0833    0.0833
  band No.  band energies     occupation 
      1       3.0581      1.00000
      2       8.7576      1.00000
      3       9.5414      1.00000
      4       9.6416      1.00000
      5      10.4118      0.44530
      6      10.9143     -0.00081
      7      28.3455      0.00000
      8      31.6372      0.00000
      9      36.6016      0.00000
     10      39.2256      0.00000
     11      39.5127      0.00000
     12      41.3680      0.00000

 k-point     3 :       0.4167    0.0833    0.0833
  band No.  band energies     occupation 
      1       5.5651      1.00000
      2       8.7483      1.00000
      3       9.2773      1.00000
      4       9.4895      1.00000
      5      11.0259     -0.00004
      6      11.7090     -0.00000
      7      20.9130      0.00000
      8      30.6922      0.00000
      9      34.4278      0.00000
     10      36.7777      0.00000
     11      39.2289      0.00000
     12      40.5987      0.00000

 k-point     4 :      -0.4167    0.0833    0.0833
  band No.  band energies     occupation 
      1       6.2553      1.00000
      2       9.0219      1.00000
      3       9.3847      1.00000
      4       9.5725      1.00000
      5      11.5654     -0.00000
      6      12.2326     -0.00000
      7      17.7767      0.00000
      8      30.9104      0.00000
      9      33.8658      0.00000
     10      34.1679      0.00000
     11      40.2425      0.00000
     12      40.2837      0.00000

 k-point     5 :      -0.2500    0.0833    0.0833
  band No.  band energies     occupation 
      1       4.7797      1.00000
      2       8.5363      1.00000
      3       9.3903      1.00000
      4       9.6016      1.00000
      5      10.9648     -0.00023
      6      11.2201     -0.00000
      7      23.1954      0.00000
      8      32.1682      0.00000
      9      33.4157      0.00000
     10      36.6530      0.00000
     11      40.1717      0.00000
     12      42.7203      0.00000

 k-point     6 :      -0.0833    0.0833    0.0833
  band No.  band energies     occupation 
      1       2.3787      1.00000
      2       8.8925      1.00000
      3       9.5466      1.00000
      4       9.5566      1.00000
      5      10.4155      0.42987
      6      10.8140     -0.00621
      7      30.9182      0.00000
      8      33.6995      0.00000
      9      34.8315      0.00000
     10      37.2435      0.00000
     11      41.5990      0.00000
     12      44.1804      0.00000

 k-point     7 :       0.2500    0.2500    0.0833
  band No.  band energies     occupation 
      1       3.7005      1.00000
      2       8.3835      1.00000
      3       9.6862      1.00000
      4       9.9512      1.00344
      5      10.3060      0.84966
      6      11.0525     -0.00002
      7      28.8201      0.00000
      8      31.8373      0.00000
      9      32.0216      0.00000
     10      34.2792      0.00000
     11      39.7266      0.00000
     12      45.1806      0.00000

 k-point     8 :       0.4167    0.2500    0.0833
  band No.  band energies     occupation 
      1       5.7634      1.00000
      2       7.9704      1.00000
      3       9.0929      1.00000
      4      10.3204      0.80524
      5      10.9803     -0.00016
      6      11.9387     -0.00000
      7      24.0723      0.00000
      8      27.4225      0.00000
      9      29.8895      0.00000
     10      35.0858      0.00000
     11      40.2410      0.00000
     12      44.3557      0.00000

 k-point     9 :      -0.4167    0.2500    0.0833
  band No.  band energies     occupation 
      1       7.1122      1.00000
      2       8.0234      1.00000
      3       8.9117      1.00000
      4      10.0490      1.01645
      5      11.4811     -0.00000
      6      14.5622     -0.00000
      7      18.0490      0.00000
      8      26.5012      0.00000
      9      28.4581      0.00000
     10      35.1520      0.00000
     11      41.6252      0.00000
     12      47.1675      0.00000

 k-point    10 :      -0.2500    0.2500    0.0833
  band No.  band energies     occupation 
      1       6.5331      1.00000
      2       8.2299      1.00000
      3       8.7110      1.00000
      4      10.1318      1.03384
      5      10.8606     -0.00261
      6      12.9247     -0.00000
      7      21.7563      0.00000
      8      25.4039      0.00000
      9      30.8981      0.00000
     10      36.9919      0.00000
     11      40.0089      0.00000
     12      45.5893      0.00000

 k-point    11 :      -0.0833    0.2500    0.0833
  band No.  band energies     occupation 
      1       4.3014      1.00000
      2       8.4108      1.00000
      3       9.4112      1.00000
      4       9.9032      1.00128
      5      10.4540      0.27616
      6      11.3229     -0.00000
      7      26.0372      0.00000
      8      29.4119      0.00000
      9      34.2959      0.00000
     10      36.7235      0.00000
     11      41.1711      0.00000
     12      42.0964      0.00000

 k-point    12 :       0.4167    0.4167    0.0833
  band No.  band energies     occupation 
      1       6.2217      1.00000
      2       7.3657      1.00000
      3      10.1449      1.03517
      4      11.0485     -0.00002
      5      11.5639     -0.00000
      6      11.9829     -0.00000
      7      24.5518      0.00000
      8      25.3432      0.00000
      9      27.1018      0.00000
     10      31.8061      0.00000
     11      36.2401      0.00000
     12      50.7228      0.00000

 k-point    13 :      -0.4167    0.4167    0.0833
  band No.  band energies     occupation 
      1       6.7850      1.00000
      2       7.3659      1.00000
      3       9.7572      1.00003
      4      11.0914     -0.00001
      5      11.6537     -0.00000
      6      15.1468     -0.00000
      7      21.2989      0.00000
      8      22.0761      0.00000
      9      25.2314      0.00000
     10      33.8650      0.00000
     11      39.1731      0.00000
     12      48.2922      0.00000

 k-point    14 :      -0.2500    0.4167    0.0833
  band No.  band energies     occupation 
      1       7.6026      1.00000
      2       7.6688      1.00000
      3       8.7057      1.00000
      4      10.4407      0.32722
      5      11.3403     -0.00000
      6      16.1937      0.00000
      7      18.3778      0.00000
      8      22.8604      0.00000
      9      27.6789      0.00000
     10      35.0979      0.00000
     11      43.4254      0.00000
     12      47.3677      0.00000

 k-point    15 :      -0.0833    0.4167    0.0833
  band No.  band energies     occupation 
      1       6.3953      1.00000
      2       8.5721      1.00000
      3       9.0765      1.00000
      4       9.6668      1.00000
      5      11.3570     -0.00000
      6      12.6634     -0.00000
      7      19.1807      0.00000
      8      29.0314      0.00000
      9      31.4686      0.00000
     10      35.4149      0.00000
     11      40.2072      0.00000
     12      43.5698      0.00000

 k-point    16 :      -0.4167   -0.4167    0.0833
  band No.  band energies     occupation 
      1       6.3839      1.00000
      2       7.1104      1.00000
      3      10.9300     -0.00056
      4      11.4301     -0.00000
      5      11.6963     -0.00000
      6      13.4764     -0.00000
      7      21.4847      0.00000
      8      24.1712      0.00000
      9      25.9540      0.00000
     10      31.5817      0.00000
     11      35.8663      0.00000
     12      50.8681      0.00000

 k-point    17 :      -0.2500   -0.4167    0.0833
  band No.  band energies     occupation 
      1       6.6667      1.00000
      2       7.5815      1.00000
      3       9.2433      1.00000
      4      10.8145     -0.00616
      5      11.4429     -0.00000
      6      13.2246     -0.00000
      7      22.5107      0.00000
      8      25.0817      0.00000
      9      26.2817      0.00000
     10      34.2304      0.00000
     11      39.4755      0.00000
     12      46.4727      0.00000

 k-point    18 :      -0.2500   -0.2500    0.0833
  band No.  band energies     occupation 
      1       5.2639      1.00000
      2       7.8251      1.00000
      3       9.5472      1.00000
      4      10.4884      0.15993
      5      10.9308     -0.00055
      6      11.3273     -0.00000
      7      26.7568      0.00000
      8      28.9312      0.00000
      9      29.1618      0.00000
     10      32.4102      0.00000
     11      37.3329      0.00000
     12      48.7721      0.00000

 k-point    19 :       0.2500    0.2500    0.2500
  band No.  band energies     occupation 
      1       3.6756      1.00000
      2       8.7118      1.00000
      3       9.5414      1.00000
      4       9.5414      1.00000
      5      10.7887     -0.00938
      6      10.7887     -0.00938
      7      25.5483      0.00000
      8      33.4620      0.00000
      9      36.4252      0.00000
     10      36.4252      0.00000
     11      41.5076      0.00000
     12      41.5076      0.00000

 k-point    20 :       0.4167    0.2500    0.2500
  band No.  band energies     occupation 
      1       5.3590      1.00000
      2       8.3881      1.00000
      3       9.1482      1.00000
      4       9.8984      1.00115
      5      10.4756      0.20011
      6      11.9708     -0.00000
      7      23.6853      0.00000
      8      27.1810      0.00000
      9      35.1215      0.00000
     10      36.4192      0.00000
     11      40.2984      0.00000
     12      42.1177      0.00000

 k-point    21 :      -0.4167    0.2500    0.2500
  band No.  band energies     occupation 
      1       7.1840      1.00000
      2       8.1822      1.00000
      3       8.6094      1.00000
      4      10.1488      1.03536
      5      11.0079     -0.00007
      6      14.2274     -0.00000
      7      19.8392      0.00000
      8      23.8422      0.00000
      9      31.8403      0.00000
     10      33.1927      0.00000
     11      44.2158      0.00000
     12      44.7991      0.00000

 k-point    22 :      -0.2500    0.2500    0.2500
  band No.  band energies     occupation 
      1       6.9149      1.00000
      2       7.7355      1.00000
      3       9.0794      1.00000
      4      10.3162      0.81856
      5      11.6199     -0.00000
      6      13.8139     -0.00000
      7      19.7896      0.00000
      8      25.6505      0.00000
      9      29.0917      0.00000
     10      32.6166      0.00000
     11      43.1639      0.00000
     12      46.5636      0.00000

 k-point    23 :       0.4167    0.4167    0.2500
  band No.  band energies     occupation 
      1       6.0413      1.00000
      2       8.1809      1.00000
      3       9.0887      1.00000
      4       9.8765      1.00069
      5      11.5331     -0.00000
      6      11.9446     -0.00000
      7      21.2759      0.00000
      8      29.6501      0.00000
      9      30.9002      0.00000
     10      33.5070      0.00000
     11      43.4260      0.00000
     12      44.3792      0.00000

 k-point    24 :      -0.4167    0.4167    0.2500
  band No.  band energies     occupation 
      1       7.2996      1.00000
      2       7.9328      1.00000
      3       8.5060      1.00000
      4      10.4937      0.14423
      5      11.3236     -0.00000
      6      14.6422     -0.00000
      7      20.2606      0.00000
      8      24.1150      0.00000
      9      26.3549      0.00000
     10      37.8357      0.00000
     11      40.2885      0.00000
     12      45.3650      0.00000

 k-point    25 :      -0.2500    0.4167    0.2500
  band No.  band energies     occupation 
      1       7.3095      1.00000
      2       7.8621      1.00000
      3       8.6916      1.00000
      4      10.6308     -0.03475
      5      11.6372     -0.00000
      6      17.1019      0.00000
      7      19.3217      0.00000
      8      22.2670      0.00000
      9      23.7695      0.00000
     10      37.8001      0.00000
     11      42.2474      0.00000
     12      44.2255      0.00000

 k-point    26 :      -0.4167   -0.4167    0.2500
  band No.  band energies     occupation 
      1       7.1382      1.00000
      2       7.4895      1.00000
      3       9.3222      1.00000
      4      10.7662     -0.01306
      5      11.4813     -0.00000
      6      16.2459      0.00000
      7      18.7764      0.00000
      8      22.1564      0.00000
      9      28.1435      0.00000
     10      32.4160      0.00000
     11      42.8852      0.00000
     12      48.3881      0.00000

 k-point    27 :       0.4167    0.4167    0.4167
  band No.  band energies     occupation 
      1       5.8700      1.00000
      2       9.3040      1.00000
      3       9.3040      1.00000
      4       9.4617      1.00000
      5      11.4327     -0.00000
      6      11.4327     -0.00000
      7      18.9049      0.00000
      8      31.9735      0.00000
      9      35.7767      0.00000
     10      35.7767      0.00000
     11      38.6992      0.00000
     12      38.6992      0.00000

 k-point    28 :      -0.4167    0.4167    0.4167
  band No.  band energies     occupation 
      1       6.7407      1.00000
      2       8.4810      1.00000
      3       9.1308      1.00000
      4       9.7080      1.00001
      5      11.3853     -0.00000
      6      13.6490     -0.00000
      7      17.9033      0.00000
      8      27.6004      0.00000
      9      32.5148      0.00000
     10      33.1810      0.00000
     11      42.4978      0.00000
     12      42.6740      0.00000


--------------------------------------------------------------------------------------------------------


 soft charge-density along one line, spin component           1
         0         1         2         3         4         5         6         7         8         9
 total charge-density along one line
 
 soft charge-density along one line, spin component           2
         0         1         2         3         4         5         6         7         8         9
 total charge-density along one line
 
 pseudopotential strength for first ion, spin component:           1
 -0.582  -0.000  -0.000  -0.000  -0.000  -1.217  -0.000  -0.000
 -0.000  -0.582   0.000  -0.000  -0.000  -0.000  -1.217   0.000
 -0.000   0.000  -0.653   0.000   0.000  -0.000   0.000  -1.285
 -0.000  -0.000   0.000  -0.582   0.000  -0.000  -0.000   0.000
 -0.000  -0.000   0.000   0.000  -0.653  -0.000  -0.000   0.000
 -1.217  -0.000  -0.000  -0.000  -0.000  -1.793  -0.000  -0.000
 -0.000  -1.217   0.000  -0.000  -0.000  -0.000  -1.793   0.000
 -0.000   0.000  -1.285   0.000   0.000  -0.000   0.000  -1.859
 -0.000  -0.000   0.000  -1.217   0.000  -0.000  -0.000   0.000
 -0.000  -0.000   0.000   0.000  -1.285  -0.000  -0.000   0.000
 -0.000  -0.000  -0.000  -0.000  -0.000  -0.000  -0.000  -0.000
 -0.000  -0.000  -0.000  -0.000  -0.000  -0.000  -0.000  -0.000
  0.000   0.000  -0.000   0.000  -0.000   0.000   0.000  -0.000
 -0.000   0.000   0.000   0.000   0.000  -0.000   0.000   0.000
  0.000   0.000  -0.000  -0.000   0.000   0.000   0.000  -0.000
  0.000   0.000  -0.000   0.000  -0.000   0.000  -0.000  -0.000
  0.000   0.000   0.000   0.000   0.000  -0.000   0.000   0.000
  0.000   0.000  -0.000   0.000   0.000   0.000   0.000  -0.000
 pseudopotential strength for first ion, spin component:           2
  0.734   0.000  -0.000   0.000  -0.000   0.043   0.000  -0.000
  0.000   0.734   0.000   0.000  -0.000   0.000   0.043   0.000
 -0.000   0.000   0.803   0.000  -0.000  -0.000   0.000   0.110
  0.000   0.000   0.000   0.734   0.000   0.000   0.000   0.000
 -0.000  -0.000  -0.000   0.000   0.803  -0.000  -0.000  -0.000
  0.043   0.000  -0.000   0.000  -0.000  -0.586   0.000  -0.000
  0.000   0.043   0.000   0.000  -0.000   0.000  -0.586   0.000
 -0.000   0.000   0.110   0.000  -0.000  -0.000   0.000  -0.522
  0.000   0.000   0.000   0.043   0.000   0.000   0.000   0.000
 -0.000  -0.000  -0.000   0.000   0.110  -0.000  -0.000  -0.000
 -0.000  -0.000   0.000  -0.000   0.000  -0.000  -0.000   0.000
 -0.000  -0.000   0.000  -0.000   0.000  -0.000  -0.000   0.000
  0.000   0.000  -0.000   0.000  -0.000   0.000   0.000  -0.000
 -0.000   0.000   0.000   0.000   0.000  -0.000   0.000   0.000
  0.000   0.000  -0.000  -0.000   0.000   0.000   0.000  -0.000
  0.000   0.000  -0.000   0.000  -0.000   0.000  -0.000  -0.000
  0.000   0.000   0.000   0.000   0.000  -0.000   0.000   0.000
  0.000   0.000  -0.000   0.000   0.000   0.000   0.000  -0.000
 total augmentation occupancy for first ion, spin component:           1
  2.846  -0.000   0.000  -0.000  -0.000  -1.554   0.000   0.000  -0.000   0.000  -0.000  -0.000   0.000   0.000   0.000   0.000
 -0.000   2.846  -0.000   0.000  -0.000  -0.000  -1.554  -0.000  -0.000  -0.000  -0.000  -0.000   0.000   0.000   0.000   0.000
  0.000   0.000   3.193   0.000   0.000   0.000   0.000  -1.742   0.000   0.000   0.000   0.000   0.000   0.000   0.000   0.000
 -0.000   0.000   0.000   2.846   0.000   0.000   0.000  -0.000  -1.554  -0.000   0.000  -0.000   0.000   0.000   0.000   0.000
  0.000   0.000  -0.000   0.000   3.193   0.000  -0.000   0.000   0.000  -1.742   0.000   0.000   0.000   0.000   0.000   0.000
 -1.554  -0.000  -0.000   0.000  -0.000   1.842  -0.000   0.000   0.000  -0.000   0.000   0.000   0.000   0.000   0.000   0.000
  0.000  -1.554  -0.000   0.000  -0.000  -0.000   1.842  -0.000  -0.000   0.000   0.000   0.000   0.000   0.000   0.000   0.000
  0.000  -0.000  -1.742  -0.000   0.000   0.000   0.000   1.797   0.000   0.000   0.000   0.000   0.000   0.000   0.000   0.000
  0.000   0.000   0.000  -1.554   0.000  -0.000   0.000   0.000   1.842  -0.000   0.000  -0.000   0.000   0.000   0.000   0.000
  0.000  -0.000   0.000   0.000  -1.742   0.000   0.000   0.000  -0.000   1.797   0.000  -0.000   0.000   0.000   0.000   0.000
 -0.000  -0.000   0.000   0.000   0.000   0.000  -0.000   0.000  -0.000   0.000   2.311  -0.270   0.000   0.000   0.000   0.000
 -0.000  -0.000   0.000  -0.000   0.000   0.000   0.000   0.000   0.000   0.000  -0.270   0.040   0.000   0.000   0.000   0.000
  0.000   0.000   0.000   0.000   0.000   0.000   0.000   0.000   0.000   0.000   0.000   0.000   0.317   0.000   0.000  -0.031
  0.000   0.000   0.000   0.000   0.000   0.000   0.000   0.000   0.000   0.000   0.000   0.000   0.000   0.317  -0.000   0.000
  0.000   0.000   0.000   0.000   0.000   0.000   0.000   0.000   0.000   0.000   0.000   0.000   0.000  -0.000   0.317  -0.000
  0.000   0.000   0.000   0.000   0.000   0.000   0.000   0.000   0.000   0.000   0.000   0.000  -0.031   0.000   0.000   0.003
  0.000   0.000   0.000   0.000   0.000   0.000   0.000   0.000   0.000   0.000   0.000   0.000   0.000  -0.031   0.000   0.000
  0.000   0.000   0.000   0.000   0.000   0.000   0.000   0.000   0.000   0.000   0.000   0.000  -0.000   0.000  -0.031   0.000
 total augmentation occupancy for first ion, spin component:           2
  2.057  -0.000   0.000  -0.000   0.000  -1.002  -0.000   0.000   0.000   0.000  -0.000  -0.000   0.000   0.000   0.000   0.000
 -0.000   2.057  -0.000   0.000   0.000   0.000  -1.002  -0.000   0.000   0.000   0.000  -0.000   0.000   0.000   0.000   0.000
  0.000  -0.000   2.217  -0.000   0.000   0.000   0.000  -1.033  -0.000  -0.000  -0.000   0.000   0.000   0.000   0.000   0.000
 -0.000   0.000  -0.000   2.057   0.000   0.000   0.000   0.000  -1.002   0.000   0.000  -0.000   0.000   0.000   0.000   0.000
  0.000  -0.000   0.000  -0.000   2.217  -0.000   0.000   0.000   0.000  -1.033   0.000  -0.000   0.000   0.000   0.000   0.000
 -1.002  -0.000   0.000   0.000   0.000   0.285   0.000   0.000  -0.000  -0.000   0.000   0.000   0.000   0.000   0.000   0.000
 -0.000  -1.002   0.000   0.000   0.000   0.000   0.285  -0.000   0.000  -0.000   0.000   0.000   0.000   0.000   0.000   0.000
 -0.000   0.000  -1.033   0.000   0.000   0.000   0.000   0.303   0.000   0.000   0.000  -0.000   0.000   0.000   0.000   0.000
  0.000   0.000   0.000  -1.002   0.000  -0.000   0.000   0.000   0.285  -0.000   0.000  -0.000   0.000   0.000   0.000   0.000
 -0.000  -0.000   0.000  -0.000  -1.033   0.000  -0.000   0.000  -0.000   0.303   0.000   0.000   0.000   0.000   0.000   0.000
  0.000   0.000  -0.000  -0.000   0.000   0.000   0.000   0.000   0.000   0.000  -0.301   0.093   0.000   0.000   0.000   0.000
  0.000   0.000   0.000   0.000   0.000  -0.000  -0.000  -0.000  -0.000   0.000   0.093  -0.016   0.000   0.000   0.000   0.000
  0.000   0.000   0.000   0.000   0.000   0.000   0.000   0.000   0.000   0.000   0.000   0.000  -0.035   0.000   0.000   0.005
  0.000   0.000   0.000   0.000   0.000   0.000   0.000   0.000   0.000   0.000   0.000   0.000   0.000  -0.035  -0.000   0.000
  0.000   0.000   0.000   0.000   0.000   0.000   0.000   0.000   0.000   0.000   0.000   0.000   0.000  -0.000  -0.035   0.000
  0.000   0.000   0.000   0.000   0.000   0.000   0.000   0.000   0.000   0.000   0.000   0.000   0.005   0.000   0.000  -0.001
  0.000   0.000   0.000   0.000   0.000   0.000   0.000   0.000   0.000   0.000   0.000   0.000   0.000   0.005   0.000   0.000
  0.000   0.000   0.000   0.000   0.000   0.000   0.000   0.000   0.000   0.000   0.000   0.000   0.000   0.000   0.005  -0.000


------------------------ aborting loop because EDIFF is reached ----------------------------------------


    CHARGE:  cpu time      0.0107: real time      0.0107
    FORLOC:  cpu time      0.0001: real time      0.0001
    FORNL :  cpu time      0.0049: real time      0.0049
    STRESS:  cpu time      0.0177: real time      0.0178
    FORCOR:  cpu time      0.0033: real time      0.0033
    FORHAR:  cpu time      0.0004: real time      0.0004
    MIXING:  cpu time      0.0002: real time      0.0002
    OFIELD:  cpu time      0.0000: real time      0.0000

  FORCE on cell =-STRESS in cart. coord.  units (eV):
  Direction    XX          YY          ZZ          XY          YZ          ZX
  --------------------------------------------------------------------------------------
  Alpha Z    39.18059    39.18059    39.18059
  Ewald    -253.92708  -253.92708  -253.92708     0.00000     0.00000     0.00000
  Hartree    43.95961    43.95961    43.95961     0.00000     0.00000     0.00000
  E(xc)     -46.29232   -46.29232   -46.29232     0.00000     0.00000     0.00000
  Local      -9.70761    -9.70761    -9.70761     0.00002     0.00002     0.00002
  n-local    -4.58744    -3.14552    -6.08007     2.05271    -1.74420    -0.16957
  augment   155.47193   155.47193   155.47193    -0.00002    -0.00002    -0.00002
  Kinetic    75.21590    74.56755    78.23882    -0.73138     1.04061     0.19158
  Fock        0.00000     0.00000     0.00000     0.00000     0.00000     0.00000
  -------------------------------------------------------------------------------------
  Total       0.08820     0.08820     0.08820    -0.00000    -0.00000    -0.00000
  in kB      13.07079    13.07079    13.07079    -0.00000    -0.00000    -0.00000
  external pressure =       13.07 kB  Pullay stress =        0.00 kB


 VOLUME and BASIS-vectors are now :
 -----------------------------------------------------------------------------
  energy-cutoff  :      450.00
  volume of cell :       10.81
      direct lattice vectors                 reciprocal lattice vectors
     0.000000000  1.755000000  1.755000000    -0.284900285  0.284900285  0.284900285
     1.755000000  0.000000000  1.755000000     0.284900285 -0.284900285  0.284900285
     1.755000000  1.755000000  0.000000000     0.284900285  0.284900285 -0.284900285

  length of vectors
     2.481944802  2.481944802  2.481944802     0.493461769  0.493461769  0.493461769


 FORCES acting on ions
    electron-ion (+dipol)            ewald-force                    non-local-force                 convergence-correction
 -----------------------------------------------------------------------------------------------
   -.228E-14 -.230E-14 0.348E-15   0.813E-15 0.404E-15 -.279E-14   0.000E+00 0.000E+00 0.662E-23   0.193E-14 -.404E-14 0.144E-13
 -----------------------------------------------------------------------------------------------
   -.228E-14 -.230E-14 0.348E-15   0.813E-15 0.404E-15 -.279E-14   0.000E+00 0.000E+00 0.662E-23   0.193E-14 -.404E-14 0.144E-13
 
 
 POSITION                                       TOTAL-FORCE (eV/Angst)
 -----------------------------------------------------------------------------------
      0.00000      0.00000      0.00000        -0.000000     -0.000000     -0.000000
 -----------------------------------------------------------------------------------
    total drift:                                0.000000     -0.000000      0.000000


--------------------------------------------------------------------------------------------------------



  FREE ENERGIE OF THE ION-ELECTRON SYSTEM (eV)
  ---------------------------------------------------
  free  energy   TOTEN  =        -7.01547335 eV

  energy  without entropy=       -7.01106889  energy(sigma->0) =       -7.01400520
 


--------------------------------------------------------------------------------------------------------


    POTLOK:  cpu time      0.0086: real time      0.0086


--------------------------------------------------------------------------------------------------------


     LOOP+:  cpu time      1.9552: real time      2.0653
    4ORBIT:  cpu time      0.0000: real time      0.0000

 total amount of memory used by VASP MPI-rank0    30768. kBytes
=======================================================================

   base      :      30000. kBytes
   nonl-proj :        178. kBytes
   fftplans  :        113. kBytes
   grid      :        274. kBytes
   one-center:         31. kBytes
   wavefun   :        172. kBytes
 
  
  
 General timing and accounting informations for this job:
 ========================================================
  
                  Total CPU time used (sec):        2.651
                            User time (sec):        2.188
                          System time (sec):        0.463
                         Elapsed time (sec):        4.443
  
                   Maximum memory used (kb):      218660.
                   Average memory used (kb):          N/A
  
                          Minor page faults:        17050
                          Major page faults:           63
                 Voluntary context switches:         2159
