<?xml version="1.0" encoding="ISO-8859-1"?>
<modeling>
 <generator>
  <i name="program" type="string">vasp </i>
  <i name="version" type="string">6.3.2  </i>
  <i name="subversion" type="string">27Jun22 (build Aug 12 2022 00:53:59) complex                          parallel </i>
  <i name="platform" type="string">tv2STD </i>
  <i name="date" type="string">2024 11 30 </i>
  <i name="time" type="string">15:06:49 </i>
 </generator>
 <incar>
  <i type="string" name="SYSTEM">Co fcc</i>
  <i type="int" name="ISTART">     0</i>
  <i type="string" name="PREC">Accurate      normal | accurate</i>
  <i type="string" name="ALGO">Normal     Normal, Fast, Very_Fast</i>
  <i type="logical" name="ADDGRID"> F  </i>
  <i type="int" name="ISPIN">     2</i>
  <i type="int" name="ICHARG">     2</i>
  <i type="int" name="INIWAV">     1</i>
  <i type="int" name="NELM">   100</i>
  <i type="int" name="IBRION">    -1</i>
  <i name="EDIFF">      0.00000100</i>
  <i name="EDIFFG">     -0.02000000</i>
  <i type="int" name="NSW">     0</i>
  <i type="int" name="ISIF">     2</i>
  <i type="int" name="ISYM">     1</i>
  <i name="ENCUT">    450.00000000</i>
  <v name="MAGMOM">      3.00000000</v>
  <i type="logical" name="LREAL"> F  </i>
  <i type="int" name="ISMEAR">     1</i>
  <i name="SIGMA">      0.20000000</i>
  <i type="int" name="NWRITE">     2</i>
  <i type="logical" name="LWAVE"> F  </i>
  <i type="logical" name="LCHARG"> F  </i>
 </incar>
 <primitive_cell>
  <structure name="primitive_cell" >
   <crystal>
    <varray name="basis" >
     <v>       0.00000000       1.75500000       1.75500000 </v>
     <v>       1.75500000       0.00000000       1.75500000 </v>
     <v>       1.75500000       1.75500000       0.00000000 </v>
    </varray>
    <i name="volume">     10.81088775 </i>
    <varray name="rec_basis" >
     <v>      -0.28490028       0.28490028       0.28490028 </v>
     <v>       0.28490028      -0.28490028       0.28490028 </v>
     <v>       0.28490028       0.28490028      -0.28490028 </v>
    </varray>
   </crystal>
   <varray name="positions" >
    <v>       0.00000000       0.00000000       0.00000000 </v>
   </varray>
  </structure>
  <varray name="primitive_index" >
   <v type="int" >        1 </v>
  </varray>
 </primitive_cell>
 <kpoints>
  <generation param="Monkhorst-Pack">
   <v type="int" name="divisions">       6        6        6 </v>
   <v name="usershift">      0.00000000       0.00000000       0.00000000 </v>
   <v name="genvec1">      0.16666667       0.00000000       0.00000000 </v>
   <v name="genvec2">      0.00000000       0.16666667       0.00000000 </v>
   <v name="genvec3">      0.00000000       0.00000000       0.16666667 </v>
   <v name="shift">      0.50000000       0.50000000       0.50000000 </v>
  </generation>
  <varray name="kpointlist" >
   <v>       0.08333333       0.08333333       0.08333333 </v>
   <v>       0.25000000       0.08333333       0.08333333 </v>
   <v>       0.41666667       0.08333333       0.08333333 </v>
   <v>      -0.41666667       0.08333333       0.08333333 </v>
   <v>      -0.25000000       0.08333333       0.08333333 </v>
   <v>      -0.08333333       0.08333333       0.08333333 </v>
   <v>       0.25000000       0.25000000       0.08333333 </v>
   <v>       0.41666667       0.25000000       0.08333333 </v>
   <v>      -0.41666667       0.25000000       0.08333333 </v>
   <v>      -0.25000000       0.25000000       0.08333333 </v>
   <v>      -0.08333333       0.25000000       0.08333333 </v>
   <v>       0.41666667       0.41666667       0.08333333 </v>
   <v>      -0.41666667       0.41666667       0.08333333 </v>
   <v>      -0.25000000       0.41666667       0.08333333 </v>
   <v>      -0.08333333       0.41666667       0.08333333 </v>
   <v>      -0.41666667      -0.41666667       0.08333333 </v>
   <v>      -0.25000000      -0.41666667       0.08333333 </v>
   <v>      -0.25000000      -0.25000000       0.08333333 </v>
   <v>       0.25000000       0.25000000       0.25000000 </v>
   <v>       0.41666667       0.25000000       0.25000000 </v>
   <v>      -0.41666667       0.25000000       0.25000000 </v>
   <v>      -0.25000000       0.25000000       0.25000000 </v>
   <v>       0.41666667       0.41666667       0.25000000 </v>
   <v>      -0.41666667       0.41666667       0.25000000 </v>
   <v>      -0.25000000       0.41666667       0.25000000 </v>
   <v>      -0.41666667      -0.41666667       0.25000000 </v>
   <v>       0.41666667       0.41666667       0.41666667 </v>
   <v>      -0.41666667       0.41666667       0.41666667 </v>
  </varray>
  <varray name="weights" >
   <v>       0.00925926 </v>
   <v>       0.02777778 </v>
   <v>       0.02777778 </v>
   <v>       0.02777778 </v>
   <v>       0.02777778 </v>
   <v>       0.02777778 </v>
   <v>       0.02777778 </v>
   <v>       0.05555556 </v>
   <v>       0.05555556 </v>
   <v>       0.05555556 </v>
   <v>       0.05555556 </v>
   <v>       0.02777778 </v>
   <v>       0.05555556 </v>
   <v>       0.05555556 </v>
   <v>       0.05555556 </v>
   <v>       0.02777778 </v>
   <v>       0.05555556 </v>
   <v>       0.02777778 </v>
   <v>       0.00925926 </v>
   <v>       0.02777778 </v>
   <v>       0.02777778 </v>
   <v>       0.02777778 </v>
   <v>       0.02777778 </v>
   <v>       0.05555556 </v>
   <v>       0.05555556 </v>
   <v>       0.02777778 </v>
   <v>       0.00925926 </v>
   <v>       0.02777778 </v>
  </varray>
 </kpoints>
 <parameters>
  <separator name="general" >
   <i type="string" name="SYSTEM">Co fcc</i>
   <i type="logical" name="LCOMPAT"> F  </i>
  </separator>
  <separator name="electronic" >
   <i type="string" name="PREC">accura</i>
   <i name="ENMAX">    450.00000000</i>
   <i name="ENAUG">    477.81800000</i>
   <i name="EDIFF">      0.00000100</i>
   <i type="int" name="IALGO">    38</i>
   <i type="int" name="IWAVPR">    10</i>
   <i type="int" name="NBANDS">    12</i>
   <i type="int" name="NBANDSLOW">    -1</i>
   <i type="int" name="NBANDSHIGH">    -1</i>
   <i name="NELECT">      9.00000000</i>
   <i type="int" name="TURBO">     0</i>
   <i type="int" name="IRESTART">     0</i>
   <i type="int" name="NREBOOT">     0</i>
   <i type="int" name="NMIN">     0</i>
   <i name="EREF">      0.00000000</i>
   <separator name="electronic smearing" >
    <i type="int" name="ISMEAR">     1</i>
    <i name="SIGMA">      0.20000000</i>
    <i name="KSPACING">      0.50000000</i>
    <i type="logical" name="KGAMMA"> T  </i>
    <i type="logical" name="KBLOWUP"> T  </i>
   </separator>
   <separator name="electronic projectors" >
    <i type="logical" name="LREAL"> F  </i>
    <v name="ROPT">      0.00000000</v>
    <i type="int" name="LMAXPAW">  -100</i>
    <i type="int" name="LMAXMIX">     2</i>
    <i type="logical" name="NLSPLINE"> F  </i>
   </separator>
   <separator name="electronic startup" >
    <i type="int" name="ISTART">     0</i>
    <i type="int" name="ICHARG">     2</i>
    <i type="int" name="INIWAV">     1</i>
   </separator>
   <separator name="electronic spin" >
    <i type="int" name="ISPIN">     2</i>
    <i type="logical" name="LNONCOLLINEAR"> F  </i>
    <v name="MAGMOM">      3.00000000</v>
    <i name="NUPDOWN">     -1.00000000</i>
    <i type="logical" name="LSORBIT"> F  </i>
    <v name="SAXIS">      0.00000000      0.00000000      1.00000000</v>
    <i type="logical" name="LSPIRAL"> F  </i>
    <v name="QSPIRAL">      0.00000000      0.00000000      0.00000000</v>
    <i type="logical" name="LZEROZ"> F  </i>
   </separator>
   <separator name="electronic exchange-correlation" >
    <i type="logical" name="LASPH"> F  </i>
    <i type="logical" name="LMETAGGA"> F  </i>
   </separator>
   <separator name="electronic convergence" >
    <i type="int" name="NELM">   100</i>
    <i type="int" name="NELMDL">    -5</i>
    <i type="int" name="NELMIN">     2</i>
    <i name="ENINI">    450.00000000</i>
    <separator name="electronic convergence detail" >
     <i type="logical" name="LDIAG"> T  </i>
     <i type="logical" name="LSUBROT"> F  </i>
     <i name="WEIMIN">      0.00000000</i>
     <i name="EBREAK">      0.00000002</i>
     <i name="DEPER">      0.30000000</i>
     <i type="int" name="NRMM">     4</i>
     <i name="TIME">      0.40000000</i>
    </separator>
   </separator>
   <separator name="electronic mixer" >
    <i name="AMIX">      0.40000000</i>
    <i name="BMIX">      1.00000000</i>
    <i name="AMIN">      0.10000000</i>
    <i name="AMIX_MAG">      1.60000000</i>
    <i name="BMIX_MAG">      1.00000000</i>
    <separator name="electronic mixer details" >
     <i type="int" name="IMIX">     4</i>
     <i type="logical" name="MIXFIRST"> F  </i>
     <i type="int" name="MAXMIX">   -45</i>
     <i name="WC">    100.00000000</i>
     <i type="int" name="INIMIX">     1</i>
     <i type="int" name="MIXPRE">     1</i>
     <i type="int" name="MREMOVE">     5</i>
    </separator>
   </separator>
   <separator name="electronic dipolcorrection" >
    <i type="logical" name="LDIPOL"> F  </i>
    <i type="logical" name="LMONO"> F  </i>
    <i type="int" name="IDIPOL">     0</i>
    <i name="EPSILON">      1.00000000</i>
    <v name="DIPOL">   -100.00000000   -100.00000000   -100.00000000</v>
    <i name="EFIELD">      0.00000000</i>
   </separator>
  </separator>
  <separator name="grids" >
   <i type="int" name="NGX">    18</i>
   <i type="int" name="NGY">    18</i>
   <i type="int" name="NGZ">    18</i>
   <i type="int" name="NGXF">    36</i>
   <i type="int" name="NGYF">    36</i>
   <i type="int" name="NGZF">    36</i>
   <i type="logical" name="ADDGRID"> F  </i>
  </separator>
  <separator name="ionic" >
   <i type="int" name="NSW">     0</i>
   <i type="int" name="IBRION">    -1</i>
   <i type="int" name="MDALGO">     0</i>
   <i type="int" name="ISIF">     2</i>
   <i name="PSTRESS">      0.00000000</i>
   <i name="EDIFFG">     -0.02000000</i>
   <i type="int" name="NFREE">     0</i>
   <i name="POTIM">      0.50000000</i>
   <i name="SMASS">     -3.00000000</i>
   <i name="SCALEE">      1.00000000</i>
  </separator>
  <separator name="ionic md" >
   <i name="TEBEG">      0.00010000</i>
   <i name="TEEND">      0.00010000</i>
   <i type="int" name="NBLOCK">     1</i>
   <i type="int" name="KBLOCK">     1</i>
   <i type="int" name="NPACO">   256</i>
   <i name="APACO">     10.00000000</i>
  </separator>
  <separator name="symmetry" >
   <i type="int" name="ISYM">     1</i>
   <i name="SYMPREC">      0.00001000</i>
  </separator>
  <separator name="dos" >
   <i type="int" name="LORBIT">     0</i>
   <v name="RWIGS">     -1.00000000</v>
   <i type="int" name="NEDOS">   301</i>
   <i name="EMIN">     10.00000000</i>
   <i name="EMAX">    -10.00000000</i>
   <i name="EFERMI">      0.00000000</i>
  </separator>
  <separator name="writing" >
   <i type="int" name="NWRITE">     2</i>
   <i type="logical" name="LWAVE"> F  </i>
   <i type="logical" name="LDOWNSAMPLE"> F  </i>
   <i type="logical" name="LCHARG"> F  </i>
   <i type="logical" name="LPARD"> F  </i>
   <i type="logical" name="LVTOT"> F  </i>
   <i type="logical" name="LVHAR"> F  </i>
   <i type="logical" name="LELF"> F  </i>
   <i type="logical" name="LOPTICS"> F  </i>
   <v name="STM">      0.00000000      0.00000000      0.00000000      0.00000000      0.00000000      0.00000000      0.00000000</v>
  </separator>
  <separator name="performance" >
   <i type="int" name="NPAR">     4</i>
   <i type="int" name="NSIM">     4</i>
   <i type="int" name="NBLK">    -1</i>
   <i type="logical" name="LPLANE"> T  </i>
   <i type="logical" name="LSCALAPACK"> T  </i>
   <i type="logical" name="LSCAAWARE"> F  </i>
   <i type="logical" name="LSCALU"> F  </i>
   <i type="logical" name="LASYNC"> F  </i>
   <i type="logical" name="LORBITALREAL"> F  </i>
  </separator>
  <separator name="miscellaneous" >
   <i type="int" name="IDIOT">     3</i>
   <i type="int" name="PHON_NSTRUCT">    -1</i>
   <i type="logical" name="LMUSIC"> F  </i>
   <v name="POMASS">     58.93300000</v>
   <v name="DARWINR">      0.00000000</v>
   <v name="DARWINV">      1.00000000</v>
   <i type="logical" name="LCORR"> T  </i>
  </separator>
  <i type="logical" name="GGA_COMPAT"> T  </i>
  <i type="logical" name="LBERRY"> F  </i>
  <i type="int" name="ICORELEVEL">     0</i>
  <i type="logical" name="LDAU"> F  </i>
  <i type="int" name="I_CONSTRAINED_M">     0</i>
  <separator name="electronic exchange-correlation" >
   <i type="string" name="GGA">--</i>
   <i type="int" name="VOSKOWN">     0</i>
   <i type="logical" name="LHFCALC"> F  </i>
   <i type="string" name="PRECFOCK"></i>
   <i type="logical" name="LSYMGRAD"> F  </i>
   <i type="logical" name="LHFONE"> F  </i>
   <i type="logical" name="LRHFCALC"> F  </i>
   <i type="logical" name="LTHOMAS"> F  </i>
   <i type="logical" name="LMODELHF"> F  </i>
   <i type="logical" name="LFOCKACE"> F  </i>
   <i name="ENCUT4O">     -1.00000000</i>
   <i type="int" name="EXXOEP">     0</i>
   <i type="int" name="FOURORBIT">     0</i>
   <i name="AEXX">      0.00000000</i>
   <i name="HFALPHA">      0.00000000</i>
   <i name="MCALPHA">      0.00000000</i>
   <i name="ALDAX">      1.00000000</i>
   <i name="AGGAX">      1.00000000</i>
   <i name="ALDAC">      1.00000000</i>
   <i name="AGGAC">      1.00000000</i>
   <i type="int" name="NKREDX">     1</i>
   <i type="int" name="NKREDY">     1</i>
   <i type="int" name="NKREDZ">     1</i>
   <i type="logical" name="SHIFTRED"> F  </i>
   <i type="logical" name="ODDONLY"> F  </i>
   <i type="logical" name="EVENONLY"> F  </i>
   <i type="int" name="LMAXFOCK">     0</i>
   <i type="int" name="NMAXFOCKAE">     0</i>
   <i type="logical" name="LFOCKAEDFT"> F  </i>
   <i name="HFSCREEN">      0.00000000</i>
   <i name="HFSCREENC">      0.00000000</i>
   <i type="int" name="NBANDSGWLOW">     0</i>
  </separator>
  <separator name="vdW DFT" >
   <i type="logical" name="LUSE_VDW"> F  </i>
   <i name="Zab_VDW">     -0.84910000</i>
   <i name="PARAM1">      0.12340000</i>
   <i name="PARAM2">      1.00000000</i>
   <i name="PARAM3">      0.00000000</i>
  </separator>
  <separator name="model GW" >
   <i type="int" name="MODEL_GW">     0</i>
   <i name="MODEL_EPS0">      6.48653265</i>
   <i name="MODEL_ALPHA">      1.00000000</i>
  </separator>
  <separator name="linear response parameters" >
   <i type="logical" name="LEPSILON"> F  </i>
   <i type="logical" name="LRPA"> F  </i>
   <i type="logical" name="LNABLA"> F  </i>
   <i type="logical" name="LVEL"> F  </i>
   <i name="CSHIFT">      0.10000000</i>
   <i name="OMEGAMAX">     -1.00000000</i>
   <i name="DEG_THRESHOLD">      0.00200000</i>
   <i name="RTIME">     -0.10000000</i>
   <i name="WPLASMAI">      0.00000000</i>
   <v name="DFIELD">      0.00000000      0.00000000      0.00000000</v>
   <v name="WPLASMA">      0.00000000      0.00000000      0.00000000      0.00000000      0.00000000      0.00000000      0.00000000      0.00000000      0.00000000</v>
  </separator>
  <separator name="orbital magnetization" >
   <i type="logical" name="NUCIND"> F  </i>
   <v name="MAGPOS">      0.00000000      0.00000000      0.00000000</v>
   <i type="logical" name="LNICSALL"> T  </i>
   <i type="logical" name="ORBITALMAG"> F  </i>
   <i type="logical" name="LMAGBLOCH"> F  </i>
   <i type="logical" name="LCHIMAG"> F  </i>
   <i type="logical" name="LGAUGE"> T  </i>
   <i type="int" name="MAGATOM">     0</i>
   <v name="MAGDIPOL">      0.00000000      0.00000000      0.00000000</v>
   <v name="AVECCONST">      0.00000000      0.00000000      0.00000000</v>
  </separator>
  <separator name="response functions" >
   <i type="logical" name="LFINITE_TEMPERATURE"> F  </i>
   <i type="logical" name="LADDER"> F  </i>
   <i type="logical" name="LRPAFORCE"> F  </i>
   <i type="logical" name="LFXC"> F  </i>
   <i type="logical" name="LHARTREE"> T  </i>
   <i type="int" name="IBSE">     0</i>
   <v type="int" name="KPOINT">    -1     0     0     0</v>
   <i type="logical" name="LTCTC"> F  </i>
   <i type="logical" name="LTCTE"> F  </i>
   <i type="logical" name="LTETE"> F  </i>
   <i type="logical" name="LTRIPLET"> F  </i>
   <i type="logical" name="LFXCEPS"> F  </i>
   <i type="logical" name="LFXHEG"> F  </i>
   <i type="int" name="NATURALO">     2</i>
   <i type="logical" name="LHOLEGF"> F  </i>
   <i type="logical" name="L2ORDER"> F  </i>
   <i type="logical" name="LDMP1"> F  </i>
   <i type="logical" name="LMP2LT"> F  </i>
   <i type="logical" name="LSMP2LT"> F  </i>
   <i type="logical" name="LGWLF"> F  </i>
   <i name="ENCUTGW">     -2.00000000</i>
   <i name="ENCUTGWSOFT">     -2.00000000</i>
   <i name="ENCUTLF">     -1.00000000</i>
   <i type="logical" name="LESF_SPLINES"> F  </i>
   <i type="int" name="LMAXMP2">    -1</i>
   <i name="SCISSOR">      0.00000000</i>
   <i type="int" name="NOMEGA">     0</i>
   <i type="int" name="NOMEGAR">     0</i>
   <i type="int" name="NBANDSGW">    -1</i>
   <i type="int" name="NBANDSO">    -1</i>
   <i type="int" name="NBANDSV">    -1</i>
   <i type="int" name="NELMGW">     1</i>
   <i type="int" name="NELMHF">     1</i>
   <i type="int" name="DIM">     3</i>
   <i type="int" name="IESPILON">     4</i>
   <i type="int" name="ANTIRES">     0</i>
   <i name="OMEGAMAX">    -30.00000000</i>
   <i name="OMEGAMIN">    -30.00000000</i>
   <i name="OMEGATL">   -200.00000000</i>
   <i type="int" name="OMEGAGRID">     0</i>
   <i name="CSHIFT">     -0.10000000</i>
   <i type="logical" name="LSELFENERGY"> F  </i>
   <i type="logical" name="LSPECTRAL"> F  </i>
   <i type="logical" name="LSPECTRALGW"> F  </i>
   <i type="logical" name="LSINGLES"> F  </i>
   <i type="logical" name="LFERMIGW"> F  </i>
   <i type="logical" name="ODDONLYGW"> F  </i>
   <i type="logical" name="EVENONLYGW"> F  </i>
   <i type="int" name="NKREDLFX">     1</i>
   <i type="int" name="NKREDLFY">     1</i>
   <i type="int" name="NKREDLFZ">     1</i>
   <i type="int" name="MAXMEM">  2800</i>
   <i type="int" name="TELESCOPE">     0</i>
   <i type="int" name="NTAUPAR">    -1</i>
   <i type="int" name="NOMEGAPAR">    -1</i>
   <i name="DAMP_NEWTON">      0.80000001</i>
   <i name="LAMBDA">      1.00000000</i>
  </separator>
  <separator name="External order field" >
   <i name="OFIELD_KAPPA">      0.00000000</i>
   <v name="OFIELD_K">      0.00000000      0.00000000      0.00000000</v>
   <i name="OFIELD_Q6_NEAR">      0.00000000</i>
   <i name="OFIELD_Q6_FAR">      0.00000000</i>
   <i name="OFIELD_A">      0.00000000</i>
  </separator>
  <separator name="optional k-points parameters" >
   <i type="int" name="KPOINTS_OPT_MODE">     1</i>
   <i type="logical" name="LKPOINTS_OPT"> F  </i>
  </separator>
 </parameters>
 <atominfo>
  <atoms>       1 </atoms>
  <types>       1 </types>
  <array name="atoms" >
   <dimension dim="1">ion</dimension>
   <field type="string">element</field>
   <field type="int">atomtype</field>
   <set>
    <rc><c>Co</c><c>   1</c></rc>
   </set>
  </array>
  <array name="atomtypes" >
   <dimension dim="1">type</dimension>
   <field type="int">atomspertype</field>
   <field type="string">element</field>
   <field>mass</field>
   <field>valence</field>
   <field type="string">pseudopotential</field>
   <set>
    <rc><c>   1</c><c>Co</c><c>     58.93300000</c><c>      9.00000000</c><c>  PAW_PBE Co 02Aug2007                  </c></rc>
   </set>
  </array>
 </atominfo>
 <structure name="initialpos" >
  <crystal>
   <varray name="basis" >
    <v>       0.00000000       1.75500000       1.75500000 </v>
    <v>       1.75500000       0.00000000       1.75500000 </v>
    <v>       1.75500000       1.75500000       0.00000000 </v>
   </varray>
   <i name="volume">     10.81088775 </i>
   <varray name="rec_basis" >
    <v>      -0.28490028       0.28490028       0.28490028 </v>
    <v>       0.28490028      -0.28490028       0.28490028 </v>
    <v>       0.28490028       0.28490028      -0.28490028 </v>
   </varray>
  </crystal>
  <varray name="positions" >
   <v>       0.00000000       0.00000000       0.00000000 </v>
  </varray>
 </structure>
 <calculation>
  <scstep>
   <time name="dav">    0.13    0.14</time>
   <time name="total">    0.15    0.15</time>
   <energy>
    <i name="alphaZ">     39.18058524 </i>
    <i name="ewald">   -761.78120824 </i>
    <i name="hartreedc">   -149.59159932 </i>
    <i name="XCdc">     17.82600536 </i>
    <i name="pawpsdc">    719.99081943 </i>
    <i name="pawaedc">   -772.94345096 </i>
    <i name="eentropy">     -0.00372777 </i>
    <i name="bandstr">    118.77926716 </i>
    <i name="atom">    813.36343992 </i>
    <i name="e_fr_energy">     24.82013082 </i>
    <i name="e_wo_entrp">     24.82385859 </i>
    <i name="e_0_energy">     24.82137341 </i>
   </energy>
  </scstep>
  <scstep>
   <time name="dav">    0.13    0.13</time>
   <time name="total">    0.13    0.13</time>
   <energy>
    <i name="e_fr_energy">     -6.85644343 </i>
    <i name="e_wo_entrp">     -6.85912538 </i>
    <i name="e_0_energy">     -6.85733742 </i>
   </energy>
  </scstep>
  <scstep>
   <time name="dav">    0.14    0.14</time>
   <time name="total">    0.14    0.14</time>
   <energy>
    <i name="e_fr_energy">     -7.79880384 </i>
    <i name="e_wo_entrp">     -7.80017883 </i>
    <i name="e_0_energy">     -7.79926217 </i>
   </energy>
  </scstep>
  <scstep>
   <time name="dav">    0.14    0.14</time>
   <time name="total">    0.14    0.14</time>
   <energy>
    <i name="e_fr_energy">     -7.80727165 </i>
    <i name="e_wo_entrp">     -7.80863502 </i>
    <i name="e_0_energy">     -7.80772610 </i>
   </energy>
  </scstep>
  <scstep>
   <time name="dav">    0.15    0.15</time>
   <time name="total">    0.16    0.16</time>
   <energy>
    <i name="e_fr_energy">     -7.80746575 </i>
    <i name="e_wo_entrp">     -7.80882900 </i>
    <i name="e_0_energy">     -7.80792017 </i>
   </energy>
  </scstep>
  <scstep>
   <time name="dav">    0.15    0.15</time>
   <time name="total">    0.17    0.17</time>
   <energy>
    <i name="e_fr_energy">     -7.19289674 </i>
    <i name="e_wo_entrp">     -7.18727383 </i>
    <i name="e_0_energy">     -7.19102244 </i>
   </energy>
  </scstep>
  <scstep>
   <time name="dav">    0.14    0.14</time>
   <time name="total">    0.16    0.16</time>
   <energy>
    <i name="e_fr_energy">     -7.03212286 </i>
    <i name="e_wo_entrp">     -7.02646848 </i>
    <i name="e_0_energy">     -7.03023807 </i>
   </energy>
  </scstep>
  <scstep>
   <time name="dav">    0.15    0.15</time>
   <time name="total">    0.17    0.17</time>
   <energy>
    <i name="e_fr_energy">     -7.02208954 </i>
    <i name="e_wo_entrp">     -7.01751217 </i>
    <i name="e_0_energy">     -7.02056375 </i>
   </energy>
  </scstep>
  <scstep>
   <time name="dav">    0.18    0.18</time>
   <time name="total">    0.20    0.20</time>
   <energy>
    <i name="e_fr_energy">     -7.01581603 </i>
    <i name="e_wo_entrp">     -7.01180705 </i>
    <i name="e_0_energy">     -7.01447970 </i>
   </energy>
  </scstep>
  <scstep>
   <time name="dav">    0.17    0.17</time>
   <time name="total">    0.19    0.19</time>
   <energy>
    <i name="e_fr_energy">     -7.01546911 </i>
    <i name="e_wo_entrp">     -7.01125585 </i>
    <i name="e_0_energy">     -7.01406469 </i>
   </energy>
  </scstep>
  <scstep>
   <time name="dav">    0.16    0.16</time>
   <time name="total">    0.18    0.18</time>
   <energy>
    <i name="e_fr_energy">     -7.01547363 </i>
    <i name="e_wo_entrp">     -7.01105931 </i>
    <i name="e_0_energy">     -7.01400219 </i>
   </energy>
  </scstep>
  <scstep>
   <time name="dav">    0.13    0.13</time>
   <time name="total">    0.13    0.13</time>
   <energy>
    <i name="alphaZ">     39.18058524 </i>
    <i name="ewald">   -761.78120824 </i>
    <i name="hartreedc">   -131.87976038 </i>
    <i name="XCdc">     16.45476516 </i>
    <i name="pawpsdc">    906.09023032 </i>
    <i name="pawaedc">   -959.16395950 </i>
    <i name="eentropy">     -0.00440446 </i>
    <i name="bandstr">     70.72483859 </i>
    <i name="atom">    813.36343992 </i>
    <i name="e_fr_energy">     -7.01547335 </i>
    <i name="e_wo_entrp">     -7.01106889 </i>
    <i name="e_0_energy">     -7.01400520 </i>
   </energy>
  </scstep>
  <structure>
   <crystal>
    <varray name="basis" >
     <v>       0.00000000       1.75500000       1.75500000 </v>
     <v>       1.75500000       0.00000000       1.75500000 </v>
     <v>       1.75500000       1.75500000       0.00000000 </v>
    </varray>
    <i name="volume">     10.81088775 </i>
    <varray name="rec_basis" >
     <v>      -0.28490028       0.28490028       0.28490028 </v>
     <v>       0.28490028      -0.28490028       0.28490028 </v>
     <v>       0.28490028       0.28490028      -0.28490028 </v>
    </varray>
   </crystal>
   <varray name="positions" >
    <v>       0.00000000       0.00000000       0.00000000 </v>
   </varray>
  </structure>
  <varray name="forces" >
   <v>      -0.00000000      -0.00000000      -0.00000000 </v>
  </varray>
  <varray name="stress" >
   <v>      13.07079434      -0.00000000      -0.00000000 </v>
   <v>      -0.00000000      13.07079434      -0.00000000 </v>
   <v>      -0.00000000      -0.00000000      13.07079434 </v>
  </varray>
  <energy>
   <i name="e_fr_energy">     -7.01547335 </i>
   <i name="e_wo_entrp">     -7.01106889 </i>
   <i name="e_0_energy">     -7.01400520 </i>
  </energy>
  <time name="totalsc">    1.96    2.07</time>
  <eigenvalues>
   <array>
    <dimension dim="1">band</dimension>
    <dimension dim="2">kpoint</dimension>
    <dimension dim="3">spin</dimension>
    <field>eigene</field>
    <field>occ</field>
    <set>
     <set comment="spin 1">
      <set comment="kpoint 1">
       <r>    1.6445    1.0000 </r>
       <r>    7.5833    1.0000 </r>
       <r>    7.7233    1.0000 </r>
       <r>    7.7233    1.0000 </r>
       <r>    8.7019    1.0000 </r>
       <r>    8.7019    1.0000 </r>
       <r>   32.7086    0.0000 </r>
       <r>   35.4401    0.0000 </r>
       <r>   37.4021    0.0000 </r>
       <r>   37.4021    0.0000 </r>
       <r>   41.7507    0.0000 </r>
       <r>   41.7511    0.0000 </r>
      </set>
      <set comment="kpoint 2">
       <r>    3.0171    1.0000 </r>
       <r>    7.2650    1.0000 </r>
       <r>    7.8747    1.0000 </r>
       <r>    7.9653    1.0000 </r>
       <r>    8.5003    1.0000 </r>
       <r>    8.9776    1.0000 </r>
       <r>   28.0174    0.0000 </r>
       <r>   31.4748    0.0000 </r>
       <r>   36.6018    0.0000 </r>
       <r>   39.0256    0.0000 </r>
       <r>   39.5304    0.0000 </r>
       <r>   41.0721    0.0000 </r>
      </set>
      <set comment="kpoint 3">
       <r>    5.0490    1.0000 </r>
       <r>    7.5835    1.0000 </r>
       <r>    7.7499    1.0000 </r>
       <r>    7.8200    1.0000 </r>
       <r>    9.1444    1.0000 </r>
       <r>    9.9470    1.0032 </r>
       <r>   20.2605    0.0000 </r>
       <r>   30.5842    0.0000 </r>
       <r>   34.3780    0.0000 </r>
       <r>   36.4319    0.0000 </r>
       <r>   38.9333    0.0000 </r>
       <r>   40.4351    0.0000 </r>
      </set>
      <set comment="kpoint 4">
       <r>    5.3153    1.0000 </r>
       <r>    7.4075    1.0000 </r>
       <r>    7.6584    1.0000 </r>
       <r>    8.6741    1.0000 </r>
       <r>    9.6225    1.0000 </r>
       <r>   11.1170   -0.0000 </r>
       <r>   16.7968    0.0000 </r>
       <r>   30.9920    0.0000 </r>
       <r>   33.5312    0.0000 </r>
       <r>   33.9197    0.0000 </r>
       <r>   40.0166    0.0000 </r>
       <r>   40.0417    0.0000 </r>
      </set>
      <set comment="kpoint 5">
       <r>    4.5397    1.0000 </r>
       <r>    7.3115    1.0000 </r>
       <r>    7.6794    1.0000 </r>
       <r>    7.8815    1.0000 </r>
       <r>    9.1909    1.0000 </r>
       <r>    9.2799    1.0000 </r>
       <r>   22.6665    0.0000 </r>
       <r>   32.2889    0.0000 </r>
       <r>   33.0556    0.0000 </r>
       <r>   36.3142    0.0000 </r>
       <r>   40.0157    0.0000 </r>
       <r>   42.5452    0.0000 </r>
      </set>
      <set comment="kpoint 6">
       <r>    2.3543    1.0000 </r>
       <r>    7.3440    1.0000 </r>
       <r>    7.8983    1.0000 </r>
       <r>    7.9080    1.0000 </r>
       <r>    8.4974    1.0000 </r>
       <r>    8.8321    1.0000 </r>
       <r>   30.7321    0.0000 </r>
       <r>   33.7559    0.0000 </r>
       <r>   34.4993    0.0000 </r>
       <r>   37.1851    0.0000 </r>
       <r>   41.3380    0.0000 </r>
       <r>   43.6475    0.0000 </r>
      </set>
      <set comment="kpoint 7">
       <r>    3.6274    1.0000 </r>
       <r>    6.9132    1.0000 </r>
       <r>    7.9569    1.0000 </r>
       <r>    8.2597    1.0000 </r>
       <r>    8.5752    1.0000 </r>
       <r>    9.0594    1.0000 </r>
       <r>   28.4986    0.0000 </r>
       <r>   31.4903    0.0000 </r>
       <r>   31.9929    0.0000 </r>
       <r>   34.1184    0.0000 </r>
       <r>   39.0753    0.0000 </r>
       <r>   45.1655    0.0000 </r>
      </set>
      <set comment="kpoint 8">
       <r>    5.3492    1.0000 </r>
       <r>    6.6177    1.0000 </r>
       <r>    7.5333    1.0000 </r>
       <r>    8.5430    1.0000 </r>
       <r>    9.1652    1.0000 </r>
       <r>   10.2852    0.9053 </r>
       <r>   23.6134    0.0000 </r>
       <r>   27.1003    0.0000 </r>
       <r>   29.5729    0.0000 </r>
       <r>   34.8934    0.0000 </r>
       <r>   39.8781    0.0000 </r>
       <r>   44.0945    0.0000 </r>
      </set>
      <set comment="kpoint 9">
       <r>    6.0306    1.0000 </r>
       <r>    6.7290    1.0000 </r>
       <r>    7.6119    1.0000 </r>
       <r>    8.2495    1.0000 </r>
       <r>    9.5756    1.0000 </r>
       <r>   13.6794   -0.0000 </r>
       <r>   17.2362    0.0000 </r>
       <r>   26.1439    0.0000 </r>
       <r>   28.0947    0.0000 </r>
       <r>   35.0169    0.0000 </r>
       <r>   41.4458    0.0000 </r>
       <r>   46.4314    0.0000 </r>
      </set>
      <set comment="kpoint 10">
       <r>    5.9347    1.0000 </r>
       <r>    6.9553    1.0000 </r>
       <r>    7.1567    1.0000 </r>
       <r>    8.3210    1.0000 </r>
       <r>    9.0538    1.0000 </r>
       <r>   11.4817   -0.0000 </r>
       <r>   21.1874    0.0000 </r>
       <r>   25.0058    0.0000 </r>
       <r>   30.6132    0.0000 </r>
       <r>   36.8629    0.0000 </r>
       <r>   39.8911    0.0000 </r>
       <r>   45.1632    0.0000 </r>
      </set>
      <set comment="kpoint 11">
       <r>    4.1870    1.0000 </r>
       <r>    6.9919    1.0000 </r>
       <r>    7.7174    1.0000 </r>
       <r>    8.1726    1.0000 </r>
       <r>    8.6483    1.0000 </r>
       <r>    9.4357    1.0000 </r>
       <r>   25.6211    0.0000 </r>
       <r>   29.1418    0.0000 </r>
       <r>   34.1805    0.0000 </r>
       <r>   36.5658    0.0000 </r>
       <r>   40.9349    0.0000 </r>
       <r>   41.7919    0.0000 </r>
      </set>
      <set comment="kpoint 12">
       <r>    5.2900    1.0000 </r>
       <r>    6.0350    1.0000 </r>
       <r>    8.8736    1.0000 </r>
       <r>    9.1579    1.0000 </r>
       <r>    9.6019    1.0000 </r>
       <r>   10.8335   -0.0044 </r>
       <r>   24.0641    0.0000 </r>
       <r>   24.9795    0.0000 </r>
       <r>   26.8546    0.0000 </r>
       <r>   31.4737    0.0000 </r>
       <r>   35.7962    0.0000 </r>
       <r>   47.0541    0.0000 </r>
      </set>
      <set comment="kpoint 13">
       <r>    5.5632    1.0000 </r>
       <r>    6.0815    1.0000 </r>
       <r>    8.4195    1.0000 </r>
       <r>    9.1222    1.0000 </r>
       <r>    9.7794    1.0001 </r>
       <r>   14.5048   -0.0000 </r>
       <r>   20.6770    0.0000 </r>
       <r>   21.5490    0.0000 </r>
       <r>   24.9200    0.0000 </r>
       <r>   33.6087    0.0000 </r>
       <r>   38.7844    0.0000 </r>
       <r>   46.9792    0.0000 </r>
      </set>
      <set comment="kpoint 14">
       <r>    6.2983    1.0000 </r>
       <r>    6.5107    1.0000 </r>
       <r>    7.4097    1.0000 </r>
       <r>    8.5594    1.0000 </r>
       <r>    9.4934    1.0000 </r>
       <r>   15.4179   -0.0000 </r>
       <r>   17.7034    0.0000 </r>
       <r>   22.3116    0.0000 </r>
       <r>   27.3213    0.0000 </r>
       <r>   34.9263    0.0000 </r>
       <r>   43.3337    0.0000 </r>
       <r>   46.2920    0.0000 </r>
      </set>
      <set comment="kpoint 15">
       <r>    5.5563    1.0000 </r>
       <r>    7.2164    1.0000 </r>
       <r>    7.7918    1.0000 </r>
       <r>    7.9519    1.0000 </r>
       <r>    9.4598    1.0000 </r>
       <r>   11.3594   -0.0000 </r>
       <r>   18.4218    0.0000 </r>
       <r>   28.8230    0.0000 </r>
       <r>   31.1782    0.0000 </r>
       <r>   35.2709    0.0000 </r>
       <r>   39.9672    0.0000 </r>
       <r>   43.4364    0.0000 </r>
      </set>
      <set comment="kpoint 16">
       <r>    5.2098    1.0000 </r>
       <r>    5.8119    1.0000 </r>
       <r>    9.4036    1.0000 </r>
       <r>    9.4149    1.0000 </r>
       <r>    9.8043    1.0001 </r>
       <r>   13.0123   -0.0000 </r>
       <r>   20.6811    0.0000 </r>
       <r>   23.8959    0.0000 </r>
       <r>   25.7594    0.0000 </r>
       <r>   31.2059    0.0000 </r>
       <r>   35.4289    0.0000 </r>
       <r>   47.1265    0.0000 </r>
      </set>
      <set comment="kpoint 17">
       <r>    5.6788    1.0000 </r>
       <r>    6.2714    1.0000 </r>
       <r>    7.9303    1.0000 </r>
       <r>    8.9506    1.0000 </r>
       <r>    9.5565    1.0000 </r>
       <r>   12.0947   -0.0000 </r>
       <r>   22.0574    0.0000 </r>
       <r>   24.6213    0.0000 </r>
       <r>   25.9231    0.0000 </r>
       <r>   34.0015    0.0000 </r>
       <r>   39.1029    0.0000 </r>
       <r>   46.0237    0.0000 </r>
      </set>
      <set comment="kpoint 18">
       <r>    4.9078    1.0000 </r>
       <r>    6.4340    1.0000 </r>
       <r>    8.0657    1.0000 </r>
       <r>    8.7202    1.0000 </r>
       <r>    9.3106    1.0000 </r>
       <r>    9.3323    1.0000 </r>
       <r>   26.4046    0.0000 </r>
       <r>   28.6475    0.0000 </r>
       <r>   28.8516    0.0000 </r>
       <r>   32.1484    0.0000 </r>
       <r>   36.8285    0.0000 </r>
       <r>   46.9698    0.0000 </r>
      </set>
      <set comment="kpoint 19">
       <r>    3.5880    1.0000 </r>
       <r>    7.3423    1.0000 </r>
       <r>    7.8410    1.0000 </r>
       <r>    7.8410    1.0000 </r>
       <r>    8.8755    1.0000 </r>
       <r>    8.8755    1.0000 </r>
       <r>   25.1135    0.0000 </r>
       <r>   33.7059    0.0000 </r>
       <r>   36.0677    0.0000 </r>
       <r>   36.0677    0.0000 </r>
       <r>   41.3226    0.0000 </r>
       <r>   41.3226    0.0000 </r>
      </set>
      <set comment="kpoint 20">
       <r>    5.0999    1.0000 </r>
       <r>    7.0606    1.0000 </r>
       <r>    7.5145    1.0000 </r>
       <r>    8.0940    1.0000 </r>
       <r>    8.6783    1.0000 </r>
       <r>   10.2143    1.0151 </r>
       <r>   23.1786    0.0000 </r>
       <r>   26.8390    0.0000 </r>
       <r>   35.1278    0.0000 </r>
       <r>   36.0745    0.0000 </r>
       <r>   40.3289    0.0000 </r>
       <r>   41.8366    0.0000 </r>
      </set>
      <set comment="kpoint 21">
       <r>    6.2667    1.0000 </r>
       <r>    6.8046    1.0000 </r>
       <r>    7.3125    1.0000 </r>
       <r>    8.2986    1.0000 </r>
       <r>    9.1845    1.0000 </r>
       <r>   13.1211   -0.0000 </r>
       <r>   19.1878    0.0000 </r>
       <r>   23.3670    0.0000 </r>
       <r>   31.4830    0.0000 </r>
       <r>   33.0870    0.0000 </r>
       <r>   44.2286    0.0000 </r>
       <r>   44.6250    0.0000 </r>
      </set>
      <set comment="kpoint 22">
       <r>    5.8527    1.0000 </r>
       <r>    6.4914    1.0000 </r>
       <r>    7.7619    1.0000 </r>
       <r>    8.4881    1.0000 </r>
       <r>    9.6803    1.0000 </r>
       <r>   12.7828   -0.0000 </r>
       <r>   19.1901    0.0000 </r>
       <r>   25.2177    0.0000 </r>
       <r>   28.7871    0.0000 </r>
       <r>   32.3773    0.0000 </r>
       <r>   42.8246    0.0000 </r>
       <r>   46.3994    0.0000 </r>
      </set>
      <set comment="kpoint 23">
       <r>    5.4404    1.0000 </r>
       <r>    6.9541    1.0000 </r>
       <r>    7.5576    1.0000 </r>
       <r>    8.1165    1.0000 </r>
       <r>    9.5762    1.0000 </r>
       <r>   10.5011    0.1238 </r>
       <r>   20.6860    0.0000 </r>
       <r>   29.4798    0.0000 </r>
       <r>   30.5664    0.0000 </r>
       <r>   33.2399    0.0000 </r>
       <r>   43.3162    0.0000 </r>
       <r>   44.0326    0.0000 </r>
      </set>
      <set comment="kpoint 24">
       <r>    6.2312    1.0000 </r>
       <r>    6.6342    1.0000 </r>
       <r>    7.1789    1.0000 </r>
       <r>    8.6331    1.0000 </r>
       <r>    9.4809    1.0000 </r>
       <r>   13.6471   -0.0000 </r>
       <r>   19.6788    0.0000 </r>
       <r>   23.6763    0.0000 </r>
       <r>   25.9351    0.0000 </r>
       <r>   37.7140    0.0000 </r>
       <r>   40.1544    0.0000 </r>
       <r>   44.6921    0.0000 </r>
      </set>
      <set comment="kpoint 25">
       <r>    6.0260    1.0000 </r>
       <r>    6.5967    1.0000 </r>
       <r>    7.4046    1.0000 </r>
       <r>    8.7289    1.0000 </r>
       <r>    9.7704    1.0000 </r>
       <r>   16.4494    0.0000 </r>
       <r>   18.7568    0.0000 </r>
       <r>   21.6644    0.0000 </r>
       <r>   23.3270    0.0000 </r>
       <r>   37.6486    0.0000 </r>
       <r>   42.0964    0.0000 </r>
       <r>   43.8776    0.0000 </r>
      </set>
      <set comment="kpoint 26">
       <r>    5.8505    1.0000 </r>
       <r>    6.2772    1.0000 </r>
       <r>    8.0271    1.0000 </r>
       <r>    8.8417    1.0000 </r>
       <r>    9.6081    1.0000 </r>
       <r>   15.5604   -0.0000 </r>
       <r>   18.1974    0.0000 </r>
       <r>   21.5091    0.0000 </r>
       <r>   27.8570    0.0000 </r>
       <r>   32.1482    0.0000 </r>
       <r>   42.5003    0.0000 </r>
       <r>   47.0109    0.0000 </r>
      </set>
      <set comment="kpoint 27">
       <r>    5.0886    1.0000 </r>
       <r>    7.5874    1.0000 </r>
       <r>    7.5874    1.0000 </r>
       <r>    9.1486    1.0000 </r>
       <r>    9.5007    1.0000 </r>
       <r>    9.5007    1.0000 </r>
       <r>   18.0696    0.0000 </r>
       <r>   32.2690    0.0000 </r>
       <r>   35.4376    0.0000 </r>
       <r>   35.4376    0.0000 </r>
       <r>   38.4181    0.0000 </r>
       <r>   38.4181    0.0000 </r>
      </set>
      <set comment="kpoint 28">
       <r>    5.7419    1.0000 </r>
       <r>    7.0736    1.0000 </r>
       <r>    7.9383    1.0000 </r>
       <r>    7.9503    1.0000 </r>
       <r>    9.4795    1.0000 </r>
       <r>   12.6714   -0.0000 </r>
       <r>   16.9995    0.0000 </r>
       <r>   27.3019    0.0000 </r>
       <r>   32.1692    0.0000 </r>
       <r>   33.1015    0.0000 </r>
       <r>   42.2578    0.0000 </r>
       <r>   42.5652    0.0000 </r>
      </set>
     </set>
     <set comment="spin 2">
      <set comment="kpoint 1">
       <r>    1.6617    1.0000 </r>
       <r>    9.1827    1.0000 </r>
       <r>    9.3530    1.0000 </r>
       <r>    9.3530    1.0000 </r>
       <r>   10.6757   -0.0323 </r>
       <r>   10.6757   -0.0323 </r>
       <r>   32.5850    0.0000 </r>
       <r>   35.4801    0.0000 </r>
       <r>   37.6265    0.0000 </r>
       <r>   37.6265    0.0000 </r>
       <r>   41.9219    0.0000 </r>
       <r>   41.9846    0.0000 </r>
      </set>
      <set comment="kpoint 2">
       <r>    3.0581    1.0000 </r>
       <r>    8.7576    1.0000 </r>
       <r>    9.5414    1.0000 </r>
       <r>    9.6416    1.0000 </r>
       <r>   10.4118    0.4453 </r>
       <r>   10.9143   -0.0008 </r>
       <r>   28.3455    0.0000 </r>
       <r>   31.6372    0.0000 </r>
       <r>   36.6016    0.0000 </r>
       <r>   39.2256    0.0000 </r>
       <r>   39.5127    0.0000 </r>
       <r>   41.3680    0.0000 </r>
      </set>
      <set comment="kpoint 3">
       <r>    5.5651    1.0000 </r>
       <r>    8.7483    1.0000 </r>
       <r>    9.2773    1.0000 </r>
       <r>    9.4895    1.0000 </r>
       <r>   11.0259   -0.0000 </r>
       <r>   11.7090   -0.0000 </r>
       <r>   20.9130    0.0000 </r>
       <r>   30.6922    0.0000 </r>
       <r>   34.4278    0.0000 </r>
       <r>   36.7777    0.0000 </r>
       <r>   39.2289    0.0000 </r>
       <r>   40.5987    0.0000 </r>
      </set>
      <set comment="kpoint 4">
       <r>    6.2553    1.0000 </r>
       <r>    9.0219    1.0000 </r>
       <r>    9.3847    1.0000 </r>
       <r>    9.5725    1.0000 </r>
       <r>   11.5654   -0.0000 </r>
       <r>   12.2326   -0.0000 </r>
       <r>   17.7767    0.0000 </r>
       <r>   30.9104    0.0000 </r>
       <r>   33.8658    0.0000 </r>
       <r>   34.1679    0.0000 </r>
       <r>   40.2425    0.0000 </r>
       <r>   40.2837    0.0000 </r>
      </set>
      <set comment="kpoint 5">
       <r>    4.7797    1.0000 </r>
       <r>    8.5363    1.0000 </r>
       <r>    9.3903    1.0000 </r>
       <r>    9.6016    1.0000 </r>
       <r>   10.9648   -0.0002 </r>
       <r>   11.2201   -0.0000 </r>
       <r>   23.1954    0.0000 </r>
       <r>   32.1682    0.0000 </r>
       <r>   33.4157    0.0000 </r>
       <r>   36.6530    0.0000 </r>
       <r>   40.1717    0.0000 </r>
       <r>   42.7203    0.0000 </r>
      </set>
      <set comment="kpoint 6">
       <r>    2.3787    1.0000 </r>
       <r>    8.8925    1.0000 </r>
       <r>    9.5466    1.0000 </r>
       <r>    9.5566    1.0000 </r>
       <r>   10.4155    0.4299 </r>
       <r>   10.8140   -0.0062 </r>
       <r>   30.9182    0.0000 </r>
       <r>   33.6995    0.0000 </r>
       <r>   34.8315    0.0000 </r>
       <r>   37.2435    0.0000 </r>
       <r>   41.5990    0.0000 </r>
       <r>   44.1804    0.0000 </r>
      </set>
      <set comment="kpoint 7">
       <r>    3.7005    1.0000 </r>
       <r>    8.3835    1.0000 </r>
       <r>    9.6862    1.0000 </r>
       <r>    9.9512    1.0034 </r>
       <r>   10.3060    0.8497 </r>
       <r>   11.0525   -0.0000 </r>
       <r>   28.8201    0.0000 </r>
       <r>   31.8373    0.0000 </r>
       <r>   32.0216    0.0000 </r>
       <r>   34.2792    0.0000 </r>
       <r>   39.7266    0.0000 </r>
       <r>   45.1806    0.0000 </r>
      </set>
      <set comment="kpoint 8">
       <r>    5.7634    1.0000 </r>
       <r>    7.9704    1.0000 </r>
       <r>    9.0929    1.0000 </r>
       <r>   10.3204    0.8052 </r>
       <r>   10.9803   -0.0002 </r>
       <r>   11.9387   -0.0000 </r>
       <r>   24.0723    0.0000 </r>
       <r>   27.4225    0.0000 </r>
       <r>   29.8895    0.0000 </r>
       <r>   35.0858    0.0000 </r>
       <r>   40.2410    0.0000 </r>
       <r>   44.3557    0.0000 </r>
      </set>
      <set comment="kpoint 9">
       <r>    7.1122    1.0000 </r>
       <r>    8.0234    1.0000 </r>
       <r>    8.9117    1.0000 </r>
       <r>   10.0490    1.0165 </r>
       <r>   11.4811   -0.0000 </r>
       <r>   14.5622   -0.0000 </r>
       <r>   18.0490    0.0000 </r>
       <r>   26.5012    0.0000 </r>
       <r>   28.4581    0.0000 </r>
       <r>   35.1520    0.0000 </r>
       <r>   41.6252    0.0000 </r>
       <r>   47.1675    0.0000 </r>
      </set>
      <set comment="kpoint 10">
       <r>    6.5331    1.0000 </r>
       <r>    8.2299    1.0000 </r>
       <r>    8.7110    1.0000 </r>
       <r>   10.1318    1.0338 </r>
       <r>   10.8606   -0.0026 </r>
       <r>   12.9247   -0.0000 </r>
       <r>   21.7563    0.0000 </r>
       <r>   25.4039    0.0000 </r>
       <r>   30.8981    0.0000 </r>
       <r>   36.9919    0.0000 </r>
       <r>   40.0089    0.0000 </r>
       <r>   45.5893    0.0000 </r>
      </set>
      <set comment="kpoint 11">
       <r>    4.3014    1.0000 </r>
       <r>    8.4108    1.0000 </r>
       <r>    9.4112    1.0000 </r>
       <r>    9.9032    1.0013 </r>
       <r>   10.4540    0.2762 </r>
       <r>   11.3229   -0.0000 </r>
       <r>   26.0372    0.0000 </r>
       <r>   29.4119    0.0000 </r>
       <r>   34.2959    0.0000 </r>
       <r>   36.7235    0.0000 </r>
       <r>   41.1711    0.0000 </r>
       <r>   42.0964    0.0000 </r>
      </set>
      <set comment="kpoint 12">
       <r>    6.2217    1.0000 </r>
       <r>    7.3657    1.0000 </r>
       <r>   10.1449    1.0352 </r>
       <r>   11.0485   -0.0000 </r>
       <r>   11.5639   -0.0000 </r>
       <r>   11.9829   -0.0000 </r>
       <r>   24.5518    0.0000 </r>
       <r>   25.3432    0.0000 </r>
       <r>   27.1018    0.0000 </r>
       <r>   31.8061    0.0000 </r>
       <r>   36.2401    0.0000 </r>
       <r>   50.7228    0.0000 </r>
      </set>
      <set comment="kpoint 13">
       <r>    6.7850    1.0000 </r>
       <r>    7.3659    1.0000 </r>
       <r>    9.7572    1.0000 </r>
       <r>   11.0914   -0.0000 </r>
       <r>   11.6537   -0.0000 </r>
       <r>   15.1468   -0.0000 </r>
       <r>   21.2989    0.0000 </r>
       <r>   22.0761    0.0000 </r>
       <r>   25.2314    0.0000 </r>
       <r>   33.8650    0.0000 </r>
       <r>   39.1731    0.0000 </r>
       <r>   48.2922    0.0000 </r>
      </set>
      <set comment="kpoint 14">
       <r>    7.6026    1.0000 </r>
       <r>    7.6688    1.0000 </r>
       <r>    8.7057    1.0000 </r>
       <r>   10.4407    0.3272 </r>
       <r>   11.3403   -0.0000 </r>
       <r>   16.1937    0.0000 </r>
       <r>   18.3778    0.0000 </r>
       <r>   22.8604    0.0000 </r>
       <r>   27.6789    0.0000 </r>
       <r>   35.0979    0.0000 </r>
       <r>   43.4254    0.0000 </r>
       <r>   47.3677    0.0000 </r>
      </set>
      <set comment="kpoint 15">
       <r>    6.3953    1.0000 </r>
       <r>    8.5721    1.0000 </r>
       <r>    9.0765    1.0000 </r>
       <r>    9.6668    1.0000 </r>
       <r>   11.3570   -0.0000 </r>
       <r>   12.6634   -0.0000 </r>
       <r>   19.1807    0.0000 </r>
       <r>   29.0314    0.0000 </r>
       <r>   31.4686    0.0000 </r>
       <r>   35.4149    0.0000 </r>
       <r>   40.2072    0.0000 </r>
       <r>   43.5698    0.0000 </r>
      </set>
      <set comment="kpoint 16">
       <r>    6.3839    1.0000 </r>
       <r>    7.1104    1.0000 </r>
       <r>   10.9300   -0.0006 </r>
       <r>   11.4301   -0.0000 </r>
       <r>   11.6963   -0.0000 </r>
       <r>   13.4764   -0.0000 </r>
       <r>   21.4847    0.0000 </r>
       <r>   24.1712    0.0000 </r>
       <r>   25.9540    0.0000 </r>
       <r>   31.5817    0.0000 </r>
       <r>   35.8663    0.0000 </r>
       <r>   50.8681    0.0000 </r>
      </set>
      <set comment="kpoint 17">
       <r>    6.6667    1.0000 </r>
       <r>    7.5815    1.0000 </r>
       <r>    9.2433    1.0000 </r>
       <r>   10.8145   -0.0062 </r>
       <r>   11.4429   -0.0000 </r>
       <r>   13.2246   -0.0000 </r>
       <r>   22.5107    0.0000 </r>
       <r>   25.0817    0.0000 </r>
       <r>   26.2817    0.0000 </r>
       <r>   34.2304    0.0000 </r>
       <r>   39.4755    0.0000 </r>
       <r>   46.4727    0.0000 </r>
      </set>
      <set comment="kpoint 18">
       <r>    5.2639    1.0000 </r>
       <r>    7.8251    1.0000 </r>
       <r>    9.5472    1.0000 </r>
       <r>   10.4884    0.1599 </r>
       <r>   10.9308   -0.0006 </r>
       <r>   11.3273   -0.0000 </r>
       <r>   26.7568    0.0000 </r>
       <r>   28.9312    0.0000 </r>
       <r>   29.1618    0.0000 </r>
       <r>   32.4102    0.0000 </r>
       <r>   37.3329    0.0000 </r>
       <r>   48.7721    0.0000 </r>
      </set>
      <set comment="kpoint 19">
       <r>    3.6756    1.0000 </r>
       <r>    8.7118    1.0000 </r>
       <r>    9.5414    1.0000 </r>
       <r>    9.5414    1.0000 </r>
       <r>   10.7887   -0.0094 </r>
       <r>   10.7887   -0.0094 </r>
       <r>   25.5483    0.0000 </r>
       <r>   33.4620    0.0000 </r>
       <r>   36.4252    0.0000 </r>
       <r>   36.4252    0.0000 </r>
       <r>   41.5076    0.0000 </r>
       <r>   41.5076    0.0000 </r>
      </set>
      <set comment="kpoint 20">
       <r>    5.3590    1.0000 </r>
       <r>    8.3881    1.0000 </r>
       <r>    9.1482    1.0000 </r>
       <r>    9.8984    1.0011 </r>
       <r>   10.4756    0.2001 </r>
       <r>   11.9708   -0.0000 </r>
       <r>   23.6853    0.0000 </r>
       <r>   27.1810    0.0000 </r>
       <r>   35.1215    0.0000 </r>
       <r>   36.4192    0.0000 </r>
       <r>   40.2984    0.0000 </r>
       <r>   42.1177    0.0000 </r>
      </set>
      <set comment="kpoint 21">
       <r>    7.1840    1.0000 </r>
       <r>    8.1822    1.0000 </r>
       <r>    8.6094    1.0000 </r>
       <r>   10.1488    1.0354 </r>
       <r>   11.0079   -0.0001 </r>
       <r>   14.2274   -0.0000 </r>
       <r>   19.8392    0.0000 </r>
       <r>   23.8422    0.0000 </r>
       <r>   31.8403    0.0000 </r>
       <r>   33.1927    0.0000 </r>
       <r>   44.2158    0.0000 </r>
       <r>   44.7991    0.0000 </r>
      </set>
      <set comment="kpoint 22">
       <r>    6.9149    1.0000 </r>
       <r>    7.7355    1.0000 </r>
       <r>    9.0794    1.0000 </r>
       <r>   10.3162    0.8186 </r>
       <r>   11.6199   -0.0000 </r>
       <r>   13.8139   -0.0000 </r>
       <r>   19.7896    0.0000 </r>
       <r>   25.6505    0.0000 </r>
       <r>   29.0917    0.0000 </r>
       <r>   32.6166    0.0000 </r>
       <r>   43.1639    0.0000 </r>
       <r>   46.5636    0.0000 </r>
      </set>
      <set comment="kpoint 23">
       <r>    6.0413    1.0000 </r>
       <r>    8.1809    1.0000 </r>
       <r>    9.0887    1.0000 </r>
       <r>    9.8765    1.0007 </r>
       <r>   11.5331   -0.0000 </r>
       <r>   11.9446   -0.0000 </r>
       <r>   21.2759    0.0000 </r>
       <r>   29.6501    0.0000 </r>
       <r>   30.9002    0.0000 </r>
       <r>   33.5070    0.0000 </r>
       <r>   43.4260    0.0000 </r>
       <r>   44.3792    0.0000 </r>
      </set>
      <set comment="kpoint 24">
       <r>    7.2996    1.0000 </r>
       <r>    7.9328    1.0000 </r>
       <r>    8.5060    1.0000 </r>
       <r>   10.4937    0.1442 </r>
       <r>   11.3236   -0.0000 </r>
       <r>   14.6422   -0.0000 </r>
       <r>   20.2606    0.0000 </r>
       <r>   24.1150    0.0000 </r>
       <r>   26.3549    0.0000 </r>
       <r>   37.8357    0.0000 </r>
       <r>   40.2885    0.0000 </r>
       <r>   45.3650    0.0000 </r>
      </set>
      <set comment="kpoint 25">
       <r>    7.3095    1.0000 </r>
       <r>    7.8621    1.0000 </r>
       <r>    8.6916    1.0000 </r>
       <r>   10.6308   -0.0347 </r>
       <r>   11.6372   -0.0000 </r>
       <r>   17.1019    0.0000 </r>
       <r>   19.3217    0.0000 </r>
       <r>   22.2670    0.0000 </r>
       <r>   23.7695    0.0000 </r>
       <r>   37.8001    0.0000 </r>
       <r>   42.2474    0.0000 </r>
       <r>   44.2255    0.0000 </r>
      </set>
      <set comment="kpoint 26">
       <r>    7.1382    1.0000 </r>
       <r>    7.4895    1.0000 </r>
       <r>    9.3222    1.0000 </r>
       <r>   10.7662   -0.0131 </r>
       <r>   11.4813   -0.0000 </r>
       <r>   16.2459    0.0000 </r>
       <r>   18.7764    0.0000 </r>
       <r>   22.1564    0.0000 </r>
       <r>   28.1435    0.0000 </r>
       <r>   32.4160    0.0000 </r>
       <r>   42.8852    0.0000 </r>
       <r>   48.3881    0.0000 </r>
      </set>
      <set comment="kpoint 27">
       <r>    5.8700    1.0000 </r>
       <r>    9.3040    1.0000 </r>
       <r>    9.3040    1.0000 </r>
       <r>    9.4617    1.0000 </r>
       <r>   11.4327   -0.0000 </r>
       <r>   11.4327   -0.0000 </r>
       <r>   18.9049    0.0000 </r>
       <r>   31.9735    0.0000 </r>
       <r>   35.7767    0.0000 </r>
       <r>   35.7767    0.0000 </r>
       <r>   38.6992    0.0000 </r>
       <r>   38.6992    0.0000 </r>
      </set>
      <set comment="kpoint 28">
       <r>    6.7407    1.0000 </r>
       <r>    8.4810    1.0000 </r>
       <r>    9.1308    1.0000 </r>
       <r>    9.7080    1.0000 </r>
       <r>   11.3853   -0.0000 </r>
       <r>   13.6490   -0.0000 </r>
       <r>   17.9033    0.0000 </r>
       <r>   27.6004    0.0000 </r>
       <r>   32.5148    0.0000 </r>
       <r>   33.1810    0.0000 </r>
       <r>   42.4978    0.0000 </r>
       <r>   42.6740    0.0000 </r>
      </set>
     </set>
    </set>
   </array>
  </eigenvalues>
  <separator name="orbital magnetization" >
   <v name="MAGDIPOLOUT">      0.00000000      0.00000000      0.00000000</v>
  </separator>
  <dos>
   <i name="efermi">     10.39882145 </i>
   <total>
    <array>
     <dimension dim="1">gridpoints</dimension>
     <dimension dim="2">spin</dimension>
     <field>energy</field>
     <field>total</field>
     <field>integrated</field>
     <set>
      <set comment="spin 1">
       <r>    -0.8167     0.0000     0.0000 </r>
       <r>    -0.6362     0.0000     0.0000 </r>
       <r>    -0.4557     0.0000     0.0000 </r>
       <r>    -0.2752     0.0000     0.0000 </r>
       <r>    -0.0947    -0.0000    -0.0000 </r>
       <r>     0.0858    -0.0000    -0.0000 </r>
       <r>     0.2663    -0.0000    -0.0000 </r>
       <r>     0.4467    -0.0000    -0.0000 </r>
       <r>     0.6272    -0.0000    -0.0000 </r>
       <r>     0.8077    -0.0000    -0.0000 </r>
       <r>     0.9882    -0.0000    -0.0000 </r>
       <r>     1.1687    -0.0001    -0.0000 </r>
       <r>     1.3492    -0.0014    -0.0003 </r>
       <r>     1.5297     0.0062     0.0009 </r>
       <r>     1.7101     0.0344     0.0071 </r>
       <r>     1.8906     0.0137     0.0095 </r>
       <r>     2.0711    -0.0060     0.0084 </r>
       <r>     2.2516     0.0234     0.0127 </r>
       <r>     2.4321     0.1047     0.0316 </r>
       <r>     2.6126     0.0346     0.0378 </r>
       <r>     2.7931    -0.0088     0.0362 </r>
       <r>     2.9736     0.0538     0.0459 </r>
       <r>     3.1540     0.0970     0.0634 </r>
       <r>     3.3345     0.0049     0.0643 </r>
       <r>     3.5150     0.0288     0.0695 </r>
       <r>     3.6955     0.1377     0.0944 </r>
       <r>     3.8760     0.0407     0.1017 </r>
       <r>     4.0565     0.0191     0.1052 </r>
       <r>     4.2370     0.1943     0.1402 </r>
       <r>     4.4174     0.1171     0.1614 </r>
       <r>     4.5979     0.0886     0.1774 </r>
       <r>     4.7784     0.0472     0.1859 </r>
       <r>     4.9589     0.1254     0.2085 </r>
       <r>     5.1394     0.3177     0.2658 </r>
       <r>     5.3199     0.4940     0.3550 </r>
       <r>     5.5004     0.6038     0.4640 </r>
       <r>     5.6808     0.6525     0.5817 </r>
       <r>     5.8613     0.6468     0.6985 </r>
       <r>     6.0418     0.9132     0.8633 </r>
       <r>     6.2223     0.9827     1.0407 </r>
       <r>     6.4028     0.8793     1.1994 </r>
       <r>     6.5833     0.8544     1.3536 </r>
       <r>     6.7638     0.8695     1.5105 </r>
       <r>     6.9443     0.6567     1.6290 </r>
       <r>     7.1247     0.9485     1.8002 </r>
       <r>     7.3052     1.1148     2.0014 </r>
       <r>     7.4857     1.1952     2.2171 </r>
       <r>     7.6662     1.2928     2.4505 </r>
       <r>     7.8467     1.5588     2.7318 </r>
       <r>     8.0272     1.6899     3.0368 </r>
       <r>     8.2077     1.0460     3.2256 </r>
       <r>     8.3881     0.8880     3.3859 </r>
       <r>     8.5686     1.2421     3.6101 </r>
       <r>     8.7491     1.4742     3.8762 </r>
       <r>     8.9296     0.9375     4.0454 </r>
       <r>     9.1101     1.0741     4.2392 </r>
       <r>     9.2906     1.1649     4.4495 </r>
       <r>     9.4711     1.4367     4.7088 </r>
       <r>     9.6516     1.7638     5.0271 </r>
       <r>     9.8320     0.9294     5.1949 </r>
       <r>    10.0125     0.2908     5.2473 </r>
       <r>    10.1930     0.1316     5.2711 </r>
       <r>    10.3735     0.3031     5.3258 </r>
       <r>    10.5540     0.1602     5.3547 </r>
       <r>    10.7345     0.0608     5.3657 </r>
       <r>    10.9150     0.0959     5.3830 </r>
       <r>    11.0954     0.0874     5.3988 </r>
       <r>    11.2759     0.1444     5.4248 </r>
       <r>    11.4564     0.3441     5.4869 </r>
       <r>    11.6369     0.2304     5.5285 </r>
       <r>    11.8174    -0.0072     5.5272 </r>
       <r>    11.9979     0.0460     5.5355 </r>
       <r>    12.1784     0.2098     5.5734 </r>
       <r>    12.3589     0.0609     5.5844 </r>
       <r>    12.5393    -0.0021     5.5840 </r>
       <r>    12.7198     0.1361     5.6086 </r>
       <r>    12.9003     0.1702     5.6393 </r>
       <r>    13.0808     0.1731     5.6705 </r>
       <r>    13.2613     0.1272     5.6935 </r>
       <r>    13.4418    -0.0098     5.6917 </r>
       <r>    13.6223     0.2198     5.7314 </r>
       <r>    13.8027     0.3837     5.8006 </r>
       <r>    13.9832     0.0412     5.8081 </r>
       <r>    14.1637    -0.0189     5.8047 </r>
       <r>    14.3442     0.0077     5.8061 </r>
       <r>    14.5247     0.1768     5.8380 </r>
       <r>    14.7052     0.1359     5.8625 </r>
       <r>    14.8857    -0.0047     5.8617 </r>
       <r>    15.0661    -0.0082     5.8602 </r>
       <r>    15.2466     0.0004     5.8603 </r>
       <r>    15.4271     0.1787     5.8925 </r>
       <r>    15.6076     0.2464     5.9370 </r>
       <r>    15.7881     0.0504     5.9461 </r>
       <r>    15.9686    -0.0085     5.9446 </r>
       <r>    16.1491    -0.0091     5.9429 </r>
       <r>    16.3296     0.0328     5.9488 </r>
       <r>    16.5100     0.1997     5.9849 </r>
       <r>    16.6905     0.1080     6.0044 </r>
       <r>    16.8710     0.1046     6.0233 </r>
       <r>    17.0515     0.1353     6.0477 </r>
       <r>    17.2320     0.1974     6.0833 </r>
       <r>    17.4125     0.1484     6.1101 </r>
       <r>    17.5930     0.0417     6.1176 </r>
       <r>    17.7734     0.2010     6.1539 </r>
       <r>    17.9539     0.0801     6.1684 </r>
       <r>    18.1344     0.0598     6.1791 </r>
       <r>    18.3149     0.1579     6.2076 </r>
       <r>    18.4954     0.2151     6.2465 </r>
       <r>    18.6759     0.1392     6.2716 </r>
       <r>    18.8564     0.1943     6.3067 </r>
       <r>    19.0369     0.0614     6.3177 </r>
       <r>    19.2173     0.1743     6.3492 </r>
       <r>    19.3978     0.1165     6.3702 </r>
       <r>    19.5783     0.0432     6.3780 </r>
       <r>    19.7588     0.2068     6.4154 </r>
       <r>    19.9393     0.0657     6.4272 </r>
       <r>    20.1198    -0.0001     6.4272 </r>
       <r>    20.3003     0.0886     6.4432 </r>
       <r>    20.4807     0.0481     6.4519 </r>
       <r>    20.6612     0.2698     6.5006 </r>
       <r>    20.8417     0.3456     6.5629 </r>
       <r>    21.0222     0.0222     6.5670 </r>
       <r>    21.2027     0.1523     6.5944 </r>
       <r>    21.3832     0.1522     6.6219 </r>
       <r>    21.5637     0.3179     6.6793 </r>
       <r>    21.7442     0.3892     6.7495 </r>
       <r>    21.9246     0.0826     6.7644 </r>
       <r>    22.1051     0.1782     6.7966 </r>
       <r>    22.2856     0.2303     6.8381 </r>
       <r>    22.4661     0.1714     6.8691 </r>
       <r>    22.6466     0.0771     6.8830 </r>
       <r>    22.8271     0.0798     6.8974 </r>
       <r>    23.0076    -0.0029     6.8969 </r>
       <r>    23.1880     0.0994     6.9148 </r>
       <r>    23.3685     0.3301     6.9744 </r>
       <r>    23.5490     0.2990     7.0284 </r>
       <r>    23.7295     0.3970     7.1000 </r>
       <r>    23.9100     0.2212     7.1400 </r>
       <r>    24.0905     0.1451     7.1661 </r>
       <r>    24.2710     0.0553     7.1761 </r>
       <r>    24.4514    -0.0010     7.1760 </r>
       <r>    24.6319     0.1519     7.2034 </r>
       <r>    24.8124     0.1868     7.2371 </r>
       <r>    24.9929     0.4366     7.3159 </r>
       <r>    25.1734     0.4017     7.3884 </r>
       <r>    25.3539     0.0967     7.4058 </r>
       <r>    25.5344     0.0542     7.4156 </r>
       <r>    25.7149     0.2454     7.4599 </r>
       <r>    25.8953     0.3839     7.5292 </r>
       <r>    26.0758     0.4565     7.6116 </r>
       <r>    26.2563     0.2412     7.6551 </r>
       <r>    26.4368     0.1177     7.6764 </r>
       <r>    26.6173     0.0431     7.6842 </r>
       <r>    26.7978     0.0907     7.7005 </r>
       <r>    26.9783     0.2197     7.7402 </r>
       <r>    27.1587     0.2447     7.7843 </r>
       <r>    27.3392     0.3553     7.8485 </r>
       <r>    27.5197     0.1836     7.8816 </r>
       <r>    27.7002    -0.0105     7.8797 </r>
       <r>    27.8807     0.0894     7.8959 </r>
       <r>    28.0612     0.2831     7.9470 </r>
       <r>    28.2417     0.2339     7.9892 </r>
       <r>    28.4222     0.0370     7.9958 </r>
       <r>    28.6026     0.1382     8.0208 </r>
       <r>    28.7831     0.3468     8.0834 </r>
       <r>    28.9636     0.3852     8.1529 </r>
       <r>    29.1441     0.1915     8.1875 </r>
       <r>    29.3246     0.1379     8.2123 </r>
       <r>    29.5051     0.1718     8.2434 </r>
       <r>    29.6856     0.2678     8.2917 </r>
       <r>    29.8660     0.0360     8.2982 </r>
       <r>    30.0465    -0.0101     8.2964 </r>
       <r>    30.2270    -0.0088     8.2948 </r>
       <r>    30.4075    -0.0031     8.2942 </r>
       <r>    30.5880     0.3072     8.3497 </r>
       <r>    30.7685     0.4137     8.4243 </r>
       <r>    30.9490     0.1082     8.4438 </r>
       <r>    31.1294     0.2141     8.4825 </r>
       <r>    31.3099     0.3207     8.5404 </r>
       <r>    31.4904     0.3790     8.6088 </r>
       <r>    31.6709     0.2778     8.6589 </r>
       <r>    31.8514    -0.0082     8.6574 </r>
       <r>    32.0319     0.1262     8.6802 </r>
       <r>    32.2124     0.4152     8.7551 </r>
       <r>    32.3929     0.3605     8.8202 </r>
       <r>    32.5733     0.0873     8.8359 </r>
       <r>    32.7538     0.0129     8.8383 </r>
       <r>    32.9343     0.0368     8.8449 </r>
       <r>    33.1148     0.2909     8.8974 </r>
       <r>    33.2953     0.2690     8.9460 </r>
       <r>    33.4758     0.1037     8.9647 </r>
       <r>    33.6563     0.3216     9.0227 </r>
       <r>    33.8367     0.2861     9.0744 </r>
       <r>    34.0172     0.3335     9.1346 </r>
       <r>    34.1977     0.4340     9.2129 </r>
       <r>    34.3782     0.2596     9.2597 </r>
       <r>    34.5587     0.1574     9.2882 </r>
       <r>    34.7392     0.0415     9.2956 </r>
       <r>    34.9197     0.3703     9.3625 </r>
       <r>    35.1002     0.5643     9.4643 </r>
       <r>    35.2806     0.3342     9.5246 </r>
       <r>    35.4611     0.3166     9.5818 </r>
       <r>    35.6416     0.1254     9.6044 </r>
       <r>    35.8221     0.0732     9.6176 </r>
       <r>    36.0026     0.1241     9.6400 </r>
       <r>    36.1831     0.1737     9.6714 </r>
       <r>    36.3636     0.1617     9.7006 </r>
       <r>    36.5440     0.3168     9.7577 </r>
       <r>    36.7245     0.3380     9.8187 </r>
       <r>    36.9050     0.3139     9.8754 </r>
       <r>    37.0855     0.1598     9.9042 </r>
       <r>    37.2660     0.0950     9.9214 </r>
       <r>    37.4465     0.0822     9.9362 </r>
       <r>    37.6270     0.2272     9.9772 </r>
       <r>    37.8075     0.3856    10.0468 </r>
       <r>    37.9879     0.0638    10.0583 </r>
       <r>    38.1684    -0.0179    10.0551 </r>
       <r>    38.3489     0.0243    10.0595 </r>
       <r>    38.5294     0.0582    10.0700 </r>
       <r>    38.7099     0.0758    10.0837 </r>
       <r>    38.8904     0.2651    10.1315 </r>
       <r>    39.0709     0.4379    10.2106 </r>
       <r>    39.2513     0.3188    10.2681 </r>
       <r>    39.4318     0.0308    10.2737 </r>
       <r>    39.6123     0.0692    10.2862 </r>
       <r>    39.7928     0.1339    10.3103 </r>
       <r>    39.9733     0.7278    10.4417 </r>
       <r>    40.1538     0.7236    10.5723 </r>
       <r>    40.3343     0.2851    10.6238 </r>
       <r>    40.5147     0.1630    10.6532 </r>
       <r>    40.6952     0.0183    10.6565 </r>
       <r>    40.8757     0.0818    10.6713 </r>
       <r>    41.0562     0.2628    10.7187 </r>
       <r>    41.2367     0.1577    10.7472 </r>
       <r>    41.4172     0.2903    10.7995 </r>
       <r>    41.5977     0.2303    10.8411 </r>
       <r>    41.7782     0.2476    10.8858 </r>
       <r>    41.9586     0.3252    10.9445 </r>
       <r>    42.1391     0.2270    10.9855 </r>
       <r>    42.3196     0.1938    11.0204 </r>
       <r>    42.5001     0.2073    11.0578 </r>
       <r>    42.6806     0.2815    11.1087 </r>
       <r>    42.8611     0.1230    11.1309 </r>
       <r>    43.0416     0.0332    11.1368 </r>
       <r>    43.2220     0.0554    11.1468 </r>
       <r>    43.4025     0.4261    11.2238 </r>
       <r>    43.5830     0.3341    11.2841 </r>
       <r>    43.7635     0.1309    11.3077 </r>
       <r>    43.9440     0.2556    11.3538 </r>
       <r>    44.1245     0.3925    11.4247 </r>
       <r>    44.3050     0.2418    11.4683 </r>
       <r>    44.4855     0.0281    11.4734 </r>
       <r>    44.6659     0.2170    11.5125 </r>
       <r>    44.8464     0.2272    11.5535 </r>
       <r>    45.0269     0.0394    11.5606 </r>
       <r>    45.2074     0.2856    11.6122 </r>
       <r>    45.3879     0.1634    11.6417 </r>
       <r>    45.5684    -0.0129    11.6393 </r>
       <r>    45.7489    -0.0126    11.6371 </r>
       <r>    45.9293     0.0500    11.6461 </r>
       <r>    46.1098     0.1998    11.6821 </r>
       <r>    46.2903     0.2584    11.7288 </r>
       <r>    46.4708     0.4457    11.8092 </r>
       <r>    46.6513     0.1396    11.8344 </r>
       <r>    46.8318     0.0013    11.8347 </r>
       <r>    47.0123     0.4355    11.9133 </r>
       <r>    47.1928     0.4543    11.9953 </r>
       <r>    47.3732     0.0413    12.0027 </r>
       <r>    47.5537    -0.0140    12.0002 </r>
       <r>    47.7342    -0.0011    12.0000 </r>
       <r>    47.9147    -0.0000    12.0000 </r>
       <r>    48.0952    -0.0000    12.0000 </r>
       <r>    48.2757    -0.0000    12.0000 </r>
       <r>    48.4562    -0.0000    12.0000 </r>
       <r>    48.6366     0.0000    12.0000 </r>
       <r>    48.8171     0.0000    12.0000 </r>
       <r>    48.9976     0.0000    12.0000 </r>
       <r>    49.1781     0.0000    12.0000 </r>
       <r>    49.3586     0.0000    12.0000 </r>
       <r>    49.5391     0.0000    12.0000 </r>
       <r>    49.7196     0.0000    12.0000 </r>
       <r>    49.9000     0.0000    12.0000 </r>
       <r>    50.0805     0.0000    12.0000 </r>
       <r>    50.2610     0.0000    12.0000 </r>
       <r>    50.4415     0.0000    12.0000 </r>
       <r>    50.6220     0.0000    12.0000 </r>
       <r>    50.8025     0.0000    12.0000 </r>
       <r>    50.9830     0.0000    12.0000 </r>
       <r>    51.1635     0.0000    12.0000 </r>
       <r>    51.3439     0.0000    12.0000 </r>
       <r>    51.5244     0.0000    12.0000 </r>
       <r>    51.7049     0.0000    12.0000 </r>
       <r>    51.8854     0.0000    12.0000 </r>
       <r>    52.0659     0.0000    12.0000 </r>
       <r>    52.2464     0.0000    12.0000 </r>
       <r>    52.4269     0.0000    12.0000 </r>
       <r>    52.6073     0.0000    12.0000 </r>
       <r>    52.7878     0.0000    12.0000 </r>
       <r>    52.9683     0.0000    12.0000 </r>
       <r>    53.1488     0.0000    12.0000 </r>
       <r>    53.3293     0.0000    12.0000 </r>
      </set>
      <set comment="spin 2">
       <r>    -0.8167     0.0000     0.0000 </r>
       <r>    -0.6362     0.0000     0.0000 </r>
       <r>    -0.4557     0.0000     0.0000 </r>
       <r>    -0.2752     0.0000     0.0000 </r>
       <r>    -0.0947    -0.0000    -0.0000 </r>
       <r>     0.0858    -0.0000    -0.0000 </r>
       <r>     0.2663    -0.0000    -0.0000 </r>
       <r>     0.4467    -0.0000    -0.0000 </r>
       <r>     0.6272    -0.0000    -0.0000 </r>
       <r>     0.8077    -0.0000    -0.0000 </r>
       <r>     0.9882    -0.0000    -0.0000 </r>
       <r>     1.1687    -0.0001    -0.0000 </r>
       <r>     1.3492    -0.0012    -0.0002 </r>
       <r>     1.5297     0.0041     0.0005 </r>
       <r>     1.7101     0.0330     0.0065 </r>
       <r>     1.8906     0.0170     0.0095 </r>
       <r>     2.0711    -0.0052     0.0086 </r>
       <r>     2.2516     0.0136     0.0111 </r>
       <r>     2.4321     0.1004     0.0292 </r>
       <r>     2.6126     0.0484     0.0379 </r>
       <r>     2.7931    -0.0091     0.0363 </r>
       <r>     2.9736     0.0312     0.0419 </r>
       <r>     3.1540     0.1051     0.0609 </r>
       <r>     3.3345     0.0239     0.0652 </r>
       <r>     3.5150    -0.0035     0.0645 </r>
       <r>     3.6955     0.1052     0.0835 </r>
       <r>     3.8760     0.1024     0.1020 </r>
       <r>     4.0565    -0.0088     0.1004 </r>
       <r>     4.2370     0.0826     0.1153 </r>
       <r>     4.4174     0.2036     0.1521 </r>
       <r>     4.5979     0.0363     0.1586 </r>
       <r>     4.7784     0.0697     0.1712 </r>
       <r>     4.9589     0.0738     0.1845 </r>
       <r>     5.1394     0.0109     0.1865 </r>
       <r>     5.3199     0.1501     0.2136 </r>
       <r>     5.5004     0.1760     0.2453 </r>
       <r>     5.6808     0.1716     0.2763 </r>
       <r>     5.8613     0.2456     0.3206 </r>
       <r>     6.0418     0.1434     0.3465 </r>
       <r>     6.2223     0.2081     0.3841 </r>
       <r>     6.4028     0.4342     0.4625 </r>
       <r>     6.5833     0.4854     0.5501 </r>
       <r>     6.7638     0.5231     0.6445 </r>
       <r>     6.9443     0.3658     0.7105 </r>
       <r>     7.1247     0.4158     0.7855 </r>
       <r>     7.3052     0.8199     0.9335 </r>
       <r>     7.4857     0.7858     1.0754 </r>
       <r>     7.6662     0.7099     1.2035 </r>
       <r>     7.8467     0.7111     1.3318 </r>
       <r>     8.0272     0.8116     1.4783 </r>
       <r>     8.2077     0.5849     1.5839 </r>
       <r>     8.3881     0.6141     1.6947 </r>
       <r>     8.5686     1.0079     1.8766 </r>
       <r>     8.7491     1.2034     2.0938 </r>
       <r>     8.9296     0.7939     2.2371 </r>
       <r>     9.1101     0.9449     2.4076 </r>
       <r>     9.2906     1.0843     2.6033 </r>
       <r>     9.4711     1.0868     2.7995 </r>
       <r>     9.6516     1.3047     3.0350 </r>
       <r>     9.8320     0.9839     3.2126 </r>
       <r>    10.0125     0.7301     3.3443 </r>
       <r>    10.1930     0.6983     3.4704 </r>
       <r>    10.3735     0.9177     3.6360 </r>
       <r>    10.5540     1.2270     3.8575 </r>
       <r>    10.7345     0.7184     3.9871 </r>
       <r>    10.9150     1.1229     4.1898 </r>
       <r>    11.0954     1.2486     4.4152 </r>
       <r>    11.2759     0.8750     4.5731 </r>
       <r>    11.4564     1.6084     4.8634 </r>
       <r>    11.6369     1.4597     5.1268 </r>
       <r>    11.8174     0.7294     5.2585 </r>
       <r>    11.9979     0.4890     5.3468 </r>
       <r>    12.1784     0.3011     5.4011 </r>
       <r>    12.3589     0.0737     5.4144 </r>
       <r>    12.5393     0.0355     5.4208 </r>
       <r>    12.7198     0.1928     5.4556 </r>
       <r>    12.9003     0.2185     5.4950 </r>
       <r>    13.0808     0.1875     5.5289 </r>
       <r>    13.2613     0.1942     5.5639 </r>
       <r>    13.4418     0.1660     5.5939 </r>
       <r>    13.6223     0.1498     5.6209 </r>
       <r>    13.8027     0.1689     5.6514 </r>
       <r>    13.9832     0.0823     5.6663 </r>
       <r>    14.1637     0.0394     5.6734 </r>
       <r>    14.3442     0.0848     5.6887 </r>
       <r>    14.5247     0.1686     5.7191 </r>
       <r>    14.7052     0.3910     5.7897 </r>
       <r>    14.8857     0.0950     5.8068 </r>
       <r>    15.0661     0.0526     5.8163 </r>
       <r>    15.2466     0.2080     5.8539 </r>
       <r>    15.4271     0.0498     5.8629 </r>
       <r>    15.6076    -0.0090     5.8613 </r>
       <r>    15.7881    -0.0034     5.8606 </r>
       <r>    15.9686    -0.0127     5.8583 </r>
       <r>    16.1491     0.1341     5.8825 </r>
       <r>    16.3296     0.3009     5.9369 </r>
       <r>    16.5100     0.0546     5.9467 </r>
       <r>    16.6905    -0.0137     5.9442 </r>
       <r>    16.8710    -0.0095     5.9425 </r>
       <r>    17.0515     0.1012     5.9608 </r>
       <r>    17.2320     0.1992     5.9967 </r>
       <r>    17.4125     0.0235     6.0010 </r>
       <r>    17.5930    -0.0120     5.9988 </r>
       <r>    17.7734     0.0805     6.0133 </r>
       <r>    17.9539     0.2328     6.0554 </r>
       <r>    18.1344     0.2526     6.1009 </r>
       <r>    18.3149     0.1439     6.1269 </r>
       <r>    18.4954     0.1899     6.1612 </r>
       <r>    18.6759     0.0567     6.1714 </r>
       <r>    18.8564     0.1068     6.1907 </r>
       <r>    19.0369     0.0754     6.2043 </r>
       <r>    19.2173     0.2356     6.2468 </r>
       <r>    19.3978     0.3222     6.3050 </r>
       <r>    19.5783     0.0578     6.3154 </r>
       <r>    19.7588     0.0838     6.3305 </r>
       <r>    19.9393     0.1900     6.3648 </r>
       <r>    20.1198     0.0507     6.3740 </r>
       <r>    20.3003     0.1850     6.4074 </r>
       <r>    20.4807     0.1122     6.4276 </r>
       <r>    20.6612    -0.0124     6.4254 </r>
       <r>    20.8417     0.0351     6.4317 </r>
       <r>    21.0222     0.0897     6.4479 </r>
       <r>    21.2027     0.1075     6.4673 </r>
       <r>    21.3832     0.3309     6.5271 </r>
       <r>    21.5637     0.1880     6.5610 </r>
       <r>    21.7442     0.1587     6.5896 </r>
       <r>    21.9246     0.1667     6.6197 </r>
       <r>    22.1051     0.2448     6.6639 </r>
       <r>    22.2856     0.3881     6.7339 </r>
       <r>    22.4661     0.2494     6.7790 </r>
       <r>    22.6466     0.1782     6.8111 </r>
       <r>    22.8271     0.1371     6.8359 </r>
       <r>    23.0076     0.1802     6.8684 </r>
       <r>    23.1880     0.0895     6.8845 </r>
       <r>    23.3685     0.0701     6.8972 </r>
       <r>    23.5490     0.0001     6.8972 </r>
       <r>    23.7295     0.2190     6.9367 </r>
       <r>    23.9100     0.3479     6.9995 </r>
       <r>    24.0905     0.3958     7.0709 </r>
       <r>    24.2710     0.4067     7.1444 </r>
       <r>    24.4514     0.0551     7.1543 </r>
       <r>    24.6319     0.0904     7.1706 </r>
       <r>    24.8124     0.0225     7.1747 </r>
       <r>    24.9929     0.0420     7.1823 </r>
       <r>    25.1734     0.2954     7.2356 </r>
       <r>    25.3539     0.4417     7.3153 </r>
       <r>    25.5344     0.3347     7.3757 </r>
       <r>    25.7149     0.1358     7.4002 </r>
       <r>    25.8953     0.0946     7.4173 </r>
       <r>    26.0758     0.2715     7.4663 </r>
       <r>    26.2563     0.3008     7.5206 </r>
       <r>    26.4368     0.4625     7.6041 </r>
       <r>    26.6173     0.2909     7.6566 </r>
       <r>    26.7978     0.1122     7.6768 </r>
       <r>    26.9783     0.0580     7.6873 </r>
       <r>    27.1587     0.1533     7.7149 </r>
       <r>    27.3392     0.1906     7.7493 </r>
       <r>    27.5197     0.2538     7.7951 </r>
       <r>    27.7002     0.3311     7.8549 </r>
       <r>    27.8807     0.1450     7.8811 </r>
       <r>    28.0612     0.0163     7.8840 </r>
       <r>    28.2417     0.1175     7.9052 </r>
       <r>    28.4222     0.2466     7.9497 </r>
       <r>    28.6026     0.2131     7.9882 </r>
       <r>    28.7831     0.0624     7.9994 </r>
       <r>    28.9636     0.2744     8.0490 </r>
       <r>    29.1441     0.4360     8.1277 </r>
       <r>    29.3246     0.2276     8.1687 </r>
       <r>    29.5051     0.2053     8.2058 </r>
       <r>    29.6856     0.1413     8.2313 </r>
       <r>    29.8660     0.1817     8.2641 </r>
       <r>    30.0465     0.1755     8.2958 </r>
       <r>    30.2270     0.0085     8.2973 </r>
       <r>    30.4075    -0.0110     8.2953 </r>
       <r>    30.5880     0.0054     8.2963 </r>
       <r>    30.7685     0.1591     8.3250 </r>
       <r>    30.9490     0.5237     8.4195 </r>
       <r>    31.1294     0.2605     8.4665 </r>
       <r>    31.3099    -0.0193     8.4631 </r>
       <r>    31.4904     0.2010     8.4993 </r>
       <r>    31.6709     0.3457     8.5617 </r>
       <r>    31.8514     0.3573     8.6262 </r>
       <r>    32.0319     0.3115     8.6824 </r>
       <r>    32.2124     0.1674     8.7126 </r>
       <r>    32.3929     0.1937     8.7476 </r>
       <r>    32.5733     0.3513     8.8110 </r>
       <r>    32.7538     0.1778     8.8431 </r>
       <r>    32.9343    -0.0084     8.8416 </r>
       <r>    33.1148     0.0658     8.8535 </r>
       <r>    33.2953     0.2206     8.8933 </r>
       <r>    33.4758     0.2263     8.9341 </r>
       <r>    33.6563     0.1989     8.9700 </r>
       <r>    33.8367     0.2808     9.0207 </r>
       <r>    34.0172     0.2675     9.0690 </r>
       <r>    34.1977     0.3103     9.1250 </r>
       <r>    34.3782     0.6065     9.2345 </r>
       <r>    34.5587     0.1977     9.2702 </r>
       <r>    34.7392     0.0065     9.2714 </r>
       <r>    34.9197     0.0958     9.2886 </r>
       <r>    35.1002     0.5209     9.3827 </r>
       <r>    35.2806     0.6038     9.4917 </r>
       <r>    35.4611     0.2438     9.5357 </r>
       <r>    35.6416     0.1209     9.5575 </r>
       <r>    35.8221     0.1109     9.5775 </r>
       <r>    36.0026     0.1244     9.5999 </r>
       <r>    36.1831     0.0460     9.6082 </r>
       <r>    36.3636     0.1602     9.6372 </r>
       <r>    36.5440     0.2475     9.6818 </r>
       <r>    36.7245     0.4258     9.7587 </r>
       <r>    36.9050     0.3631     9.8242 </r>
       <r>    37.0855     0.2159     9.8632 </r>
       <r>    37.2660     0.1761     9.8950 </r>
       <r>    37.4465     0.1531     9.9226 </r>
       <r>    37.6270     0.0656     9.9344 </r>
       <r>    37.8075     0.3381     9.9954 </r>
       <r>    37.9879     0.3336    10.0557 </r>
       <r>    38.1684     0.0096    10.0574 </r>
       <r>    38.3489    -0.0115    10.0553 </r>
       <r>    38.5294     0.0011    10.0555 </r>
       <r>    38.7099     0.0551    10.0655 </r>
       <r>    38.8904     0.0341    10.0716 </r>
       <r>    39.0709     0.0546    10.0815 </r>
       <r>    39.2513     0.3758    10.1493 </r>
       <r>    39.4318     0.3407    10.2108 </r>
       <r>    39.6123     0.3015    10.2652 </r>
       <r>    39.7928     0.1324    10.2891 </r>
       <r>    39.9733     0.1096    10.3089 </r>
       <r>    40.1538     0.4863    10.3967 </r>
       <r>    40.3343     1.0064    10.5783 </r>
       <r>    40.5147     0.3583    10.6430 </r>
       <r>    40.6952     0.0642    10.6546 </r>
       <r>    40.8757     0.0116    10.6567 </r>
       <r>    41.0562     0.0283    10.6618 </r>
       <r>    41.2367     0.2102    10.6997 </r>
       <r>    41.4172     0.1973    10.7354 </r>
       <r>    41.5977     0.3155    10.7923 </r>
       <r>    41.7782     0.2683    10.8407 </r>
       <r>    41.9586     0.0786    10.8549 </r>
       <r>    42.1391     0.3653    10.9208 </r>
       <r>    42.3196     0.3828    10.9899 </r>
       <r>    42.5001     0.1416    11.0155 </r>
       <r>    42.6806     0.2001    11.0516 </r>
       <r>    42.8611     0.2317    11.0934 </r>
       <r>    43.0416     0.1079    11.1129 </r>
       <r>    43.2220     0.0888    11.1289 </r>
       <r>    43.4025     0.2473    11.1736 </r>
       <r>    43.5830     0.4355    11.2521 </r>
       <r>    43.7635     0.1552    11.2802 </r>
       <r>    43.9440    -0.0321    11.2744 </r>
       <r>    44.1245     0.1080    11.2938 </r>
       <r>    44.3050     0.5542    11.3939 </r>
       <r>    44.4855     0.4146    11.4687 </r>
       <r>    44.6659     0.0420    11.4763 </r>
       <r>    44.8464     0.0820    11.4911 </r>
       <r>    45.0269     0.0517    11.5004 </r>
       <r>    45.2074     0.0939    11.5173 </r>
       <r>    45.3879     0.2378    11.5603 </r>
       <r>    45.5684     0.2644    11.6080 </r>
       <r>    45.7489     0.1712    11.6389 </r>
       <r>    45.9293     0.0057    11.6399 </r>
       <r>    46.1098    -0.0102    11.6381 </r>
       <r>    46.2903    -0.0047    11.6372 </r>
       <r>    46.4708     0.1838    11.6704 </r>
       <r>    46.6513     0.2645    11.7181 </r>
       <r>    46.8318     0.0261    11.7229 </r>
       <r>    47.0123    -0.0026    11.7224 </r>
       <r>    47.1928     0.1834    11.7555 </r>
       <r>    47.3732     0.2931    11.8084 </r>
       <r>    47.5537     0.1462    11.8348 </r>
       <r>    47.7342    -0.0040    11.8341 </r>
       <r>    47.9147    -0.0077    11.8327 </r>
       <r>    48.0952    -0.0081    11.8312 </r>
       <r>    48.2757     0.1591    11.8599 </r>
       <r>    48.4562     0.2738    11.9093 </r>
       <r>    48.6366     0.0589    11.9200 </r>
       <r>    48.8171     0.0881    11.9359 </r>
       <r>    48.9976     0.0527    11.9454 </r>
       <r>    49.1781    -0.0041    11.9446 </r>
       <r>    49.3586    -0.0011    11.9444 </r>
       <r>    49.5391    -0.0000    11.9444 </r>
       <r>    49.7196    -0.0000    11.9444 </r>
       <r>    49.9000    -0.0000    11.9444 </r>
       <r>    50.0805    -0.0000    11.9444 </r>
       <r>    50.2610    -0.0004    11.9444 </r>
       <r>    50.4415    -0.0052    11.9434 </r>
       <r>    50.6220     0.0198    11.9470 </r>
       <r>    50.8025     0.1470    11.9735 </r>
       <r>    50.9830     0.1378    11.9984 </r>
       <r>    51.1635     0.0138    12.0009 </r>
       <r>    51.3439    -0.0047    12.0001 </r>
       <r>    51.5244    -0.0003    12.0000 </r>
       <r>    51.7049    -0.0000    12.0000 </r>
       <r>    51.8854    -0.0000    12.0000 </r>
       <r>    52.0659    -0.0000    12.0000 </r>
       <r>    52.2464    -0.0000    12.0000 </r>
       <r>    52.4269     0.0000    12.0000 </r>
       <r>    52.6073     0.0000    12.0000 </r>
       <r>    52.7878     0.0000    12.0000 </r>
       <r>    52.9683     0.0000    12.0000 </r>
       <r>    53.1488     0.0000    12.0000 </r>
       <r>    53.3293     0.0000    12.0000 </r>
      </set>
     </set>
    </array>
   </total>
  </dos>
 </calculation>
 <structure name="finalpos" >
  <crystal>
   <varray name="basis" >
    <v>       0.00000000       1.75500000       1.75500000 </v>
    <v>       1.75500000       0.00000000       1.75500000 </v>
    <v>       1.75500000       1.75500000       0.00000000 </v>
   </varray>
   <i name="volume">     10.81088775 </i>
   <varray name="rec_basis" >
    <v>      -0.28490028       0.28490028       0.28490028 </v>
    <v>       0.28490028      -0.28490028       0.28490028 </v>
    <v>       0.28490028       0.28490028      -0.28490028 </v>
   </varray>
  </crystal>
  <varray name="positions" >
   <v>       0.00000000       0.00000000       0.00000000 </v>
  </varray>
 </structure>
</modeling>
