   1   1   0   0
  0.1081089E+02  0.2481945E-09  0.2481945E-09  0.2481945E-09  0.5000000E-15
  1.000000000000000E-004
  CAR 
 Co fcc                                  
     53.37806879     -0.81910506  301     10.39948573      1.00000000
     -0.819  0.0000E+00  0.0000E+00  0.0000E+00  0.0000E+00
     -0.638  0.0000E+00  0.0000E+00  0.0000E+00  0.0000E+00
     -0.458  0.0000E+00  0.0000E+00  0.0000E+00  0.0000E+00
     -0.277  0.0000E+00  0.0000E+00  0.0000E+00  0.0000E+00
     -0.096 -0.1566E-33 -0.3593E-34 -0.2830E-34 -0.6491E-35
      0.084 -0.4191E-27 -0.1122E-27 -0.7571E-28 -0.2026E-28
      0.265 -0.2163E-21 -0.6757E-22 -0.3908E-22 -0.1221E-22
      0.445 -0.2146E-16 -0.7827E-17 -0.3878E-17 -0.1414E-17
      0.626 -0.3916E-12 -0.1670E-12 -0.7075E-13 -0.3018E-13
      0.807 -0.1381E-08 -0.6894E-09 -0.2495E-09 -0.1246E-09
      0.987 -0.8910E-06 -0.5227E-06 -0.1612E-06 -0.9455E-07
      1.168 -0.9828E-04 -0.6844E-04 -0.1792E-04 -0.1246E-04
      1.349 -0.1367E-02 -0.1201E-02 -0.2650E-03 -0.2295E-03
      1.529  0.6162E-02  0.4092E-02  0.8482E-03  0.5098E-03
      1.710  0.3436E-01  0.3304E-01  0.7055E-02  0.6478E-02
      1.891  0.1363E-01  0.1693E-01  0.9518E-02  0.9536E-02
      2.071 -0.5976E-02 -0.5195E-02  0.8438E-02  0.8597E-02
      2.252  0.2363E-01  0.1390E-01  0.1271E-01  0.1111E-01
      2.433  0.1048E+00  0.1006E+00  0.3163E-01  0.2929E-01
      2.613  0.3411E-01  0.4771E-01  0.3779E-01  0.3791E-01
      2.794 -0.8693E-02 -0.9151E-02  0.3622E-01  0.3626E-01
      2.975  0.5452E-01  0.3201E-01  0.4607E-01  0.4204E-01
      3.155  0.9656E-01  0.1050E+00  0.6352E-01  0.6100E-01
      3.336  0.4414E-02  0.2297E-01  0.6431E-01  0.6515E-01
      3.517  0.2985E-01 -0.3033E-02  0.6971E-01  0.6461E-01
      3.697  0.1378E+00  0.1066E+00  0.9461E-01  0.8387E-01
      3.878  0.3919E-01  0.1007E+00  0.1017E+00  0.1021E+00
      4.059  0.2064E-01 -0.9265E-02  0.1054E+00  0.1004E+00
      4.239  0.1955E+00  0.8560E-01  0.1407E+00  0.1159E+00
      4.420  0.1152E+00  0.2024E+00  0.1615E+00  0.1524E+00
      4.601  0.8884E-01  0.3454E-01  0.1776E+00  0.1587E+00
      4.781  0.4649E-01  0.7141E-01  0.1860E+00  0.1716E+00
      4.962  0.1284E+00  0.7200E-01  0.2092E+00  0.1846E+00
      5.143  0.3203E+00  0.1174E-01  0.2670E+00  0.1867E+00
      5.323  0.4970E+00  0.1530E+00  0.3568E+00  0.2143E+00
      5.504  0.6046E+00  0.1745E+00  0.4660E+00  0.2459E+00
      5.685  0.6522E+00  0.1736E+00  0.5839E+00  0.2772E+00
      5.865  0.6491E+00  0.2448E+00  0.7011E+00  0.3215E+00
      6.046  0.9180E+00  0.1418E+00  0.8670E+00  0.3471E+00
      6.227  0.9819E+00  0.2122E+00  0.1044E+01  0.3854E+00
      6.407  0.8747E+00  0.4384E+00  0.1202E+01  0.4646E+00
      6.588  0.8595E+00  0.4851E+00  0.1358E+01  0.5522E+00
      6.768  0.8614E+00  0.5231E+00  0.1513E+01  0.6467E+00
      6.949  0.6607E+00  0.3597E+00  0.1633E+01  0.7117E+00
      7.130  0.9542E+00  0.4260E+00  0.1805E+01  0.7887E+00
      7.310  0.1118E+01  0.8259E+00  0.2007E+01  0.9379E+00
      7.491  0.1196E+01  0.7799E+00  0.2223E+01  0.1079E+01
      7.672  0.1297E+01  0.7111E+00  0.2457E+01  0.1207E+01
      7.852  0.1570E+01  0.7122E+00  0.2741E+01  0.1336E+01
      8.033  0.1678E+01  0.8103E+00  0.3044E+01  0.1482E+01
      8.214  0.1031E+01  0.5783E+00  0.3230E+01  0.1587E+01
      8.394  0.8910E+00  0.6230E+00  0.3391E+01  0.1699E+01
      8.575  0.1261E+01  0.1021E+01  0.3619E+01  0.1884E+01
      8.756  0.1462E+01  0.1198E+01  0.3883E+01  0.2100E+01
      8.936  0.9269E+00  0.7820E+00  0.4051E+01  0.2242E+01
      9.117  0.1088E+01  0.9606E+00  0.4247E+01  0.2415E+01
      9.298  0.1159E+01  0.1079E+01  0.4457E+01  0.2610E+01
      9.478  0.1466E+01  0.1095E+01  0.4722E+01  0.2808E+01
      9.659  0.1743E+01  0.1305E+01  0.5036E+01  0.3043E+01
      9.840  0.8987E+00  0.9662E+00  0.5199E+01  0.3218E+01
     10.020  0.2721E+00  0.7280E+00  0.5248E+01  0.3349E+01
     10.201  0.1388E+00  0.6977E+00  0.5273E+01  0.3475E+01
     10.382  0.3027E+00  0.9398E+00  0.5328E+01  0.3645E+01
     10.562  0.1529E+00  0.1214E+01  0.5355E+01  0.3865E+01
     10.743  0.6042E-01  0.7117E+00  0.5366E+01  0.3993E+01
     10.924  0.9687E-01  0.1151E+01  0.5384E+01  0.4201E+01
     11.104  0.8768E-01  0.1225E+01  0.5400E+01  0.4422E+01
     11.285  0.1511E+00  0.8903E+00  0.5427E+01  0.4583E+01
     11.466  0.3506E+00  0.1631E+01  0.5490E+01  0.4878E+01
     11.646  0.2147E+00  0.1430E+01  0.5529E+01  0.5136E+01
     11.827 -0.1120E-01  0.6987E+00  0.5527E+01  0.5262E+01
     12.008  0.5566E-01  0.4908E+00  0.5537E+01  0.5351E+01
     12.188  0.2100E+00  0.2831E+00  0.5575E+01  0.5402E+01
     12.369  0.5103E-01  0.6849E-01  0.5584E+01  0.5415E+01
     12.550  0.1757E-02  0.3992E-01  0.5585E+01  0.5422E+01
     12.730  0.1441E+00  0.1991E+00  0.5611E+01  0.5458E+01
     12.911  0.1672E+00  0.2180E+00  0.5641E+01  0.5497E+01
     13.092  0.1761E+00  0.1843E+00  0.5673E+01  0.5531E+01
     13.272  0.1172E+00  0.1974E+00  0.5694E+01  0.5566E+01
     13.453 -0.9791E-02  0.1616E+00  0.5692E+01  0.5595E+01
     13.633  0.2449E+00  0.1519E+00  0.5736E+01  0.5623E+01
     13.814  0.3677E+00  0.1672E+00  0.5803E+01  0.5653E+01
     13.995  0.2829E-01  0.7476E-01  0.5808E+01  0.5667E+01
     14.175 -0.1822E-01  0.4340E-01  0.5804E+01  0.5674E+01
     14.356  0.1377E-01  0.8362E-01  0.5807E+01  0.5689E+01
     14.537  0.1868E+00  0.1874E+00  0.5841E+01  0.5723E+01
     14.717  0.1222E+00  0.3854E+00  0.5863E+01  0.5793E+01
     14.898 -0.6858E-02  0.7573E-01  0.5862E+01  0.5807E+01
     15.079 -0.8471E-02  0.6626E-01  0.5860E+01  0.5819E+01
     15.259  0.5356E-02  0.2054E+00  0.5861E+01  0.5856E+01
     15.440  0.1950E+00  0.3888E-01  0.5896E+01  0.5863E+01
     15.621  0.2354E+00 -0.8400E-02  0.5939E+01  0.5861E+01
     15.801  0.4007E-01 -0.3886E-02  0.5946E+01  0.5861E+01
     15.982 -0.8405E-02 -0.1123E-01  0.5944E+01  0.5858E+01
     16.163 -0.9575E-02  0.1559E+00  0.5943E+01  0.5887E+01
     16.343  0.4377E-01  0.2913E+00  0.5951E+01  0.5939E+01
     16.524  0.2039E+00  0.3992E-01  0.5987E+01  0.5946E+01
     16.705  0.9883E-01 -0.1313E-01  0.6005E+01  0.5944E+01
     16.885  0.1098E+00 -0.7887E-02  0.6025E+01  0.5943E+01
     17.066  0.1365E+00  0.1176E+00  0.6050E+01  0.5964E+01
     17.247  0.2040E+00  0.1897E+00  0.6087E+01  0.5998E+01
     17.427  0.1321E+00  0.1383E-01  0.6111E+01  0.6001E+01
     17.608  0.5055E-01 -0.9225E-02  0.6120E+01  0.5999E+01
     17.789  0.2042E+00  0.9341E-01  0.6157E+01  0.6016E+01
     17.969  0.6676E-01  0.2427E+00  0.6169E+01  0.6060E+01
     18.150  0.6852E-01  0.2420E+00  0.6181E+01  0.6103E+01
     18.331  0.1654E+00  0.1465E+00  0.6211E+01  0.6130E+01
     18.511  0.2115E+00  0.1824E+00  0.6249E+01  0.6163E+01
     18.692  0.1403E+00  0.5336E-01  0.6274E+01  0.6173E+01
     18.873  0.1895E+00  0.1098E+00  0.6309E+01  0.6192E+01
     19.053  0.5745E-01  0.7564E-01  0.6319E+01  0.6206E+01
     19.234  0.1866E+00  0.2597E+00  0.6353E+01  0.6253E+01
     19.415  0.9737E-01  0.3045E+00  0.6370E+01  0.6308E+01
     19.595  0.5701E-01  0.4120E-01  0.6381E+01  0.6315E+01
     19.776  0.2078E+00  0.1031E+00  0.6418E+01  0.6334E+01
     19.956  0.4857E-01  0.1795E+00  0.6427E+01  0.6366E+01
     20.137  0.5970E-02  0.5094E-01  0.6428E+01  0.6376E+01
     20.318  0.9218E-01  0.1961E+00  0.6445E+01  0.6411E+01
     20.498  0.4729E-01  0.9203E-01  0.6453E+01  0.6428E+01
     20.679  0.3073E+00 -0.1349E-01  0.6509E+01  0.6425E+01
     20.860  0.3103E+00  0.4504E-01  0.6565E+01  0.6433E+01
     21.040  0.1693E-01  0.8583E-01  0.6568E+01  0.6449E+01
     21.221  0.1678E+00  0.1280E+00  0.6598E+01  0.6472E+01
     21.402  0.1474E+00  0.3348E+00  0.6625E+01  0.6533E+01
     21.582  0.3515E+00  0.1691E+00  0.6688E+01  0.6563E+01
     21.763  0.3574E+00  0.1689E+00  0.6753E+01  0.6594E+01
     21.944  0.7357E-01  0.1592E+00  0.6766E+01  0.6622E+01
     22.124  0.1930E+00  0.2721E+00  0.6801E+01  0.6672E+01
     22.305  0.2301E+00  0.3784E+00  0.6843E+01  0.6740E+01
     22.486  0.1551E+00  0.2406E+00  0.6871E+01  0.6783E+01
     22.666  0.7989E-01  0.1653E+00  0.6885E+01  0.6813E+01
     22.847  0.7059E-01  0.1487E+00  0.6898E+01  0.6840E+01
     23.028 -0.4017E-02  0.1677E+00  0.6897E+01  0.6870E+01
     23.208  0.1262E+00  0.9009E-01  0.6920E+01  0.6887E+01
     23.389  0.3396E+00  0.5898E-01  0.6981E+01  0.6897E+01
     23.570  0.3006E+00  0.7200E-02  0.7036E+01  0.6899E+01
     23.750  0.3952E+00  0.2554E+00  0.7107E+01  0.6945E+01
     23.931  0.1998E+00  0.3371E+00  0.7143E+01  0.7006E+01
     24.112  0.1412E+00  0.4245E+00  0.7169E+01  0.7082E+01
     24.292  0.4093E-01  0.3608E+00  0.7176E+01  0.7147E+01
     24.473  0.7601E-02  0.4438E-01  0.7177E+01  0.7156E+01
     24.654  0.1684E+00  0.9255E-01  0.7208E+01  0.7172E+01
     24.834  0.1941E+00  0.1155E-01  0.7243E+01  0.7174E+01
     25.015  0.4709E+00  0.6524E-01  0.7328E+01  0.7186E+01
     25.196  0.3586E+00  0.3247E+00  0.7393E+01  0.7245E+01
     25.376  0.7483E-01  0.4444E+00  0.7406E+01  0.7325E+01
     25.557  0.7295E-01  0.3053E+00  0.7419E+01  0.7380E+01
     25.738  0.2626E+00  0.1200E+00  0.7467E+01  0.7402E+01
     25.918  0.4081E+00  0.1107E+00  0.7541E+01  0.7422E+01
     26.099  0.4361E+00  0.2821E+00  0.7619E+01  0.7473E+01
     26.279  0.2167E+00  0.3175E+00  0.7658E+01  0.7530E+01
     26.460  0.1103E+00  0.4634E+00  0.7678E+01  0.7614E+01
     26.641  0.3409E-01  0.2554E+00  0.7685E+01  0.7660E+01
     26.821  0.1151E+00  0.1029E+00  0.7705E+01  0.7679E+01
     27.002  0.2207E+00  0.5900E-01  0.7745E+01  0.7689E+01
     27.183  0.2584E+00  0.1692E+00  0.7792E+01  0.7720E+01
     27.363  0.3570E+00  0.1906E+00  0.7856E+01  0.7754E+01
     27.544  0.1412E+00  0.2689E+00  0.7882E+01  0.7803E+01
     27.725 -0.9360E-02  0.3261E+00  0.7880E+01  0.7862E+01
     27.905  0.1137E+00  0.1077E+00  0.7901E+01  0.7881E+01
     28.086  0.3023E+00  0.2582E-01  0.7955E+01  0.7886E+01
     28.267  0.1963E+00  0.1316E+00  0.7991E+01  0.7910E+01
     28.447  0.3836E-01  0.2642E+00  0.7998E+01  0.7957E+01
     28.628  0.1593E+00  0.1801E+00  0.8027E+01  0.7990E+01
     28.809  0.3812E+00  0.7312E-01  0.8095E+01  0.8003E+01
     28.989  0.3486E+00  0.3154E+00  0.8158E+01  0.8060E+01
     29.170  0.1887E+00  0.4209E+00  0.8192E+01  0.8136E+01
     29.351  0.1217E+00  0.2074E+00  0.8214E+01  0.8174E+01
     29.531  0.2044E+00  0.2036E+00  0.8251E+01  0.8210E+01
     29.712  0.2411E+00  0.1347E+00  0.8295E+01  0.8235E+01
     29.893  0.1559E-01  0.1971E+00  0.8298E+01  0.8270E+01
     30.073 -0.8231E-02  0.1488E+00  0.8296E+01  0.8297E+01
     30.254 -0.1162E-01 -0.1803E-02  0.8294E+01  0.8297E+01
     30.435  0.1634E-01 -0.1048E-01  0.8297E+01  0.8295E+01
     30.615  0.3672E+00  0.1457E-01  0.8363E+01  0.8298E+01
     30.796  0.3654E+00  0.2095E+00  0.8429E+01  0.8336E+01
     30.977  0.9621E-01  0.5417E+00  0.8447E+01  0.8433E+01
     31.157  0.2483E+00  0.1822E+00  0.8492E+01  0.8466E+01
     31.338  0.3151E+00 -0.7596E-02  0.8549E+01  0.8465E+01
     31.519  0.4002E+00  0.2445E+00  0.8621E+01  0.8509E+01
     31.699  0.2162E+00  0.3426E+00  0.8660E+01  0.8571E+01
     31.880 -0.1132E-01  0.3647E+00  0.8658E+01  0.8637E+01
     32.061  0.1715E+00  0.2855E+00  0.8689E+01  0.8688E+01
     32.241  0.4389E+00  0.1547E+00  0.8768E+01  0.8716E+01
     32.422  0.3166E+00  0.2240E+00  0.8825E+01  0.8757E+01
     32.602  0.6013E-01  0.3472E+00  0.8836E+01  0.8820E+01
     32.783  0.1215E-01  0.1349E+00  0.8838E+01  0.8844E+01
     32.964  0.6090E-01 -0.1456E-01  0.8849E+01  0.8841E+01
     33.144  0.3268E+00  0.9857E-01  0.8909E+01  0.8859E+01
     33.325  0.2240E+00  0.2250E+00  0.8949E+01  0.8900E+01
     33.506  0.1234E+00  0.2285E+00  0.8971E+01  0.8941E+01
     33.686  0.3424E+00  0.1930E+00  0.9033E+01  0.8976E+01
     33.867  0.2701E+00  0.3080E+00  0.9082E+01  0.9032E+01
     34.048  0.3656E+00  0.2344E+00  0.9148E+01  0.9074E+01
     34.228  0.4170E+00  0.3851E+00  0.9223E+01  0.9143E+01
     34.409  0.2341E+00  0.5723E+00  0.9266E+01  0.9247E+01
     34.590  0.1371E+00  0.1305E+00  0.9290E+01  0.9270E+01
     34.770  0.5282E-01  0.1249E-01  0.9300E+01  0.9273E+01
     34.951  0.4546E+00  0.1333E+00  0.9382E+01  0.9297E+01
     35.132  0.5222E+00  0.6109E+00  0.9476E+01  0.9407E+01
     35.312  0.3250E+00  0.5206E+00  0.9535E+01  0.9501E+01
     35.493  0.2978E+00  0.2249E+00  0.9589E+01  0.9542E+01
     35.674  0.9408E-01  0.9751E-01  0.9606E+01  0.9559E+01
     35.854  0.8338E-01  0.1305E+00  0.9621E+01  0.9583E+01
     36.035  0.1360E+00  0.1011E+00  0.9646E+01  0.9601E+01
     36.216  0.1697E+00  0.5753E-01  0.9676E+01  0.9612E+01
     36.396  0.1776E+00  0.1803E+00  0.9708E+01  0.9644E+01
     36.577  0.3420E+00  0.2691E+00  0.9770E+01  0.9693E+01
     36.758  0.3234E+00  0.4485E+00  0.9828E+01  0.9774E+01
     36.938  0.3073E+00  0.3237E+00  0.9884E+01  0.9832E+01
     37.119  0.1265E+00  0.2020E+00  0.9907E+01  0.9869E+01
     37.300  0.9805E-01  0.1812E+00  0.9925E+01  0.9902E+01
     37.480  0.8304E-01  0.1275E+00  0.9940E+01  0.9925E+01
     37.661  0.2861E+00  0.8740E-01  0.9991E+01  0.9940E+01
     37.842  0.3426E+00  0.3926E+00  0.1005E+02  0.1001E+02
     38.022  0.2413E-01  0.2609E+00  0.1006E+02  0.1006E+02
     38.203 -0.1355E-01 -0.9797E-02  0.1006E+02  0.1006E+02
     38.384  0.3649E-01 -0.8597E-02  0.1006E+02  0.1006E+02
     38.564  0.5282E-01  0.7245E-02  0.1007E+02  0.1006E+02
     38.745  0.1052E+00  0.6338E-01  0.1009E+02  0.1007E+02
     38.925  0.2977E+00  0.1827E-01  0.1014E+02  0.1007E+02
     39.106  0.4586E+00  0.1070E+00  0.1023E+02  0.1009E+02
     39.287  0.2421E+00  0.4030E+00  0.1027E+02  0.1016E+02
     39.467  0.2857E-01  0.3265E+00  0.1028E+02  0.1022E+02
     39.648  0.6646E-01  0.2774E+00  0.1029E+02  0.1027E+02
     39.829  0.2134E+00  0.1073E+00  0.1033E+02  0.1029E+02
     40.009  0.8152E+00  0.1416E+00  0.1047E+02  0.1032E+02
     40.190  0.6253E+00  0.6265E+00  0.1059E+02  0.1043E+02
     40.371  0.2456E+00  0.9590E+00  0.1063E+02  0.1060E+02
     40.551  0.1375E+00  0.2300E+00  0.1066E+02  0.1065E+02
     40.732  0.3570E-02  0.6053E-01  0.1066E+02  0.1066E+02
     40.913  0.1302E+00 -0.1350E-02  0.1068E+02  0.1066E+02
     41.093  0.2556E+00  0.6199E-01  0.1073E+02  0.1067E+02
     41.274  0.1563E+00  0.2261E+00  0.1075E+02  0.1071E+02
     41.455  0.3166E+00  0.1973E+00  0.1081E+02  0.1074E+02
     41.635  0.1922E+00  0.3477E+00  0.1085E+02  0.1081E+02
     41.816  0.2973E+00  0.2037E+00  0.1090E+02  0.1084E+02
     41.997  0.2901E+00  0.1103E+00  0.1095E+02  0.1086E+02
     42.177  0.2331E+00  0.4187E+00  0.1099E+02  0.1094E+02
     42.358  0.1723E+00  0.3233E+00  0.1103E+02  0.1100E+02
     42.539  0.2447E+00  0.1312E+00  0.1107E+02  0.1102E+02
     42.719  0.2480E+00  0.2243E+00  0.1111E+02  0.1106E+02
     42.900  0.1054E+00  0.2095E+00  0.1113E+02  0.1110E+02
     43.081  0.1335E-01  0.9042E-01  0.1114E+02  0.1112E+02
     43.261  0.1197E+00  0.1028E+00  0.1116E+02  0.1113E+02
     43.442  0.4665E+00  0.3114E+00  0.1124E+02  0.1119E+02
     43.623  0.2613E+00  0.4058E+00  0.1129E+02  0.1126E+02
     43.803  0.1363E+00  0.8921E-01  0.1131E+02  0.1128E+02
     43.984  0.2935E+00 -0.3680E-01  0.1137E+02  0.1127E+02
     44.165  0.3927E+00  0.1792E+00  0.1144E+02  0.1131E+02
     44.345  0.1826E+00  0.6100E+00  0.1147E+02  0.1142E+02
     44.526  0.2974E-01  0.3191E+00  0.1148E+02  0.1147E+02
     44.707  0.2548E+00  0.2454E-01  0.1152E+02  0.1148E+02
     44.887  0.1792E+00  0.9157E-01  0.1155E+02  0.1149E+02
     45.068  0.6391E-01  0.4141E-01  0.1157E+02  0.1150E+02
     45.248  0.3084E+00  0.1276E+00  0.1162E+02  0.1153E+02
     45.429  0.1104E+00  0.2540E+00  0.1164E+02  0.1157E+02
     45.610 -0.1546E-01  0.2598E+00  0.1164E+02  0.1162E+02
     45.790 -0.1154E-01  0.1258E+00  0.1164E+02  0.1164E+02
     45.971  0.6890E-01 -0.6504E-02  0.1165E+02  0.1164E+02
     46.152  0.2006E+00 -0.1082E-01  0.1169E+02  0.1164E+02
     46.332  0.2463E+00  0.1395E-01  0.1173E+02  0.1164E+02
     46.513  0.4154E+00  0.2424E+00  0.1181E+02  0.1168E+02
     46.694  0.1600E+00  0.2132E+00  0.1183E+02  0.1172E+02
     46.874 -0.1159E-01 -0.3393E-02  0.1183E+02  0.1172E+02
     47.055  0.3622E+00  0.2531E-01  0.1190E+02  0.1173E+02
     47.236  0.5059E+00  0.2306E+00  0.1199E+02  0.1177E+02
     47.416  0.8090E-01  0.2797E+00  0.1200E+02  0.1182E+02
     47.597 -0.1703E-01  0.9442E-01  0.1200E+02  0.1184E+02
     47.778 -0.1744E-02 -0.1018E-01  0.1200E+02  0.1183E+02
     47.958 -0.2405E-04 -0.8661E-02  0.1200E+02  0.1183E+02
     48.139 -0.5847E-07  0.7013E-02  0.1200E+02  0.1183E+02
     48.320 -0.2630E-10  0.2232E+00  0.1200E+02  0.1187E+02
     48.500 -0.2219E-14  0.2267E+00  0.1200E+02  0.1191E+02
     48.681  0.0000E+00  0.4155E-01  0.1200E+02  0.1192E+02
     48.862  0.0000E+00  0.9821E-01  0.1200E+02  0.1194E+02
     49.042  0.0000E+00  0.3031E-01  0.1200E+02  0.1195E+02
     49.223  0.0000E+00 -0.4666E-02  0.1200E+02  0.1194E+02
     49.404  0.0000E+00 -0.5100E-03  0.1200E+02  0.1194E+02
     49.584  0.0000E+00 -0.6125E-05  0.1200E+02  0.1194E+02
     49.765  0.0000E+00 -0.1233E-07  0.1200E+02  0.1194E+02
     49.946  0.0000E+00 -0.8863E-09  0.1200E+02  0.1194E+02
     50.126  0.0000E+00 -0.8299E-06  0.1200E+02  0.1194E+02
     50.307  0.0000E+00 -0.1406E-03  0.1200E+02  0.1194E+02
     50.488  0.0000E+00 -0.3716E-02  0.1200E+02  0.1194E+02
     50.668  0.0000E+00  0.1493E-02  0.1200E+02  0.1194E+02
     50.849  0.0000E+00  0.1339E+00  0.1200E+02  0.1197E+02
     51.030  0.0000E+00  0.1664E+00  0.1200E+02  0.1200E+02
     51.210  0.0000E+00  0.1547E-01  0.1200E+02  0.1200E+02
     51.391  0.0000E+00 -0.5524E-02  0.1200E+02  0.1200E+02
     51.571  0.0000E+00 -0.3271E-03  0.1200E+02  0.1200E+02
     51.752  0.0000E+00 -0.2788E-05  0.1200E+02  0.1200E+02
     51.933  0.0000E+00 -0.4216E-08  0.1200E+02  0.1200E+02
     52.113  0.0000E+00 -0.1184E-11  0.1200E+02  0.1200E+02
     52.294  0.0000E+00 -0.6828E-16  0.1200E+02  0.1200E+02
     52.475  0.0000E+00  0.0000E+00  0.1200E+02  0.1200E+02
     52.655  0.0000E+00  0.0000E+00  0.1200E+02  0.1200E+02
     52.836  0.0000E+00  0.0000E+00  0.1200E+02  0.1200E+02
     53.017  0.0000E+00  0.0000E+00  0.1200E+02  0.1200E+02
     53.197  0.0000E+00  0.0000E+00  0.1200E+02  0.1200E+02
     53.378  0.0000E+00  0.0000E+00  0.1200E+02  0.1200E+02
