Co-fcc                                  
   1.00000000000000     
     0.000000    1.701640    1.701640
     1.701640    0.000000    1.701640
     1.701640    1.701640    0.000000
   Co
     1
Direct
  0.000000  0.000000  0.000000
 
   32   32   32
  93.209      91.269      85.699      77.192      66.718      55.325      43.971      33.437      24.288      16.877    
  11.350      7.6447      5.4926      4.4609      4.0291      3.7969      3.7181      3.7969      4.0291      4.4609    
  5.4926      7.6447      11.350      16.877      24.288      33.437      43.971      55.325      66.718      77.192    
  85.699      91.269      91.269      87.515      80.485      71.017      60.127      48.818      37.956      28.206    
  20.024      13.657      9.1472      6.3247      4.8328      4.1852      3.8802      3.7252      3.7252      3.8802    
  4.1852      4.8328      6.3247      9.1472      13.657      20.024      28.206      37.956      48.818      60.127    
  71.017      80.485      87.515      91.269      85.699      80.485      72.512      62.681      51.971      41.287    
  31.370      22.767      15.821      10.672      7.2523      5.2928      4.3669      3.9683      3.7449      3.6694    
  3.7449      3.9683      4.3669      5.2928      7.2523      10.672      15.821      22.767      31.370      41.287    
  51.971      62.681      72.512      80.485      85.699      87.515      77.192      71.017      62.681      53.065    
  43.055      33.429      24.799      17.591      12.036      8.1623      5.7945      4.5804      4.0538      3.7738    
  3.6311      3.6311      3.7738      4.0538      4.5804      5.7945      8.1623      12.036      17.591      24.799    
  33.429      43.055      53.065      62.681      71.017      77.192      80.485      80.485      66.718      60.127    
  51.971      43.055      34.143      25.880      18.751      13.062      8.9296      6.2675      4.8058      4.1366    
  3.8070      3.6090      3.5427      3.6090      3.8070      4.1366      4.8058      6.2675      8.9296      13.062    
  18.751      25.880      34.143      43.055      51.971      60.127      66.718      71.017      72.512      71.017    
  55.325      48.818      41.287      33.429      25.880      19.155      13.613      9.4418      6.6362      5.0075    
  4.2157      3.8391      3.5996      3.4797      3.4797      3.5996      3.8391      4.2157      5.0075      6.6362    
  9.4418      13.613      19.155      25.880      33.429      41.287      48.818      55.325      60.127      62.681    
  62.681      60.127      43.971      37.956      31.370      24.799      18.751      13.613      9.6218      6.8382    
  5.1476      4.2801      3.8655      3.5983      3.4387      3.3860      3.4387      3.5983      3.8655      4.2801    
  5.1476      6.8382      9.6218      13.613      18.751      24.799      31.370      37.956      43.971      48.818    
  51.971      53.065      51.971      48.818      33.437      28.206      22.767      17.591      13.062      9.4418    
  6.8382      5.1977      4.3166      3.8827      3.6004      3.4147      3.3238      3.3238      3.4147      3.6004    
  3.8827      4.3166      5.1977      6.8382      9.4418      13.062      17.591      22.767      28.206      33.437    
  37.956      41.287      43.055      43.055      41.287      37.956      24.288      20.024      15.821      12.036    
  8.9296      6.6362      5.1476      4.3166      3.8886      3.6024      3.4027      3.2871      3.2496      3.2871    
  3.4027      3.6024      3.8886      4.3166      5.1476      6.6362      8.9296      12.036      15.821      20.024    
  24.288      28.206      31.370      33.429      34.143      33.429      31.370      28.206      16.877      13.657    
  10.672      8.1623      6.2675      5.0075      4.2801      3.8827      3.6024      3.3992      3.2704      3.2088    
  3.2088      3.2705      3.3992      3.6024      3.8827      4.2801      5.0075      6.2675      8.1623      10.672    
  13.657      16.877      20.024      22.767      24.799      25.880      25.880      24.799      22.767      20.024    
  11.350      9.1472      7.2523      5.7945      4.8058      4.2157      3.8655      3.6004      3.4027      3.2704    
  3.1960      3.1721      3.1960      3.2704      3.4027      3.6004      3.8655      4.2157      4.8058      5.7945    
  7.2523      9.1472      11.350      13.657      15.821      17.591      18.751      19.155      18.751      17.591    
  15.821      13.657      7.6447      6.3247      5.2928      4.5804      4.1366      3.8391      3.5983      3.4147    
  3.2871      3.2088      3.1721      3.1721      3.2088      3.2871      3.4147      3.5983      3.8391      4.1366    
  4.5804      5.2928      6.3247      7.6447      9.1472      10.672      12.036      13.062      13.613      13.613    
  13.062      12.036      10.672      9.1472      5.4926      4.8328      4.3669      4.0538      3.8070      3.5996    
  3.4387      3.3238      3.2496      3.2088      3.1960      3.2088      3.2496      3.3238      3.4387      3.5996    
  3.8070      4.0539      4.3669      4.8328      5.4926      6.3247      7.2523      8.1623      8.9296      9.4418    
  9.6218      9.4418      8.9296      8.1623      7.2523      6.3247      4.4609      4.1852      3.9683      3.7738    
  3.6090      3.4797      3.3860      3.3238      3.2871      3.2705      3.2704      3.2871      3.3238      3.3860    
  3.4797      3.6090      3.7738      3.9683      4.1852      4.4609      4.8328      5.2928      5.7945      6.2675    
  6.6362      6.8382      6.8382      6.6362      6.2675      5.7945      5.2928      4.8328      4.0291      3.8802    
  3.7449      3.6311      3.5427      3.4797      3.4387      3.4147      3.4027      3.3992      3.4027      3.4147    
  3.4387      3.4797      3.5427      3.6311      3.7449      3.8802      4.0291      4.1852      4.3669      4.5804    
  4.8058      5.0075      5.1476      5.1977      5.1476      5.0075      4.8058      4.5804      4.3669      4.1852    
  3.7969      3.7252      3.6694      3.6311      3.6090      3.5996      3.5983      3.6004      3.6024      3.6024    
  3.6004      3.5983      3.5996      3.6090      3.6311      3.6694      3.7252      3.7969      3.8802      3.9683    
  4.0539      4.1366      4.2157      4.2801      4.3166      4.3166      4.2801      4.2157      4.1366      4.0538    
  3.9683      3.8802      3.7181      3.7252      3.7449      3.7738      3.8070      3.8391      3.8655      3.8827    
  3.8886      3.8827      3.8655      3.8391      3.8070      3.7738      3.7449      3.7252      3.7181      3.7252    
  3.7449      3.7738      3.8070      3.8391      3.8655      3.8827      3.8886      3.8827      3.8655      3.8391    
  3.8070      3.7738      3.7449      3.7252      3.7969      3.8802      3.9683      4.0538      4.1366      4.2157    
  4.2801      4.3166      4.3166      4.2801      4.2157      4.1366      4.0539      3.9683      3.8802      3.7969    
  3.7252      3.6694      3.6311      3.6090      3.5996      3.5983      3.6004      3.6024      3.6024      3.6004    
  3.5983      3.5996      3.6090      3.6311      3.6694      3.7252      4.0291      4.1852      4.3669      4.5804    
  4.8058      5.0075      5.1476      5.1977      5.1476      5.0075      4.8058      4.5804      4.3669      4.1852    
  4.0291      3.8802      3.7449      3.6311      3.5427      3.4797      3.4387      3.4147      3.4027      3.3992    
  3.4027      3.4147      3.4387      3.4797      3.5427      3.6311      3.7449      3.8802      4.4609      4.8328    
  5.2928      5.7945      6.2675      6.6362      6.8382      6.8382      6.6362      6.2675      5.7945      5.2928    
  4.8328      4.4609      4.1852      3.9683      3.7738      3.6090      3.4797      3.3860      3.3238      3.2871    
  3.2704      3.2705      3.2871      3.3238      3.3860      3.4797      3.6090      3.7738      3.9683      4.1852    
  5.4926      6.3247      7.2523      8.1623      8.9296      9.4418      9.6218      9.4418      8.9296      8.1623    
  7.2523      6.3247      5.4926      4.8328      4.3669      4.0539      3.8070      3.5996      3.4387      3.3238    
  3.2496      3.2088      3.1960      3.2088      3.2496      3.3238      3.4387      3.5996      3.8070      4.0538    
  4.3669      4.8328      7.6447      9.1472      10.672      12.036      13.062      13.613      13.613      13.062    
  12.036      10.672      9.1472      7.6447      6.3247      5.2928      4.5804      4.1366      3.8391      3.5983    
  3.4147      3.2871      3.2088      3.1721      3.1721      3.2088      3.2871      3.4147      3.5983      3.8391    
  4.1366      4.5804      5.2928      6.3247      11.350      13.657      15.821      17.591      18.751      19.155    
  18.751      17.591      15.821      13.657      11.350      9.1472      7.2523      5.7945      4.8058      4.2157    
  3.8655      3.6004      3.4027      3.2704      3.1960      3.1721      3.1960      3.2704      3.4027      3.6004    
  3.8655      4.2157      4.8058      5.7945      7.2523      9.1472      16.877      20.024      22.767      24.799    
  25.880      25.880      24.799      22.767      20.024      16.877      13.657      10.672      8.1623      6.2675    
  5.0075      4.2801      3.8827      3.6024      3.3992      3.2705      3.2088      3.2088      3.2704      3.3992    
  3.6024      3.8827      4.2801      5.0075      6.2675      8.1623      10.672      13.657      24.288      28.206    
  31.370      33.429      34.143      33.429      31.370      28.206      24.288      20.024      15.821      12.036    
  8.9296      6.6362      5.1476      4.3166      3.8886      3.6024      3.4027      3.2871      3.2496      3.2871    
  3.4027      3.6024      3.8886      4.3166      5.1476      6.6362      8.9296      12.036      15.821      20.024    
  33.437      37.956      41.287      43.055      43.055      41.287      37.956      33.437      28.206      22.767    
  17.591      13.062      9.4418      6.8382      5.1977      4.3166      3.8827      3.6004      3.4147      3.3238    
  3.3238      3.4147      3.6004      3.8827      4.3166      5.1977      6.8382      9.4418      13.062      17.591    
  22.767      28.206      43.971      48.818      51.971      53.065      51.971      48.818      43.971      37.956    
  31.370      24.799      18.751      13.613      9.6218      6.8382      5.1476      4.2801      3.8655      3.5983    
  3.4387      3.3860      3.4387      3.5983      3.8655      4.2801      5.1476      6.8382      9.6218      13.613    
  18.751      24.799      31.370      37.956      55.325      60.127      62.681      62.681      60.127      55.325    
  48.818      41.287      33.429      25.880      19.155      13.613      9.4418      6.6362      5.0075      4.2157    
  3.8391      3.5996      3.4797      3.4797      3.5996      3.8391      4.2157      5.0075      6.6362      9.4418    
  13.613      19.155      25.880      33.429      41.287      48.818      66.718      71.017      72.512      71.017    
  66.718      60.127      51.971      43.055      34.143      25.880      18.751      13.062      8.9296      6.2675    
  4.8058      4.1366      3.8070      3.6090      3.5427      3.6090      3.8070      4.1366      4.8058      6.2675    
  8.9296      13.062      18.751      25.880      34.143      43.055      51.971      60.127      77.192      80.485    
  80.485      77.192      71.017      62.681      53.065      43.055      33.429      24.799      17.591      12.036    
  8.1623      5.7945      4.5804      4.0538      3.7738      3.6311      3.6311      3.7738      4.0538      4.5804    
  5.7945      8.1623      12.036      17.591      24.799      33.429      43.055      53.065      62.681      71.017    
  85.699      87.515      85.699      80.485      72.512      62.681      51.971      41.287      31.370      22.767    
  15.821      10.672      7.2523      5.2928      4.3669      3.9683      3.7449      3.6694      3.7449      3.9683    
  4.3669      5.2928      7.2523      10.672      15.821      22.767      31.370      41.287      51.971      62.681    
  72.512      80.485      91.269      91.269      87.515      80.485      71.017      60.127      48.818      37.956    
  28.206      20.024      13.657      9.1472      6.3247      4.8328      4.1852      3.8802      3.7252      3.7252    
  3.8802      4.1852      4.8328      6.3247      9.1472      13.657      20.024      28.206      37.956      48.818    
  60.127      71.017      80.485      87.515      91.269      87.515      80.485      71.017      60.127      48.818    
  37.956      28.206      20.024      13.657      9.1472      6.3247      4.8328      4.1852      3.8802      3.7252    
  3.7252      3.8802      4.1852      4.8328      6.3247      9.1472      13.657      20.024      28.206      37.956    
  48.818      60.127      71.017      80.485      87.515      91.269      87.515      82.191      74.053      64.021    
  53.094      42.193      32.073      23.287      16.183      10.906      7.3889      5.3645      4.4035      3.9940    
  3.7675      3.6908      3.7675      3.9940      4.4035      5.3645      7.3889      10.906      16.183      23.287    
  32.073      42.193      53.094      64.021      74.053      82.191      87.515      89.369      80.485      74.053    
  65.375      55.367      44.951      34.929      25.934      18.404      12.579      8.4932      5.9754      4.6713    
  4.1070      3.8188      3.6717      3.6717      3.8188      4.1070      4.6713      5.9754      8.4932      12.579    
  18.404      25.934      34.929      44.951      55.367      65.375      74.053      80.485      83.914      83.914    
  71.017      64.021      55.367      45.908      36.448      27.662      20.058      13.960      9.4966      6.5896    
  4.9701      4.2229      3.8735      3.6666      3.5971      3.6666      3.8735      4.2228      4.9701      6.5896    
  9.4966      13.960      20.058      27.662      36.448      45.908      55.367      64.021      71.017      75.582    
  77.170      75.582      60.127      53.094      44.951      36.448      28.262      20.941      14.871      10.260    
  7.1166      5.2590      4.3417      3.9255      3.6721      3.5444      3.5444      3.6721      3.9255      4.3417    
  5.2590      7.1166      10.260      14.871      20.941      28.262      36.448      44.951      53.094      60.127    
  65.320      68.082      68.082      65.320      48.818      42.193      34.929      27.662      20.941      15.189    
  10.672      7.4725      5.4884      4.4490      3.9693      3.6834      3.5111      3.4540      3.5111      3.6834    
  3.9693      4.4490      5.4884      7.4725      10.672      15.189      20.941      27.662      34.929      42.193    
  48.818      54.154      57.624      58.829      57.624      54.154      37.956      32.073      25.934      20.058    
  14.871      10.672      7.5982      5.6155      4.5245      4.0017      3.6956      3.4925      3.3925      3.3925    
  3.4925      3.6956      4.0017      4.5245      5.6155      7.5982      10.672      14.871      20.058      25.934    
  32.073      37.956      43.027      46.760      48.742      48.742      46.760      43.027      28.206      23.287    
  18.404      13.960      10.260      7.4725      5.6155      4.5518      4.0194      3.7048      3.4838      3.3547    
  3.3125      3.3547      3.4838      3.7048      4.0194      4.5518      5.6155      7.4725      10.260      13.960    
  18.404      23.287      28.206      32.705      36.327      38.680      39.496      38.680      36.327      32.705    
  20.024      16.183      12.579      9.4966      7.1166      5.4884      4.5245      4.0194      3.7081      3.4806    
  3.3349      3.2647      3.2647      3.3349      3.4806      3.7081      4.0194      4.5245      5.4884      7.1166    
  9.4966      12.579      16.183      20.024      23.745      26.971      29.351      30.615      30.615      29.351    
  26.971      23.745      13.657      10.906      8.4932      6.5896      5.2590      4.4490      4.0017      3.7048    
  3.4806      3.3288      3.2427      3.2150      3.2427      3.3288      3.4806      3.7048      4.0017      4.4490    
  5.2590      6.5896      8.4932      10.906      13.657      16.498      19.135      21.277      22.675      23.160    
  22.675      21.277      19.135      16.498      9.1472      7.3889      5.9754      4.9701      4.3417      3.9693    
  3.6956      3.4838      3.3349      3.2427      3.1993      3.1993      3.2427      3.3349      3.4838      3.6956    
  3.9693      4.3417      4.9701      5.9754      7.3889      9.1472      11.105      13.059      14.787      16.076    
  16.766      16.766      16.076      14.787      13.059      11.105      6.3247      5.3645      4.6713      4.2229    
  3.9255      3.6834      3.4925      3.3547      3.2647      3.2150      3.1993      3.2150      3.2647      3.3547    
  3.4925      3.6834      3.9255      4.2229      4.6713      5.3645      6.3247      7.5000      8.7779      10.008    
  11.032      11.709      11.946      11.709      11.032      10.008      8.7779      7.5000      4.8328      4.4035    
  4.1070      3.8735      3.6721      3.5111      3.3925      3.3125      3.2647      3.2427      3.2427      3.2647    
  3.3125      3.3925      3.5111      3.6721      3.8735      4.1070      4.4035      4.8328      5.4160      6.1195    
  6.8662      7.5552      8.0845      8.3718      8.3718      8.0845      7.5552      6.8662      6.1195      5.4160    
  4.1852      3.9940      3.8188      3.6666      3.5444      3.4540      3.3925      3.3547      3.3349      3.3288    
  3.3349      3.3547      3.3925      3.4540      3.5444      3.6666      3.8188      3.9940      4.1852      4.4219    
  4.7286      5.0912      5.4658      5.7937      6.0179      6.0976      6.0179      5.7937      5.4658      5.0912    
  4.7286      4.4219      3.8802      3.7675      3.6717      3.5971      3.5444      3.5111      3.4925      3.4838    
  3.4806      3.4806      3.4838      3.4925      3.5111      3.5444      3.5971      3.6717      3.7675      3.8802    
  4.0023      4.1265      4.2632      4.4153      4.5659      4.6882      4.7569      4.7569      4.6882      4.5659    
  4.4153      4.2632      4.1265      4.0023      3.7252      3.6908      3.6717      3.6666      3.6721      3.6834    
  3.6956      3.7048      3.7081      3.7048      3.6956      3.6834      3.6721      3.6666      3.6717      3.6908    
  3.7252      3.7734      3.8314      3.8934      3.9530      4.0060      4.0514      4.0832      4.0948      4.0832    
  4.0514      4.0060      3.9530      3.8934      3.8314      3.7734      3.7252      3.7675      3.8188      3.8735    
  3.9255      3.9693      4.0017      4.0194      4.0194      4.0017      3.9693      3.9255      3.8735      3.8188    
  3.7675      3.7252      3.6958      3.6808      3.6793      3.6880      3.7025      3.7181      3.7309      3.7380    
  3.7380      3.7309      3.7181      3.7025      3.6880      3.6793      3.6808      3.6958      3.8802      3.9940    
  4.1070      4.2228      4.3417      4.4490      4.5245      4.5518      4.5245      4.4490      4.3417      4.2229    
  4.1070      3.9940      3.8802      3.7734      3.6808      3.6071      3.5537      3.5187      3.4985      3.4884    
  3.4844      3.4834      3.4844      3.4884      3.4985      3.5187      3.5537      3.6071      3.6808      3.7734    
  4.1852      4.4035      4.6713      4.9701      5.2590      5.4884      5.6155      5.6155      5.4884      5.2590    
  4.9701      4.6713      4.4035      4.1852      4.0023      3.8314      3.6793      3.5537      3.4574      3.3894    
  3.3453      3.3199      3.3086      3.3086      3.3199      3.3453      3.3894      3.4574      3.5537      3.6793    
  3.8314      4.0023      4.8328      5.3645      5.9754      6.5896      7.1166      7.4725      7.5982      7.4725    
  7.1166      6.5896      5.9754      5.3645      4.8328      4.4219      4.1265      3.8934      3.6880      3.5187    
  3.3894      3.2983      3.2401      3.2084      3.1985      3.2084      3.2401      3.2983      3.3894      3.5187    
  3.6880      3.8934      4.1265      4.4219      6.3247      7.3889      8.4932      9.4966      10.260      10.672    
  10.672      10.260      9.4966      8.4932      7.3889      6.3247      5.4160      4.7286      4.2632      3.9530    
  3.7025      3.4985      3.3453      3.2401      3.1760      3.1462      3.1462      3.1760      3.2401      3.3453    
  3.4985      3.7025      3.9530      4.2632      4.7286      5.4160      9.1472      10.906      12.579      13.960    
  14.871      15.189      14.871      13.960      12.579      10.906      9.1472      7.5000      6.1195      5.0912    
  4.4153      4.0060      3.7181      3.4884      3.3199      3.2084      3.1462      3.1263      3.1462      3.2084    
  3.3199      3.4884      3.7181      4.0060      4.4153      5.0912      6.1195      7.5000      13.657      16.183    
  18.404      20.058      20.941      20.941      20.058      18.404      16.183      13.657      11.105      8.7779    
  6.8662      5.4658      4.5659      4.0514      3.7309      3.4844      3.3086      3.1985      3.1462      3.1462    
  3.1985      3.3086      3.4844      3.7309      4.0514      4.5659      5.4658      6.8662      8.7779      11.105    
  20.024      23.287      25.934      27.662      28.262      27.662      25.934      23.287      20.024      16.498    
  13.059      10.008      7.5552      5.7937      4.6882      4.0832      3.7380      3.4834      3.3086      3.2084    
  3.1760      3.2084      3.3086      3.4834      3.7380      4.0832      4.6882      5.7937      7.5552      10.008    
  13.059      16.498      28.206      32.073      34.929      36.448      36.448      34.929      32.073      28.206    
  23.745      19.135      14.787      11.032      8.0845      6.0179      4.7569      4.0948      3.7380      3.4844    
  3.3199      3.2401      3.2401      3.3199      3.4844      3.7380      4.0948      4.7569      6.0179      8.0845    
  11.032      14.787      19.135      23.745      37.956      42.193      44.951      45.908      44.951      42.193    
  37.956      32.705      26.971      21.277      16.076      11.709      8.3718      6.0976      4.7569      4.0832    
  3.7309      3.4884      3.3453      3.2983      3.3453      3.4884      3.7309      4.0832      4.7569      6.0976    
  8.3718      11.709      16.076      21.277      26.971      32.705      48.818      53.094      55.367      55.367    
  53.094      48.818      43.027      36.327      29.351      22.675      16.766      11.946      8.3718      6.0179    
  4.6882      4.0514      3.7181      3.4985      3.3894      3.3894      3.4985      3.7181      4.0514      4.6882    
  6.0179      8.3718      11.946      16.766      22.675      29.351      36.327      43.027      60.127      64.021    
  65.375      64.021      60.127      54.154      46.760      38.680      30.615      23.160      16.766      11.709    
  8.0845      5.7937      4.5659      4.0060      3.7025      3.5187      3.4574      3.5187      3.7025      4.0060    
  4.5659      5.7937      8.0845      11.709      16.766      23.160      30.615      38.680      46.760      54.154    
  71.017      74.053      74.053      71.017      65.320      57.624      48.742      39.496      30.615      22.675    
  16.076      11.032      7.5552      5.4658      4.4153      3.9530      3.6880      3.5537      3.5537      3.6880    
  3.9530      4.4153      5.4658      7.5552      11.032      16.076      22.675      30.615      39.496      48.742    
  57.624      65.320      80.485      82.191      80.485      75.582      68.082      58.829      48.742      38.680    
  29.351      21.277      14.787      10.008      6.8662      5.0912      4.2632      3.8934      3.6793      3.6071    
  3.6793      3.8934      4.2632      5.0912      6.8662      10.008      14.787      21.277      29.351      38.680    
  48.742      58.829      68.082      75.582      87.515      87.515      83.914      77.170      68.082      57.624    
  46.760      36.327      26.971      19.135      13.059      8.7779      6.1195      4.7286      4.1265      3.8314    
  3.6808      3.6808      3.8314      4.1265      4.7286      6.1195      8.7779      13.059      19.135      26.971    
  36.327      46.760      57.624      68.082      77.170      83.914      91.269      89.369      83.914      75.582    
  65.320      54.154      43.027      32.705      23.745      16.498      11.105      7.5000      5.4160      4.4219    
  4.0023      3.7734      3.6958      3.7734      4.0023      4.4219      5.4160      7.5000      11.105      16.498    
  23.745      32.705      43.027      54.154      65.320      75.582      83.914      89.369      85.699      80.485    
  72.512      62.681      51.971      41.287      31.370      22.767      15.821      10.672      7.2523      5.2928    
  4.3669      3.9683      3.7449      3.6694      3.7449      3.9683      4.3669      5.2928      7.2523      10.672    
  15.821      22.767      31.370      41.287      51.971      62.681      72.512      80.485      85.699      87.515    
  80.485      74.053      65.375      55.367      44.951      34.929      25.934      18.404      12.579      8.4932    
  5.9754      4.6713      4.1070      3.8188      3.6717      3.6717      3.8188      4.1070      4.6713      5.9754    
  8.4932      12.579      18.404      25.934      34.929      44.951      55.367      65.375      74.053      80.485    
  83.914      83.914      72.512      65.375      56.548      46.899      37.249      28.282      20.514      14.275    
  9.6963      6.7037      5.0287      4.2531      3.8963      3.6864      3.6158      3.6864      3.8963      4.2531    
  5.0287      6.7037      9.6963      14.275      20.514      28.282      37.249      46.899      56.548      65.375    
  72.512      77.170      78.789      77.170      62.681      55.367      46.899      38.055      29.532      21.897    
  15.548      10.703      7.3795      5.3978      4.4107      3.9704      3.7099      3.5783      3.5783      3.7099    
  3.9704      4.4107      5.3978      7.3795      10.703      15.548      21.897      29.532      38.055      46.899    
  55.367      62.681      68.082      70.956      70.956      68.082      51.971      44.951      37.249      29.532    
  22.378      16.230      11.372      7.9008      5.7216      4.5643      4.0354      3.7373      3.5570      3.4971    
  3.5570      3.7373      4.0354      4.5643      5.7216      7.9008      11.372      16.230      22.378      29.532    
  37.249      44.951      51.971      57.624      61.301      62.577      61.301      57.624      41.287      34.929    
  28.282      21.897      16.230      11.607      8.1846      5.9435      4.6882      4.0886      3.7633      3.5479    
  3.4413      3.4413      3.5479      3.7633      4.0886      4.6882      5.9435      8.1846      11.607      16.230    
  21.897      28.282      34.929      41.287      46.760      50.788      52.926      52.926      50.788      46.760    
  31.370      25.934      20.514      15.548      11.372      8.1846      6.0224      4.7577      4.1249      3.7835    
  3.5462      3.4066      3.3608      3.4066      3.5462      3.7835      4.1249      4.7577      6.0224      8.1846    
  11.372      15.548      20.514      25.934      31.370      36.327      40.312      42.897      43.794      42.897    
  40.312      36.327      22.767      18.404      14.275      10.703      7.9008      5.9435      4.7577      4.1379    
  3.7944      3.5472      3.3875      3.3102      3.3102      3.3875      3.5473      3.7944      4.1379      4.7577    
  5.9435      7.9008      10.703      14.275      18.404      22.767      26.971      30.601      33.272      34.689    
  34.689      33.272      30.601      26.971      15.821      12.579      9.6963      7.3795      5.7216      4.6882    
  4.1249      3.7944      3.5480      3.3794      3.2831      3.2520      3.2831      3.3794      3.5480      3.7944    
  4.1249      4.6882      5.7216      7.3795      9.6963      12.579      15.821      19.135      22.190      24.660    
  26.266      26.824      26.266      24.660      22.190      19.135      10.672      8.4932      6.7037      5.3978    
  4.5643      4.0886      3.7835      3.5472      3.3794      3.2747      3.2251      3.2251      3.2747      3.3794    
  3.5473      3.7835      4.0886      4.5643      5.3978      6.7037      8.4932      10.672      13.059      15.414    
  17.478      19.011      19.827      19.827      19.011      17.478      15.414      13.059      7.2523      5.9754    
  5.0287      4.4107      4.0354      3.7633      3.5462      3.3875      3.2831      3.2251      3.2066      3.2251    
  3.2831      3.3875      3.5462      3.7633      4.0354      4.4107      5.0287      5.9754      7.2523      8.7779    
  10.406      11.951      13.224      14.061      14.354      14.061      13.224      11.951      10.406      8.7779    
  5.2928      4.6713      4.2531      3.9704      3.7373      3.5479      3.4066      3.3102      3.2520      3.2251    
  3.2251      3.2520      3.3102      3.4066      3.5479      3.7373      3.9704      4.2531      4.6713      5.2928    
  6.1195      7.0907      8.0993      9.0150      9.7105      10.086      10.086      9.7105      9.0150      8.0993    
  7.0907      6.1195      4.3669      4.1070      3.8963      3.7099      3.5570      3.4413      3.3608      3.3102    
  3.2831      3.2747      3.2831      3.3102      3.3608      3.4413      3.5570      3.7099      3.8963      4.1070    