Co-fcc                                  
   1.00000000000000     
     0.000000    1.701640    1.701640
     1.701640    0.000000    1.701640
     1.701640    1.701640    0.000000
   Co
     1
Direct
  0.000000  0.000000  0.000000
 
   32   32   32
 0.93209155717E+02 0.91268612201E+02 0.85698922263E+02 0.77192454841E+02 0.66718441988E+02
 0.55324528378E+02 0.43971376191E+02 0.33437312145E+02 0.24287671686E+02 0.16876532502E+02
 0.11350218293E+02 0.76447389019E+01 0.54926255261E+01 0.44609460496E+01 0.40290879439E+01
 0.37969398339E+01 0.37181410499E+01 0.37969398339E+01 0.40290879439E+01 0.44609460496E+01
 0.54926255261E+01 0.76447389019E+01 0.11350218293E+02 0.16876532502E+02 0.24287671686E+02
 0.33437312145E+02 0.43971376191E+02 0.55324528378E+02 0.66718441988E+02 0.77192454841E+02
 0.85698922263E+02 0.91268612201E+02 0.91268612201E+02 0.87514604164E+02 0.80484568128E+02
 0.71017406067E+02 0.60127197592E+02 0.48818394110E+02 0.37956037919E+02 0.28205957073E+02
 0.20023524799E+02 0.13657191438E+02 0.91471586453E+01 0.63246585409E+01 0.48327714532E+01
 0.41851839306E+01 0.38802259731E+01 0.37251547444E+01 0.37251545947E+01 0.38802255376E+01
 0.41851832479E+01 0.48327705919E+01 0.63246575961E+01 0.91471577357E+01 0.13657190691E+02
 0.20023524331E+02 0.28205956969E+02 0.37956038205E+02 0.48818394750E+02 0.60127198473E+02
 0.71017407031E+02 0.80484568994E+02 0.87514604760E+02 0.91268612413E+02 0.85698922263E+02
 0.80484568128E+02 0.72512074375E+02 0.62681346911E+02 0.51971018724E+02 0.41286570004E+02
 0.31370129323E+02 0.22767077903E+02 0.15821167204E+02 0.10672337685E+02 0.72522532779E+01
 0.52927910845E+01 0.43668763694E+01 0.39683060340E+01 0.37449067207E+01 0.36693577521E+01
 0.37449061659E+01 0.39683049633E+01 0.43668748688E+01 0.52927892985E+01 0.72522514108E+01
 0.10672335990E+02 0.15821165947E+02 0.22767077318E+02 0.31370129553E+02 0.41286571056E+02
 0.51971020448E+02 0.62681349011E+02 0.72512076466E+02 0.80484569806E+02 0.85698923196E+02
 0.87514604760E+02 0.77192454841E+02 0.71017406067E+02 0.62681346911E+02 0.53065352872E+02
 0.43055135085E+02 0.33428842472E+02 0.24798866258E+02 0.17591013324E+02 0.12036181277E+02
 0.81623378220E+01 0.57944728442E+01 0.45804313399E+01 0.40538495147E+01 0.37738492988E+01
 0.36310982394E+01 0.36310979003E+01 0.37738482870E+01 0.40538478635E+01 0.45804291427E+01
 0.57944702951E+01 0.81623352301E+01 0.12036179047E+02 0.17591011886E+02 0.24798865972E+02
 0.33428843523E+02 0.43055137404E+02 0.53065356115E+02 0.62681350505E+02 0.71017409325E+02
 0.77192457108E+02 0.80484569806E+02 0.80484568994E+02 0.66718441988E+02 0.60127197592E+02
 0.51971018724E+02 0.43055135085E+02 0.34143326660E+02 0.25880046173E+02 0.18750778427E+02
 0.13062457915E+02 0.89296140647E+01 0.62674693397E+01 0.48058090435E+01 0.41366415417E+01
 0.38070219395E+01 0.36090297082E+01 0.35427453081E+01 0.36090291939E+01 0.38070208394E+01
 0.41366397768E+01 0.48058066243E+01 0.62674664573E+01 0.89296111275E+01 0.13062455503E+02
 0.18750777170E+02 0.25880046569E+02 0.34143328910E+02 0.43055138982E+02 0.51971023640E+02
 0.60127202606E+02 0.66718446078E+02 0.71017409325E+02 0.72512076466E+02 0.71017407031E+02
 0.55324528378E+02 0.48818394110E+02 0.41286570004E+02 0.33428842472E+02 0.25880046173E+02
 0.19154552917E+02 0.13613345509E+02 0.94418457027E+01 0.66362176918E+01 0.50074913010E+01
 0.42156958006E+01 0.38391289351E+01 0.35996223358E+01 0.34797052036E+01 0.34797052342E+01
 0.35996223045E+01 0.38391285322E+01 0.42156946921E+01 0.50074893233E+01 0.66362150054E+01
 0.94418428356E+01 0.13613343257E+02 0.19154552128E+02 0.25880047471E+02 0.33428846019E+02
 0.41286575381E+02 0.48818400355E+02 0.55324534208E+02 0.60127202606E+02 0.62681350505E+02
 0.62681349011E+02 0.60127198473E+02 0.43971376191E+02 0.37956037919E+02 0.31370129323E+02
 0.24798866258E+02 0.18750778427E+02 0.13613345509E+02 0.96217570849E+01 0.68381833399E+01
 0.51475683332E+01 0.42801159248E+01 0.38654988280E+01 0.35982568535E+01 0.34386713413E+01
 0.33859896594E+01 0.34386722158E+01 0.35982581729E+01 0.38654999070E+01 0.42801161074E+01
 0.51475672851E+01 0.68381812337E+01 0.96217546116E+01 0.13613343684E+02 0.18750778272E+02
 0.24798868439E+02 0.31370133874E+02 0.37956044165E+02 0.43971382872E+02 0.48818400355E+02
 0.51971023640E+02 0.53065356115E+02 0.51971020448E+02 0.48818394750E+02 0.33437312145E+02
 0.28205957073E+02 0.22767077903E+02 0.17591013324E+02 0.13062457915E+02 0.94418457027E+01
 0.68381833399E+01 0.51977331410E+01 0.43166346273E+01 0.38826780853E+01 0.36003685542E+01
 0.34146758430E+01 0.33237967560E+01 0.33237976609E+01 0.34146782468E+01 0.36003716403E+01
 0.38826808247E+01 0.43166361561E+01 0.51977330853E+01 0.68381819691E+01 0.94418438663E+01
 0.13062456752E+02 0.17591013874E+02 0.22767080720E+02 0.28205961990E+02 0.33437318272E+02
 0.37956044165E+02 0.41286575381E+02 0.43055138982E+02 0.43055137404E+02 0.41286571056E+02
 0.37956038205E+02 0.24287671686E+02 0.20023524799E+02 0.15821167204E+02 0.12036181277E+02
 0.89296140647E+01 0.66362176918E+01 0.51475683332E+01 0.43166346273E+01 0.38886322501E+01
 0.36023920378E+01 0.34027190710E+01 0.32871359565E+01 0.32495572666E+01 0.32871381502E+01
 0.34027228335E+01 0.36023963274E+01 0.38886359592E+01 0.43166369457E+01 0.51475690203E+01
 0.66362171337E+01 0.89296131390E+01 0.12036181023E+02 0.15821168448E+02 0.20023527851E+02
 0.24287676188E+02 0.28205961990E+02 0.31370133874E+02 0.33428846019E+02 0.34143328910E+02
 0.33428843523E+02 0.31370129553E+02 0.28205956969E+02 0.16876532502E+02 0.13657191438E+02
 0.10672337685E+02 0.81623378220E+01 0.62674693397E+01 0.50074913010E+01 0.42801159248E+01
 0.38826780853E+01 0.36023920378E+01 0.33991731086E+01 0.32704476531E+01 0.32088430057E+01
 0.32088440209E+01 0.32704504448E+01 0.33991769963E+01 0.36023961288E+01 0.38826815588E+01
 0.42801182730E+01 0.50074924807E+01 0.62674697388E+01 0.81623381066E+01 0.10672338542E+02
 0.13657193301E+02 0.16876535402E+02 0.20023527851E+02 0.22767080720E+02 0.24798868439E+02
 0.25880047471E+02 0.25880046569E+02 0.24798865972E+02 0.22767077318E+02 0.20023524331E+02
 0.11350218293E+02 0.91471586453E+01 0.72522532779E+01 0.57944728442E+01 0.48058090435E+01
 0.42156958006E+01 0.38654988280E+01 0.36003685542E+01 0.34027190710E+01 0.32704476531E+01
 0.31959834489E+01 0.31721171810E+01 0.31959844878E+01 0.32704495215E+01 0.34027214201E+01
 0.36003709958E+01 0.38655010635E+01 0.42156976870E+01 0.48058106376E+01 0.57944743460E+01
 0.72522549346E+01 0.91471606538E+01 0.11350220683E+02 0.13657193301E+02 0.15821168448E+02
 0.17591013874E+02 0.18750778272E+02 0.19154552128E+02 0.18750777170E+02 0.17591011886E+02
 0.15821165947E+02 0.13657190691E+02 0.76447389019E+01 0.63246585409E+01 0.52927910845E+01
 0.45804313399E+01 0.41366415417E+01 0.38391289351E+01 0.35982568535E+01 0.34146758430E+01
 0.32871359565E+01 0.32088430057E+01 0.31721171810E+01 0.31721170478E+01 0.32088426637E+01
 0.32871355504E+01 0.34146755858E+01 0.35982569602E+01 0.38391295946E+01 0.41366428551E+01
 0.45804333087E+01 0.52927936159E+01 0.63246614419E+01 0.76447419400E+01 0.91471606538E+01
 0.10672338542E+02 0.12036181023E+02 0.13062456752E+02 0.13613343684E+02 0.13613343257E+02
 0.13062455503E+02 0.12036179047E+02 0.10672335990E+02 0.91471577357E+01 0.54926255261E+01
 0.48327714532E+01 0.43668763694E+01 0.40538495147E+01 0.38070219395E+01 0.35996223358E+01
 0.34386713413E+01 0.33237967560E+01 0.32495572666E+01 0.32088440209E+01 0.31959844878E+01
 0.32088426637E+01 0.32495548678E+01 0.33237938677E+01 0.34386686292E+01 0.35996204189E+01
 0.38070212626E+01 0.40538502750E+01 0.43668784720E+01 0.48327746010E+01 0.54926292656E+01
 0.63246614419E+01 0.72522549346E+01 0.81623381066E+01 0.89296131390E+01 0.94418438663E+01
 0.96217546116E+01 0.94418428356E+01 0.89296111275E+01 0.81623352301E+01 0.72522514108E+01
 0.63246575961E+01 0.44609460496E+01 0.41851839306E+01 0.39683060340E+01 0.37738492988E+01
 0.36090297082E+01 0.34797052036E+01 0.33859896594E+01 0.33237976609E+01 0.32871381502E+01
 0.32704504448E+01 0.32704495215E+01 0.32871355504E+01 0.33237938677E+01 0.33859853638E+01
 0.34797011733E+01 0.36090266437E+01 0.37738476981E+01 0.39683061456E+01 0.41851856999E+01
 0.44609491736E+01 0.48327746010E+01 0.52927936159E+01 0.57944743460E+01 0.62674697388E+01
 0.66362171337E+01 0.68381819691E+01 0.68381812337E+01 0.66362150054E+01 0.62674664573E+01
 0.57944702951E+01 0.52927892985E+01 0.48327705919E+01 0.40290879439E+01 0.38802259731E+01
 0.37449067207E+01 0.36310982394E+01 0.35427453081E+01 0.34797052342E+01 0.34386722158E+01
 0.34146782468E+01 0.34027228335E+01 0.33991769963E+01 0.34027214201E+01 0.34146755858E+01
 0.34386686292E+01 0.34797011733E+01 0.35427413102E+01 0.36310948739E+01 0.37449044891E+01
 0.38802252404E+01 0.40290888653E+01 0.41851856999E+01 0.43668784720E+01 0.45804333087E+01
 0.48058106376E+01 0.50074924807E+01 0.51475690203E+01 0.51977330853E+01 0.51475672851E+01
 0.50074893233E+01 0.48058066243E+01 0.45804291427E+01 0.43668748688E+01 0.41851832479E+01
 0.37969398339E+01 0.37251547444E+01 0.36693577521E+01 0.36310979003E+01 0.36090291939E+01
 0.35996223045E+01 0.35982581729E+01 0.36003716403E+01 0.36023963274E+01 0.36023961288E+01
 0.36003709958E+01 0.35982569602E+01 0.35996204189E+01 0.36090266437E+01 0.36310948739E+01
 0.36693546454E+01 0.37251520894E+01 0.37969381634E+01 0.38802252404E+01 0.39683061456E+01
 0.40538502750E+01 0.41366428551E+01 0.42156976870E+01 0.42801182730E+01 0.43166369457E+01
 0.43166361561E+01 0.42801161074E+01 0.42156946921E+01 0.41366397768E+01 0.40538478635E+01
 0.39683049633E+01 0.38802255376E+01 0.37181410499E+01 0.37251545947E+01 0.37449061659E+01
 0.37738482870E+01 0.38070208394E+01 0.38391285322E+01 0.38654999070E+01 0.38826808247E+01
 0.38886359592E+01 0.38826815588E+01 0.38655010635E+01 0.38391295946E+01 0.38070212626E+01
 0.37738476981E+01 0.37449044891E+01 0.37251520894E+01 0.37181382354E+01 0.37251520894E+01
 0.37449044891E+01 0.37738476981E+01 0.38070212626E+01 0.38391295946E+01 0.38655010635E+01
 0.38826815588E+01 0.38886359592E+01 0.38826808247E+01 0.38654999070E+01 0.38391285322E+01
 0.38070208394E+01 0.37738482870E+01 0.37449061659E+01 0.37251545947E+01 0.37969398339E+01
 0.38802255376E+01 0.39683049633E+01 0.40538478635E+01 0.41366397768E+01 0.42156946921E+01
 0.42801161074E+01 0.43166361561E+01 0.43166369457E+01 0.42801182730E+01 0.42156976870E+01
 0.41366428551E+01 0.40538502750E+01 0.39683061456E+01 0.38802252404E+01 0.37969381634E+01
 0.37251520894E+01 0.36693546454E+01 0.36310948739E+01 0.36090266437E+01 0.35996204189E+01
 0.35982569602E+01 0.36003709958E+01 0.36023961288E+01 0.36023963274E+01 0.36003716403E+01
 0.35982581729E+01 0.35996223045E+01 0.36090291939E+01 0.36310979003E+01 0.36693577521E+01
 0.37251547444E+01 0.40290879439E+01 0.41851832479E+01 0.43668748688E+01 0.45804291427E+01
 0.48058066243E+01 0.50074893233E+01 0.51475672851E+01 0.51977330853E+01 0.51475690203E+01
 0.50074924807E+01 0.48058106376E+01 0.45804333087E+01 0.43668784720E+01 0.41851856999E+01
 0.40290888653E+01 0.38802252404E+01 0.37449044891E+01 0.36310948739E+01 0.35427413102E+01
 0.34797011733E+01 0.34386686292E+01 0.34146755858E+01 0.34027214201E+01 0.33991769963E+01
 0.34027228335E+01 0.34146782468E+01 0.34386722158E+01 0.34797052342E+01 0.35427453081E+01
 0.36310982394E+01 0.37449067207E+01 0.38802259731E+01 0.44609460496E+01 0.48327705919E+01
 0.52927892985E+01 0.57944702951E+01 0.62674664573E+01 0.66362150054E+01 0.68381812337E+01
 0.68381819691E+01 0.66362171337E+01 0.62674697388E+01 0.57944743460E+01 0.52927936159E+01
 0.48327746010E+01 0.44609491736E+01 0.41851856999E+01 0.39683061456E+01 0.37738476981E+01
 0.36090266437E+01 0.34797011733E+01 0.33859853638E+01 0.33237938677E+01 0.32871355504E+01
 0.32704495215E+01 0.32704504448E+01 0.32871381502E+01 0.33237976609E+01 0.33859896594E+01
 0.34797052036E+01 0.36090297082E+01 0.37738492988E+01 0.39683060340E+01 0.41851839306E+01
 0.54926255261E+01 0.63246575961E+01 0.72522514108E+01 0.81623352301E+01 0.89296111275E+01
 0.94418428356E+01 0.96217546116E+01 0.94418438663E+01 0.89296131390E+01 0.81623381066E+01
 0.72522549346E+01 0.63246614419E+01 0.54926292656E+01 0.48327746010E+01 0.43668784720E+01
 0.40538502750E+01 0.38070212626E+01 0.35996204189E+01 0.34386686292E+01 0.33237938677E+01
 0.32495548678E+01 0.32088426637E+01 0.31959844878E+01 0.32088440209E+01 0.32495572666E+01
 0.33237967560E+01 0.34386713413E+01 0.35996223358E+01 0.38070219395E+01 0.40538495147E+01
 0.43668763694E+01 0.48327714532E+01 0.76447389019E+01 0.91471577357E+01 0.10672335990E+02
 0.12036179047E+02 0.13062455503E+02 0.13613343257E+02 0.13613343684E+02 0.13062456752E+02
 0.12036181023E+02 0.10672338542E+02 0.91471606538E+01 0.76447419400E+01 0.63246614419E+01
 0.52927936159E+01 0.45804333087E+01 0.41366428551E+01 0.38391295946E+01 0.35982569602E+01
 0.34146755858E+01 0.32871355504E+01 0.32088426637E+01 0.31721170478E+01 0.31721171810E+01
 0.32088430057E+01 0.32871359565E+01 0.34146758430E+01 0.35982568535E+01 0.38391289351E+01
 0.41366415417E+01 0.45804313399E+01 0.52927910845E+01 0.63246585409E+01 0.11350218293E+02
 0.13657190691E+02 0.15821165947E+02 0.17591011886E+02 0.18750777170E+02 0.19154552128E+02
 0.18750778272E+02 0.17591013874E+02 0.15821168448E+02 0.13657193301E+02 0.11350220683E+02
 0.91471606538E+01 0.72522549346E+01 0.57944743460E+01 0.48058106376E+01 0.42156976870E+01
 0.38655010635E+01 0.36003709958E+01 0.34027214201E+01 0.32704495215E+01 0.31959844878E+01
 0.31721171810E+01 0.31959834489E+01 0.32704476531E+01 0.34027190710E+01 0.36003685542E+01
 0.38654988280E+01 0.42156958006E+01 0.48058090435E+01 0.57944728442E+01 0.72522532779E+01
 0.91471586453E+01 0.16876532502E+02 0.20023524331E+02 0.22767077318E+02 0.24798865972E+02
 0.25880046569E+02 0.25880047471E+02 0.24798868439E+02 0.22767080720E+02 0.20023527851E+02
 0.16876535402E+02 0.13657193301E+02 0.10672338542E+02 0.81623381066E+01 0.62674697388E+01
 0.50074924807E+01 0.42801182730E+01 0.38826815588E+01 0.36023961288E+01 0.33991769963E+01
 0.32704504448E+01 0.32088440209E+01 0.32088430057E+01 0.32704476531E+01 0.33991731086E+01
 0.36023920378E+01 0.38826780853E+01 0.42801159248E+01 0.50074913010E+01 0.62674693397E+01
 0.81623378220E+01 0.10672337685E+02 0.13657191438E+02 0.24287671686E+02 0.28205956969E+02
 0.31370129553E+02 0.33428843523E+02 0.34143328910E+02 0.33428846019E+02 0.31370133874E+02
 0.28205961990E+02 0.24287676188E+02 0.20023527851E+02 0.15821168448E+02 0.12036181023E+02
 0.89296131390E+01 0.66362171337E+01 0.51475690203E+01 0.43166369457E+01 0.38886359592E+01
 0.36023963274E+01 0.34027228335E+01 0.32871381502E+01 0.32495572666E+01 0.32871359565E+01
 0.34027190710E+01 0.36023920378E+01 0.38886322501E+01 0.43166346273E+01 0.51475683332E+01
 0.66362176918E+01 0.89296140647E+01 0.12036181277E+02 0.15821167204E+02 0.20023524799E+02
 0.33437312145E+02 0.37956038205E+02 0.41286571056E+02 0.43055137404E+02 0.43055138982E+02
 0.41286575381E+02 0.37956044165E+02 0.33437318272E+02 0.28205961990E+02 0.22767080720E+02
 0.17591013874E+02 0.13062456752E+02 0.94418438663E+01 0.68381819691E+01 0.51977330853E+01
 0.43166361561E+01 0.38826808247E+01 0.36003716403E+01 0.34146782468E+01 0.33237976609E+01
 0.33237967560E+01 0.34146758430E+01 0.36003685542E+01 0.38826780853E+01 0.43166346273E+01
 0.51977331410E+01 0.68381833399E+01 0.94418457027E+01 0.13062457915E+02 0.17591013324E+02
 0.22767077903E+02 0.28205957073E+02 0.43971376191E+02 0.48818394750E+02 0.51971020448E+02
 0.53065356115E+02 0.51971023640E+02 0.48818400355E+02 0.43971382872E+02 0.37956044165E+02
 0.31370133874E+02 0.24798868439E+02 0.18750778272E+02 0.13613343684E+02 0.96217546116E+01
 0.68381812337E+01 0.51475672851E+01 0.42801161074E+01 0.38654999070E+01 0.35982581729E+01
 0.34386722158E+01 0.33859896594E+01 0.34386713413E+01 0.35982568535E+01 0.38654988280E+01
 0.42801159248E+01 0.51475683332E+01 0.68381833399E+01 0.96217570849E+01 0.13613345509E+02
 0.18750778427E+02 0.24798866258E+02 0.31370129323E+02 0.37956037919E+02 0.55324528378E+02
 0.60127198473E+02 0.62681349011E+02 0.62681350505E+02 0.60127202606E+02 0.55324534208E+02
 0.48818400355E+02 0.41286575381E+02 0.33428846019E+02 0.25880047471E+02 0.19154552128E+02
 0.13613343257E+02 0.94418428356E+01 0.66362150054E+01 0.50074893233E+01 0.42156946921E+01
 0.38391285322E+01 0.35996223045E+01 0.34797052342E+01 0.34797052036E+01 0.35996223358E+01
 0.38391289351E+01 0.42156958006E+01 0.50074913010E+01 0.66362176918E+01 0.94418457027E+01
 0.13613345509E+02 0.19154552917E+02 0.25880046173E+02 0.33428842472E+02 0.41286570004E+02
 0.48818394110E+02 0.66718441988E+02 0.71017407031E+02 0.72512076466E+02 0.71017409325E+02
 0.66718446078E+02 0.60127202606E+02 0.51971023640E+02 0.43055138982E+02 0.34143328910E+02
 0.25880046569E+02 0.18750777170E+02 0.13062455503E+02 0.89296111275E+01 0.62674664573E+01
 0.48058066243E+01 0.41366397768E+01 0.38070208394E+01 0.36090291939E+01 0.35427453081E+01
 0.36090297082E+01 0.38070219395E+01 0.41366415417E+01 0.48058090435E+01 0.62674693397E+01
 0.89296140647E+01 0.13062457915E+02 0.18750778427E+02 0.25880046173E+02 0.34143326660E+02
 0.43055135085E+02 0.51971018724E+02 0.60127197592E+02 0.77192454841E+02 0.80484568994E+02
 0.80484569806E+02 0.77192457108E+02 0.71017409325E+02 0.62681350505E+02 0.53065356115E+02
 0.43055137404E+02 0.33428843523E+02 0.24798865972E+02 0.17591011886E+02 0.12036179047E+02
 0.81623352301E+01 0.57944702951E+01 0.45804291427E+01 0.40538478635E+01 0.37738482870E+01
 0.36310979003E+01 0.36310982394E+01 0.37738492988E+01 0.40538495147E+01 0.45804313399E+01
 0.57944728442E+01 0.81623378220E+01 0.12036181277E+02 0.17591013324E+02 0.24798866258E+02
 0.33428842472E+02 0.43055135085E+02 0.53065352872E+02 0.62681346911E+02 0.71017406067E+02
 0.85698922263E+02 0.87514604760E+02 0.85698923196E+02 0.80484569806E+02 0.72512076466E+02
 0.62681349011E+02 0.51971020448E+02 0.41286571056E+02 0.31370129553E+02 0.22767077318E+02
 0.15821165947E+02 0.10672335990E+02 0.72522514108E+01 0.52927892985E+01 0.43668748688E+01
 0.39683049633E+01 0.37449061659E+01 0.36693577521E+01 0.37449067207E+01 0.39683060340E+01
 0.43668763694E+01 0.52927910845E+01 0.72522532779E+01 0.10672337685E+02 0.15821167204E+02
 0.22767077903E+02 0.31370129323E+02 0.41286570004E+02 0.51971018724E+02 0.62681346911E+02
 0.72512074375E+02 0.80484568128E+02 0.91268612201E+02 0.91268612413E+02 0.87514604760E+02
 0.80484568994E+02 0.71017407031E+02 0.60127198473E+02 0.48818394750E+02 0.37956038205E+02
 0.28205956969E+02 0.20023524331E+02 0.13657190691E+02 0.91471577357E+01 0.63246575961E+01
 0.48327705919E+01 0.41851832479E+01 0.38802255376E+01 0.37251545947E+01 0.37251547444E+01
 0.38802259731E+01 0.41851839306E+01 0.48327714532E+01 0.63246585409E+01 0.91471586453E+01
 0.13657191438E+02 0.20023524799E+02 0.28205957073E+02 0.37956037919E+02 0.48818394110E+02
 0.60127197592E+02 0.71017406067E+02 0.80484568128E+02 0.87514604164E+02 0.91268612201E+02
 0.87514604164E+02 0.80484568128E+02 0.71017406067E+02 0.60127197592E+02 0.48818394110E+02
 0.37956037919E+02 0.28205957073E+02 0.20023524799E+02 0.13657191438E+02 0.91471586453E+01
 0.63246585409E+01 0.48327714532E+01 0.41851839306E+01 0.38802259731E+01 0.37251547444E+01
 0.37251545947E+01 0.38802255376E+01 0.41851832479E+01 0.48327705919E+01 0.63246575961E+01
 0.91471577357E+01 0.13657190691E+02 0.20023524331E+02 0.28205956969E+02 0.37956038205E+02
 0.48818394750E+02 0.60127198473E+02 0.71017407031E+02 0.80484568994E+02 0.87514604760E+02
 0.91268612413E+02 0.87514604164E+02 0.82191089241E+02 0.74053362220E+02 0.64021334556E+02
 0.53093851205E+02 0.42193113261E+02 0.32073094917E+02 0.23286848703E+02 0.16183221703E+02
 0.10905859459E+02 0.73888550844E+01 0.53645232743E+01 0.44034753678E+01 0.39940297727E+01
 0.37674741488E+01 0.36907674477E+01 0.37674735613E+01 0.39940286718E+01 0.44034738960E+01
 0.53645216318E+01 0.73888535086E+01 0.10905858200E+02 0.16183220979E+02 0.23286848671E+02
 0.32073095632E+02 0.42193114659E+02 0.53093853104E+02 0.64021336671E+02 0.74053364222E+02
 0.82191090799E+02 0.87514605015E+02 0.89368509602E+02 0.80484568128E+02 0.74053362220E+02
 0.65374857049E+02 0.55367322848E+02 0.44950585423E+02 0.34929301340E+02 0.25934335973E+02
 0.18404148360E+02 0.12578887988E+02 0.84932259969E+01 0.59753666316E+01 0.46712929170E+01
 0.41069623080E+01 0.38187689221E+01 0.36716711386E+01 0.36716707141E+01 0.38187677102E+01
 0.41069604898E+01 0.46712907722E+01 0.59753645098E+01 0.84932242700E+01 0.12578887001E+02
 0.18404148370E+02 0.25934337103E+02 0.34929303542E+02 0.44950588468E+02 0.55367326355E+02
 0.65374860535E+02 0.74053365174E+02 0.80484570107E+02 0.83914222455E+02 0.83914221758E+02
 0.71017406067E+02 0.64021334556E+02 0.55367322848E+02 0.45907930839E+02 0.36447552199E+02
 0.27661552641E+02 0.20057916914E+02 0.13960474278E+02 0.94966033029E+01 0.65895526888E+01
 0.49701438965E+01 0.42228501284E+01 0.38734654010E+01 0.36665958927E+01 0.35971222052E+01
 0.36665949648E+01 0.38734636821E+01 0.42228478827E+01 0.49701414944E+01 0.65895505703E+01
 0.94966019191E+01 0.13960474026E+02 0.20057918056E+02 0.27661555244E+02 0.36447556094E+02
 0.45907935615E+02 0.55367327911E+02 0.64021339207E+02 0.71017409626E+02 0.75582148811E+02
 0.77169588766E+02 0.75582146883E+02 0.60127197592E+02 0.53093851205E+02 0.44950585423E+02
 0.36447552199E+02 0.28261733249E+02 0.20940624720E+02 0.14871274559E+02 0.10259715317E+02
 0.71166328398E+01 0.52589747356E+01 0.43417355786E+01 0.39254795080E+01 0.36720669477E+01
 0.35444406545E+01 0.35444402835E+01 0.36720658745E+01 0.39254778554E+01 0.43417335719E+01
 0.52589727080E+01 0.71166312231E+01 0.10259714586E+02 0.14871275152E+02 0.20940626926E+02
 0.28261737112E+02 0.36447557459E+02 0.44950591506E+02 0.53093857310E+02 0.60127202818E+02
 0.65320059592E+02 0.68082362054E+02 0.68082360810E+02 0.65320056069E+02 0.48818394110E+02
 0.42193113261E+02 0.34929301340E+02 0.27661552641E+02 0.20940624720E+02 0.15189284794E+02
 0.10671847143E+02 0.74725305407E+01 0.54884307429E+01 0.44490124940E+01 0.39693421830E+01
 0.36833690969E+01 0.35110839261E+01 0.34539661780E+01 0.35110837430E+01 0.36833686724E+01
 0.39693414553E+01 0.44490114840E+01 0.54884296268E+01 0.74725296787E+01 0.10671847031E+02
 0.15189285944E+02 0.20940627502E+02 0.27661557127E+02 0.34929307212E+02 0.42193119815E+02
 0.48818400370E+02 0.54153995305E+02 0.57623992983E+02 0.58828510364E+02 0.57623990272E+02
 0.54153990384E+02 0.37956037919E+02 0.32073094917E+02 0.25934335973E+02 0.20057916914E+02
 0.14871274559E+02 0.10671847143E+02 0.75982248773E+01 0.56155395106E+01 0.45245271358E+01
 0.40016943547E+01 0.36956359359E+01 0.34925430620E+01 0.33924664787E+01 0.33924667956E+01
 0.34925438871E+01 0.36956369486E+01 0.40016951769E+01 0.45245275109E+01 0.56155394396E+01
 0.75982246711E+01 0.10671847353E+02 0.14871275797E+02 0.20057919642E+02 0.25934340293E+02
 0.32073100471E+02 0.37956043923E+02 0.43026896925E+02 0.46760305853E+02 0.48741849938E+02
 0.48741848590E+02 0.46760302092E+02 0.43026891519E+02 0.28205957073E+02 0.23286848703E+02
 0.18404148360E+02 0.13960474278E+02 0.10259715317E+02 0.74725305407E+01 0.56155395106E+01
 0.45517920166E+01 0.40193502005E+01 0.37047827468E+01 0.34837834649E+01 0.33546794849E+01
 0.33125150277E+01 0.33546808084E+01 0.34837857351E+01 0.37047853437E+01 0.40193524799E+01
 0.45517935397E+01 0.56155402021E+01 0.74725307161E+01 0.10259715578E+02 0.13960475283E+02
 0.18404150582E+02 0.23286852227E+02 0.28205961516E+02 0.32704770547E+02 0.36327115825E+02
 0.38680057109E+02 0.39496059548E+02 0.38680054957E+02 0.36327112024E+02 0.32704765951E+02
 0.20023524799E+02 0.16183221703E+02 0.12578887988E+02 0.94966033029E+01 0.71166328398E+01
 0.54884307429E+01 0.45245271358E+01 0.40193502005E+01 0.37081393423E+01 0.34805921004E+01
 0.33348937141E+01 0.32647163992E+01 0.32647172410E+01 0.33348960328E+01 0.34805953361E+01
 0.37081427647E+01 0.40193531324E+01 0.45245291608E+01 0.54884318191E+01 0.71166332790E+01
 0.94966036490E+01 0.12578888792E+02 0.16183223321E+02 0.20023527252E+02 0.23745257506E+02
 0.26970926348E+02 0.29350917214E+02 0.30614822223E+02 0.30614821476E+02 0.29350915169E+02
 0.26970923518E+02 0.23745254562E+02 0.13657191438E+02 0.10905859459E+02 0.84932259969E+01
 0.65895526888E+01 0.52589747356E+01 0.44490124940E+01 0.40016943547E+01 0.37047827468E+01
 0.34805921004E+01 0.33288247807E+01 0.32427253264E+01 0.32150205969E+01 0.32427266437E+01
 0.33288271405E+01 0.34805950325E+01 0.37047857210E+01 0.40016969320E+01 0.44490144302E+01
 0.52589760409E+01 0.65895535667E+01 0.84932267686E+01 0.10905860416E+02 0.13657192730E+02
 0.16497566171E+02 0.19134907511E+02 0.21277030693E+02 0.22674765543E+02 0.23160402088E+02
 0.22674764757E+02 0.21277029314E+02 0.19134905861E+02 0.16497564587E+02 0.91471586453E+01
 0.73888550844E+01 0.59753666316E+01 0.49701438965E+01 0.43417355786E+01 0.39693421830E+01
 0.36956359359E+01 0.34837834649E+01 0.33348937141E+01 0.32427253264E+01 0.31992597776E+01
 0.31992600173E+01 0.32427260174E+01 0.33348947820E+01 0.34837848075E+01 0.36956374451E+01
 0.39693437753E+01 0.43417371921E+01 0.49701455142E+01 0.59753682475E+01 0.73888566938E+01
 0.91471602313E+01 0.11104573371E+02 0.13059174473E+02 0.14786613456E+02 0.16076380306E+02
 0.16765629132E+02 0.16765628896E+02 0.16076379619E+02 0.14786612396E+02 0.13059173139E+02
 0.11104571867E+02 0.63246585409E+01 0.53645232743E+01 0.46712929170E+01 0.42228501284E+01
 0.39254795080E+01 0.36833690969E+01 0.34925430620E+01 0.33546794849E+01 0.32647163992E+01
 0.32150205969E+01 0.31992600173E+01 0.32150200610E+01 0.32647154902E+01 0.33546784831E+01
 0.34925423019E+01 0.36833688707E+01 0.39254800200E+01 0.42228514239E+01 0.46712949041E+01
 0.53645257458E+01 0.63246612160E+01 0.75000135952E+01 0.87779419710E+01 0.10008222310E+02
 0.11031712625E+02 0.11709249605E+02 0.11946251544E+02 0.11709248966E+02 0.11031711366E+02
 0.10008220477E+02 0.87779396655E+01 0.75000109881E+01 0.48327714532E+01 0.44034753678E+01
 0.41069623080E+01 0.38734654010E+01 0.36720669477E+01 0.35110839261E+01 0.33924664787E+01
 0.33125150277E+01 0.32647172410E+01 0.32427266437E+01 0.32427260174E+01 0.32647154902E+01
 0.33125125217E+01 0.33924637339E+01 0.35110815186E+01 0.36720653735E+01 0.38734650082E+01
 0.41069632299E+01 0.44034775057E+01 0.48327745429E+01 0.54160075451E+01 0.61194754527E+01
 0.68661806279E+01 0.75552323532E+01 0.80844648903E+01 0.83718232799E+01 0.83718226847E+01
 0.80844631629E+01 0.75552296557E+01 0.68661772320E+01 0.61194717220E+01 0.54160039083E+01
 0.41851839306E+01 0.39940297727E+01 0.38187689221E+01 0.36665958927E+01 0.35444406545E+01
 0.34539661780E+01 0.33924667956E+01 0.33546808084E+01 0.33348960328E+01 0.33288271405E+01
 0.33348947820E+01 0.33546784831E+01 0.33924637339E+01 0.34539628343E+01 0.35444375516E+01
 0.36665935455E+01 0.38187677536E+01 0.39940300671E+01 0.41851857396E+01 0.44218981621E+01
 0.47286099249E+01 0.50911864943E+01 0.54657840715E+01 0.57937049162E+01 0.60179070172E+01
 0.60975622666E+01 0.60179052933E+01 0.57937017411E+01 0.54657799485E+01 0.50911820598E+01
 0.47286058447E+01 0.44218950188E+01 0.38802259731E+01 0.37674741488E+01 0.36716711386E+01
 0.35971222052E+01 0.35444402835E+01 0.35110837430E+01 0.34925438871E+01 0.34837857351E+01
 0.34805953361E+01 0.34805950325E+01 0.34837848075E+01 0.34925423019E+01 0.35110815186E+01
 0.35444375516E+01 0.35971192648E+01 0.36716684479E+01 0.37674722328E+01 0.38802253139E+01
 0.40023337505E+01 0.41265482065E+01 0.42632441602E+01 0.44153302214E+01 0.45658593956E+01
 0.46881735315E+01 0.47569059714E+01 0.47569050173E+01 0.46881708788E+01 0.45658556240E+01
 0.44153261282E+01 0.42632405724E+01 0.41265457837E+01 0.40023328575E+01 0.37251547444E+01
 0.36907674477E+01 0.36716707141E+01 0.36665949648E+01 0.36720658745E+01 0.36833686724E+01
 0.36956369486E+01 0.37047853437E+01 0.37081427647E+01 0.37047857210E+01 0.36956374451E+01
 0.36833688707E+01 0.36720653735E+01 0.36665935455E+01 0.36716684479E+01 0.36907647245E+01
 0.37251521658E+01 0.37733756501E+01 0.38313967559E+01 0.38933978502E+01 0.39530034141E+01
 0.40060365830E+01 0.40514087119E+01 0.40832290379E+01 0.40947732459E+01 0.40832277382E+01
 0.40514065120E+01 0.40060341543E+01 0.39530015031E+01 0.38933970462E+01 0.38313973219E+01
 0.37733774533E+01 0.37251545947E+01 0.37674735613E+01 0.38187677102E+01 0.38734636821E+01
 0.39254778554E+01 0.39693414553E+01 0.40016951769E+01 0.40193524799E+01 0.40193531324E+01
 0.40016969320E+01 0.39693437753E+01 0.39254800200E+01 0.38734650082E+01 0.38187677536E+01
 0.37674722328E+01 0.37251521658E+01 0.36957539271E+01 0.36808191842E+01 0.36793003817E+01
 0.36880069107E+01 0.37025019716E+01 0.37181367474E+01 0.37309147735E+01 0.37380182324E+01
 0.37380181503E+01 0.37309146416E+01 0.37181368588E+01 0.37025026772E+01 0.36880084503E+01
 0.36793027637E+01 0.36808221339E+01 0.36957569261E+01 0.38802255376E+01 0.39940286718E+01
 0.41069604898E+01 0.42228478827E+01 0.43417335719E+01 0.44490114840E+01 0.45245275109E+01
 0.45517935397E+01 0.45245291608E+01 0.44490144302E+01 0.43417371921E+01 0.42228514239E+01
 0.41069632299E+01 0.39940300671E+01 0.38802253139E+01 0.37733756501E+01 0.36808191842E+01
 0.36071455198E+01 0.35536601105E+01 0.35186803215E+01 0.34984654796E+01 0.34884404338E+01
 0.34843866094E+01 0.34833822728E+01 0.34843878238E+01 0.34884427776E+01 0.34984687718E+01
 0.35186842613E+01 0.35536642868E+01 0.36071494214E+01 0.36808222696E+01 0.37733774533E+01
 0.41851832479E+01 0.44034738960E+01 0.46712907722E+01 0.49701414944E+01 0.52589727080E+01
 0.54884296268E+01 0.56155394396E+01 0.56155402021E+01 0.54884318191E+01 0.52589760409E+01
 0.49701455142E+01 0.46712949041E+01 0.44034775057E+01 0.41851857396E+01 0.40023337505E+01
 0.38313967559E+01 0.36793003817E+01 0.35536601105E+01 0.34574436073E+01 0.33893779730E+01
 0.33452972687E+01 0.33199191723E+01 0.33085798175E+01 0.33085809194E+01 0.33199222928E+01
 0.33453018874E+01 0.33893833309E+01 0.34574488542E+01 0.35536644451E+01 0.36793032003E+01