   1   1   1   0
  0.9854457E+01  0.2406482E-09  0.2406482E-09  0.2406482E-09  0.5000000E-15
  1.000000000000000E-004
  CAR 
 Co-fcc                                  
     54.78956048     -0.13676107  301     11.73918837      1.00000000
     -0.137  0.0000E+00  0.0000E+00  0.0000E+00  0.0000E+00
      0.046  0.0000E+00  0.0000E+00  0.0000E+00  0.0000E+00
      0.229  0.0000E+00  0.0000E+00  0.0000E+00  0.0000E+00
      0.413  0.0000E+00  0.0000E+00  0.0000E+00  0.0000E+00
      0.596  0.0000E+00  0.0000E+00  0.0000E+00  0.0000E+00
      0.779  0.0000E+00  0.0000E+00  0.0000E+00  0.0000E+00
      0.962  0.0000E+00  0.0000E+00  0.0000E+00  0.0000E+00
      1.145  0.0000E+00  0.0000E+00  0.0000E+00  0.0000E+00
      1.328  0.0000E+00  0.0000E+00  0.0000E+00  0.0000E+00
      1.511  0.0000E+00  0.0000E+00  0.0000E+00  0.0000E+00
      1.694  0.0000E+00  0.0000E+00  0.0000E+00  0.0000E+00
      1.877  0.0000E+00  0.0000E+00  0.0000E+00  0.0000E+00
      2.060  0.0000E+00  0.0000E+00  0.0000E+00  0.0000E+00
      2.243  0.1048E-06  0.1611E-08  0.1919E-07  0.2950E-09
      2.426  0.2069E-03  0.1713E-03  0.3790E-04  0.3136E-04
      2.610  0.6367E-05  0.4209E-04  0.3906E-04  0.3906E-04
      2.793  0.2875E-03  0.6851E-04  0.9170E-04  0.5161E-04
      2.976  0.3526E-03  0.5715E-03  0.1562E-03  0.1562E-03
      3.159  0.2944E-04  0.1039E-05  0.1616E-03  0.1564E-03
      3.342  0.6105E-03  0.6307E-03  0.2734E-03  0.2719E-03
      3.525  0.2690E-05  0.8308E-05  0.2739E-03  0.2734E-03
      3.708  0.8436E-03  0.6945E-03  0.4284E-03  0.4006E-03
      3.891  0.7596E-05  0.1589E-03  0.4297E-03  0.4297E-03
      4.074  0.1224E-02  0.5948E-03  0.6538E-03  0.5386E-03
      4.257  0.5725E-04  0.6853E-03  0.6643E-03  0.6641E-03
      4.440  0.6323E-03  0.2768E-03  0.7801E-03  0.7147E-03
      4.624  0.1044E-04  0.3632E-03  0.7820E-03  0.7812E-03
      4.807  0.1257E-02  0.3598E-03  0.1012E-02  0.8471E-03
      4.990  0.4307E-03  0.9204E-03  0.1091E-02  0.1016E-02
      5.173  0.1508E-02  0.1061E-02  0.1367E-02  0.1210E-02
      5.356  0.5889E-03  0.8590E-03  0.1475E-02  0.1367E-02
      5.539  0.2652E-03  0.5865E-03  0.1523E-02  0.1475E-02
      5.722  0.1882E-02  0.2278E-03  0.1868E-02  0.1516E-02
      5.905  0.1747E-02  0.1250E-02  0.2188E-02  0.1745E-02
      6.088  0.2601E-02  0.1802E-02  0.2664E-02  0.2075E-02
      6.271  0.3967E-02  0.2047E-03  0.3390E-02  0.2113E-02
      6.454  0.6834E-02  0.1887E-02  0.4642E-02  0.2458E-02
      6.637  0.4552E-02  0.6072E-03  0.5475E-02  0.2569E-02
      6.821  0.6134E-02  0.1954E-02  0.6598E-02  0.2927E-02
      7.004  0.8726E-02  0.2969E-02  0.8195E-02  0.3471E-02
      7.187  0.8273E-02  0.4160E-02  0.9710E-02  0.4232E-02
      7.370  0.9334E-02  0.2379E-02  0.1142E-01  0.4668E-02
      7.553  0.6504E-02  0.4545E-02  0.1261E-01  0.5500E-02
      7.736  0.7453E-02  0.5968E-02  0.1397E-01  0.6593E-02
      7.919  0.8479E-02  0.3876E-02  0.1553E-01  0.7302E-02
      8.102  0.4853E-02  0.5256E-02  0.1642E-01  0.8265E-02
      8.285  0.8086E-02  0.7645E-02  0.1790E-01  0.9664E-02
      8.468  0.9630E-02  0.6429E-02  0.1966E-01  0.1084E-01
      8.651  0.1009E-01  0.8123E-02  0.2151E-01  0.1233E-01
      8.835  0.1102E-01  0.4773E-02  0.2352E-01  0.1320E-01
      9.018  0.1209E-01  0.7202E-02  0.2574E-01  0.1452E-01
      9.201  0.1561E-01  0.6170E-02  0.2859E-01  0.1565E-01
      9.384  0.1204E-01  0.5331E-02  0.3080E-01  0.1663E-01
      9.567  0.7007E-02  0.8178E-02  0.3208E-01  0.1812E-01
      9.750  0.1012E-01  0.8817E-02  0.3394E-01  0.1974E-01
      9.933  0.9458E-02  0.7298E-02  0.3567E-01  0.2107E-01
     10.116  0.1238E-01  0.9817E-02  0.3793E-01  0.2287E-01
     10.299  0.8919E-02  0.8640E-02  0.3957E-01  0.2445E-01
     10.482  0.1145E-01  0.9833E-02  0.4166E-01  0.2625E-01
     10.665  0.7963E-02  0.1127E-01  0.4312E-01  0.2832E-01
     10.849  0.1049E-01  0.1004E-01  0.4504E-01  0.3015E-01
     11.032  0.1059E-01  0.8634E-02  0.4698E-01  0.3174E-01
     11.215  0.1645E-01  0.5936E-02  0.4999E-01  0.3282E-01
     11.398  0.1047E-01  0.8335E-02  0.5191E-01  0.3435E-01
     11.581  0.4733E-02  0.5209E-02  0.5278E-01  0.3530E-01
     11.764  0.4075E-03  0.1113E-01  0.5285E-01  0.3734E-01
     11.947  0.1978E-03  0.9637E-02  0.5289E-01  0.3910E-01
     12.130  0.1155E-02  0.7017E-02  0.5310E-01  0.4039E-01
     12.313  0.3234E-02  0.1214E-01  0.5369E-01  0.4261E-01
     12.496  0.1798E-02  0.3877E-02  0.5402E-01  0.4332E-01
     12.679  0.3992E-04  0.1196E-01  0.5403E-01  0.4551E-01
     12.862  0.1423E-02  0.9615E-02  0.5429E-01  0.4727E-01
     13.046  0.1196E-02  0.1902E-01  0.5451E-01  0.5075E-01
     13.229  0.2236E-02  0.1024E-01  0.5492E-01  0.5263E-01
     13.412  0.2434E-03  0.1212E-02  0.5496E-01  0.5285E-01
     13.595  0.1663E-02  0.1819E-02  0.5527E-01  0.5318E-01
     13.778  0.1474E-02  0.3708E-02  0.5554E-01  0.5386E-01
     13.961  0.6312E-04  0.1866E-02  0.5555E-01  0.5421E-01
     14.144  0.1818E-02  0.1501E-02  0.5588E-01  0.5448E-01
     14.327  0.7886E-03  0.8508E-04  0.5602E-01  0.5450E-01
     14.510  0.1799E-02  0.1271E-02  0.5635E-01  0.5473E-01
     14.693  0.1112E-02  0.1925E-02  0.5656E-01  0.5508E-01
     14.876  0.2799E-02  0.2017E-02  0.5707E-01  0.5545E-01
     15.060  0.2739E-05  0.2479E-02  0.5707E-01  0.5590E-01
     15.243  0.5036E-08  0.6345E-03  0.5707E-01  0.5602E-01
     15.426  0.9743E-03  0.1875E-02  0.5725E-01  0.5636E-01
     15.609  0.3061E-03  0.1575E-03  0.5730E-01  0.5639E-01
     15.792  0.2890E-02  0.2389E-02  0.5783E-01  0.5683E-01
     15.975  0.9506E-03  0.1313E-02  0.5801E-01  0.5707E-01
     16.158  0.8029E-03  0.2251E-06  0.5815E-01  0.5707E-01
     16.341  0.1117E-02  0.2127E-02  0.5836E-01  0.5746E-01
     16.524  0.1831E-05  0.4594E-03  0.5836E-01  0.5754E-01
     16.707  0.7213E-03  0.2299E-02  0.5849E-01  0.5796E-01
     16.890  0.2470E-02  0.2358E-03  0.5894E-01  0.5801E-01
     17.073  0.7395E-05  0.1284E-02  0.5895E-01  0.5824E-01
     17.257  0.1098E-03  0.9851E-03  0.5897E-01  0.5842E-01
     17.440  0.1170E-02  0.2908E-03  0.5918E-01  0.5848E-01
     17.623  0.9257E-07  0.1713E-02  0.5918E-01  0.5879E-01
     17.806  0.5072E-03  0.8465E-03  0.5927E-01  0.5895E-01
     17.989  0.1317E-02  0.1215E-02  0.5951E-01  0.5917E-01
     18.172  0.1916E-03  0.6506E-04  0.5955E-01  0.5918E-01
     18.355  0.1184E-02  0.4416E-08  0.5977E-01  0.5918E-01
     18.538  0.1192E-06  0.5736E-03  0.5977E-01  0.5928E-01
     18.721  0.1622E-12  0.1346E-02  0.5977E-01  0.5953E-01
     18.904  0.9848E-04  0.1825E-03  0.5978E-01  0.5956E-01
     19.087  0.2813E-02  0.1098E-02  0.6030E-01  0.5977E-01
     19.271  0.9810E-03  0.2546E-07  0.6048E-01  0.5977E-01
     19.454  0.1745E-02  0.4268E-09  0.6080E-01  0.5977E-01
     19.637  0.1373E-02  0.7454E-03  0.6105E-01  0.5990E-01
     19.820  0.1040E-02  0.5358E-03  0.6124E-01  0.6000E-01
     20.003  0.2403E-02  0.1766E-02  0.6168E-01  0.6032E-01
     20.186  0.4427E-03  0.2410E-02  0.6176E-01  0.6076E-01
     20.369  0.2238E-02  0.1507E-02  0.6217E-01  0.6104E-01
     20.552  0.1160E-02  0.1721E-02  0.6238E-01  0.6136E-01
     20.735  0.1336E-06  0.1356E-02  0.6238E-01  0.6160E-01
     20.918  0.2136E-02  0.1686E-02  0.6277E-01  0.6191E-01
     21.101  0.1771E-02  0.1421E-02  0.6310E-01  0.6217E-01
     21.285  0.6163E-03  0.1146E-02  0.6321E-01  0.6238E-01
     21.468  0.6749E-03  0.8095E-03  0.6333E-01  0.6253E-01
     21.651  0.2403E-02  0.2595E-02  0.6377E-01  0.6301E-01
     21.834  0.7980E-04  0.4624E-03  0.6379E-01  0.6309E-01
     22.017  0.4849E-03  0.7100E-03  0.6388E-01  0.6322E-01
     22.200  0.1503E-02  0.1826E-02  0.6415E-01  0.6356E-01
     22.383  0.5735E-03  0.1272E-02  0.6426E-01  0.6379E-01
     22.566  0.2321E-02  0.3773E-04  0.6468E-01  0.6379E-01
     22.749  0.3973E-03  0.1886E-02  0.6476E-01  0.6414E-01
     22.932  0.2463E-02  0.6131E-03  0.6521E-01  0.6425E-01
     23.115  0.1100E-02  0.1698E-02  0.6541E-01  0.6456E-01
     23.298  0.6608E-03  0.8918E-03  0.6553E-01  0.6473E-01
     23.482  0.2176E-02  0.8976E-03  0.6593E-01  0.6489E-01
     23.665  0.3827E-02  0.2209E-02  0.6663E-01  0.6530E-01
     23.848  0.1001E-02  0.1544E-02  0.6681E-01  0.6558E-01
     24.031  0.1094E-02  0.1750E-02  0.6701E-01  0.6590E-01
     24.214  0.1922E-02  0.2800E-02  0.6736E-01  0.6641E-01
     24.397  0.1356E-02  0.1875E-02  0.6761E-01  0.6675E-01
     24.580  0.3376E-03  0.1645E-02  0.6767E-01  0.6706E-01
     24.763  0.2513E-03  0.1186E-02  0.6772E-01  0.6727E-01
     24.946  0.4054E-02  0.2069E-02  0.6846E-01  0.6765E-01
     25.129  0.2851E-02  0.8181E-04  0.6898E-01  0.6767E-01
     25.312  0.5402E-03  0.9153E-03  0.6908E-01  0.6783E-01
     25.496  0.1996E-02  0.4681E-02  0.6945E-01  0.6869E-01
     25.679  0.2050E-02  0.1398E-02  0.6982E-01  0.6895E-01
     25.862  0.3395E-02  0.1688E-02  0.7045E-01  0.6926E-01
     26.045  0.9839E-03  0.1096E-02  0.7063E-01  0.6946E-01
     26.228  0.1328E-02  0.3138E-02  0.7087E-01  0.7003E-01
     26.411  0.2483E-02  0.3205E-02  0.7132E-01  0.7062E-01
     26.594  0.3662E-04  0.9642E-04  0.7133E-01  0.7064E-01
     26.777  0.1419E-02  0.3401E-02  0.7159E-01  0.7126E-01
     26.960  0.2668E-02  0.3826E-03  0.7208E-01  0.7133E-01
     27.143  0.3580E-02  0.8969E-03  0.7273E-01  0.7149E-01
     27.326  0.2528E-02  0.2257E-02  0.7320E-01  0.7191E-01
     27.509  0.1402E-02  0.3771E-02  0.7345E-01  0.7260E-01
     27.693  0.1990E-02  0.2321E-02  0.7382E-01  0.7302E-01
     27.876  0.1153E-02  0.2912E-02  0.7403E-01  0.7355E-01
     28.059  0.2312E-02  0.1057E-02  0.7445E-01  0.7375E-01
     28.242  0.1505E-02  0.2131E-02  0.7473E-01  0.7414E-01
     28.425  0.1857E-02  0.1710E-02  0.7507E-01  0.7445E-01
     28.608  0.2569E-02  0.1507E-02  0.7554E-01  0.7473E-01
     28.791  0.3222E-02  0.1745E-02  0.7613E-01  0.7505E-01
     28.974  0.1324E-02  0.2733E-02  0.7637E-01  0.7555E-01
     29.157  0.1311E-02  0.2952E-02  0.7661E-01  0.7609E-01
     29.340  0.3350E-02  0.1519E-02  0.7722E-01  0.7636E-01
     29.523  0.8300E-03  0.1937E-02  0.7738E-01  0.7672E-01
     29.707  0.3164E-02  0.2595E-02  0.7795E-01  0.7719E-01
     29.890  0.1560E-02  0.9464E-03  0.7824E-01  0.7737E-01
     30.073  0.3355E-02  0.3318E-02  0.7885E-01  0.7798E-01
     30.256  0.7339E-03  0.3261E-02  0.7899E-01  0.7857E-01
     30.439  0.2134E-02  0.1934E-02  0.7938E-01  0.7893E-01
     30.622  0.8631E-03  0.9781E-03  0.7954E-01  0.7911E-01
     30.805  0.8902E-03  0.1530E-02  0.7970E-01  0.7939E-01
     30.988  0.2538E-02  0.1436E-02  0.8017E-01  0.7965E-01
     31.171  0.1843E-02  0.2633E-03  0.8050E-01  0.7970E-01
     31.354  0.1929E-02  0.2900E-02  0.8086E-01  0.8023E-01
     31.537  0.1183E-02  0.3014E-02  0.8107E-01  0.8078E-01
     31.721  0.2537E-02  0.4659E-03  0.8154E-01  0.8087E-01
     31.904  0.2248E-02  0.2350E-02  0.8195E-01  0.8130E-01
     32.087  0.2297E-02  0.2311E-02  0.8237E-01  0.8172E-01
     32.270  0.6327E-03  0.2861E-02  0.8248E-01  0.8224E-01
     32.453  0.1094E-03  0.7680E-03  0.8250E-01  0.8238E-01
     32.636  0.2527E-02  0.1671E-02  0.8297E-01  0.8269E-01
     32.819  0.1767E-02  0.7611E-03  0.8329E-01  0.8283E-01
     33.002  0.2721E-02  0.2317E-02  0.8379E-01  0.8325E-01
     33.185  0.4960E-03  0.1663E-02  0.8388E-01  0.8356E-01
     33.368  0.2065E-02  0.1301E-02  0.8426E-01  0.8380E-01
     33.551  0.8853E-03  0.2438E-02  0.8442E-01  0.8424E-01
     33.734  0.2675E-02  0.1367E-02  0.8491E-01  0.8449E-01
     33.918  0.2162E-02  0.1882E-02  0.8531E-01  0.8484E-01
     34.101  0.6769E-03  0.1171E-02  0.8543E-01  0.8505E-01
     34.284  0.2374E-02  0.2940E-02  0.8586E-01  0.8559E-01
     34.467  0.2854E-02  0.2867E-02  0.8639E-01  0.8611E-01
     34.650  0.1164E-02  0.1664E-02  0.8660E-01  0.8642E-01
     34.833  0.1944E-02  0.5798E-03  0.8696E-01  0.8652E-01
     35.016  0.1480E-02  0.7721E-03  0.8723E-01  0.8667E-01
     35.199  0.1628E-02  0.2298E-02  0.8752E-01  0.8709E-01
     35.382  0.3674E-02  0.1421E-02  0.8820E-01  0.8735E-01
     35.565  0.2036E-02  0.3574E-02  0.8857E-01  0.8800E-01
     35.748  0.2051E-02  0.3446E-02  0.8895E-01  0.8863E-01
     35.932  0.2125E-02  0.1722E-02  0.8933E-01  0.8895E-01
     36.115  0.3940E-02  0.2491E-02  0.9006E-01  0.8940E-01
     36.298  0.1451E-02  0.2541E-02  0.9032E-01  0.8987E-01
     36.481  0.1673E-02  0.1601E-02  0.9063E-01  0.9016E-01
     36.664  0.2769E-02  0.2295E-02  0.9113E-01  0.9058E-01
     36.847  0.1967E-02  0.2156E-02  0.9149E-01  0.9098E-01
     37.030  0.2607E-02  0.2549E-02  0.9197E-01  0.9144E-01
     37.213  0.2685E-02  0.3729E-02  0.9246E-01  0.9213E-01
     37.396  0.3516E-02  0.7642E-03  0.9311E-01  0.9227E-01
     37.579  0.1559E-02  0.4599E-02  0.9339E-01  0.9311E-01
     37.762  0.1308E-02  0.1799E-02  0.9363E-01  0.9344E-01
     37.945  0.1591E-02  0.3073E-03  0.9392E-01  0.9349E-01
     38.129  0.1845E-02  0.2400E-02  0.9426E-01  0.9393E-01
     38.312  0.3126E-02  0.1537E-02  0.9483E-01  0.9421E-01
     38.495  0.3022E-02  0.3435E-02  0.9539E-01  0.9484E-01
     38.678  0.3208E-02  0.1787E-02  0.9597E-01  0.9517E-01
     38.861  0.1447E-02  0.2828E-02  0.9624E-01  0.9569E-01
     39.044  0.1846E-02  0.2309E-02  0.9658E-01  0.9611E-01
     39.227  0.3337E-02  0.2557E-02  0.9719E-01  0.9658E-01
     39.410  0.3022E-02  0.2317E-02  0.9774E-01  0.9700E-01
     39.593  0.2769E-02  0.4142E-02  0.9825E-01  0.9776E-01
     39.776  0.1459E-02  0.1903E-02  0.9852E-01  0.9811E-01
     39.959  0.3145E-08  0.2198E-02  0.9852E-01  0.9851E-01
     40.143  0.8537E-03  0.2094E-04  0.9867E-01  0.9852E-01
     40.326  0.1694E-02  0.1337E-02  0.9898E-01  0.9876E-01
     40.509  0.1590E-02  0.5794E-03  0.9927E-01  0.9887E-01
     40.692  0.3935E-02  0.1495E-02  0.9999E-01  0.9914E-01
     40.875  0.3470E-04  0.2818E-02  0.1000E+00  0.9966E-01
     41.058  0.3051E-04  0.1030E-02  0.1000E+00  0.9985E-01
     41.241  0.1250E-02  0.8436E-03  0.1002E+00  0.1000E+00
     41.424  0.1588E-02  0.4502E-08  0.1005E+00  0.1000E+00
     41.607  0.3144E-02  0.2768E-02  0.1011E+00  0.1005E+00
     41.790  0.1453E-02  0.3535E-02  0.1014E+00  0.1012E+00
     41.973  0.5000E-03  0.1063E-02  0.1015E+00  0.1013E+00
     42.157  0.2359E-02  0.4698E-03  0.1019E+00  0.1014E+00
     42.340  0.9825E-03  0.2724E-03  0.1021E+00  0.1015E+00
     42.523  0.1404E-02  0.1239E-02  0.1023E+00  0.1017E+00
     42.706  0.1882E-02  0.1859E-02  0.1027E+00  0.1021E+00
     42.889  0.2048E-02  0.3226E-02  0.1030E+00  0.1026E+00
     43.072  0.1611E-02  0.1943E-02  0.1033E+00  0.1030E+00
     43.255  0.4738E-02  0.9045E-03  0.1042E+00  0.1032E+00
     43.438  0.6171E-02  0.4861E-02  0.1053E+00  0.1041E+00
     43.621  0.4815E-02  0.6371E-02  0.1062E+00  0.1052E+00
     43.804  0.2233E-02  0.2234E-02  0.1066E+00  0.1056E+00
     43.987  0.1128E-02  0.3462E-02  0.1068E+00  0.1063E+00
     44.170  0.1174E-02  0.1832E-02  0.1071E+00  0.1066E+00
     44.354  0.1715E-02  0.1483E-02  0.1074E+00  0.1069E+00
     44.537  0.2584E-02  0.2468E-02  0.1078E+00  0.1073E+00
     44.720  0.1857E-02  0.1585E-02  0.1082E+00  0.1076E+00
     44.903  0.3852E-02  0.2663E-02  0.1089E+00  0.1081E+00
     45.086  0.2975E-02  0.2881E-02  0.1094E+00  0.1086E+00
     45.269  0.1842E-02  0.4219E-02  0.1098E+00  0.1094E+00
     45.452  0.6752E-05  0.1354E-02  0.1098E+00  0.1096E+00
     45.635  0.9102E-03  0.2145E-03  0.1099E+00  0.1097E+00
     45.818  0.3994E-02  0.1378E-02  0.1107E+00  0.1099E+00
     46.001  0.4552E-02  0.3690E-02  0.1115E+00  0.1106E+00
     46.184  0.1612E-02  0.1333E-02  0.1118E+00  0.1109E+00
     46.368  0.5436E-03  0.2649E-02  0.1119E+00  0.1113E+00
     46.551  0.2335E-02  0.4084E-02  0.1123E+00  0.1121E+00
     46.734  0.2252E-02  0.1145E-02  0.1127E+00  0.1123E+00
     46.917  0.1181E-02  0.1722E-02  0.1129E+00  0.1126E+00
     47.100  0.4429E-02  0.9157E-03  0.1138E+00  0.1128E+00
     47.283  0.1316E-02  0.1748E-02  0.1140E+00  0.1131E+00
     47.466  0.1989E-02  0.1615E-02  0.1144E+00  0.1134E+00
     47.649  0.2607E-02  0.1530E-02  0.1148E+00  0.1137E+00
     47.832  0.1685E-02  0.2878E-02  0.1152E+00  0.1142E+00
     48.015  0.2965E-02  0.1505E-02  0.1157E+00  0.1145E+00
     48.198  0.6061E-02  0.5363E-04  0.1168E+00  0.1145E+00
     48.381  0.4538E-02  0.6019E-03  0.1176E+00  0.1146E+00
     48.565  0.8573E-03  0.1327E-02  0.1178E+00  0.1148E+00
     48.748  0.6887E-02  0.2103E-02  0.1191E+00  0.1152E+00
     48.931  0.4538E-02  0.2959E-02  0.1199E+00  0.1158E+00
     49.114  0.1199E-05  0.1769E-02  0.1199E+00  0.1161E+00
     49.297  0.0000E+00  0.8407E-03  0.1199E+00  0.1162E+00
     49.480  0.0000E+00  0.2532E-03  0.1199E+00  0.1163E+00
     49.663  0.1069E-12  0.2069E-02  0.1199E+00  0.1167E+00
     49.846  0.8633E-04  0.1932E-02  0.1199E+00  0.1170E+00
     50.029  0.5537E-03  0.3182E-02  0.1200E+00  0.1176E+00
     50.212  0.1473E-07  0.2439E-03  0.1200E+00  0.1177E+00
     50.395  0.0000E+00  0.1330E-03  0.1200E+00  0.1177E+00
     50.579  0.0000E+00  0.1033E-02  0.1200E+00  0.1179E+00
     50.762  0.0000E+00  0.2142E-02  0.1200E+00  0.1183E+00
     50.945  0.0000E+00  0.1532E-02  0.1200E+00  0.1185E+00
     51.128  0.0000E+00  0.2808E-03  0.1200E+00  0.1186E+00
     51.311  0.0000E+00  0.4692E-08  0.1200E+00  0.1186E+00
     51.494  0.0000E+00  0.9677E-03  0.1200E+00  0.1188E+00
     51.677  0.0000E+00  0.3125E-03  0.1200E+00  0.1188E+00
     51.860  0.0000E+00  0.4301E-07  0.1200E+00  0.1188E+00
     52.043  0.0000E+00  0.1965E-02  0.1200E+00  0.1192E+00
     52.226  0.0000E+00  0.1276E-02  0.1200E+00  0.1194E+00
     52.409  0.0000E+00  0.3159E-02  0.1200E+00  0.1200E+00
     52.593  0.0000E+00  0.3768E-06  0.1200E+00  0.1200E+00
     52.776  0.0000E+00  0.0000E+00  0.1200E+00  0.1200E+00
     52.959  0.0000E+00  0.0000E+00  0.1200E+00  0.1200E+00
     53.142  0.0000E+00  0.0000E+00  0.1200E+00  0.1200E+00
     53.325  0.0000E+00  0.0000E+00  0.1200E+00  0.1200E+00
     53.508  0.0000E+00  0.0000E+00  0.1200E+00  0.1200E+00
     53.691  0.0000E+00  0.0000E+00  0.1200E+00  0.1200E+00
     53.874  0.0000E+00  0.0000E+00  0.1200E+00  0.1200E+00
     54.057  0.0000E+00  0.0000E+00  0.1200E+00  0.1200E+00
     54.240  0.0000E+00  0.0000E+00  0.1200E+00  0.1200E+00
     54.423  0.0000E+00  0.0000E+00  0.1200E+00  0.1200E+00
     54.606  0.0000E+00  0.0000E+00  0.1200E+00  0.1200E+00
     54.790  0.0000E+00  0.0000E+00  0.1200E+00  0.1200E+00
     54.78956048     -0.13676107  301     11.73918837      1.00000000
     -0.137  0.0000E+00  0.0000E+00  0.0000E+00  0.0000E+00  0.0000E+00  0.0000E+00  0.0000E+00  0.0000E+00  0.0000E+00  0.0000E+00  0.0000E+00  0.0000E+00  0.0000E+00  0.0000E+00  0.0000E+00  0.0000E+00  0.0000E+00  0.0000E+00
      0.046  0.0000E+00  0.0000E+00  0.0000E+00  0.0000E+00  0.0000E+00  0.0000E+00  0.0000E+00  0.0000E+00  0.0000E+00  0.0000E+00  0.0000E+00  0.0000E+00  0.0000E+00  0.0000E+00  0.0000E+00  0.0000E+00  0.0000E+00  0.0000E+00
      0.229  0.0000E+00  0.0000E+00  0.0000E+00  0.0000E+00  0.0000E+00  0.0000E+00  0.0000E+00  0.0000E+00  0.0000E+00  0.0000E+00  0.0000E+00  0.0000E+00  0.0000E+00  0.0000E+00  0.0000E+00  0.0000E+00  0.0000E+00  0.0000E+00
      0.413  0.0000E+00  0.0000E+00  0.0000E+00  0.0000E+00  0.0000E+00  0.0000E+00  0.0000E+00  0.0000E+00  0.0000E+00  0.0000E+00  0.0000E+00  0.0000E+00  0.0000E+00  0.0000E+00  0.0000E+00  0.0000E+00  0.0000E+00  0.0000E+00
      0.596  0.0000E+00  0.0000E+00  0.0000E+00  0.0000E+00  0.0000E+00  0.0000E+00  0.0000E+00  0.0000E+00  0.0000E+00  0.0000E+00  0.0000E+00  0.0000E+00  0.0000E+00  0.0000E+00  0.0000E+00  0.0000E+00  0.0000E+00  0.0000E+00
      0.779  0.0000E+00  0.0000E+00  0.0000E+00  0.0000E+00  0.0000E+00  0.0000E+00  0.0000E+00  0.0000E+00  0.0000E+00  0.0000E+00  0.0000E+00  0.0000E+00  0.0000E+00  0.0000E+00  0.0000E+00  0.0000E+00  0.0000E+00  0.0000E+00
      0.962  0.0000E+00  0.0000E+00  0.0000E+00  0.0000E+00  0.0000E+00  0.0000E+00  0.0000E+00  0.0000E+00  0.0000E+00  0.0000E+00  0.0000E+00  0.0000E+00  0.0000E+00  0.0000E+00  0.0000E+00  0.0000E+00  0.0000E+00  0.0000E+00
      1.145  0.0000E+00  0.0000E+00  0.0000E+00  0.0000E+00  0.0000E+00  0.0000E+00  0.0000E+00  0.0000E+00  0.0000E+00  0.0000E+00  0.0000E+00  0.0000E+00  0.0000E+00  0.0000E+00  0.0000E+00  0.0000E+00  0.0000E+00  0.0000E+00
      1.328  0.0000E+00  0.0000E+00  0.0000E+00  0.0000E+00  0.0000E+00  0.0000E+00  0.0000E+00  0.0000E+00  0.0000E+00  0.0000E+00  0.0000E+00  0.0000E+00  0.0000E+00  0.0000E+00  0.0000E+00  0.0000E+00  0.0000E+00  0.0000E+00
      1.511  0.0000E+00  0.0000E+00  0.0000E+00  0.0000E+00  0.0000E+00  0.0000E+00  0.0000E+00  0.0000E+00  0.0000E+00  0.0000E+00  0.0000E+00  0.0000E+00  0.0000E+00  0.0000E+00  0.0000E+00  0.0000E+00  0.0000E+00  0.0000E+00
      1.694  0.0000E+00  0.0000E+00  0.0000E+00  0.0000E+00  0.0000E+00  0.0000E+00  0.0000E+00  0.0000E+00  0.0000E+00  0.0000E+00  0.0000E+00  0.0000E+00  0.0000E+00  0.0000E+00  0.0000E+00  0.0000E+00  0.0000E+00  0.0000E+00
      1.877  0.0000E+00  0.0000E+00  0.0000E+00  0.0000E+00  0.0000E+00  0.0000E+00  0.0000E+00  0.0000E+00  0.0000E+00  0.0000E+00  0.0000E+00  0.0000E+00  0.0000E+00  0.0000E+00  0.0000E+00  0.0000E+00  0.0000E+00  0.0000E+00
      2.060  0.0000E+00  0.0000E+00  0.0000E+00  0.0000E+00  0.0000E+00  0.0000E+00  0.0000E+00  0.0000E+00  0.0000E+00  0.0000E+00  0.0000E+00  0.0000E+00  0.0000E+00  0.0000E+00  0.0000E+00  0.0000E+00  0.0000E+00  0.0000E+00
      2.243  0.8367E-05  0.1290E-06  0.4397E-07  0.6797E-09  0.4397E-07  0.6797E-09  0.4397E-07  0.6797E-09  0.6780E-09  0.8052E-11  0.6780E-09  0.8052E-11  0.7041E-21  0.8335E-25  0.6780E-09  0.8052E-11  0.7041E-21  0.8335E-25
      2.426  0.1651E-01  0.1371E-01  0.8676E-04  0.7224E-04  0.8676E-04  0.7224E-04  0.8676E-04  0.7224E-04  0.1338E-05  0.8557E-06  0.1338E-05  0.8557E-06  0.1389E-17  0.8858E-20  0.1338E-05  0.8557E-06  0.1389E-17  0.8858E-20
      2.610  0.5082E-03  0.3369E-02  0.2670E-05  0.1775E-04  0.2670E-05  0.1775E-04  0.2670E-05  0.1775E-04  0.4118E-07  0.2103E-06  0.4118E-07  0.2103E-06  0.2029E-11  0.1904E-14  0.4118E-07  0.2103E-06  0.2029E-11  0.1904E-14
      2.793  0.2198E-01  0.5254E-02  0.4294E-03  0.1031E-03  0.4294E-03  0.1031E-03  0.4294E-03  0.1031E-03  0.1222E-04  0.2209E-05  0.1222E-04  0.2209E-05  0.1629E-04  0.3009E-05  0.1222E-04  0.2209E-05  0.1629E-04  0.3009E-05
      2.976  0.2696E-01  0.4383E-01  0.5267E-03  0.8601E-03  0.5267E-03  0.8601E-03  0.5267E-03  0.8601E-03  0.1499E-04  0.1842E-04  0.1499E-04  0.1842E-04  0.1999E-04  0.2510E-04  0.1499E-04  0.1842E-04  0.1999E-04  0.2510E-04
      3.159  0.2152E-02  0.7635E-04  0.7260E-04  0.2570E-05  0.7260E-04  0.2570E-05  0.7260E-04  0.2570E-05  0.6940E-05  0.1778E-06  0.6940E-05  0.1778E-06  0.1544E-05  0.4260E-07  0.6940E-05  0.1778E-06  0.1544E-05  0.4260E-07
      3.342  0.4463E-01  0.4629E-01  0.1505E-02  0.1576E-02  0.1505E-02  0.1576E-02  0.1505E-02  0.1576E-02  0.1439E-03  0.1102E-03  0.1439E-03  0.1102E-03  0.3201E-04  0.2581E-04  0.1439E-03  0.1102E-03  0.3201E-04  0.2581E-04
      3.525  0.1876E-03  0.6096E-03  0.8903E-05  0.2076E-04  0.8903E-05  0.2076E-04  0.8903E-05  0.2076E-04  0.1012E-05  0.1452E-05  0.1012E-05  0.1452E-05  0.8888E-06  0.3417E-06  0.1012E-05  0.1452E-05  0.8888E-06  0.3417E-06
      3.708  0.5864E-01  0.4857E-01  0.2865E-02  0.2396E-02  0.2865E-02  0.2396E-02  0.2865E-02  0.2396E-02  0.2265E-03  0.1367E-03  0.2265E-03  0.1367E-03  0.3955E-03  0.2344E-03  0.2265E-03  0.1367E-03  0.3955E-03  0.2344E-03
      3.891  0.5267E-03  0.1111E-01  0.2623E-04  0.5495E-03  0.2623E-04  0.5495E-03  0.2623E-04  0.5495E-03  0.1641E-05  0.2704E-04  0.1641E-05  0.2704E-04  0.4114E-05  0.5825E-04  0.1641E-05  0.2704E-04  0.4114E-05  0.5825E-04
      4.074  0.8094E-01  0.3966E-01  0.5155E-02  0.2563E-02  0.5155E-02  0.2563E-02  0.5155E-02  0.2563E-02  0.8053E-03  0.2802E-03  0.8053E-03  0.2802E-03  0.5638E-03  0.2008E-03  0.8053E-03  0.2802E-03  0.5638E-03  0.2008E-03
      4.257  0.3781E-02  0.4570E-01  0.2417E-03  0.2953E-02  0.2417E-03  0.2953E-02  0.2417E-03  0.2953E-02  0.3928E-04  0.3228E-03  0.3928E-04  0.3228E-03  0.2610E-04  0.2314E-03  0.3928E-04  0.3228E-03  0.2610E-04  0.2314E-03
      4.440  0.3946E-01  0.1756E-01  0.2917E-02  0.1346E-02  0.2917E-02  0.1346E-02  0.2917E-02  0.1346E-02  0.1147E-02  0.3360E-03  0.1147E-02  0.3360E-03  0.1703E-03  0.5441E-04  0.1147E-02  0.3360E-03  0.1703E-03  0.5441E-04
      4.624  0.6325E-03  0.2304E-01  0.5210E-04  0.1766E-02  0.5210E-04  0.1766E-02  0.5210E-04  0.1766E-02  0.1314E-04  0.4408E-03  0.1314E-04  0.4408E-03  0.1474E-04  0.7139E-04  0.1314E-04  0.4408E-03  0.1474E-04  0.7139E-04
      4.807  0.7333E-01  0.2142E-01  0.6986E-02  0.2090E-02  0.6986E-02  0.2090E-02  0.6986E-02  0.2090E-02  0.1320E-02  0.2174E-03  0.1320E-02  0.2174E-03  0.2508E-02  0.5634E-03  0.1320E-02  0.2174E-03  0.2508E-02  0.5634E-03
      4.990  0.2353E-01  0.5493E-01  0.2256E-02  0.5340E-02  0.2256E-02  0.5340E-02  0.2256E-02  0.5340E-02  0.1718E-02  0.7191E-03  0.1718E-02  0.7191E-03  0.2261E-03  0.1159E-02  0.1718E-02  0.7191E-03  0.2261E-03  0.1159E-02
      5.173  0.8200E-01  0.5990E-01  0.8925E-02  0.6469E-02  0.8925E-02  0.6469E-02  0.8925E-02  0.6469E-02  0.2831E-02  0.2003E-02  0.2831E-02  0.2003E-02  0.3652E-02  0.1106E-02  0.2831E-02  0.2003E-02  0.3652E-02  0.1106E-02
      5.356  0.2951E-01  0.4828E-01  0.3422E-02  0.5464E-02  0.3422E-02  0.5464E-02  0.3422E-02  0.5464E-02  0.2313E-02  0.9860E-03  0.2313E-02  0.9860E-03  0.1256E-02  0.1479E-02  0.2313E-02  0.9860E-03  0.1256E-02  0.1479E-02
      5.539  0.1234E-01  0.3106E-01  0.1228E-02  0.3845E-02  0.1228E-02  0.3845E-02  0.1228E-02  0.3845E-02  0.2096E-02  0.1392E-02  0.2096E-02  0.1392E-02  0.1561E-03  0.8857E-03  0.2096E-02  0.1392E-02  0.1561E-03  0.8857E-03
      5.722  0.8417E-01  0.1150E-01  0.1196E-01  0.1305E-02  0.1196E-01  0.1305E-02  0.1196E-01  0.1305E-02  0.7497E-02  0.1191E-02  0.7497E-02  0.1191E-02  0.7761E-02  0.8111E-04  0.7497E-02  0.1191E-02  0.7761E-02  0.8111E-04
      5.905  0.6853E-01  0.6235E-01  0.8354E-02  0.9222E-02  0.8354E-02  0.9222E-02  0.8354E-02  0.9222E-02  0.1557E-01  0.3401E-02  0.1557E-01  0.3401E-02  0.5134E-02  0.1674E-02  0.1557E-01  0.3401E-02  0.5134E-02  0.1674E-02
      6.088  0.6737E-01  0.8181E-01  0.9390E-02  0.1210E-01  0.9390E-02  0.1210E-01  0.9390E-02  0.1210E-01  0.1580E-01  0.6572E-02  0.1580E-01  0.6572E-02  0.4218E-01  0.6478E-02  0.1580E-01  0.6572E-02  0.4218E-01  0.6478E-02
      6.271  0.7759E-01  0.9292E-02  0.9533E-02  0.1362E-02  0.9533E-02  0.1362E-02  0.9533E-02  0.1362E-02  0.3641E-01  0.9141E-03  0.3641E-01  0.9141E-03  0.6930E-01  0.5335E-03  0.3641E-01  0.9141E-03  0.6930E-01  0.5335E-03
      6.454  0.1179E+00  0.7597E-01  0.1751E-01  0.1252E-01  0.1751E-01  0.1252E-01  0.1751E-01  0.1252E-01  0.6769E-01  0.8448E-02  0.6769E-01  0.8448E-02  0.1196E+00  0.1012E-01  0.6769E-01  0.8448E-02  0.1196E+00  0.1012E-01
      6.637  0.7980E-01  0.2314E-01  0.1540E-01  0.4393E-02  0.1540E-01  0.4393E-02  0.1540E-01  0.4393E-02  0.3636E-01  0.2441E-02  0.3636E-01  0.2441E-02  0.8493E-01  0.3737E-02  0.3636E-01  0.2441E-02  0.8493E-01  0.3737E-02
      6.821  0.5722E-01  0.6938E-01  0.1034E-01  0.1131E-01  0.1034E-01  0.1131E-01  0.1034E-01  0.1131E-01  0.9633E-01  0.1979E-01  0.9633E-01  0.1979E-01  0.9361E-01  0.3320E-02  0.9633E-01  0.1979E-01  0.9361E-01  0.3320E-02
      7.004  0.5928E-01  0.9350E-01  0.1748E-01  0.1902E-01  0.1748E-01  0.1902E-01  0.1748E-01  0.1902E-01  0.1254E+00  0.1872E-01  0.1254E+00  0.1872E-01  0.1570E+00  0.2377E-01  0.1254E+00  0.1872E-01  0.1570E+00  0.2377E-01
      7.187  0.5107E-01  0.8436E-01  0.1649E-01  0.1249E-01  0.1649E-01  0.1249E-01  0.1649E-01  0.1249E-01  0.1664E+00  0.3619E-01  0.1664E+00  0.3619E-01  0.8521E-01  0.6863E-01  0.1664E+00  0.3619E-01  0.8521E-01  0.6863E-01
      7.370  0.2098E-01  0.4437E-01  0.2000E-01  0.6384E-02  0.2000E-01  0.6384E-02  0.2000E-01  0.6384E-02  0.1734E+00  0.2739E-01  0.1734E+00  0.2739E-01  0.1346E+00  0.3351E-01  0.1734E+00  0.2739E-01  0.1346E+00  0.3351E-01
      7.553  0.1685E-01  0.7347E-01  0.1608E-01  0.1482E-01  0.1608E-01  0.1482E-01  0.1608E-01  0.1482E-01  0.1430E+00  0.3653E-01  0.1430E+00  0.3653E-01  0.5793E-01  0.8752E-01  0.1430E+00  0.3653E-01  0.5793E-01  0.8752E-01
      7.736  0.7360E-02  0.9848E-01  0.2115E-01  0.2492E-01  0.2115E-01  0.2492E-01  0.2115E-01  0.2492E-01  0.1388E+00  0.6343E-01  0.1388E+00  0.6343E-01  0.1040E+00  0.8354E-01  0.1388E+00  0.6343E-01  0.1040E+00  0.8354E-01
      7.919  0.4087E-02  0.3460E-01  0.2037E-01  0.1089E-01  0.2037E-01  0.1089E-01  0.2037E-01  0.1089E-01  0.1605E+00  0.2970E-01  0.1605E+00  0.2970E-01  0.1245E+00  0.9494E-01  0.1605E+00  0.2970E-01  0.1245E+00  0.9494E-01
      8.102  0.1140E-02  0.3623E-01  0.8613E-02  0.1182E-01  0.8613E-02  0.1182E-01  0.8613E-02  0.1182E-01  0.9396E-01  0.7916E-01  0.9396E-01  0.7916E-01  0.7409E-01  0.8567E-01  0.9396E-01  0.7916E-01  0.7409E-01  0.8567E-01
      8.285  0.9068E-02  0.4590E-01  0.1984E-01  0.2284E-01  0.1984E-01  0.2284E-01  0.1984E-01  0.2284E-01  0.1520E+00  0.1430E+00  0.1520E+00  0.1430E+00  0.1180E+00  0.8020E-01  0.1520E+00  0.1430E+00  0.1180E+00  0.8020E-01
      8.468  0.1013E-01  0.1372E-01  0.2145E-01  0.1604E-01  0.2145E-01  0.1604E-01  0.2145E-01  0.1604E-01  0.2152E+00  0.1066E+00  0.2152E+00  0.1066E+00  0.9659E-01  0.1054E+00  0.2152E+00  0.1066E+00  0.9659E-01  0.1054E+00
      8.651  0.9984E-02  0.1494E-01  0.2383E-01  0.2581E-01  0.2383E-01  0.2581E-01  0.2383E-01  0.2581E-01  0.2132E+00  0.1880E+00  0.2132E+00  0.1880E+00  0.1198E+00  0.5108E-01  0.2132E+00  0.1880E+00  0.1198E+00  0.5108E-01
      8.835  0.2265E-01  0.5024E-02  0.2877E-01  0.1649E-01  0.2877E-01  0.1649E-01  0.2877E-01  0.1649E-01  0.2253E+00  0.9063E-01  0.2253E+00  0.9063E-01  0.1318E+00  0.5772E-01  0.2253E+00  0.9063E-01  0.1318E+00  0.5772E-01
      9.018  0.1501E-01  0.4071E-02  0.2362E-01  0.1915E-01  0.2362E-01  0.1915E-01  0.2362E-01  0.1915E-01  0.2249E+00  0.1587E+00  0.2249E+00  0.1587E+00  0.1992E+00  0.6810E-01  0.2249E+00  0.1587E+00  0.1992E+00  0.6810E-01