    1    1  100    2
  0.9854457E+01  0.2406482E-09  0.2406482E-09  0.2406482E-09  0.5000000E-15
  1.000000000000000E-004
  CAR 
 Co-fcc                                  
      9     60     12
 
  0.6250000E-01  0.6250000E-01  0.6250000E-01  0.3906250E-02
      1          2.359890        2.396367   1.000000   1.000000
      2          8.858122       10.385874   1.000000   1.000000
      3          8.953071       10.497929   1.000000   1.000000
      4          8.953071       10.497929   1.000000   1.000000
      5         10.165630       12.027218   1.000000   0.000000
      6         10.165630       12.027218   1.000000   0.000000
      7         35.365525       35.164947   0.000000   0.000000
      8         38.888078       39.008941   0.000000   0.000000
      9         40.509402       40.693288   0.000000   0.000000
     10         40.509402       40.693288   0.000000   0.000000
     11         44.799282       45.092430   0.000000   0.000000
     12         44.799708       45.093815   0.000000   0.000000
 
  0.1875000E+00  0.6250000E-01  0.6250000E-01  0.1171875E-01
      1          3.218391        3.263162   1.000000   1.000000
      2          8.607224       10.071447   1.000000   1.000000
      3          9.137019       10.699181   1.000000   1.000000
      4          9.141710       10.707852   1.000000   1.000000
      5          9.981257       11.808278   1.000000   0.025342
      6         10.266895       12.116661   1.000000   0.000000
      7         32.877704       33.085589   0.000000   0.000000
      8         35.566208       35.641386   0.000000   0.000000
      9         39.241571       39.347251   0.000000   0.000000
     10         41.579972       41.768106   0.000000   0.000000
     11         43.372946       43.413544   0.000000   0.000000
     12         44.875658       45.145007   0.000000   0.000000
 
  0.3125000E+00  0.6250000E-01  0.6250000E-01  0.1171875E-01
      1          4.983351        5.138170   1.000000   1.000000
      2          8.478259        9.721824   1.000000   1.000000
      3          9.075719       10.673860   1.000000   1.000000
      4          9.163374       10.790780   1.000000   1.000000
      5         10.219698       11.993377   1.000000   0.000000
      6         10.725815       12.526809   1.000000   0.000000
      7         26.673306       27.153655   0.000000   0.000000
      8         34.381108       34.432209   0.000000   0.000000
      9         38.200617       38.346222   0.000000   0.000000
     10         41.363606       41.682446   0.000000   0.000000
     11         42.544776       42.845603   0.000000   0.000000
     12         43.374750       43.472706   0.000000   0.000000
 
  0.4375000E+00  0.6250000E-01  0.6250000E-01  0.1171875E-01
      1          6.087999        6.782222   1.000000   1.000000
      2          8.808869       10.265202   1.000000   1.000000
      3          8.925792       10.462016   1.000000   1.000000
      4          9.667800       10.552494   1.000000   1.000000
      5         10.863185       12.672466   1.000000   0.000000
      6         11.593165       13.219099   0.999982   0.000000
      7         21.135674       21.894977   0.000000   0.000000
      8         33.710472       33.647241   0.000000   0.000000
      9         37.032655       37.256974   0.000000   0.000000
     10         39.169134       39.509204   0.000000   0.000000
     11         41.627012       41.938031   0.000000   0.000000
     12         43.209161       43.444476   0.000000   0.000000
 
 -0.4375000E+00  0.6250000E-01  0.6250000E-01  0.1171875E-01
      1          6.193289        7.088430   1.000000   1.000000
      2          8.697528       10.259037   1.000000   1.000000
      3          8.864134       10.482735   1.000000   1.000000
      4         10.323659       11.041554   1.000000   1.000000
      5         11.193649       13.040996   1.000000   0.000000
      6         12.345612       13.517988   0.000000   0.000000
      7         18.941078       19.924217   0.000000   0.000000
      8         33.673750       33.520613   0.000000   0.000000
      9         37.177417       37.512848   0.000000   0.000000
     10         37.341594       37.644916   0.000000   0.000000
     11         42.472298       42.732227   0.000000   0.000000
     12         42.499202       42.790961   0.000000   0.000000
 
 -0.3125000E+00  0.6250000E-01  0.6250000E-01  0.1171875E-01
      1          5.889833        6.383173   1.000000   1.000000
      2          8.850384        9.918659   1.000000   1.000000
      3          9.028935       10.486021   1.000000   1.000000
      4          9.088407       10.651206   1.000000   1.000000
      5         10.954162       12.671371   1.000000   0.000000
      6         11.001516       12.792025   1.000000   0.000000
      7         22.809199       23.459906   0.000000   0.000000
      8         34.429950       34.281069   0.000000   0.000000
      9         36.615758       36.979366   0.000000   0.000000
     10         39.235420       39.589037   0.000000   0.000000
     11         42.221426       42.449595   0.000000   0.000000
     12         44.244835       44.475659   0.000000   0.000000
 
 -0.1875000E+00  0.6250000E-01  0.6250000E-01  0.1171875E-01
      1          4.358102        4.446443   1.000000   1.000000
      2          8.421852        9.773527   1.000000   1.000000
      3          9.149520       10.754681   1.000000   1.000000
      4          9.217554       10.817699   1.000000   1.000000
      5         10.139022       11.897338   1.000000   0.000004
      6         10.446753       12.284272   1.000000   0.000000
      7         28.746566       29.150141   0.000000   0.000000
      8         35.628209       35.520741   0.000000   0.000000
      9         37.171300       37.533797   0.000000   0.000000
     10         41.691668       41.795101   0.000000   0.000000
     11         42.147974       42.468988   0.000000   0.000000
     12         46.454820       46.582748   0.000000   0.000000
 
 -0.6250000E-01  0.6250000E-01  0.6250000E-01  0.1171875E-01
      1          2.797163        2.836569   1.000000   1.000000
      2          8.689704       10.186626   1.000000   1.000000
      3          9.079958       10.633160   1.000000   1.000000
      4          9.085057       10.639195   1.000000   1.000000
      5         10.005450       11.838050   1.000000   0.002585
      6         10.242647       12.109873   1.000000   0.000000
      7         34.539986       34.541886   0.000000   0.000000
      8         37.149215       37.192788   0.000000   0.000000
      9         38.546995       38.843625   0.000000   0.000000
     10         40.257165       40.368830   0.000000   0.000000
     11         44.686952       44.907245   0.000000   0.000000
     12         46.411680       46.552104   0.000000   0.000000
 
  0.1875000E+00  0.1875000E+00  0.6250000E-01  0.1171875E-01
      1          3.625685        3.678207   1.000000   1.000000
      2          8.365792        9.810376   1.000000   1.000000
      3          9.307533       10.889087   1.000000   1.000000
      4          9.342161       10.916441   1.000000   1.000000
      5          9.785926       11.542303   1.000000   1.000000
      6         10.386265       12.263502   1.000000   0.000000
      7         33.210127       33.425293   0.000000   0.000000
      8         35.597623       35.611368   0.000000   0.000000
      9         36.190143       36.536698   0.000000   0.000000
     10         38.219527       38.335101   0.000000   0.000000
     11         44.931355       45.655107   0.000000   0.000000
     12         46.979790       47.192669   0.000000   0.000000
 
  0.3125000E+00  0.1875000E+00  0.6250000E-01  0.2343750E-01
      1          5.053205        5.180747   1.000000   1.000000
      2          8.015165        9.374567   1.000000   1.000000
      3          9.059951       10.660773   1.000000   1.000000
      4          9.644791       11.270398   1.000000   1.000000
      5         10.091716       11.761547   1.000000   0.263565
      6         10.819622       12.639355   1.000000   0.000000
      7         29.316149       29.703831   0.000000   0.000000
      8         31.984068       32.254442   0.000000   0.000000
      9         35.859182       36.038839   0.000000   0.000000
     10         37.996527       38.170139   0.000000   0.000000
     11         43.659913       44.268952   0.000000   0.000000
     12         46.653176       46.770390   0.000000   0.000000
 
  0.4375000E+00  0.1875000E+00  0.6250000E-01  0.2343750E-01
      1          6.436472        6.990903   1.000000   1.000000
      2          8.157618        9.298155   1.000000   1.000000
      3          8.704844       10.177992   1.000000   1.000000
      4          9.465382       11.118660   1.000000   1.000000
      5         10.911933       12.681259   1.000000   0.000000
      6         12.142748       13.627476   0.000000   0.000000
      7         23.315893       23.909416   0.000000   0.000000
      8         31.278011       31.519302   0.000000   0.000000
      9         33.533721       33.837333   0.000000   0.000000
     10         37.736759       37.970967   0.000000   0.000000
     11         44.689161       44.855369   0.000000   0.000000
     12         47.287341       47.721473   0.000000   0.000000
 
 -0.4375000E+00  0.1875000E+00  0.6250000E-01  0.2343750E-01
      1          6.718794        7.680586   1.000000   1.000000
      2          8.195211        9.496389   1.000000   1.000000
      3          9.197304       10.339017   1.000000   1.000000
      4          9.286363       10.931612   1.000000   1.000000
      5         11.148837       12.978161   1.000000   0.000000
      6         14.384230       15.315677   0.000000   0.000000
      7         19.105925       20.006416   0.000000   0.000000
      8         30.619639       30.852788   0.000000   0.000000
      9         32.881398       33.242613   0.000000   0.000000
     10         37.419227       37.568285   0.000000   0.000000
     11         43.839920       44.095085   0.000000   0.000000
     12         47.562082       47.721407   0.000000   0.000000
 
 -0.3125000E+00  0.1875000E+00  0.6250000E-01  0.2343750E-01
      1          6.671329        7.412877   1.000000   1.000000
      2          8.366890        9.576019   1.000000   1.000000
      3          8.776969       10.057622   1.000000   1.000000
      4          9.335834       10.991717   1.000000   1.000000
      5         10.772362       12.540892   1.000000   0.000000
      6         13.063673       14.404116   0.000000   0.000000
      7         21.596354       22.290414   0.000000   0.000000
      8         29.872645       30.179778   0.000000   0.000000
      9         34.390672       34.645166   0.000000   0.000000
     10         38.594689       38.759292   0.000000   0.000000
     11         43.160064       43.395738   0.000000   0.000000
     12         46.938121       47.105693   0.000000   0.000000
 
 -0.1875000E+00  0.1875000E+00  0.6250000E-01  0.2343750E-01
      1          5.663941        5.848448   1.000000   1.000000
      2          8.103479        9.416445   1.000000   1.000000
      3          8.853552       10.419599   1.000000   1.000000
      4          9.571118       11.240946   1.000000   1.000000
      5         10.010018       11.707951   1.000000   0.811525
      6         11.389121       13.120638   1.000000   0.000000
      7         27.253721       27.714683   0.000000   0.000000
      8         30.062630       30.389281   0.000000   0.000000
      9         36.935234       37.093702   0.000000   0.000000
     10         40.577246       40.696088   0.000000   0.000000
     11         42.562682       42.724000   0.000000   0.000000
     12         45.948132       46.296306   0.000000   0.000000
 
 -0.6250000E-01  0.1875000E+00  0.6250000E-01  0.2343750E-01
      1          4.013797        4.077396   1.000000   1.000000
      2          8.363249        9.778644   1.000000   1.000000
      3          9.189841       10.776720   1.000000   1.000000
      4          9.345855       10.934691   1.000000   1.000000
      5          9.876025       11.642475   1.000000   0.996886
      6         10.484705       12.326348   1.000000   0.000000
      7         31.050493       31.372694   0.000000   0.000000
      8         33.738378       33.919289   0.000000   0.000000
      9         38.295605       38.411279   0.000000   0.000000
     10         40.159430       40.240590   0.000000   0.000000
     11         44.166054       44.391488   0.000000   0.000000
     12         45.674148       45.948967   0.000000   0.000000
 
  0.3125000E+00  0.3125000E+00  0.6250000E-01  0.1171875E-01
      1          5.715336        6.028723   1.000000   1.000000
      2          7.530044        8.852966   1.000000   1.000000
      3          9.441024       10.842369   1.000000   1.000000
      4         10.139089       11.799610   1.000000   0.043727
      5         10.523437       12.096247   1.000000   0.000000
      6         10.793738       12.689721   1.000000   0.000000
      7         29.898087       30.235216   0.000000   0.000000
      8         31.636164       31.911277   0.000000   0.000000
      9         31.740876       32.067662   0.000000   0.000000
     10         34.641883       34.913475   0.000000   0.000000
     11         40.123965       40.702409   0.000000   0.000000
     12         48.709034       52.028965   0.000000   0.000000
 
  0.4375000E+00  0.3125000E+00  0.6250000E-01  0.2343750E-01
      1          6.427594        7.165452   1.000000   1.000000
      2          7.294316        8.556570   1.000000   1.000000
      3          9.365728       10.620038   1.000000   1.000000
      4         10.428073       12.154750   1.000000   0.000000
      5         10.968617       12.749645   1.000000   0.000000
      6         12.417134       13.752133   0.000000   0.000000
      7         26.339895       26.758201   0.000000   0.000000
      8         28.338238       28.736410   0.000000   0.000000
      9         29.542808       29.911343   0.000000   0.000000
     10         35.977466       36.243874   0.000000   0.000000
     11         41.127995       41.589688   0.000000   0.000000
     12         48.595476       50.810408   0.000000   0.000000
 
 -0.4375000E+00  0.3125000E+00  0.6250000E-01  0.2343750E-01
      1          6.931902        8.043138   1.000000   1.000000
      2          7.454395        8.613199   1.000000   1.000000
      3          9.010026       10.233089   1.000000   1.000000
      4         10.103062       11.854686   1.000000   0.000544
      5         11.221120       13.035101   1.000000   0.000000
      6         15.799574       16.675342   0.000000   0.000000
      7         21.035463       21.636121   0.000000   0.000000
      8         26.157664       26.669959   0.000000   0.000000
      9         29.679887       30.025375   0.000000   0.000000
     10         36.469946       36.706977   0.000000   0.000000
     11         45.966823       46.366210   0.000000   0.000000
     12         48.044618       49.099458   0.000000   0.000000
 
 -0.3125000E+00  0.3125000E+00  0.6250000E-01  0.2343750E-01
      1          7.491246        8.507702   1.000000   1.000000
      2          7.649827        8.880386   1.000000   1.000000
      3          8.482922        9.703699   1.000000   1.000000
      4          9.873644       11.632810   1.000000   0.998689
      5         10.848881       12.590800   1.000000   0.000000
      6         16.155507       17.072202   0.000000   0.000000
      7         20.871572       21.520615   0.000000   0.000000
      8         24.808128       25.344687   0.000000   0.000000
      9         31.496463       31.846164   0.000000   0.000000
     10         37.347284       37.529319   0.000000   0.000000
     11         46.380927       46.488375   0.000000   0.000000
     12         48.260891       51.469472   0.000000   0.000000
 
 -0.1875000E+00  0.3125000E+00  0.6250000E-01  0.2343750E-01
      1          7.021419        7.572095   1.000000   1.000000
      2          8.123531        9.328399   1.000000   1.000000
      3          8.301816        9.766331   1.000000   1.000000
      4          9.667000       11.383419   1.000000   1.000000
      5         10.412415       12.114745   1.000000   0.000000
      6         13.197546       14.599005   0.000000   0.000000
      7         23.857181       24.431904   0.000000   0.000000
      8         26.977155       27.401528   0.000000   0.000000
      9         34.147061       34.419052   0.000000   0.000000
     10         39.194858       39.369707   0.000000   0.000000
     11         43.498038       43.593319   0.000000   0.000000
     12         48.052638       48.645476   0.000000   0.000000
 
 -0.6250000E-01  0.3125000E+00  0.6250000E-01  0.2343750E-01
      1          5.747836        6.047280   1.000000   1.000000
      2          8.428775        9.573139   1.000000   1.000000
      3          8.874407       10.465219   1.000000   1.000000
      4          9.240217       10.876882   1.000000   1.000000
      5         10.484937       12.217213   1.000000   0.000000
      6         11.234646       12.971442   1.000000   0.000000
      7         24.865836       25.413192   0.000000   0.000000
      8         32.815158       32.982960   0.000000   0.000000
      9         36.537002       36.692677   0.000000   0.000000
     10         39.564746       39.859867   0.000000   0.000000
     11         43.219525       43.427138   0.000000   0.000000
     12         44.874700       45.064975   0.000000   0.000000
 
  0.4375000E+00  0.4375000E+00  0.6250000E-01  0.1171875E-01
      1          6.135209        7.125210   1.000000   1.000000
      2          6.870773        8.109254   1.000000   1.000000
      3         10.804868       12.137322   1.000000   0.000000
      4         10.884969       12.736899   1.000000   0.000000
      5         11.248815       13.088036   1.000000   0.000000
      6         13.043814       13.842137   0.000000   0.000000
      7         25.031561       25.662107   0.000000   0.000000
      8         27.466198       27.758120   0.000000   0.000000
      9         28.662708       28.895412   0.000000   0.000000
     10         33.809368       34.203434   0.000000   0.000000
     11         38.514388       38.994590   0.000000   0.000000
     12         48.781711       52.292910   0.000000   0.000000
 
 -0.4375000E+00  0.4375000E+00  0.6250000E-01  0.2343750E-01
      1          6.284039        7.395471   1.000000   1.000000
      2          6.902434        8.117825   1.000000   1.000000
      3         10.317467       11.639916   1.000000   0.997506
      4         10.825521       12.715895   1.000000   0.000000
      5         11.407486       13.202117   1.000000   0.000000
      6         15.746419       16.311018   0.000000   0.000000
      7         22.825299       23.613549   0.000000   0.000000
      8         24.953573       25.320662   0.000000   0.000000
      9         27.498729       27.773658   0.000000   0.000000
     10         35.343274       35.667805   0.000000   0.000000
     11         40.421154       40.871691   0.000000   0.000000
     12         48.774307       52.251151   0.000000   0.000000
 
 -0.3125000E+00  0.4375000E+00  0.6250000E-01  0.2343750E-01
      1          6.861854        8.057239   1.000000   1.000000
      2          7.349607        8.499384   1.000000   1.000000
      3          9.204725       10.430394   1.000000   1.000000
      4         10.314244       12.129722   1.000000   0.000000
      5         11.204244       12.981374   1.000000   0.000000
      6         17.938018       18.596519   0.000000   0.000000
      7         20.289032       20.882332   0.000000   0.000000
      8         23.654388       24.314117   0.000000   0.000000
      9         29.161304       29.499053   0.000000   0.000000
     10         36.309274       36.563199   0.000000   0.000000
     11         45.950072       46.487203   0.000000   0.000000
     12         48.766601       49.998211   0.000000   0.000000
 
 -0.1875000E+00  0.4375000E+00  0.6250000E-01  0.2343750E-01
      1          7.132409        8.159488   1.000000   1.000000
      2          7.844306        9.065202   1.000000   1.000000
      3          8.826566       10.028937   1.000000   1.000000
      4          9.590465       11.293787   1.000000   1.000000
      5         11.030725       12.826902   1.000000   0.000000
      6         15.736014       16.596411   0.000000   0.000000
      7         19.332237       20.157533   0.000000   0.000000
      8         27.615977       28.026732   0.000000   0.000000
      9         31.891396       32.233717   0.000000   0.000000
     10         37.338846       37.498402   0.000000   0.000000
     11         45.160781       45.359352   0.000000   0.000000
     12         48.335248       49.917145   0.000000   0.000000
 
 -0.6250000E-01  0.4375000E+00  0.6250000E-01  0.2343750E-01
      1          6.361874        7.214136   1.000000   1.000000
      2          8.562224        9.990292   1.000000   1.000000
      3          9.026210       10.505851   1.000000   1.000000
      4          9.574231       10.668357   1.000000   1.000000
      5         11.082928       12.903616   1.000000   0.000000
      6         12.753043       13.982011   0.000000   0.000000
      7         19.865919       20.718975   0.000000   0.000000
      8         32.543185       32.604069   0.000000   0.000000
      9         35.191667       35.500530   0.000000   0.000000
     10         37.815802       38.038474   0.000000   0.000000
     11         42.758755       43.045174   0.000000   0.000000
     12         44.935564       45.135051   0.000000   0.000000
 
 -0.4375000E+00 -0.4375000E+00  0.6250000E-01  0.1171875E-01
      1          6.045903        7.132829   1.000000   1.000000
      2          6.722042        7.942642   1.000000   1.000000
      3         11.027042       12.668643   1.000000   0.000000
      4         11.142128       12.960469   1.000000   0.000000
      5         11.422186       13.222424   1.000000   0.000000
      6         14.614153       14.972378   0.000000   0.000000
      7         22.782578       23.616646   0.000000   0.000000
      8         26.809674       27.061591   0.000000   0.000000
      9         27.969521       28.167850   0.000000   0.000000
     10         33.683707       34.105034   0.000000   0.000000
     11         38.321040       38.797546   0.000000   0.000000
     12         48.751532       52.274823   0.000000   0.000000
 
 -0.3125000E+00 -0.4375000E+00  0.6250000E-01  0.2343750E-01
      1          6.386889        7.404949   1.000000   1.000000
      2          7.037737        8.269144   1.000000   1.000000
      3          9.932605       11.183705   1.000000   1.000000
      4         10.731080       12.545880   1.000000   0.000000
      5         11.234913       13.038713   1.000000   0.000000
      6         14.092332       14.999965   0.000000   0.000000
      7         24.912604       25.427778   0.000000   0.000000
      8         25.797843       26.271305   0.000000   0.000000
      9         28.126385       28.429284   0.000000   0.000000
     10         35.541619       35.845223   0.000000   0.000000
     11         40.623273       41.072470   0.000000   0.000000
     12         48.729764       52.001300   0.000000   0.000000
 
 -0.1875000E+00 -0.4375000E+00  0.6250000E-01  0.2343750E-01
      1          6.846924        7.719154   1.000000   1.000000
      2          7.748107        8.923865   1.000000   1.000000
      3          8.780397       10.077800   1.000000   1.000000
      4          9.782171       11.473358   1.000000   1.000000
      5         11.153836       12.977422   1.000000   0.000000
      6         13.719266       14.868706   0.000000   0.000000
      7         22.029208       22.639529   0.000000   0.000000
      8         29.206701       29.551535   0.000000   0.000000
      9         30.862717       31.235940   0.000000   0.000000
     10         36.875987       37.094677   0.000000   0.000000
     11         45.684212       45.872772   0.000000   0.000000
     12         47.412743       48.471722   0.000000   0.000000
 
 -0.3125000E+00 -0.3125000E+00  0.6250000E-01  0.1171875E-01
      1          6.151895        6.864490   1.000000   1.000000
      2          7.151438        8.424780   1.000000   1.000000
      3         10.127005       11.275147   1.000000   1.000000
      4         10.569402       12.308978   1.000000   0.000000
      5         11.018269       12.823663   1.000000   0.000000
      6         11.463641       12.903946   1.000000   0.000000
      7         27.938481       28.341743   0.000000   0.000000
      8         28.848743       29.224517   0.000000   0.000000
      9         29.962653       30.245100   0.000000   0.000000
     10         34.091980       34.433125   0.000000   0.000000
     11         39.030255       39.536114   0.000000   0.000000
     12         48.754548       52.242991   0.000000   0.000000
 
 -0.1875000E+00 -0.3125000E+00  0.6250000E-01  0.2343750E-01
      1          6.014334        6.350011   1.000000   1.000000
      2          7.638048        8.943700   1.000000   1.000000
      3          8.990913       10.457635   1.000000   1.000000
      4         10.021276       11.688523   1.000000   0.924077
      5         10.569251       12.247804   1.000000   0.000000
      6         11.349387       13.042670   1.000000   0.000000
      7         27.731495       28.149314   0.000000   0.000000
      8         30.287489       30.605069   0.000000   0.000000
      9         32.529622       32.840999   0.000000   0.000000
     10         36.736322       36.958982   0.000000   0.000000
     11         42.093119       42.604674   0.000000   0.000000
     12         48.227482       48.933839   0.000000   0.000000
 
 -0.1875000E+00 -0.1875000E+00  0.6250000E-01  0.1171875E-01
      1          4.712885        4.820777   1.000000   1.000000
      2          7.956021        9.338723   1.000000   1.000000
      3          9.321862       10.940953   1.000000   1.000000
      4          9.706217       11.314462   1.000000   1.000000
      5          9.952400       11.568608   1.000000   0.999999
      6         10.577498       12.466239   1.000000   0.000000
      7         31.595558       31.911557   0.000000   0.000000
      8         33.862453       34.214148   0.000000   0.000000
      9         34.129056       34.216850   0.000000   0.000000
     10         35.947149       36.144756   0.000000   0.000000
     11         42.109293       42.801392   0.000000   0.000000
     12         48.686872       49.489375   0.000000   0.000000
 
  0.1875000E+00  0.1875000E+00  0.1875000E+00  0.3906250E-02
      1          3.615365        3.671047   1.000000   1.000000
      2          8.574404        9.990319   1.000000   1.000000
      3          9.146825       10.727120   1.000000   1.000000
      4          9.146825       10.727120   1.000000   1.000000
      5         10.163215       11.991195   1.000000   0.000000
      6         10.163215       11.991195   1.000000   0.000000
      7         30.752744       31.075710   0.000000   0.000000
      8         36.563935       36.377696   0.000000   0.000000
      9         39.576514       39.894683   0.000000   0.000000
     10         39.576514       39.894683   0.000000   0.000000
     11         44.989005       44.951471   0.000000   0.000000
     12         45.521368       45.676724   0.000000   0.000000
 
  0.3125000E+00  0.1875000E+00  0.1875000E+00  0.1171875E-01
      1          4.737473        4.834173   1.000000   1.000000
      2          8.288147        9.654303   1.000000   1.000000
      3          9.083729       10.658133   1.000000   1.000000
      4          9.418359       11.044294   1.000000   1.000000
      5          9.823229       11.584051   1.000000   0.999994
      6         10.846638       12.641479   1.000000   0.000000
      7         29.043566       29.443161   0.000000   0.000000
      8         31.794603       32.056496   0.000000   0.000000
      9         39.569244       39.584881   0.000000   0.000000
     10         41.593569       41.594849   0.000000   0.000000
     11         41.946387       42.149772   0.000000   0.000000
     12         44.368482       44.748503   0.000000   0.000000
 
  0.4375000E+00  0.1875000E+00  0.1875000E+00  0.1171875E-01
      1          6.389309        6.707073   1.000000   1.000000
      2          8.162628        9.415343   1.000000   1.000000
      3          8.648484       10.158899   1.000000   1.000000
      4          9.492815       11.210865   1.000000   1.000000
      5         10.101460       11.790171   1.000000   0.074652
      6         12.144783       13.762907   0.000000   0.000000
      7         25.435835       25.963495   0.000000   0.000000
      8         28.375169       28.755034   0.000000   0.000000
      9         37.568666       37.606448   0.000000   0.000000
     10         38.527149       38.884640   0.000000   0.000000
     11         43.602358       43.583824   0.000000   0.000000
     12         45.833096       46.099173   0.000000   0.000000
 
 -0.4375000E+00  0.1875000E+00  0.1875000E+00  0.1171875E-01
      1          6.891952        7.795297   1.000000   1.000000
      2          8.185814        9.474182   1.000000   1.000000
      3          8.934615       10.078960   1.000000   1.000000
      4          9.356092       11.038574   1.000000   1.000000
      5         10.845121       12.627917   1.000000   0.000000
      6         14.262318       15.358958   0.000000   0.000000
      7         20.228399       21.009469   0.000000   0.000000
      8         28.603360       28.965674   0.000000   0.000000
      9         35.270347       35.632548   0.000000   0.000000
     10         35.906695       35.997808   0.000000   0.000000