 vasp.6.3.2 27Jun22 (build Aug 12 2022 00:53:59) complex                        
  
 executed on               tv2STD date 2024.12.03  02:19:01
 running   28 mpi-ranks, with    1 threads/rank
 distrk:  each k-point on   28 cores,    1 groups
 distr:  one band on NCORE=   7 cores,    4 groups


--------------------------------------------------------------------------------------------------------


 INCAR:
   SYSTEM = Co-fcc
   NWRITE = 2    write-flag
   ISTART = 0    job   : 0-new, 1-cont, 2-samecut
   ICHARG = 2    charge: 0-wave, 1-file, 2-atom, >10-const
   INIWAV = 1    electr: 0-lowe 1-rand  2-diag
   ENCUT = 400.0     energy cutoff in eV
   PREC = Accurate      normal | accurate
   ADDGRID = .FALSE.  (use fine grid)
   NELM = 100     number of ELM steps
   EDIFF = 1E-06    energy stopping-criterion for ELM
   LREAL = .FALSE.      real-space projection (.FALSE., .TRUE., On, Auto)
   ALGO = Normal     Normal, Fast, Very_Fast
   LWAVE = .TRUE.
   LCHARG = .TRUE.
   NSW = 100       max number of geometry steps
   IBRION = 2     ionic relax: 0-MD, 1-quasi-Newton, 2-CG, 3-Damped MD
   EDIFFG = -0.02  force (eV/A) stopping-criterion for geometry steps
   ISIF = 2     (1:force\=y stress\=trace only ions\=y shape\=n volume\=n)
   ISYM = 1     (1-use symmetry, 0-no symmetry)
   ISMEAR = 0     (-1-Fermi, 1-Methfessel/Paxton)
   SIGMA = 0.05   broadening in eV
   LORBIT = 11
   NPAR = 4
   ISPIN = 2
   MAGMOM = 1*3

 POTCAR:    PAW_PBE Co 02Aug2007                  
 POTCAR:    PAW_PBE Co 02Aug2007                  
   SHA256 =  0e690c60710354995174544f52f9f2c30879afabeffe3b3fbd4001cb294e56d4 Co/POTCAR             
   COPYR  = (c) Copyright 02Aug2007 Georg Kresse                                                    
   COPYR  = This file is part of the software VASP. Any use, copying, and all other rights are regul
   COPYR  = If you do not have a valid VASP license, you may not use, copy or distribute this file. 
   VRHFIN =Co: d8 s1                                                                                
   LEXCH  = PE                                                                                      
   EATOM  =   813.3670 eV,   59.7808 Ry                                                             
                                                                                                    
   TITEL  = PAW_PBE Co 02Aug2007                                                                    
   LULTRA =        F    use ultrasoft PP ?                                                          
   IUNSCR =        1    unscreen: 0-lin 1-nonlin 2-no                                               
   RPACOR =    2.000    partial core radius                                                         
   POMASS =   58.933; ZVAL   =    9.000    mass and valenz                                          
   RCORE  =    2.300    outmost cutoff radius                                                       
   RWIGS  =    2.460; RWIGS  =    1.302    wigner-seitz radius (au A)                               
   ENMAX  =  267.968; ENMIN  =  200.976 eV                                                          
   RCLOC  =    1.203    cutoff for local pot                                                        
   LCOR   =        T    correct aug charges                                                         
   LPAW   =        T    paw PP                                                                      
   EAUG   =  477.818                                                                                
   DEXC   =    0.000                                                                                
   RMAX   =    2.360    core radius for proj-oper                                                   
   RAUG   =    1.300    factor for augmentation sphere                                              
   RDEP   =    2.393    radius for radial grids                                                     
   RDEPT  =    1.864    core radius for aug-charge                                                  
                                                                                                    
   Atomic configuration                                                                             
    9 entries                                                                                       
     n  l   j            E        occ.                                                              
     1  0  0.50     -7587.6674   2.0000                                                             
     2  0  0.50      -893.6084   2.0000                                                             
     2  1  1.50      -764.5805   6.0000                                                             
     3  0  0.50       -97.5973   2.0000                                                             
     3  1  1.50       -60.9648   6.0000                                                             
     3  2  2.50        -4.2382   8.0000                                                             
     4  0  0.50        -4.3746   1.0000                                                             
     4  1  1.50        -4.0817   0.0000                                                             
     4  3  2.50        -1.3606   0.0000                                                             
   Description                                                                                      
     l       E           TYP  RCUT    TYP  RCUT                                                     
     2     -4.2382362     23  2.300                                                                 
     2     -5.5988188     23  2.300                                                                 
     0     -4.3745797     23  2.300                                                                 
     0      5.7660125     23  2.300                                                                 
     1     -2.7211652     23  2.300                                                                 
     1     16.9860234     23  2.300                                                                 
  local pseudopotential read in
  partial core-charges read in
  partial kinetic energy density read in
  atomic valenz-charges read in
  non local Contribution for L=           2  read in
    real space projection operators read in
  non local Contribution for L=           2  read in
    real space projection operators read in
  non local Contribution for L=           0  read in
    real space projection operators read in
  non local Contribution for L=           0  read in
    real space projection operators read in
  non local Contribution for L=           1  read in
    real space projection operators read in
  non local Contribution for L=           1  read in
    real space projection operators read in
    PAW grid and wavefunctions read in
 
   number of l-projection  operators is LMAX  =           6
   number of lm-projection operators is LMMAX =          18
 
  PAW_PBE Co 02Aug2007                  :
 energy of atom  1       EATOM= -813.3670
 kinetic energy error for atom=    0.0093 (will be added to EATOM!!)
 
 
 POSCAR: Co
  positions in cartesian coordinates
  No initial velocities read in
 exchange correlation table for  LEXCH =        8
   RHO(1)=    0.500       N(1)  =     2000
   RHO(2)=  100.500       N(2)  =     4000
 


--------------------------------------------------------------------------------------------------------


 ion  position               nearest neighbor table
   1  0.000  0.000  0.000-
 
  LATTYP: Found a face centered cubic cell.
 ALAT       =     3.4032790600
  
  Lattice vectors:
  
 A1 = (   0.0000000000,   1.7016395300,   1.7016395300)
 A2 = (   1.7016395300,   0.0000000000,   1.7016395300)
 A3 = (   1.7016395300,   1.7016395300,   0.0000000000)


Analysis of symmetry for initial positions (statically):
=====================================================================
 Subroutine PRICEL returns:
 Original cell was already a primitive cell.
 

 Routine SETGRP: Setting up the symmetry group for a 
 face centered cubic supercell.


 Subroutine GETGRP returns: Found 48 space group operations
 (whereof 48 operations were pure point group operations)
 out of a pool of 48 trial point group operations.


The static configuration has the point symmetry O_h .


Analysis of symmetry for dynamics (positions and initial velocities):
=====================================================================
 Subroutine PRICEL returns:
 Original cell was already a primitive cell.
 

 Routine SETGRP: Setting up the symmetry group for a 
 face centered cubic supercell.


 Subroutine GETGRP returns: Found 48 space group operations
 (whereof 48 operations were pure point group operations)
 out of a pool of 48 trial point group operations.


The dynamic configuration has the point symmetry O_h .


Analysis of structural, dynamic, and magnetic symmetry:
=====================================================================
 Subroutine PRICEL returns:
 Original cell was already a primitive cell.
 

 Routine SETGRP: Setting up the symmetry group for a 
 face centered cubic supercell.


 Subroutine GETGRP returns: Found 48 space group operations
 (whereof 48 operations were pure point group operations)
 out of a pool of 48 trial point group operations.


The overall configuration has the point symmetry O_h .


 Subroutine INISYM returns: Found 48 space group operations
 (whereof 48 operations are pure point group operations),
 and found     1 'primitive' translations


----------------------------------------------------------------------------------------

                                     Primitive cell                                     

  volume of cell :       9.8545

  direct lattice vectors                    reciprocal lattice vectors
     0.000000000  1.701639530  1.701639530    -0.293834265  0.293834265  0.293834265
     1.701639530  0.000000000  1.701639530     0.293834265 -0.293834265  0.293834265
     1.701639530  1.701639530  0.000000000     0.293834265  0.293834265 -0.293834265

  length of vectors
     2.406481702  2.406481702  2.406481702     0.508935875  0.508935875  0.508935875

  position of ions in fractional coordinates (direct lattice)
     0.000000000  0.000000000  0.000000000

  ion indices of the primitive-cell ions
   primitive index   ion index
                 1           1

----------------------------------------------------------------------------------------

 
 
 KPOINTS: Automatic mesh                          

Automatic generation of k-mesh.
 Grid dimensions read from file:
 generate k-points for:    8    8    8

 Generating k-lattice:

  Cartesian coordinates                     Fractional coordinates (reciprocal lattice)
    -0.036729283  0.036729283  0.036729283     0.125000000  0.000000000  0.000000000
     0.036729283 -0.036729283  0.036729283     0.000000000  0.125000000  0.000000000
     0.036729283  0.036729283 -0.036729283     0.000000000  0.000000000  0.125000000

  Length of vectors
     0.063616984  0.063616984  0.063616984

  Shift w.r.t. Gamma in fractional coordinates (k-lattice)
     0.500000000  0.500000000  0.500000000

 
 Subroutine IBZKPT returns following result:
 ===========================================
 
 Found     60 irreducible k-points:
 
 Following reciprocal coordinates:
            Coordinates               Weight
  0.062500  0.062500  0.062500      8.000000
  0.187500  0.062500  0.062500     24.000000
  0.312500  0.062500  0.062500     24.000000
  0.437500  0.062500  0.062500     24.000000
 -0.437500  0.062500  0.062500     24.000000
 -0.312500  0.062500  0.062500     24.000000
 -0.187500  0.062500  0.062500     24.000000
 -0.062500  0.062500  0.062500     24.000000
  0.187500  0.187500  0.062500     24.000000
  0.312500  0.187500  0.062500     48.000000
  0.437500  0.187500  0.062500     48.000000
 -0.437500  0.187500  0.062500     48.000000
 -0.312500  0.187500  0.062500     48.000000
 -0.187500  0.187500  0.062500     48.000000
 -0.062500  0.187500  0.062500     48.000000
  0.312500  0.312500  0.062500     24.000000
  0.437500  0.312500  0.062500     48.000000
 -0.437500  0.312500  0.062500     48.000000
 -0.312500  0.312500  0.062500     48.000000
 -0.187500  0.312500  0.062500     48.000000
 -0.062500  0.312500  0.062500     48.000000
  0.437500  0.437500  0.062500     24.000000
 -0.437500  0.437500  0.062500     48.000000
 -0.312500  0.437500  0.062500     48.000000
 -0.187500  0.437500  0.062500     48.000000
 -0.062500  0.437500  0.062500     48.000000
 -0.437500 -0.437500  0.062500     24.000000
 -0.312500 -0.437500  0.062500     48.000000
 -0.187500 -0.437500  0.062500     48.000000
 -0.312500 -0.312500  0.062500     24.000000
 -0.187500 -0.312500  0.062500     48.000000
 -0.187500 -0.187500  0.062500     24.000000
  0.187500  0.187500  0.187500      8.000000
  0.312500  0.187500  0.187500     24.000000
  0.437500  0.187500  0.187500     24.000000
 -0.437500  0.187500  0.187500     24.000000
 -0.312500  0.187500  0.187500     24.000000
 -0.187500  0.187500  0.187500     24.000000
  0.312500  0.312500  0.187500     24.000000
  0.437500  0.312500  0.187500     48.000000
 -0.437500  0.312500  0.187500     48.000000
 -0.312500  0.312500  0.187500     48.000000
 -0.187500  0.312500  0.187500     48.000000
  0.437500  0.437500  0.187500     24.000000
 -0.437500  0.437500  0.187500     48.000000
 -0.312500  0.437500  0.187500     48.000000
 -0.187500  0.437500  0.187500     48.000000
 -0.437500 -0.437500  0.187500     24.000000
 -0.312500 -0.437500  0.187500     48.000000
 -0.312500 -0.312500  0.187500     24.000000
  0.312500  0.312500  0.312500      8.000000
  0.437500  0.312500  0.312500     24.000000
 -0.437500  0.312500  0.312500     24.000000
 -0.312500  0.312500  0.312500     24.000000
  0.437500  0.437500  0.312500     24.000000
 -0.437500  0.437500  0.312500     48.000000
 -0.312500  0.437500  0.312500     48.000000
 -0.437500 -0.437500  0.312500     24.000000
  0.437500  0.437500  0.437500      8.000000
 -0.437500  0.437500  0.437500     24.000000
 
 Following cartesian coordinates:
            Coordinates               Weight
  0.018365  0.018365  0.018365      8.000000
 -0.018365  0.055094  0.055094     24.000000
 -0.055094  0.091823  0.091823     24.000000
 -0.091823  0.128552  0.128552     24.000000
  0.165282 -0.128552 -0.128552     24.000000
  0.128552 -0.091823 -0.091823     24.000000
  0.091823 -0.055094 -0.055094     24.000000
  0.055094 -0.018365 -0.018365     24.000000
  0.018365  0.018365  0.091823     24.000000
 -0.018365  0.055094  0.128552     48.000000
 -0.055094  0.091823  0.165282     48.000000
  0.202011 -0.165282 -0.091823     48.000000
  0.165282 -0.128552 -0.055094     48.000000
  0.128552 -0.091823 -0.018365     48.000000
  0.091823 -0.055094  0.018365     48.000000
  0.018365  0.018365  0.165282     24.000000
 -0.018365  0.055094  0.202011     48.000000
  0.238740 -0.202011 -0.055094     48.000000
  0.202011 -0.165282 -0.018365     48.000000
  0.165282 -0.128552  0.018365     48.000000
  0.128552 -0.091823  0.055094     48.000000
  0.018365  0.018365  0.238740     24.000000
  0.275470 -0.238740 -0.018365     48.000000
  0.238740 -0.202011  0.018365     48.000000
  0.202011 -0.165282  0.055094     48.000000
  0.165282 -0.128552  0.091823     48.000000
  0.018365  0.018365 -0.275470     24.000000
 -0.018365  0.055094 -0.238740     48.000000
 -0.055094  0.091823 -0.202011     48.000000
  0.018365  0.018365 -0.202011     24.000000
 -0.018365  0.055094 -0.165282     48.000000
  0.018365  0.018365 -0.128552     24.000000
  0.055094  0.055094  0.055094      8.000000
  0.018365  0.091823  0.091823     24.000000
 -0.018365  0.128552  0.128552     24.000000
  0.238740 -0.128552 -0.128552     24.000000
  0.202011 -0.091823 -0.091823     24.000000
  0.165282 -0.055094 -0.055094     24.000000
  0.055094  0.055094  0.128552     24.000000
  0.018365  0.091823  0.165282     48.000000
  0.275470 -0.165282 -0.091823     48.000000
  0.238740 -0.128552 -0.055094     48.000000
  0.202011 -0.091823 -0.018365     48.000000
  0.055094  0.055094  0.202011     24.000000
  0.312199 -0.202011 -0.055094     48.000000
  0.275470 -0.165282 -0.018365     48.000000
  0.238740 -0.128552  0.018365     48.000000
  0.055094  0.055094 -0.312199     24.000000
  0.018365  0.091823 -0.275470     48.000000
  0.055094  0.055094 -0.238740     24.000000
  0.091823  0.091823  0.091823      8.000000
  0.055094  0.128552  0.128552     24.000000
  0.312199 -0.128552 -0.128552     24.000000
  0.275470 -0.091823 -0.091823     24.000000
  0.091823  0.091823  0.165282     24.000000
  0.348928 -0.165282 -0.091823     48.000000
  0.312199 -0.128552 -0.055094     48.000000
  0.091823  0.091823 -0.348928     24.000000
  0.128552  0.128552  0.128552      8.000000
  0.385657 -0.128552 -0.128552     24.000000
 


--------------------------------------------------------------------------------------------------------




 Dimension of arrays:
   k-points           NKPTS =     60   k-points in BZ     NKDIM =     60   number of bands    NBANDS=     12
   number of dos      NEDOS =    301   number of ions     NIONS =      1
   non local maximal  LDIM  =      6   non local SUM 2l+1 LMDIM =     18
   total plane-waves  NPLWV =   4096
   max r-space proj   IRMAX =      1   max aug-charges    IRDMAX=  16590
   dimension x,y,z NGX =    16 NGY =   16 NGZ =   16
   dimension x,y,z NGXF=    32 NGYF=   32 NGZF=   32
   support grid    NGXF=    32 NGYF=   32 NGZF=   32
   ions per type =               1
   NGX,Y,Z   is equivalent  to a cutoff of  11.05, 11.05, 11.05 a.u.
   NGXF,Y,Z  is equivalent  to a cutoff of  22.11, 22.11, 22.11 a.u.

 SYSTEM =  Co-fcc                                  
 POSCAR =  Co                                      

 Startparameter for this run:
   NWRITE =      2    write-flag & timer
   PREC   = accura    normal or accurate (medium, high low for compatibility)
   ISTART =      0    job   : 0-new  1-cont  2-samecut
   ICHARG =      2    charge: 1-file 2-atom 10-const
   ISPIN  =      2    spin polarized calculation?
   LNONCOLLINEAR =      F non collinear calculations
   LSORBIT =      F    spin-orbit coupling
   INIWAV =      1    electr: 0-lowe 1-rand  2-diag
   LASPH  =      F    aspherical Exc in radial PAW
 Electronic Relaxation 1
   ENCUT  =  400.0 eV  29.40 Ry    5.42 a.u.   3.92  3.92  3.92*2*pi/ulx,y,z
   ENINI  =  400.0     initial cutoff
   ENAUG  =  477.8 eV  augmentation charge cutoff
   NELM   =    100;   NELMIN=  2; NELMDL= -5     # of ELM steps 
   EDIFF  = 0.1E-05   stopping-criterion for ELM
   LREAL  =      F    real-space projection
   NLSPLINE    = F    spline interpolate recip. space projectors
   LCOMPAT=      F    compatible to vasp.4.4
   GGA_COMPAT  = T    GGA compatible to vasp.4.4-vasp.4.6
   LMAXPAW     = -100 max onsite density
   LMAXMIX     =    2 max onsite mixed and CHGCAR
   VOSKOWN=      0    Vosko Wilk Nusair interpolation
   ROPT   =    0.00000
 Ionic relaxation
   EDIFFG = -.2E-01   stopping-criterion for IOM
   NSW    =    100    number of steps for IOM
   NBLOCK =      1;   KBLOCK =    100    inner block; outer block 
   IBRION =      2    ionic relax: 0-MD 1-quasi-New 2-CG
   NFREE  =      1    steps in history (QN), initial steepest desc. (CG)
   ISIF   =      2    stress and relaxation
   IWAVPR =     11    prediction:  0-non 1-charg 2-wave 3-comb
   ISYM   =      1    0-nonsym 1-usesym 2-fastsym
   LCORR  =      T    Harris-Foulkes like correction to forces

   POTIM  = 0.5000    time-step for ionic-motion
   TEIN   =    0.0    initial temperature
   TEBEG  =    0.0;   TEEND  =   0.0 temperature during run
   SMASS  =  -3.00    Nose mass-parameter (am)
   estimated Nose-frequenzy (Omega)   =  0.10E-29 period in steps = 0.13E+47 mass=  -0.132E-27a.u.
   SCALEE = 1.0000    scale energy and forces
   NPACO  =    256;   APACO  = 10.0  distance and # of slots for P.C.
   PSTRESS=    0.0 pullay stress

  Mass of Ions in am
   POMASS =  58.93
  Ionic Valenz
   ZVAL   =   9.00
  Atomic Wigner-Seitz radii
   RWIGS  =  -1.00
  virtual crystal weights 
   VCA    =   1.00
   NELECT =       9.0000    total number of electrons
   NUPDOWN=      -1.0000    fix difference up-down

 DOS related values:
   EMIN   =  10.00;   EMAX   =-10.00  energy-range for DOS
   EFERMI =   0.00
   ISMEAR =     0;   SIGMA  =   0.05  broadening in eV -4-tet -1-fermi 0-gaus

 Electronic relaxation 2 (details)
   IALGO  =     38    algorithm
   LDIAG  =      T    sub-space diagonalisation (order eigenvalues)
   LSUBROT=      F    optimize rotation matrix (better conditioning)
   TURBO    =      0    0=normal 1=particle mesh
   IRESTART =      0    0=no restart 2=restart with 2 vectors
   NREBOOT  =      0    no. of reboots
   NMIN     =      0    reboot dimension
   EREF     =   0.00    reference energy to select bands
   IMIX   =      4    mixing-type and parameters
     AMIX     =   0.40;   BMIX     =  1.00
     AMIX_MAG =   1.60;   BMIX_MAG =  1.00
     AMIN     =   0.10
     WC   =   100.;   INIMIX=   1;  MIXPRE=   1;  MAXMIX= -45

 Intra band minimization:
   WEIMIN = 0.0010     energy-eigenvalue tresh-hold
   EBREAK =  0.21E-07  absolut break condition
   DEPER  =   0.30     relativ break condition  

   TIME   =   0.40     timestep for ELM

  volume/ion in A,a.u.               =       9.85        66.50
  Fermi-wavevector in a.u.,A,eV,Ry     =   1.588345  3.001536 34.325309  2.522839
  Thomas-Fermi vector in A             =   2.687363
 
 Write flags
   LWAVE        =      T    write WAVECAR
   LDOWNSAMPLE  =      F    k-point downsampling of WAVECAR
   LCHARG       =      T    write CHGCAR
   LVTOT        =      F    write LOCPOT, total local potential
   LVHAR        =      F    write LOCPOT, Hartree potential only
   LELF         =      F    write electronic localiz. function (ELF)
   LORBIT       =     11    0 simple, 1 ext, 2 COOP (PROOUT), +10 PAW based schemes


 Dipole corrections
   LMONO  =      F    monopole corrections only (constant potential shift)
   LDIPOL =      F    correct potential (dipole corrections)
   IDIPOL =      0    1-x, 2-y, 3-z, 4-all directions 
   EPSILON=  1.0000000 bulk dielectric constant

 Exchange correlation treatment:
   GGA     =    --    GGA type
   LEXCH   =     8    internal setting for exchange type
   LIBXC   =     F    Libxc                    
   VOSKOWN =     0    Vosko Wilk Nusair interpolation
   LHFCALC =     F    Hartree Fock is set to
   LHFONE  =     F    Hartree Fock one center treatment
   AEXX    =    0.0000 exact exchange contribution

 Linear response parameters
   LEPSILON=     F    determine dielectric tensor
   LRPA    =     F    only Hartree local field effects (RPA)
   LNABLA  =     F    use nabla operator in PAW spheres
   LVEL    =     F    velocity operator in full k-point grid
   CSHIFT  =0.1000    complex shift for real part using Kramers Kronig
   OMEGAMAX=  -1.0    maximum frequency
   DEG_THRESHOLD= 0.2000000E-02 threshold for treating states as degnerate
   RTIME   =   -0.100 relaxation time in fs
  (WPLASMAI=    0.000 imaginary part of plasma frequency in eV, 0.658/RTIME)
   DFIELD  = 0.0000000 0.0000000 0.0000000 field for delta impulse in time
 
  Optional k-point grid parameters
   LKPOINTS_OPT  =     F    use optional k-point grid
   KPOINTS_OPT_MODE=     1    mode for optional k-point grid
 
 Orbital magnetization related:
   ORBITALMAG=     F  switch on orbital magnetization
   LCHIMAG   =     F  perturbation theory with respect to B field
   DQ        =  0.001000  dq finite difference perturbation B field
   LLRAUG    =     F  two centre corrections for induced B field



--------------------------------------------------------------------------------------------------------


 conjugate gradient relaxation of ions
 charge density and potential will be updated during run
 spin polarized calculation
 Variant of blocked Davidson
 Davidson routine will perform the subspace rotation
 perform sub-space diagonalisation
    after iterative eigenvector-optimisation
 modified Broyden-mixing scheme, WC =      100.0
 initial mixing is a Kerker type mixing with AMIX =  0.4000 and BMIX =      1.0000
 Hartree-type preconditioning will be used
 using additional bands            7
 reciprocal scheme for non local part
 use partial core corrections
 calculate Harris-corrections to forces 
   (improved forces if not selfconsistent)
 use gradient corrections 
 use of overlap-Matrix (Vanderbilt PP)
 Gauss-broadening in eV      SIGMA  =   0.05


--------------------------------------------------------------------------------------------------------


  energy-cutoff  :      400.00
  volume of cell :        9.85
      direct lattice vectors                 reciprocal lattice vectors
     0.000000000  1.701639530  1.701639530    -0.293834265  0.293834265  0.293834265
     1.701639530  0.000000000  1.701639530     0.293834265 -0.293834265  0.293834265
     1.701639530  1.701639530  0.000000000     0.293834265  0.293834265 -0.293834265

  length of vectors
     2.406481702  2.406481702  2.406481702     0.508935875  0.508935875  0.508935875


 
 k-points in units of 2pi/SCALE and weight: Automatic mesh                          
   0.01836464  0.01836464  0.01836464       0.004
  -0.01836464  0.05509392  0.05509392       0.012
  -0.05509392  0.09182321  0.09182321       0.012
  -0.09182321  0.12855249  0.12855249       0.012
   0.16528177 -0.12855249 -0.12855249       0.012
   0.12855249 -0.09182321 -0.09182321       0.012
   0.09182321 -0.05509392 -0.05509392       0.012
   0.05509392 -0.01836464 -0.01836464       0.012
   0.01836464  0.01836464  0.09182321       0.012
  -0.01836464  0.05509392  0.12855249       0.023
  -0.05509392  0.09182321  0.16528177       0.023
   0.20201106 -0.16528177 -0.09182321       0.023
   0.16528177 -0.12855249 -0.05509392       0.023
   0.12855249 -0.09182321 -0.01836464       0.023
   0.09182321 -0.05509392  0.01836464       0.023
   0.01836464  0.01836464  0.16528177       0.012
  -0.01836464  0.05509392  0.20201106       0.023
   0.23874034 -0.20201106 -0.05509392       0.023
   0.20201106 -0.16528177 -0.01836464       0.023
   0.16528177 -0.12855249  0.01836464       0.023
   0.12855249 -0.09182321  0.05509392       0.023
   0.01836464  0.01836464  0.23874034       0.012
   0.27546962 -0.23874034 -0.01836464       0.023
   0.23874034 -0.20201106  0.01836464       0.023
   0.20201106 -0.16528177  0.05509392       0.023
   0.16528177 -0.12855249  0.09182321       0.023
   0.01836464  0.01836464 -0.27546962       0.012
  -0.01836464  0.05509392 -0.23874034       0.023
  -0.05509392  0.09182321 -0.20201106       0.023
   0.01836464  0.01836464 -0.20201106       0.012
  -0.01836464  0.05509392 -0.16528177       0.023
   0.01836464  0.01836464 -0.12855249       0.012
   0.05509392  0.05509392  0.05509392       0.004
   0.01836464  0.09182321  0.09182321       0.012
  -0.01836464  0.12855249  0.12855249       0.012
   0.23874034 -0.12855249 -0.12855249       0.012
   0.20201106 -0.09182321 -0.09182321       0.012
   0.16528177 -0.05509392 -0.05509392       0.012
   0.05509392  0.05509392  0.12855249       0.012
   0.01836464  0.09182321  0.16528177       0.023
   0.27546962 -0.16528177 -0.09182321       0.023
   0.23874034 -0.12855249 -0.05509392       0.023
   0.20201106 -0.09182321 -0.01836464       0.023
   0.05509392  0.05509392  0.20201106       0.012
   0.31219891 -0.20201106 -0.05509392       0.023
   0.27546962 -0.16528177 -0.01836464       0.023
   0.23874034 -0.12855249  0.01836464       0.023
   0.05509392  0.05509392 -0.31219891       0.012
   0.01836464  0.09182321 -0.27546962       0.023
   0.05509392  0.05509392 -0.23874034       0.012
   0.09182321  0.09182321  0.09182321       0.004
   0.05509392  0.12855249  0.12855249       0.012
   0.31219891 -0.12855249 -0.12855249       0.012
   0.27546962 -0.09182321 -0.09182321       0.012
   0.09182321  0.09182321  0.16528177       0.012
   0.34892819 -0.16528177 -0.09182321       0.023
   0.31219891 -0.12855249 -0.05509392       0.023
   0.09182321  0.09182321 -0.34892819       0.012
   0.12855249  0.12855249  0.12855249       0.004
   0.38565747 -0.12855249 -0.12855249       0.012
 
 k-points in reciprocal lattice and weights: Automatic mesh                          
   0.06250000  0.06250000  0.06250000       0.004
   0.18750000  0.06250000  0.06250000       0.012
   0.31250000  0.06250000  0.06250000       0.012
   0.43750000  0.06250000  0.06250000       0.012
  -0.43750000  0.06250000  0.06250000       0.012
  -0.31250000  0.06250000  0.06250000       0.012
  -0.18750000  0.06250000  0.06250000       0.012
  -0.06250000  0.06250000  0.06250000       0.012
   0.18750000  0.18750000  0.06250000       0.012
   0.31250000  0.18750000  0.06250000       0.023
   0.43750000  0.18750000  0.06250000       0.023
  -0.43750000  0.18750000  0.06250000       0.023
  -0.31250000  0.18750000  0.06250000       0.023
  -0.18750000  0.18750000  0.06250000       0.023
  -0.06250000  0.18750000  0.06250000       0.023
   0.31250000  0.31250000  0.06250000       0.012
   0.43750000  0.31250000  0.06250000       0.023
  -0.43750000  0.31250000  0.06250000       0.023
  -0.31250000  0.31250000  0.06250000       0.023
  -0.18750000  0.31250000  0.06250000       0.023
  -0.06250000  0.31250000  0.06250000       0.023
   0.43750000  0.43750000  0.06250000       0.012
  -0.43750000  0.43750000  0.06250000       0.023
  -0.31250000  0.43750000  0.06250000       0.023
  -0.18750000  0.43750000  0.06250000       0.023
  -0.06250000  0.43750000  0.06250000       0.023
  -0.43750000 -0.43750000  0.06250000       0.012
  -0.31250000 -0.43750000  0.06250000       0.023
  -0.18750000 -0.43750000  0.06250000       0.023
  -0.31250000 -0.31250000  0.06250000       0.012
  -0.18750000 -0.31250000  0.06250000       0.023
  -0.18750000 -0.18750000  0.06250000       0.012
   0.18750000  0.18750000  0.18750000       0.004
   0.31250000  0.18750000  0.18750000       0.012
   0.43750000  0.18750000  0.18750000       0.012
  -0.43750000  0.18750000  0.18750000       0.012
  -0.31250000  0.18750000  0.18750000       0.012
  -0.18750000  0.18750000  0.18750000       0.012
   0.31250000  0.31250000  0.18750000       0.012
   0.43750000  0.31250000  0.18750000       0.023
  -0.43750000  0.31250000  0.18750000       0.023
  -0.31250000  0.31250000  0.18750000       0.023
  -0.18750000  0.31250000  0.18750000       0.023
   0.43750000  0.43750000  0.18750000       0.012
  -0.43750000  0.43750000  0.18750000       0.023
  -0.31250000  0.43750000  0.18750000       0.023
  -0.18750000  0.43750000  0.18750000       0.023
  -0.43750000 -0.43750000  0.18750000       0.012
  -0.31250000 -0.43750000  0.18750000       0.023
  -0.31250000 -0.31250000  0.18750000       0.012
   0.31250000  0.31250000  0.31250000       0.004
   0.43750000  0.31250000  0.31250000       0.012
  -0.43750000  0.31250000  0.31250000       0.012
  -0.31250000  0.31250000  0.31250000       0.012
   0.43750000  0.43750000  0.31250000       0.012
  -0.43750000  0.43750000  0.31250000       0.023
  -0.31250000  0.43750000  0.31250000       0.023
  -0.43750000 -0.43750000  0.31250000       0.012
   0.43750000  0.43750000  0.43750000       0.004
  -0.43750000  0.43750000  0.43750000       0.012
 
 position of ions in fractional coordinates (direct lattice) 
   0.00000000  0.00000000  0.00000000
 
 position of ions in cartesian coordinates  (Angst):
   0.00000000  0.00000000  0.00000000
 


--------------------------------------------------------------------------------------------------------


 k-point   1 :   0.0625 0.0625 0.0625  plane waves:     169
 k-point   2 :   0.1875 0.0625 0.0625  plane waves:     172
 k-point   3 :   0.3125 0.0625 0.0625  plane waves:     176
 k-point   4 :   0.4375 0.0625 0.0625  plane waves:     177
 k-point   5 :  -0.4375 0.0625 0.0625  plane waves:     174
 k-point   6 :  -0.3125 0.0625 0.0625  plane waves:     179
 k-point   7 :  -0.1875 0.0625 0.0625  plane waves:     172
 k-point   8 :  -0.0625 0.0625 0.0625  plane waves:     171
 k-point   9 :   0.1875 0.1875 0.0625  plane waves:     173
 k-point  10 :   0.3125 0.1875 0.0625  plane waves:     173
 k-point  11 :   0.4375 0.1875 0.0625  plane waves:     179
 k-point  12 :  -0.4375 0.1875 0.0625  plane waves:     177
 k-point  13 :  -0.3125 0.1875 0.0625  plane waves:     177
 k-point  14 :  -0.1875 0.1875 0.0625  plane waves:     174
 k-point  15 :  -0.0625 0.1875 0.0625  plane waves:     174
 k-point  16 :   0.3125 0.3125 0.0625  plane waves:     177
 k-point  17 :   0.4375 0.3125 0.0625  plane waves:     181
 k-point  18 :  -0.4375 0.3125 0.0625  plane waves:     184
 k-point  19 :  -0.3125 0.3125 0.0625  plane waves:     180
 k-point  20 :  -0.1875 0.3125 0.0625  plane waves:     180
 k-point  21 :  -0.0625 0.3125 0.0625  plane waves:     179
 k-point  22 :   0.4375 0.4375 0.0625  plane waves:     183
 k-point  23 :  -0.4375 0.4375 0.0625  plane waves:     184
 k-point  24 :  -0.3125 0.4375 0.0625  plane waves:     182
 k-point  25 :  -0.1875 0.4375 0.0625  plane waves:     178
 k-point  26 :  -0.0625 0.4375 0.0625  plane waves:     175
 k-point  27 :  -0.4375-0.4375 0.0625  plane waves:     188
 k-point  28 :  -0.3125-0.4375 0.0625  plane waves:     182
 k-point  29 :  -0.1875-0.4375 0.0625  plane waves:     181
 k-point  30 :  -0.3125-0.3125 0.0625  plane waves:     180
 k-point  31 :  -0.1875-0.3125 0.0625  plane waves:     181
 k-point  32 :  -0.1875-0.1875 0.0625  plane waves:     173
 k-point  33 :   0.1875 0.1875 0.1875  plane waves:     172
 k-point  34 :   0.3125 0.1875 0.1875  plane waves:     173
 k-point  35 :   0.4375 0.1875 0.1875  plane waves:     178
 k-point  36 :  -0.4375 0.1875 0.1875  plane waves:     179
 k-point  37 :  -0.3125 0.1875 0.1875  plane waves:     178
 k-point  38 :  -0.1875 0.1875 0.1875  plane waves:     182
 k-point  39 :   0.3125 0.3125 0.1875  plane waves:     177
 k-point  40 :   0.4375 0.3125 0.1875  plane waves:     181
 k-point  41 :  -0.4375 0.3125 0.1875  plane waves:     182
 k-point  42 :  -0.3125 0.3125 0.1875  plane waves:     181
 k-point  43 :  -0.1875 0.3125 0.1875  plane waves:     182
 k-point  44 :   0.4375 0.4375 0.1875  plane waves:     182
 k-point  45 :  -0.4375 0.4375 0.1875  plane waves:     184
 k-point  46 :  -0.3125 0.4375 0.1875  plane waves:     184
 k-point  47 :  -0.1875 0.4375 0.1875  plane waves:     184
 k-point  48 :  -0.4375-0.4375 0.1875  plane waves:     180
 k-point  49 :  -0.3125-0.4375 0.1875  plane waves:     181
 k-point  50 :  -0.3125-0.3125 0.1875  plane waves:     180
 k-point  51 :   0.3125 0.3125 0.3125  plane waves:     177
 k-point  52 :   0.4375 0.3125 0.3125  plane waves:     179
 k-point  53 :  -0.4375 0.3125 0.3125  plane waves:     180
 k-point  54 :  -0.3125 0.3125 0.3125  plane waves:     180
 k-point  55 :   0.4375 0.4375 0.3125  plane waves:     178
 k-point  56 :  -0.4375 0.4375 0.3125  plane waves:     179
 k-point  57 :  -0.3125 0.4375 0.3125  plane waves:     180
 k-point  58 :  -0.4375-0.4375 0.3125  plane waves:     180
 k-point  59 :   0.4375 0.4375 0.4375  plane waves:     174
 k-point  60 :  -0.4375 0.4375 0.4375  plane waves:     176

 maximum and minimum number of plane-waves per node :        35       20

 maximum number of plane-waves:       188
 maximum index in each direction: 
   IXMAX=    4   IYMAX=    4   IZMAX=    3
   IXMIN=   -4   IYMIN=   -4   IZMIN=   -4


 parallel 3D FFT for wavefunctions:
    minimum data exchange during FFTs selected (reduces bandwidth)
 parallel 3D FFT for charge:
    minimum data exchange during FFTs selected (reduces bandwidth)


 total amount of memory used by VASP MPI-rank0    30856. kBytes
=======================================================================

   base      :      30000. kBytes
   nonl-proj :        242. kBytes
   fftplans  :         90. kBytes
   grid      :        217. kBytes
   one-center:         31. kBytes
   wavefun   :        276. kBytes
 
     INWAV:  cpu time      0.0000: real time      0.0003
 Broyden mixing: mesh for mixing (old mesh)
   NGX =  7   NGY =  7   NGZ =  7
  (NGX  = 32   NGY  = 32   NGZ  = 32)
  gives a total of    343 points

 initial charge density was supplied:
 charge density of overlapping atoms calculated
 number of electron       9.0000000 magnetization       3.0000000
 keeping initial charge density in first step


--------------------------------------------------------------------------------------------------------


 Maximum index for augmentation-charges         1363 (set IRDMAX)


--------------------------------------------------------------------------------------------------------


 First call to EWALD:  gamma=   0.827
 Maximum number of real-space cells 3x 3x 3
 Maximum number of reciprocal cells 3x 3x 3

    FEWALD:  cpu time      0.0012: real time      0.0012


--------------------------------------- Iteration      1(   1)  ---------------------------------------


    POTLOK:  cpu time      0.0044: real time      0.0045
    SETDIJ:  cpu time      0.0048: real time      0.0048
     EDDAV:  cpu time      0.2623: real time      0.2640
       DOS:  cpu time      0.0012: real time      0.0012
    --------------------------------------------
      LOOP:  cpu time      0.2727: real time      0.2746

 eigenvalue-minimisations  :  2960
 total energy-change (2. order) : 0.2288261E+02  (-0.3528007E+03)
 number of electron       9.0000000 magnetization       3.0000000
 augmentation part        9.0000000 magnetization       3.0000000

 Free energy of the ion-electron system (eV)
  ---------------------------------------------------
  alpha Z        PSCENC =        42.98328302
  Ewald energy   TEWEN  =      -785.66934823
  -Hartree energ DENC   =      -139.83518292
  -exchange      EXHF   =         0.00000000
  -V(xc)+E(xc)   XCENC  =        18.14068574
  PAW double counting   =       719.99081943     -772.94345096
  entropy T*S    EENTRO =        -0.00163598
  eigenvalues    EBANDS =       126.85970306
  atomic energy  EATOM  =       813.35773410
  Solvation  Ediel_sol  =         0.00000000
  ---------------------------------------------------
  free energy    TOTEN  =        22.88260727 eV

  energy without entropy =       22.88424324  energy(sigma->0) =       22.88342526


--------------------------------------------------------------------------------------------------------




--------------------------------------- Iteration      1(   2)  ---------------------------------------


     EDDAV:  cpu time      0.2552: real time      0.2577
       DOS:  cpu time      0.0008: real time      0.0008
    --------------------------------------------
      LOOP:  cpu time      0.2561: real time      0.2585

 eigenvalue-minimisations  :  3100
 total energy-change (2. order) :-0.2976773E+02  (-0.2776470E+02)
 number of electron       9.0000000 magnetization       3.0000000
 augmentation part        9.0000000 magnetization       3.0000000

 Free energy of the ion-electron system (eV)
  ---------------------------------------------------
  alpha Z        PSCENC =        42.98328302
  Ewald energy   TEWEN  =      -785.66934823
  -Hartree energ DENC   =      -139.83518292
  -exchange      EXHF   =         0.00000000
  -V(xc)+E(xc)   XCENC  =        18.14068574
  PAW double counting   =       719.99081943     -772.94345096
  entropy T*S    EENTRO =        -0.00130254
  eigenvalues    EBANDS =        97.09163910
  atomic energy  EATOM  =       813.35773410
  Solvation  Ediel_sol  =         0.00000000
  ---------------------------------------------------
  free energy    TOTEN  =        -6.88512325 eV

  energy without entropy =       -6.88382072  energy(sigma->0) =       -6.88447199


--------------------------------------------------------------------------------------------------------




--------------------------------------- Iteration      1(   3)  ---------------------------------------


     EDDAV:  cpu time      0.2690: real time      0.2706
       DOS:  cpu time      0.0008: real time      0.0008
    --------------------------------------------
      LOOP:  cpu time      0.2698: real time      0.2714

 eigenvalue-minimisations  :  3408
 total energy-change (2. order) :-0.7388884E+00  (-0.7371396E+00)
 number of electron       9.0000000 magnetization       3.0000000
 augmentation part        9.0000000 magnetization       3.0000000

 Free energy of the ion-electron system (eV)
  ---------------------------------------------------
  alpha Z        PSCENC =        42.98328302
  Ewald energy   TEWEN  =      -785.66934823
  -Hartree energ DENC   =      -139.83518292
  -exchange      EXHF   =         0.00000000
  -V(xc)+E(xc)   XCENC  =        18.14068574
  PAW double counting   =       719.99081943     -772.94345096
  entropy T*S    EENTRO =        -0.00133052
  eigenvalues    EBANDS =        96.35277872
  atomic energy  EATOM  =       813.35773410
  Solvation  Ediel_sol  =         0.00000000
  ---------------------------------------------------
  free energy    TOTEN  =        -7.62401162 eV

  energy without entropy =       -7.62268110  energy(sigma->0) =       -7.62334636


--------------------------------------------------------------------------------------------------------




--------------------------------------- Iteration      1(   4)  ---------------------------------------


     EDDAV:  cpu time      0.2741: real time      0.2757
       DOS:  cpu time      0.0008: real time      0.0008
    --------------------------------------------
      LOOP:  cpu time      0.2749: real time      0.2765

 eigenvalue-minimisations  :  3524
 total energy-change (2. order) :-0.6201968E-02  (-0.6200641E-02)
 number of electron       9.0000000 magnetization       3.0000000
 augmentation part        9.0000000 magnetization       3.0000000

 Free energy of the ion-electron system (eV)
  ---------------------------------------------------
  alpha Z        PSCENC =        42.98328302
  Ewald energy   TEWEN  =      -785.66934823
  -Hartree energ DENC   =      -139.83518292
  -exchange      EXHF   =         0.00000000
  -V(xc)+E(xc)   XCENC  =        18.14068574
  PAW double counting   =       719.99081943     -772.94345096
  entropy T*S    EENTRO =        -0.00133756
  eigenvalues    EBANDS =        96.34658378
  atomic energy  EATOM  =       813.35773410
  Solvation  Ediel_sol  =         0.00000000
  ---------------------------------------------------
  free energy    TOTEN  =        -7.63021359 eV

  energy without entropy =       -7.62887603  energy(sigma->0) =       -7.62954481


--------------------------------------------------------------------------------------------------------




--------------------------------------- Iteration      1(   5)  ---------------------------------------


     EDDAV:  cpu time      0.2991: real time      0.3008
       DOS:  cpu time      0.0014: real time      0.0014
    CHARGE:  cpu time      0.0119: real time      0.0119
    MIXING:  cpu time      0.0002: real time      0.0002
    --------------------------------------------
      LOOP:  cpu time      0.3125: real time      0.3143

 eigenvalue-minimisations  :  3776
 total energy-change (2. order) :-0.1116808E-03  (-0.1116792E-03)
 number of electron       8.9999997 magnetization       1.3645144
 augmentation part        4.6116492 magnetization       0.9757063

 Broyden mixing:
  rms(total) = 0.12741E+01    rms(broyden)= 0.12740E+01
  rms(prec ) = 0.32342E+01
  weight for this iteration     100.00

 Free energy of the ion-electron system (eV)
  ---------------------------------------------------
  alpha Z        PSCENC =        42.98328302
  Ewald energy   TEWEN  =      -785.66934823
  -Hartree energ DENC   =      -139.83518292
  -exchange      EXHF   =         0.00000000
  -V(xc)+E(xc)   XCENC  =        18.14068574
  PAW double counting   =       719.99081943     -772.94345096
  entropy T*S    EENTRO =        -0.00133786
  eigenvalues    EBANDS =        96.34647240
  atomic energy  EATOM  =       813.35773410
  Solvation  Ediel_sol  =         0.00000000
  ---------------------------------------------------
  free energy    TOTEN  =        -7.63032527 eV

  energy without entropy =       -7.62898741  energy(sigma->0) =       -7.62965634


--------------------------------------------------------------------------------------------------------




--------------------------------------- Iteration      1(   6)  ---------------------------------------


    POTLOK:  cpu time      0.0031: real time      0.0033
    SETDIJ:  cpu time      0.0044: real time      0.0045
     EDDAV:  cpu time      0.2910: real time      0.2928
       DOS:  cpu time      0.0008: real time      0.0008
    CHARGE:  cpu time      0.0096: real time      0.0096
    MIXING:  cpu time      0.0006: real time      0.0006
    --------------------------------------------
      LOOP:  cpu time      0.3096: real time      0.3116

 eigenvalue-minimisations  :  3748
 total energy-change (2. order) : 0.5657794E+00  (-0.9518578E+00)
 number of electron       8.9999997 magnetization       1.5934238
 augmentation part        5.2589823 magnetization       1.4568906

 Broyden mixing:
  rms(total) = 0.37267E+00    rms(broyden)= 0.37263E+00
  rms(prec ) = 0.63529E+00
  weight for this iteration     100.00

 eigenvalues of (default mixing * dielectric matrix)
  average eigenvalue GAMMA=   0.9684
  0.9684

 Free energy of the ion-electron system (eV)
  ---------------------------------------------------
  alpha Z        PSCENC =        42.98328302
  Ewald energy   TEWEN  =      -785.66934823
  -Hartree energ DENC   =      -122.77413750
  -exchange      EXHF   =         0.00000000
  -V(xc)+E(xc)   XCENC  =        16.64221501
  PAW double counting   =       822.67898390     -871.20614603
  entropy T*S    EENTRO =        -0.00160719
  eigenvalues    EBANDS =        76.92447707
  atomic energy  EATOM  =       813.35773410
  Solvation  Ediel_sol  =         0.00000000
  ---------------------------------------------------
  free energy    TOTEN  =        -7.06454583 eV

  energy without entropy =       -7.06293864  energy(sigma->0) =       -7.06374224


--------------------------------------------------------------------------------------------------------




--------------------------------------- Iteration      1(   7)  ---------------------------------------


    POTLOK:  cpu time      0.0027: real time      0.0029
    SETDIJ:  cpu time      0.0041: real time      0.0041
     EDDAV:  cpu time      0.2761: real time      0.2776
       DOS:  cpu time      0.0008: real time      0.0008
    CHARGE:  cpu time      0.0093: real time      0.0094
    MIXING:  cpu time      0.0002: real time      0.0002
    --------------------------------------------
      LOOP:  cpu time      0.2932: real time      0.2950

 eigenvalue-minimisations  :  3548
 total energy-change (2. order) : 0.9646341E-01  (-0.8357008E-01)
 number of electron       8.9999997 magnetization       1.5831692
 augmentation part        5.0825620 magnetization       1.4206116

 Broyden mixing:
  rms(total) = 0.24621E+00    rms(broyden)= 0.24621E+00
  rms(prec ) = 0.39759E+00
  weight for this iteration     100.00

 eigenvalues of (default mixing * dielectric matrix)
  average eigenvalue GAMMA=   0.7995
  1.0697  0.5292

 Free energy of the ion-electron system (eV)
  ---------------------------------------------------
  alpha Z        PSCENC =        42.98328302
  Ewald energy   TEWEN  =      -785.66934823
  -Hartree energ DENC   =      -125.22846573
  -exchange      EXHF   =         0.00000000
  -V(xc)+E(xc)   XCENC  =        16.84592307
  PAW double counting   =       866.39495125     -917.97445448
  entropy T*S    EENTRO =        -0.00100503
  eigenvalues    EBANDS =        82.32329960
  atomic energy  EATOM  =       813.35773410
  Solvation  Ediel_sol  =         0.00000000
  ---------------------------------------------------
  free energy    TOTEN  =        -6.96808242 eV

  energy without entropy =       -6.96707740  energy(sigma->0) =       -6.96757991


--------------------------------------------------------------------------------------------------------




--------------------------------------- Iteration      1(   8)  ---------------------------------------


    POTLOK:  cpu time      0.0027: real time      0.0029
    SETDIJ:  cpu time      0.0041: real time      0.0041
     EDDAV:  cpu time      0.3006: real time      0.3022
       DOS:  cpu time      0.0008: real time      0.0008
    CHARGE:  cpu time      0.0093: real time      0.0095
    MIXING:  cpu time      0.0002: real time      0.0002
    --------------------------------------------
      LOOP:  cpu time      0.3177: real time      0.3197

 eigenvalue-minimisations  :  3980
 total energy-change (2. order) : 0.1504442E-01  (-0.1336632E-02)
 number of electron       8.9999997 magnetization       1.5729288
 augmentation part        5.1007431 magnetization       1.4092008

 Broyden mixing:
  rms(total) = 0.12875E+00    rms(broyden)= 0.12875E+00
  rms(prec ) = 0.19314E+00
  weight for this iteration     100.00

 eigenvalues of (default mixing * dielectric matrix)
  average eigenvalue GAMMA=   1.1331
  2.0348  0.7960  0.5685

 Free energy of the ion-electron system (eV)
  ---------------------------------------------------
  alpha Z        PSCENC =        42.98328302
  Ewald energy   TEWEN  =      -785.66934823
  -Hartree energ DENC   =      -123.69353819
  -exchange      EXHF   =         0.00000000
  -V(xc)+E(xc)   XCENC  =        16.75883938
  PAW double counting   =       910.46822285     -962.96768923
  entropy T*S    EENTRO =        -0.00101391
  eigenvalues    EBANDS =        81.81047220
  atomic energy  EATOM  =       813.35773410
  Solvation  Ediel_sol  =         0.00000000
  ---------------------------------------------------
  free energy    TOTEN  =        -6.95303800 eV

  energy without entropy =       -6.95202409  energy(sigma->0) =       -6.95253104


--------------------------------------------------------------------------------------------------------




--------------------------------------- Iteration      1(   9)  ---------------------------------------


    POTLOK:  cpu time      0.0027: real time      0.0028
    SETDIJ:  cpu time      0.0040: real time      0.0041
     EDDAV:  cpu time      0.3438: real time      0.3456
       DOS:  cpu time      0.0008: real time      0.0008
    CHARGE:  cpu time      0.0096: real time      0.0097
    MIXING:  cpu time      0.0003: real time      0.0003
    --------------------------------------------
      LOOP:  cpu time      0.3612: real time      0.3633

 eigenvalue-minimisations  :  4692
 total energy-change (2. order) : 0.4917530E-02  (-0.3487628E-03)
 number of electron       8.9999997 magnetization       1.5698170
 augmentation part        5.1115412 magnetization       1.4062734

 Broyden mixing:
  rms(total) = 0.24777E-01    rms(broyden)= 0.24777E-01
  rms(prec ) = 0.40043E-01
  weight for this iteration     100.00

 eigenvalues of (default mixing * dielectric matrix)
  average eigenvalue GAMMA=   1.1844
  2.3720  0.9916  0.7426  0.6314

 Free energy of the ion-electron system (eV)
  ---------------------------------------------------
  alpha Z        PSCENC =        42.98328302
  Ewald energy   TEWEN  =      -785.66934823
  -Hartree energ DENC   =      -122.61598439
  -exchange      EXHF   =         0.00000000
  -V(xc)+E(xc)   XCENC  =        16.70744180
  PAW double counting   =       945.93114372     -999.15803390
  entropy T*S    EENTRO =        -0.00102396
  eigenvalues    EBANDS =        81.51666735
  atomic energy  EATOM  =       813.35773410
  Solvation  Ediel_sol  =         0.00000000
  ---------------------------------------------------
  free energy    TOTEN  =        -6.94812047 eV

  energy without entropy =       -6.94709651  energy(sigma->0) =       -6.94760849


--------------------------------------------------------------------------------------------------------




--------------------------------------- Iteration      1(  10)  ---------------------------------------


    POTLOK:  cpu time      0.0026: real time      0.0028
    SETDIJ:  cpu time      0.0042: real time      0.0043
     EDDAV:  cpu time      0.3068: real time      0.3085
       DOS:  cpu time      0.0008: real time      0.0008
    CHARGE:  cpu time      0.0093: real time      0.0094
    MIXING:  cpu time      0.0002: real time      0.0002
    --------------------------------------------
      LOOP:  cpu time      0.3241: real time      0.3260

 eigenvalue-minimisations  :  4072
 total energy-change (2. order) : 0.4133024E-03  (-0.1772571E-04)
 number of electron       8.9999997 magnetization       1.5708872
 augmentation part        5.1127936 magnetization       1.4081350

 Broyden mixing:
  rms(total) = 0.29968E-02    rms(broyden)= 0.29960E-02
  rms(prec ) = 0.46316E-02
  weight for this iteration     100.00

 eigenvalues of (default mixing * dielectric matrix)
  average eigenvalue GAMMA=   1.1528
  2.4201  1.1283  0.6582  0.6877  0.8699

 Free energy of the ion-electron system (eV)
  ---------------------------------------------------
  alpha Z        PSCENC =        42.98328302
  Ewald energy   TEWEN  =      -785.66934823
  -Hartree energ DENC   =      -122.28131049
  -exchange      EXHF   =         0.00000000
  -V(xc)+E(xc)   XCENC  =        16.69394641
  PAW double counting   =       960.42691234    -1013.94584678
  entropy T*S    EENTRO =        -0.00102586
  eigenvalues    EBANDS =        81.48794831
  atomic energy  EATOM  =       813.35773410
  Solvation  Ediel_sol  =         0.00000000
  ---------------------------------------------------
  free energy    TOTEN  =        -6.94770717 eV

  energy without entropy =       -6.94668130  energy(sigma->0) =       -6.94719424


--------------------------------------------------------------------------------------------------------




--------------------------------------- Iteration      1(  11)  ---------------------------------------


    POTLOK:  cpu time      0.0026: real time      0.0028
    SETDIJ:  cpu time      0.0041: real time      0.0041
     EDDAV:  cpu time      0.2803: real time      0.2820
       DOS:  cpu time      0.0008: real time      0.0008
    CHARGE:  cpu time      0.0093: real time      0.0093
    MIXING:  cpu time      0.0003: real time      0.0003
    --------------------------------------------
      LOOP:  cpu time      0.2974: real time      0.2993

 eigenvalue-minimisations  :  3656
 total energy-change (2. order) :-0.2682092E-05  (-0.1040300E-05)
 number of electron       8.9999997 magnetization       1.5700297
 augmentation part        5.1130678 magnetization       1.4070269

 Broyden mixing:
  rms(total) = 0.21803E-02    rms(broyden)= 0.21802E-02
  rms(prec ) = 0.23565E-02
  weight for this iteration     100.00

 eigenvalues of (default mixing * dielectric matrix)
  average eigenvalue GAMMA=   1.2682
  2.3292  2.1125  1.0108  0.6296  0.7636  0.7636

 Free energy of the ion-electron system (eV)
  ---------------------------------------------------
  alpha Z        PSCENC =        42.98328302
  Ewald energy   TEWEN  =      -785.66934823
  -Hartree energ DENC   =      -122.25722425
  -exchange      EXHF   =         0.00000000
  -V(xc)+E(xc)   XCENC  =        16.69269814
  PAW double counting   =       962.46451704    -1015.99859341
  entropy T*S    EENTRO =        -0.00102614
  eigenvalues    EBANDS =        81.48024988
  atomic energy  EATOM  =       813.35773410
  Solvation  Ediel_sol  =         0.00000000
  ---------------------------------------------------
  free energy    TOTEN  =        -6.94770985 eV

  energy without entropy =       -6.94668371  energy(sigma->0) =       -6.94719678


--------------------------------------------------------------------------------------------------------




--------------------------------------- Iteration      1(  12)  ---------------------------------------


    POTLOK:  cpu time      0.0026: real time      0.0028
    SETDIJ:  cpu time      0.0041: real time      0.0041
     EDDAV:  cpu time      0.2723: real time      0.2738
       DOS:  cpu time      0.0008: real time      0.0008
    --------------------------------------------
      LOOP:  cpu time      0.2798: real time      0.2815

 eigenvalue-minimisations  :  3500
 total energy-change (2. order) : 0.2006657E-06  (-0.1942472E-06)
 number of electron       8.9999997 magnetization       1.5700297
 augmentation part        5.1130678 magnetization       1.4070269

 Free energy of the ion-electron system (eV)
  ---------------------------------------------------
  alpha Z        PSCENC =        42.98328302
  Ewald energy   TEWEN  =      -785.66934823
  -Hartree energ DENC   =      -122.26271951
  -exchange      EXHF   =         0.00000000
  -V(xc)+E(xc)   XCENC  =        16.69268177
  PAW double counting   =       963.26455174    -1016.79002290
  entropy T*S    EENTRO =        -0.00102658
  eigenvalues    EBANDS =        81.47715693
  atomic energy  EATOM  =       813.35773410
  Solvation  Ediel_sol  =         0.00000000
  ---------------------------------------------------
  free energy    TOTEN  =        -6.94770965 eV

  energy without entropy =       -6.94668307  energy(sigma->0) =       -6.94719636


--------------------------------------------------------------------------------------------------------




 average (electrostatic) potential at core
  the test charge radii are     1.0452
  (the norm of the test charge is              1.0000)
       1 -76.9335
 
 
 
 E-fermi :  11.7392     XC(G=0): -13.9824     alpha+bet :-19.5185

 Fermi energy:        11.7391883717

 spin component 1

 k-point     1 :       0.0625    0.0625    0.0625
  band No.  band energies     occupation 
      1       2.3599      1.00000
      2       8.8581      1.00000
      3       8.9531      1.00000
      4       8.9531      1.00000
      5      10.1656      1.00000
      6      10.1656      1.00000
      7      35.3655      0.00000
      8      38.8881      0.00000
      9      40.5094      0.00000
     10      40.5094      0.00000
     11      44.7993      0.00000
     12      44.7997      0.00000

 k-point     2 :       0.1875    0.0625    0.0625
  band No.  band energies     occupation 
      1       3.2184      1.00000
      2       8.6072      1.00000
      3       9.1370      1.00000
      4       9.1417      1.00000
      5       9.9813      1.00000
      6      10.2669      1.00000
      7      32.8777      0.00000
      8      35.5662      0.00000
      9      39.2416      0.00000
     10      41.5800      0.00000
     11      43.3729      0.00000
     12      44.8757      0.00000

 k-point     3 :       0.3125    0.0625    0.0625
  band No.  band energies     occupation 
      1       4.9834      1.00000
      2       8.4783      1.00000
      3       9.0757      1.00000
      4       9.1634      1.00000
      5      10.2197      1.00000
      6      10.7258      1.00000
      7      26.6733      0.00000
      8      34.3811      0.00000
      9      38.2006      0.00000
     10      41.3636      0.00000
     11      42.5448      0.00000
     12      43.3747      0.00000

 k-point     4 :       0.4375    0.0625    0.0625
  band No.  band energies     occupation 
      1       6.0880      1.00000
      2       8.8089      1.00000
      3       8.9258      1.00000
      4       9.6678      1.00000
      5      10.8632      1.00000
      6      11.5932      0.99998
      7      21.1357      0.00000
      8      33.7105      0.00000
      9      37.0327      0.00000
     10      39.1691      0.00000
     11      41.6270      0.00000
     12      43.2092      0.00000

 k-point     5 :      -0.4375    0.0625    0.0625
  band No.  band energies     occupation 
      1       6.1933      1.00000
      2       8.6975      1.00000
      3       8.8641      1.00000
      4      10.3237      1.00000
      5      11.1936      1.00000
      6      12.3456      0.00000
      7      18.9411      0.00000
      8      33.6738      0.00000
      9      37.1774      0.00000
     10      37.3416      0.00000
     11      42.4723      0.00000
     12      42.4992      0.00000

 k-point     6 :      -0.3125    0.0625    0.0625
  band No.  band energies     occupation 
      1       5.8898      1.00000
      2       8.8504      1.00000
      3       9.0289      1.00000
      4       9.0884      1.00000
      5      10.9542      1.00000
      6      11.0015      1.00000
      7      22.8092      0.00000
      8      34.4299      0.00000
      9      36.6158      0.00000
     10      39.2354      0.00000
     11      42.2214      0.00000
     12      44.2448      0.00000

 k-point     7 :      -0.1875    0.0625    0.0625
  band No.  band energies     occupation 
      1       4.3581      1.00000
      2       8.4219      1.00000
      3       9.1495      1.00000
      4       9.2176      1.00000
      5      10.1390      1.00000
      6      10.4468      1.00000
      7      28.7466      0.00000
      8      35.6282      0.00000
      9      37.1713      0.00000
     10      41.6917      0.00000
     11      42.1480      0.00000
     12      46.4548      0.00000

 k-point     8 :      -0.0625    0.0625    0.0625
  band No.  band energies     occupation 
      1       2.7972      1.00000
      2       8.6897      1.00000
      3       9.0800      1.00000
      4       9.0851      1.00000
      5      10.0055      1.00000
      6      10.2426      1.00000
      7      34.5400      0.00000
      8      37.1492      0.00000
      9      38.5470      0.00000
     10      40.2572      0.00000
     11      44.6870      0.00000
     12      46.4117      0.00000

 k-point     9 :       0.1875    0.1875    0.0625
  band No.  band energies     occupation 
      1       3.6257      1.00000
      2       8.3658      1.00000
      3       9.3075      1.00000
      4       9.3422      1.00000
      5       9.7859      1.00000
      6      10.3863      1.00000
      7      33.2101      0.00000
      8      35.5976      0.00000
      9      36.1901      0.00000
     10      38.2195      0.00000
     11      44.9314      0.00000
     12      46.9798      0.00000

 k-point    10 :       0.3125    0.1875    0.0625
  band No.  band energies     occupation 
      1       5.0532      1.00000
      2       8.0152      1.00000
      3       9.0600      1.00000
      4       9.6448      1.00000
      5      10.0917      1.00000
      6      10.8196      1.00000
      7      29.3161      0.00000
      8      31.9841      0.00000
      9      35.8592      0.00000
     10      37.9965      0.00000
     11      43.6599      0.00000
     12      46.6532      0.00000

 k-point    11 :       0.4375    0.1875    0.0625
  band No.  band energies     occupation 
      1       6.4365      1.00000
      2       8.1576      1.00000
      3       8.7048      1.00000
      4       9.4654      1.00000
      5      10.9119      1.00000
      6      12.1427      0.00000
      7      23.3159      0.00000
      8      31.2780      0.00000
      9      33.5337      0.00000
     10      37.7368      0.00000
     11      44.6892      0.00000
     12      47.2873      0.00000

 k-point    12 :      -0.4375    0.1875    0.0625
  band No.  band energies     occupation 
      1       6.7188      1.00000
      2       8.1952      1.00000
      3       9.1973      1.00000
      4       9.2864      1.00000
      5      11.1488      1.00000
      6      14.3842      0.00000
      7      19.1059      0.00000
      8      30.6196      0.00000
      9      32.8814      0.00000
     10      37.4192      0.00000
     11      43.8399      0.00000
     12      47.5621      0.00000

 k-point    13 :      -0.3125    0.1875    0.0625
  band No.  band energies     occupation 
      1       6.6713      1.00000
      2       8.3669      1.00000
      3       8.7770      1.00000
      4       9.3358      1.00000
      5      10.7724      1.00000
      6      13.0637      0.00000
      7      21.5964      0.00000
      8      29.8726      0.00000
      9      34.3907      0.00000
     10      38.5947      0.00000
     11      43.1601      0.00000
     12      46.9381      0.00000

 k-point    14 :      -0.1875    0.1875    0.0625
  band No.  band energies     occupation 
      1       5.6639      1.00000
      2       8.1035      1.00000
      3       8.8536      1.00000
      4       9.5711      1.00000
      5      10.0100      1.00000
      6      11.3891      1.00000
      7      27.2537      0.00000
      8      30.0626      0.00000
      9      36.9352      0.00000
     10      40.5772      0.00000
     11      42.5627      0.00000
     12      45.9481      0.00000

 k-point    15 :      -0.0625    0.1875    0.0625
  band No.  band energies     occupation 
      1       4.0138      1.00000
      2       8.3632      1.00000
      3       9.1898      1.00000
      4       9.3459      1.00000
      5       9.8760      1.00000
      6      10.4847      1.00000
      7      31.0505      0.00000
      8      33.7384      0.00000
      9      38.2956      0.00000
     10      40.1594      0.00000
     11      44.1661      0.00000
     12      45.6741      0.00000

 k-point    16 :       0.3125    0.3125    0.0625
  band No.  band energies     occupation 
      1       5.7153      1.00000
      2       7.5300      1.00000
      3       9.4410      1.00000
      4      10.1391      1.00000
      5      10.5234      1.00000
      6      10.7937      1.00000
      7      29.8981      0.00000
      8      31.6362      0.00000
      9      31.7409      0.00000
     10      34.6419      0.00000
     11      40.1240      0.00000
     12      48.7090      0.00000

 k-point    17 :       0.4375    0.3125    0.0625
  band No.  band energies     occupation 
      1       6.4276      1.00000
      2       7.2943      1.00000
      3       9.3657      1.00000
      4      10.4281      1.00000
      5      10.9686      1.00000
      6      12.4171      0.00000
      7      26.3399      0.00000
      8      28.3382      0.00000
      9      29.5428      0.00000
     10      35.9775      0.00000
     11      41.1280      0.00000
     12      48.5955      0.00000

 k-point    18 :      -0.4375    0.3125    0.0625
  band No.  band energies     occupation 
      1       6.9319      1.00000
      2       7.4544      1.00000
      3       9.0100      1.00000
      4      10.1031      1.00000
      5      11.2211      1.00000
      6      15.7996      0.00000
      7      21.0355      0.00000
      8      26.1577      0.00000
      9      29.6799      0.00000
     10      36.4699      0.00000
     11      45.9668      0.00000
     12      48.0446      0.00000

 k-point    19 :      -0.3125    0.3125    0.0625
  band No.  band energies     occupation 
      1       7.4912      1.00000
      2       7.6498      1.00000
      3       8.4829      1.00000
      4       9.8736      1.00000
      5      10.8489      1.00000
      6      16.1555      0.00000
      7      20.8716      0.00000
      8      24.8081      0.00000
      9      31.4965      0.00000
     10      37.3473      0.00000
     11      46.3809      0.00000
     12      48.2609      0.00000

 k-point    20 :      -0.1875    0.3125    0.0625
  band No.  band energies     occupation 
      1       7.0214      1.00000
      2       8.1235      1.00000
      3       8.3018      1.00000
      4       9.6670      1.00000
      5      10.4124      1.00000
      6      13.1975      0.00000
      7      23.8572      0.00000
      8      26.9772      0.00000
      9      34.1471      0.00000
     10      39.1949      0.00000
     11      43.4980      0.00000
     12      48.0526      0.00000

 k-point    21 :      -0.0625    0.3125    0.0625
  band No.  band energies     occupation 
      1       5.7478      1.00000
      2       8.4288      1.00000
      3       8.8744      1.00000
      4       9.2402      1.00000
      5      10.4849      1.00000
      6      11.2346      1.00000
      7      24.8658      0.00000
      8      32.8152      0.00000
      9      36.5370      0.00000
     10      39.5647      0.00000
     11      43.2195      0.00000
     12      44.8747      0.00000

 k-point    22 :       0.4375    0.4375    0.0625
  band No.  band energies     occupation 
      1       6.1352      1.00000
      2       6.8708      1.00000
      3      10.8049      1.00000
      4      10.8850      1.00000
      5      11.2488      1.00000
      6      13.0438      0.00000
      7      25.0316      0.00000
      8      27.4662      0.00000
      9      28.6627      0.00000
     10      33.8094      0.00000
     11      38.5144      0.00000
     12      48.7817      0.00000

 k-point    23 :      -0.4375    0.4375    0.0625
  band No.  band energies     occupation 
      1       6.2840      1.00000
      2       6.9024      1.00000
      3      10.3175      1.00000
      4      10.8255      1.00000
      5      11.4075      1.00000
      6      15.7464      0.00000
      7      22.8253      0.00000
      8      24.9536      0.00000
      9      27.4987      0.00000
     10      35.3433      0.00000
     11      40.4212      0.00000
     12      48.7743      0.00000

 k-point    24 :      -0.3125    0.4375    0.0625
  band No.  band energies     occupation 
      1       6.8619      1.00000
      2       7.3496      1.00000
      3       9.2047      1.00000
      4      10.3142      1.00000
      5      11.2042      1.00000
      6      17.9380      0.00000
      7      20.2890      0.00000
      8      23.6544      0.00000
      9      29.1613      0.00000
     10      36.3093      0.00000
     11      45.9501      0.00000
     12      48.7666      0.00000

 k-point    25 :      -0.1875    0.4375    0.0625
  band No.  band energies     occupation 
      1       7.1324      1.00000
      2       7.8443      1.00000
      3       8.8266      1.00000
      4       9.5905      1.00000
      5      11.0307      1.00000
      6      15.7360      0.00000
      7      19.3322      0.00000
      8      27.6160      0.00000
      9      31.8914      0.00000
     10      37.3388      0.00000
     11      45.1608      0.00000
     12      48.3352      0.00000

 k-point    26 :      -0.0625    0.4375    0.0625
  band No.  band energies     occupation 
      1       6.3619      1.00000
      2       8.5622      1.00000
      3       9.0262      1.00000
      4       9.5742      1.00000
      5      11.0829      1.00000
      6      12.7530      0.00000
      7      19.8659      0.00000
      8      32.5432      0.00000
      9      35.1917      0.00000
     10      37.8158      0.00000
     11      42.7588      0.00000
     12      44.9356      0.00000

 k-point    27 :      -0.4375   -0.4375    0.0625
  band No.  band energies     occupation 
      1       6.0459      1.00000
      2       6.7220      1.00000
      3      11.0270      1.00000
      4      11.1421      1.00000
      5      11.4222      1.00000
      6      14.6142      0.00000
      7      22.7826      0.00000
      8      26.8097      0.00000
      9      27.9695      0.00000
     10      33.6837      0.00000
     11      38.3210      0.00000
     12      48.7515      0.00000

 k-point    28 :      -0.3125   -0.4375    0.0625
  band No.  band energies     occupation 
      1       6.3869      1.00000
      2       7.0377      1.00000
      3       9.9326      1.00000
      4      10.7311      1.00000
      5      11.2349      1.00000
      6      14.0923      0.00000
      7      24.9126      0.00000
      8      25.7978      0.00000
      9      28.1264      0.00000
     10      35.5416      0.00000
     11      40.6233      0.00000
     12      48.7298      0.00000

 k-point    29 :      -0.1875   -0.4375    0.0625
  band No.  band energies     occupation 
      1       6.8469      1.00000
      2       7.7481      1.00000
      3       8.7804      1.00000
      4       9.7822      1.00000
      5      11.1538      1.00000
      6      13.7193      0.00000
      7      22.0292      0.00000
      8      29.2067      0.00000
      9      30.8627      0.00000
     10      36.8760      0.00000
     11      45.6842      0.00000
     12      47.4127      0.00000

 k-point    30 :      -0.3125   -0.3125    0.0625
  band No.  band energies     occupation 
      1       6.1519      1.00000
      2       7.1514      1.00000
      3      10.1270      1.00000
      4      10.5694      1.00000
      5      11.0183      1.00000
      6      11.4636      1.00000
      7      27.9385      0.00000
      8      28.8487      0.00000
      9      29.9627      0.00000
     10      34.0920      0.00000
     11      39.0303      0.00000
     12      48.7545      0.00000

 k-point    31 :      -0.1875   -0.3125    0.0625
  band No.  band energies     occupation 
      1       6.0143      1.00000
      2       7.6380      1.00000
      3       8.9909      1.00000
      4      10.0213      1.00000
      5      10.5693      1.00000
      6      11.3494      1.00000
      7      27.7315      0.00000
      8      30.2875      0.00000
      9      32.5296      0.00000
     10      36.7363      0.00000
     11      42.0931      0.00000
     12      48.2275      0.00000

 k-point    32 :      -0.1875   -0.1875    0.0625
  band No.  band energies     occupation 
      1       4.7129      1.00000
      2       7.9560      1.00000
      3       9.3219      1.00000
      4       9.7062      1.00000
      5       9.9524      1.00000
      6      10.5775      1.00000
      7      31.5956      0.00000
      8      33.8625      0.00000
      9      34.1291      0.00000
     10      35.9471      0.00000
     11      42.1093      0.00000
     12      48.6869      0.00000

 k-point    33 :       0.1875    0.1875    0.1875
  band No.  band energies     occupation 
      1       3.6154      1.00000
      2       8.5744      1.00000
      3       9.1468      1.00000
      4       9.1468      1.00000
      5      10.1632      1.00000
      6      10.1632      1.00000
      7      30.7527      0.00000
      8      36.5639      0.00000
      9      39.5765      0.00000
     10      39.5765      0.00000
     11      44.9890      0.00000
     12      45.5214      0.00000

 k-point    34 :       0.3125    0.1875    0.1875
  band No.  band energies     occupation 
      1       4.7375      1.00000
      2       8.2881      1.00000
      3       9.0837      1.00000
      4       9.4184      1.00000
      5       9.8232      1.00000
      6      10.8466      1.00000
      7      29.0436      0.00000
      8      31.7946      0.00000
      9      39.5692      0.00000
     10      41.5936      0.00000
     11      41.9464      0.00000
     12      44.3685      0.00000

 k-point    35 :       0.4375    0.1875    0.1875
  band No.  band energies     occupation 
      1       6.3893      1.00000
      2       8.1626      1.00000
      3       8.6485      1.00000
      4       9.4928      1.00000
      5      10.1015      1.00000
      6      12.1448      0.00000
      7      25.4358      0.00000
      8      28.3752      0.00000
      9      37.5687      0.00000
     10      38.5271      0.00000
     11      43.6024      0.00000
     12      45.8331      0.00000

 k-point    36 :      -0.4375    0.1875    0.1875
  band No.  band energies     occupation 
      1       6.8920      1.00000
      2       8.1858      1.00000
      3       8.9346      1.00000
      4       9.3561      1.00000
      5      10.8451      1.00000
      6      14.2623      0.00000
      7      20.2284      0.00000
      8      28.6034      0.00000
      9      35.2703      0.00000
     10      35.9067      0.00000
     11      45.9221      0.00000
     12      46.0537      0.00000

 k-point    37 :      -0.3125    0.1875    0.1875
  band No.  band energies     occupation 
      1       6.7710      1.00000
      2       8.0212      1.00000
      3       8.9867      1.00000
      4       9.4440      1.00000
      5      11.2322      1.00000
      6      14.0682      0.00000
      7      20.1796      0.00000
      8      29.9424      0.00000
      9      33.2361      0.00000
     10      35.5572      0.00000
     11      46.9428      0.00000
     12      47.2370      0.00000

 k-point    38 :      -0.1875    0.1875    0.1875
  band No.  band energies     occupation 
      1       6.1875      1.00000
      2       7.8128      1.00000
      3       8.8660      1.00000
      4       9.6622      1.00000
      5      11.0299      1.00000
      6      11.4468      1.00000
      7      25.3753      0.00000
      8      32.0443      0.00000
      9      32.7946      0.00000
     10      36.1113      0.00000
     11      44.4438      0.00000
     12      48.0023      0.00000

 k-point    39 :       0.3125    0.3125    0.1875
  band No.  band energies     occupation 
      1       5.3126      1.00000
      2       8.1531      1.00000
      3       8.9826      1.00000
      4       9.3896      1.00000
      5      10.5388      1.00000
      6      10.7555      1.00000
      7      26.9517      0.00000
      8      34.2758      0.00000
      9      34.8506      0.00000
     10      38.3672      0.00000
     11      44.8595      0.00000
     12      46.1189      0.00000

 k-point    40 :       0.4375    0.3125    0.1875
  band No.  band energies     occupation 
      1       6.5184      1.00000
      2       7.8480      1.00000
      3       8.5799      1.00000
      4       9.8738      1.00000
      5      10.4294      1.00000
      6      12.1989      0.00000
      7      25.6867      0.00000
      8      28.5508      0.00000
      9      33.2114      0.00000
     10      39.6118      0.00000
     11      43.1003      0.00000
     12      46.5764      0.00000

 k-point    41 :      -0.4375    0.3125    0.1875
  band No.  band energies     occupation 
      1       7.3728      1.00000
      2       7.8393      1.00000
      3       8.2020      1.00000
      4       9.9503      1.00000
      5      10.8076      1.00000
      6      14.7450      0.00000
      7      22.5318      0.00000
      8      25.8836      0.00000
      9      30.4019      0.00000
     10      40.5675      0.00000
     11      42.9111      0.00000
     12      47.8035      0.00000

 k-point    42 :      -0.3125    0.3125    0.1875
  band No.  band energies     occupation 
      1       7.3261      1.00000
      2       7.5946      1.00000
      3       8.5946      1.00000
      4       9.8919      1.00000
      5      11.1434      1.00000
      6      16.7609      0.00000
      7      19.6390      0.00000
      8      26.8197      0.00000
      9      28.5896      0.00000
     10      39.3290      0.00000
     11      44.4017      0.00000
     12      48.1336      0.00000

 k-point    43 :      -0.1875    0.3125    0.1875
  band No.  band energies     occupation 
      1       6.8953      1.00000
      2       7.5721      1.00000
      3       8.6516      1.00000
      4      10.2220      1.00000
      5      10.8516      1.00000
      6      13.5262      0.00000
      7      24.3659      0.00000
      8      27.2436      0.00000
      9      29.6080      0.00000
     10      38.8583      0.00000
     11      43.3477      0.00000
     12      47.0588      0.00000

 k-point    44 :       0.4375    0.4375    0.1875
  band No.  band energies     occupation 
      1       6.5984      1.00000
      2       7.4568      1.00000
      3       9.1275      1.00000
      4      10.0045      1.00000
      5      11.2213      1.00000
      6      12.8850      0.00000
      7      24.0383      0.00000
      8      28.8696      0.00000
      9      31.1208      0.00000
     10      35.2044      0.00000
     11      43.5851      0.00000
     12      48.5494      0.00000

 k-point    45 :      -0.4375    0.4375    0.1875
  band No.  band energies     occupation 
      1       6.8116      1.00000
      2       7.3637      1.00000
[...]
      5      13.0790      0.00000
      6      17.2524      0.00000
      7      22.6456      0.00000
      8      24.1802      0.00000
      9      29.5727      0.00000
     10      35.0575      0.00000
     11      43.2990      0.00000
     12      52.2634      0.00000

 k-point    49 :      -0.3125   -0.4375    0.1875
  band No.  band energies     occupation 
      1       7.8313      1.00000
      2       8.4664      1.00000
      3      10.5975      1.00000
      4      12.2984      0.00000
      5      13.1935      0.00000
      6      17.9311      0.00000
      7      23.0712      0.00000
      8      24.1482      0.00000
      9      26.6608      0.00000
     10      38.3563      0.00000
     11      43.9198      0.00000
     12      49.6928      0.00000

 k-point    50 :      -0.3125   -0.3125    0.1875
  band No.  band energies     occupation 
      1       7.6452      1.00000
      2       8.3928      1.00000
      3      10.8017      1.00000
      4      12.1416      0.00000
      5      13.1401      0.00000
      6      15.6892      0.00000
      7      23.4658      0.00000
      8      26.2606      0.00000
      9      30.2117      0.00000
     10      35.1691      0.00000
     11      43.5144      0.00000
     12      52.0297      0.00000

 k-point    51 :       0.3125    0.3125    0.3125
  band No.  band energies     occupation 
      1       5.6902      1.00000
      2       9.8482      1.00000
      3      10.6442      1.00000
      4      10.6442      1.00000
      5      12.4271      0.00000
      6      12.4271      0.00000
      7      25.1522      0.00000
      8      35.0893      0.00000
      9      39.2558      0.00000
     10      39.2558      0.00000
     11      43.4160      0.00000
     12      43.4160      0.00000

 k-point    52 :       0.4375    0.3125    0.3125
  band No.  band energies     occupation 
      1       6.7331      1.00000
      2       9.6981      1.00000
      3      10.2890      1.00000
      4      10.8297      1.00000
      5      12.2540      0.00000
      6      13.5719      0.00000
      7      23.7122      0.00000
      8      31.4851      0.00000
      9      37.1344      0.00000
     10      39.1578      0.00000
     11      43.8746      0.00000
     12      43.8787      0.00000

 k-point    53 :      -0.4375    0.3125    0.3125
  band No.  band energies     occupation 
      1       8.1213      1.00000
      2       9.3146      1.00000
      3       9.6135      1.00000
      4      11.4004      1.00000
      5      12.2836      0.00000
      6      15.6381      0.00000
      7      22.8726      0.00000
      8      26.2014      0.00000
      9      35.2571      0.00000
     10      36.0925      0.00000
     11      46.8297      0.00000
     12      47.9665      0.00000

 k-point    54 :      -0.3125    0.3125    0.3125
  band No.  band energies     occupation 
      1       8.4156      1.00000
      2       8.5783      1.00000
      3      10.1046      1.00000
      4      11.8560      0.00048
      5      12.7469      0.00000
      6      18.5088      0.00000
      7      20.1857      0.00000
      8      24.6892      0.00000
      9      32.0539      0.00000
     10      35.3972      0.00000
     11      49.6227      0.00000
     12      50.4242      0.00000

 k-point    55 :       0.4375    0.4375    0.3125
  band No.  band energies     occupation 
      1       7.0900      1.00000
      2       9.6831      1.00000
      3      10.3163      1.00000
      4      10.8160      1.00000
      5      13.0240      0.00000
      6      13.5698      0.00000
      7      22.0556      0.00000
      8      32.8411      0.00000
      9      35.0629      0.00000
     10      36.9665      0.00000
     11      44.9674      0.00000
     12      45.8480      0.00000

 k-point    56 :      -0.4375    0.4375    0.3125
  band No.  band energies     occupation 
      1       8.0043      1.00000
      2       9.1433      1.00000
      3       9.9351      1.00000
      4      11.3021      1.00000
      5      12.8243      0.00000
      6      15.7433      0.00000
      7      21.1454      0.00000
      8      29.0464      0.00000
      9      31.2581      0.00000
     10      39.1910      0.00000
     11      43.6205      0.00000
     12      50.6302      0.00000

 k-point    57 :      -0.3125    0.4375    0.3125
  band No.  band energies     occupation 
      1       8.4502      1.00000
      2       8.8099      1.00000
      3       9.7284      1.00000
      4      11.8400      0.00218
      5      12.9385      0.00000
      6      18.9422      0.00000
      7      20.5250      0.00000
      8      24.7748      0.00000
      9      28.4360      0.00000
     10      39.5864      0.00000
     11      45.8262      0.00000
     12      49.8646      0.00000

 k-point    58 :      -0.4375   -0.4375    0.3125
  band No.  band energies     occupation 
      1       8.1792      1.00000
      2       8.7958      1.00000
      3      10.1467      1.00000
      4      11.5048      1.00000
      5      12.9582      0.00000
      6      17.0020      0.00000
      7      20.1910      0.00000
      8      27.2106      0.00000
      9      32.5642      0.00000
     10      35.4525      0.00000
     11      48.7208      0.00000
     12      49.1255      0.00000

 k-point    59 :       0.4375    0.4375    0.4375
  band No.  band energies     occupation 
      1       6.8862      1.00000
      2      10.4316      1.00000
      3      10.4316      1.00000
      4      11.0127      1.00000
      5      12.9532      0.00000
      6      12.9532      0.00000
      7      20.6163      0.00000
      8      34.0460      0.00000
      9      38.8644      0.00000
     10      38.8644      0.00000
     11      41.6489      0.00000
     12      41.6489      0.00000

 k-point    60 :      -0.4375    0.4375    0.4375
  band No.  band energies     occupation 
      1       7.4039      1.00000
      2       9.8756      1.00000
      3      10.5868      1.00000
      4      10.6974      1.00000
      5      12.9205      0.00000
      6      14.5996      0.00000
      7      19.9658      0.00000
      8      31.7793      0.00000
      9      36.1944      0.00000
     10      36.3889      0.00000
     11      44.4244      0.00000
     12      44.7274      0.00000


--------------------------------------------------------------------------------------------------------


 soft charge-density along one line, spin component           1
         0         1         2         3         4         5         6         7         8         9
 total charge-density along one line
 
 soft charge-density along one line, spin component           2
         0         1         2         3         4         5         6         7         8         9
 total charge-density along one line
 
 pseudopotential strength for first ion, spin component:           1
  0.353  -0.000  -0.000  -0.000   0.000  -0.316  -0.000  -0.000
 -0.000   0.353   0.000  -0.000  -0.000  -0.000  -0.316   0.000
 -0.000   0.000   0.299   0.000   0.000  -0.000   0.000  -0.369
 -0.000  -0.000   0.000   0.353   0.000  -0.000  -0.000   0.000
  0.000  -0.000   0.000   0.000   0.299   0.000  -0.000   0.000
 -0.316  -0.000  -0.000  -0.000   0.000  -0.925  -0.000  -0.000
 -0.000  -0.316   0.000  -0.000  -0.000  -0.000  -0.925   0.000
 -0.000   0.000  -0.369   0.000   0.000  -0.000   0.000  -0.976
 -0.000  -0.000   0.000  -0.316   0.000  -0.000  -0.000   0.000
  0.000  -0.000   0.000   0.000  -0.369   0.000  -0.000   0.000
 -0.000  -0.000   0.000  -0.000   0.000  -0.000  -0.000   0.000
 -0.000  -0.000   0.000  -0.000   0.000  -0.000  -0.000   0.000
  0.000  -0.000   0.000  -0.000   0.000  -0.000   0.000   0.000
  0.000  -0.000  -0.000  -0.000  -0.000   0.000  -0.000  -0.000
 -0.000  -0.000  -0.000   0.000   0.000  -0.000   0.000   0.000
 -0.000  -0.000   0.000  -0.000   0.000   0.000   0.000   0.000
 -0.000   0.000  -0.000  -0.000  -0.000   0.000  -0.000  -0.000
 -0.000  -0.000   0.000  -0.000   0.000  -0.000  -0.000   0.000
 pseudopotential strength for first ion, spin component:           2
  1.606   0.000  -0.000   0.000   0.000   0.883   0.000  -0.000
  0.000   1.606   0.000   0.000  -0.000   0.000   0.883   0.000
 -0.000   0.000   1.667   0.000   0.000  -0.000   0.000   0.943
  0.000   0.000   0.000   1.606   0.000   0.000   0.000   0.000
  0.000  -0.000   0.000   0.000   1.667   0.000  -0.000   0.000
  0.883   0.000  -0.000   0.000   0.000   0.224   0.000  -0.000
  0.000   0.883   0.000   0.000  -0.000   0.000   0.224   0.000
 -0.000   0.000   0.943   0.000   0.000  -0.000   0.000   0.281
  0.000   0.000   0.000   0.883   0.000   0.000   0.000   0.000
  0.000  -0.000   0.000   0.000   0.943   0.000  -0.000   0.000
 -0.000  -0.000  -0.000  -0.000  -0.000  -0.000  -0.000  -0.000
 -0.000  -0.000  -0.000  -0.000  -0.000  -0.000  -0.000  -0.000
  0.000  -0.000  -0.000   0.000   0.000  -0.000  -0.000   0.000
  0.000  -0.000  -0.000  -0.000  -0.000   0.000  -0.000  -0.000
  0.000   0.000   0.000   0.000   0.000   0.000   0.000   0.000
 -0.000   0.000  -0.000  -0.000   0.000  -0.000  -0.000  -0.000
  0.000   0.000   0.000  -0.000  -0.000   0.000  -0.000   0.000
  0.000  -0.000   0.000   0.000  -0.000   0.000   0.000   0.000
 total augmentation occupancy for first ion, spin component:           1
  3.000   0.000   0.000   0.000   0.000  -1.862   0.000   0.000   0.000  -0.000   0.000  -0.000   0.000   0.000   0.000   0.000
  0.000   3.000  -0.000   0.000   0.000  -0.000  -1.862  -0.000   0.000   0.000   0.000  -0.000   0.000   0.000   0.000   0.000
 -0.000   0.000   3.390  -0.000  -0.000   0.000  -0.000  -2.050  -0.000   0.000  -0.000  -0.000   0.000   0.000   0.000   0.000
  0.000   0.000   0.000   3.000   0.000   0.000   0.000   0.000  -1.862  -0.000   0.000  -0.000   0.000   0.000   0.000   0.000
  0.000   0.000  -0.000  -0.000   3.390   0.000   0.000   0.000  -0.000  -2.050   0.000   0.000   0.000   0.000   0.000   0.000
 -1.862  -0.000  -0.000  -0.000  -0.000   2.306   0.000   0.000   0.000   0.000  -0.000   0.000   0.000   0.000   0.000   0.000
  0.000  -1.862   0.000  -0.000   0.000   0.000   2.306   0.000   0.000  -0.000   0.000   0.000   0.000   0.000   0.000   0.000
 -0.000   0.000  -2.050   0.000   0.000  -0.000   0.000   2.234   0.000   0.000  -0.000   0.000   0.000   0.000   0.000   0.000
  0.000   0.000   0.000  -1.862   0.000   0.000   0.000  -0.000   2.306  -0.000   0.000  -0.000   0.000   0.000   0.000   0.000
  0.000   0.000   0.000  -0.000  -2.050   0.000   0.000   0.000  -0.000   2.234   0.000  -0.000   0.000   0.000   0.000   0.000
  0.000   0.000   0.000   0.000   0.000   0.000  -0.000  -0.000   0.000   0.000   2.595  -0.326   0.000   0.000   0.000   0.000
 -0.000  -0.000  -0.000   0.000   0.000  -0.000  -0.000   0.000  -0.000  -0.000  -0.326   0.050   0.000   0.000   0.000   0.000
  0.000   0.000   0.000   0.000   0.000   0.000   0.000   0.000   0.000   0.000   0.000   0.000   0.369  -0.000   0.000  -0.035
  0.000   0.000   0.000   0.000   0.000   0.000   0.000   0.000   0.000   0.000   0.000   0.000   0.000   0.369   0.000   0.000
  0.000   0.000   0.000   0.000   0.000   0.000   0.000   0.000   0.000   0.000   0.000   0.000  -0.000   0.000   0.369   0.000
  0.000   0.000   0.000   0.000   0.000   0.000   0.000   0.000   0.000   0.000   0.000   0.000  -0.035  -0.000   0.000   0.004
  0.000   0.000   0.000   0.000   0.000   0.000   0.000   0.000   0.000   0.000   0.000   0.000   0.000  -0.035  -0.000   0.000
  0.000   0.000   0.000   0.000   0.000   0.000   0.000   0.000   0.000   0.000   0.000   0.000   0.000   0.000  -0.035   0.000
 total augmentation occupancy for first ion, spin component:           2
  2.069  -0.000   0.000   0.000  -0.000  -1.027   0.000   0.000   0.000  -0.000   0.000   0.000   0.000   0.000   0.000   0.000
  0.000   2.069  -0.000   0.000  -0.000   0.000  -1.027   0.000  -0.000   0.000  -0.000   0.000   0.000   0.000   0.000   0.000
  0.000  -0.000   2.166   0.000   0.000  -0.000   0.000  -1.023  -0.000   0.000  -0.000   0.000   0.000   0.000   0.000   0.000
 -0.000   0.000   0.000   2.069   0.000   0.000   0.000   0.000  -1.027  -0.000   0.000   0.000   0.000   0.000   0.000   0.000
  0.000   0.000   0.000   0.000   2.166   0.000   0.000   0.000   0.000  -1.023  -0.000   0.000   0.000   0.000   0.000   0.000
 -1.027   0.000  -0.000   0.000   0.000   0.306   0.000   0.000  -0.000  -0.000  -0.000   0.000   0.000   0.000   0.000   0.000
  0.000  -1.027  -0.000   0.000  -0.000   0.000   0.306  -0.000   0.000   0.000  -0.000   0.000   0.000   0.000   0.000   0.000
 -0.000  -0.000  -1.023  -0.000   0.000   0.000  -0.000   0.299   0.000   0.000   0.000  -0.000   0.000   0.000   0.000   0.000
  0.000  -0.000   0.000  -1.027   0.000  -0.000   0.000   0.000   0.306  -0.000   0.000   0.000   0.000   0.000   0.000   0.000
 -0.000  -0.000   0.000   0.000  -1.023  -0.000   0.000   0.000   0.000   0.299   0.000   0.000   0.000   0.000   0.000   0.000
  0.000   0.000  -0.000   0.000   0.000  -0.000  -0.000   0.000   0.000   0.000  -0.311   0.096   0.000   0.000   0.000   0.000
  0.000   0.000   0.000  -0.000  -0.000   0.000   0.000  -0.000   0.000  -0.000   0.096  -0.018   0.000   0.000   0.000   0.000
  0.000   0.000   0.000   0.000   0.000   0.000   0.000   0.000   0.000   0.000   0.000   0.000  -0.035   0.000   0.000   0.005
  0.000   0.000   0.000   0.000   0.000   0.000   0.000   0.000   0.000   0.000   0.000   0.000   0.000  -0.035   0.000   0.000
  0.000   0.000   0.000   0.000   0.000   0.000   0.000   0.000   0.000   0.000   0.000   0.000  -0.000  -0.000  -0.035   0.000
  0.000   0.000   0.000   0.000   0.000   0.000   0.000   0.000   0.000   0.000   0.000   0.000   0.005  -0.000   0.000  -0.001
  0.000   0.000   0.000   0.000   0.000   0.000   0.000   0.000   0.000   0.000   0.000   0.000   0.000   0.005  -0.000   0.000
  0.000   0.000   0.000   0.000   0.000   0.000   0.000   0.000   0.000   0.000   0.000   0.000  -0.000   0.000   0.005  -0.000


------------------------ aborting loop because EDIFF is reached ----------------------------------------





 total charge

# of ion       s       p       d       tot
------------------------------------------
    1        0.534   0.614   7.327   8.475



 magnetization (x)

# of ion       s       p       d       tot
------------------------------------------
    1       -0.014  -0.051   1.634   1.570
 
    CHARGE:  cpu time      0.0092: real time      0.0092
    FORLOC:  cpu time      0.0001: real time      0.0001
    FORNL :  cpu time      0.0060: real time      0.0060
    STRESS:  cpu time      0.0230: real time      0.0231
    FORCOR:  cpu time      0.0023: real time      0.0023
    FORHAR:  cpu time      0.0003: real time      0.0003
    MIXING:  cpu time      0.0002: real time      0.0002
    OFIELD:  cpu time      0.0000: real time      0.0000

  FORCE on cell =-STRESS in cart. coord.  units (eV):
  Direction    XX          YY          ZZ          XY          YZ          ZX
  --------------------------------------------------------------------------------------
  Alpha Z    42.98328    42.98328    42.98328
  Ewald    -261.88979  -261.88979  -261.88979    -0.00000    -0.00000     0.00000
  Hartree    40.75323    40.75323    40.75323     0.00000     0.00000     0.00000
  E(xc)     -46.62871   -46.62871   -46.62871     0.00000     0.00000     0.00000
  Local      -2.84647    -2.84647    -2.84647     0.00004     0.00004     0.00004
  n-local    -2.54307    -1.49908    -4.91926     1.98973    -2.20599    -0.05568
  augment   154.91650   154.91650   154.91650    -0.00005    -0.00005    -0.00005
  Kinetic    76.40553    75.89716    79.48045    -0.74027     0.76022    -0.12528
  Fock        0.00000     0.00000     0.00000     0.00000     0.00000     0.00000
  -------------------------------------------------------------------------------------
  Total       1.56195     1.56195     1.56195     0.00000     0.00000    -0.00000
  in kB     253.94762   253.94762   253.94762     0.00000     0.00000    -0.00000
  external pressure =      253.95 kB  Pullay stress =        0.00 kB


 VOLUME and BASIS-vectors are now :
 -----------------------------------------------------------------------------
  energy-cutoff  :      400.00
  volume of cell :        9.85
      direct lattice vectors                 reciprocal lattice vectors
     0.000000000  1.701639530  1.701639530    -0.293834265  0.293834265  0.293834265
     1.701639530  0.000000000  1.701639530     0.293834265 -0.293834265  0.293834265
     1.701639530  1.701639530  0.000000000     0.293834265  0.293834265 -0.293834265

  length of vectors
     2.406481702  2.406481702  2.406481702     0.508935875  0.508935875  0.508935875


 FORCES acting on ions
    electron-ion (+dipol)            ewald-force                    non-local-force                 convergence-correction
 -----------------------------------------------------------------------------------------------
   0.780E-15 0.296E-15 -.219E-15   0.434E-15 0.218E-15 0.232E-15   0.000E+00 0.000E+00 -.103E-24   0.699E-14 0.470E-14 -.375E-14
 -----------------------------------------------------------------------------------------------
   0.780E-15 0.296E-15 -.219E-15   0.434E-15 0.218E-15 0.232E-15   0.000E+00 0.000E+00 -.103E-24   0.699E-14 0.470E-14 -.375E-14
 
 
 POSITION                                       TOTAL-FORCE (eV/Angst)
 -----------------------------------------------------------------------------------
      0.00000      0.00000      0.00000         0.000000      0.000000      0.000000
 -----------------------------------------------------------------------------------
    total drift:                                0.000000      0.000000     -0.000000


--------------------------------------------------------------------------------------------------------



  FREE ENERGIE OF THE ION-ELECTRON SYSTEM (eV)
  ---------------------------------------------------
  free  energy   TOTEN  =        -6.94770965 eV

  energy  without entropy=       -6.94668307  energy(sigma->0) =       -6.94719636
 


--------------------------------------------------------------------------------------------------------


    POTLOK:  cpu time      0.0071: real time      0.0071


--------------------------------------------------------------------------------------------------------




--------------------------------------------------------------------------------------------------------


  
 reached required accuracy - stopping structural energy minimisation
 writing wavefunctions
     LOOP+:  cpu time      3.6897: real time      3.8072
    4ORBIT:  cpu time      0.0000: real time      0.0000



 total charge

# of ion       s       p       d       tot
------------------------------------------
    1        0.534   0.614   7.327   8.475



 magnetization (x)

# of ion       s       p       d       tot
------------------------------------------
    1       -0.014  -0.051   1.634   1.570
 

 total amount of memory used by VASP MPI-rank0    30856. kBytes
=======================================================================

   base      :      30000. kBytes
   nonl-proj :        242. kBytes
   fftplans  :         90. kBytes
   grid      :        217. kBytes
   one-center:         31. kBytes
   wavefun   :        276. kBytes
 
  
  
 General timing and accounting informations for this job:
 ========================================================
  
                  Total CPU time used (sec):        4.592
                            User time (sec):        4.068
                          System time (sec):        0.524
                         Elapsed time (sec):        6.066
  
                   Maximum memory used (kb):      234688.
                   Average memory used (kb):          N/A
  
                          Minor page faults:        18396
                          Major page faults:           77
                 Voluntary context switches:         2242
