PROCAR lm decomposed
# of k-points:   60         # of bands:   12         # of ions:    1

 k-point     1 :    0.06250000 0.06250000 0.06250000     weight = 0.00390625

band     1 # energy    2.35988991 # occ.  1.00000000
 
ion      s     py     pz     px    dxy    dyz    dz2    dxz  x2-y2    tot
    1  0.798  0.004  0.004  0.004  0.000  0.000  0.000  0.000  0.000  0.811
 
band     2 # energy    8.85812206 # occ.  1.00000000
 
ion      s     py     pz     px    dxy    dyz    dz2    dxz  x2-y2    tot
    1  0.000  0.001  0.001  0.001  0.326  0.326  0.000  0.326  0.000  0.980
 
band     3 # energy    8.95307052 # occ.  1.00000000
 
ion      s     py     pz     px    dxy    dyz    dz2    dxz  x2-y2    tot
    1  0.000  0.000  0.000  0.000  0.275  0.453  0.001  0.252  0.001  0.981
 
band     4 # energy    8.95307052 # occ.  1.00000000
 
ion      s     py     pz     px    dxy    dyz    dz2    dxz  x2-y2    tot
    1  0.000  0.000  0.000  0.000  0.378  0.200  0.001  0.401  0.001  0.981
 
band     5 # energy   10.16563023 # occ.  1.00000000
 
ion      s     py     pz     px    dxy    dyz    dz2    dxz  x2-y2    tot
    1  0.000  0.000  0.000  0.000  0.001  0.000  0.870  0.000  0.117  0.988
 
band     6 # energy   10.16563023 # occ.  1.00000000
 
ion      s     py     pz     px    dxy    dyz    dz2    dxz  x2-y2    tot
    1  0.000  0.000  0.000  0.000  0.000  0.001  0.117  0.001  0.870  0.988
 
band     7 # energy   35.36552467 # occ.  0.00000000
 
ion      s     py     pz     px    dxy    dyz    dz2    dxz  x2-y2    tot
    1  0.000  0.004  0.004  0.004  0.045  0.045  0.000  0.045  0.000  0.148
 
band     8 # energy   38.88807766 # occ.  0.00000000
 
ion      s     py     pz     px    dxy    dyz    dz2    dxz  x2-y2    tot
    1  0.022  0.079  0.079  0.079  0.047  0.047  0.000  0.047  0.000  0.400
 
band     9 # energy   40.50940191 # occ.  0.00000000
 
ion      s     py     pz     px    dxy    dyz    dz2    dxz  x2-y2    tot
    1  0.000  0.072  0.074  0.121  0.039  0.064  0.009  0.038  0.013  0.429
 
band    10 # energy   40.50940191 # occ.  0.00000000
 
ion      s     py     pz     px    dxy    dyz    dz2    dxz  x2-y2    tot
    1  0.000  0.106  0.104  0.057  0.055  0.030  0.013  0.056  0.009  0.429
 
band    11 # energy   44.79928222 # occ.  0.00000000
 
ion      s     py     pz     px    dxy    dyz    dz2    dxz  x2-y2    tot
    1  0.000  0.001  0.001  0.001  0.374  0.618  0.003  0.352  0.004  1.352
 
band    12 # energy   44.79970751 # occ.  0.00000000
 
ion      s     py     pz     px    dxy    dyz    dz2    dxz  x2-y2    tot
    1  0.000  0.001  0.001  0.000  0.505  0.270  0.004  0.568  0.003  1.352
 

 k-point     2 :    0.18750000 0.06250000 0.06250000     weight = 0.01171875

band     1 # energy    3.21839109 # occ.  1.00000000
 
ion      s     py     pz     px    dxy    dyz    dz2    dxz  x2-y2    tot
    1  0.731  0.035  0.035  0.004  0.001  0.006  0.000  0.001  0.001  0.813
 
band     2 # energy    8.60722420 # occ.  1.00000000
 
ion      s     py     pz     px    dxy    dyz    dz2    dxz  x2-y2    tot
    1  0.001  0.001  0.001  0.008  0.463  0.034  0.000  0.463  0.000  0.972
 
band     3 # energy    9.13701909 # occ.  1.00000000
 
ion      s     py     pz     px    dxy    dyz    dz2    dxz  x2-y2    tot
    1  0.000  0.003  0.003  0.000  0.017  0.852  0.022  0.017  0.065  0.979
 
band     4 # energy    9.14171034 # occ.  1.00000000
 
ion      s     py     pz     px    dxy    dyz    dz2    dxz  x2-y2    tot
    1  0.000  0.000  0.000  0.000  0.479  0.000  0.016  0.479  0.005  0.980
 
band     5 # energy    9.98125697 # occ.  1.00000000
 
ion      s     py     pz     px    dxy    dyz    dz2    dxz  x2-y2    tot
    1  0.000  0.000  0.000  0.000  0.011  0.000  0.721  0.011  0.240  0.983
 
band     6 # energy   10.26689473 # occ.  1.00000000
 
ion      s     py     pz     px    dxy    dyz    dz2    dxz  x2-y2    tot
    1  0.001  0.001  0.001  0.000  0.002  0.082  0.225  0.002  0.674  0.986
 
band     7 # energy   32.87770405 # occ.  0.00000000
 
ion      s     py     pz     px    dxy    dyz    dz2    dxz  x2-y2    tot
    1  0.023  0.040  0.040  0.108  0.203  0.089  0.001  0.203  0.002  0.709
 
band     8 # energy   35.56620765 # occ.  0.00000000
 
ion      s     py     pz     px    dxy    dyz    dz2    dxz  x2-y2    tot
    1  0.041  0.072  0.072  0.017  0.053  0.142  0.008  0.053  0.023  0.480
 
band     9 # energy   39.24157058 # occ.  0.00000000
 
ion      s     py     pz     px    dxy    dyz    dz2    dxz  x2-y2    tot
    1  0.001  0.008  0.008  0.228  0.024  0.083  0.002  0.024  0.006  0.384
 
band    10 # energy   41.57997202 # occ.  0.00000000
 
ion      s     py     pz     px    dxy    dyz    dz2    dxz  x2-y2    tot
    1  0.000  0.087  0.087  0.000  0.086  0.000  0.165  0.086  0.055  0.568
 
band    11 # energy   43.37294637 # occ.  0.00000000
 
ion      s     py     pz     px    dxy    dyz    dz2    dxz  x2-y2    tot
    1  0.000  0.066  0.066  0.009  0.000  0.362  0.012  0.000  0.036  0.553
 
band    12 # energy   44.87565756 # occ.  0.00000000
 
ion      s     py     pz     px    dxy    dyz    dz2    dxz  x2-y2    tot
    1  0.000  0.004  0.004  0.000  0.562  0.000  0.078  0.562  0.026  1.238
 

 k-point     3 :    0.31250000 0.06250000 0.06250000     weight = 0.01171875

band     1 # energy    4.98335096 # occ.  1.00000000
 
ion      s     py     pz     px    dxy    dyz    dz2    dxz  x2-y2    tot
    1  0.544  0.067  0.067  0.019  0.036  0.062  0.001  0.036  0.003  0.835
 
band     2 # energy    8.47825930 # occ.  1.00000000
 
ion      s     py     pz     px    dxy    dyz    dz2    dxz  x2-y2    tot
    1  0.027  0.028  0.028  0.040  0.379  0.057  0.001  0.379  0.002  0.941
 
band     3 # energy    9.07571861 # occ.  1.00000000
 
ion      s     py     pz     px    dxy    dyz    dz2    dxz  x2-y2    tot
    1  0.000  0.004  0.004  0.000  0.035  0.481  0.104  0.035  0.311  0.974
 
band     4 # energy    9.16337441 # occ.  1.00000000
 
ion      s     py     pz     px    dxy    dyz    dz2    dxz  x2-y2    tot
    1  0.000  0.000  0.000  0.000  0.274  0.000  0.321  0.274  0.107  0.977
 
band     5 # energy   10.21969755 # occ.  1.00000000
 
ion      s     py     pz     px    dxy    dyz    dz2    dxz  x2-y2    tot
    1  0.000  0.001  0.001  0.000  0.215  0.000  0.411  0.215  0.137  0.981
 
band     6 # energy   10.72581503 # occ.  1.00000000
 
ion      s     py     pz     px    dxy    dyz    dz2    dxz  x2-y2    tot
    1  0.010  0.006  0.006  0.000  0.017  0.366  0.140  0.017  0.420  0.983
 
band     7 # energy   26.67330618 # occ.  0.00000000
 
ion      s     py     pz     px    dxy    dyz    dz2    dxz  x2-y2    tot
    1  0.123  0.078  0.078  0.136  0.160  0.127  0.001  0.160  0.004  0.866
 
band     8 # energy   34.38110826 # occ.  0.00000000
 
ion      s     py     pz     px    dxy    dyz    dz2    dxz  x2-y2    tot
    1  0.025  0.020  0.020  0.092  0.111  0.054  0.018  0.111  0.053  0.504
 
band     9 # energy   38.20061719 # occ.  0.00000000
 
ion      s     py     pz     px    dxy    dyz    dz2    dxz  x2-y2    tot
    1  0.001  0.072  0.072  0.147  0.010  0.181  0.003  0.010  0.008  0.504
 
band    10 # energy   41.36360630 # occ.  0.00000000
 
ion      s     py     pz     px    dxy    dyz    dz2    dxz  x2-y2    tot
    1  0.000  0.101  0.101  0.000  0.269  0.000  0.183  0.269  0.061  0.984
 
band    11 # energy   42.54477583 # occ.  0.00000000
 
ion      s     py     pz     px    dxy    dyz    dz2    dxz  x2-y2    tot
    1  0.000  0.123  0.123  0.000  0.015  0.000  0.442  0.015  0.147  0.865
 
band    12 # energy   43.37474979 # occ.  0.00000000
 
ion      s     py     pz     px    dxy    dyz    dz2    dxz  x2-y2    tot
    1  0.090  0.057  0.057  0.011  0.010  0.010  0.070  0.010  0.211  0.526
 

 k-point     4 :    0.43750000 0.06250000 0.06250000     weight = 0.01171875

band     1 # energy    6.08799854 # occ.  1.00000000
 
ion      s     py     pz     px    dxy    dyz    dz2    dxz  x2-y2    tot
    1  0.249  0.023  0.023  0.002  0.200  0.217  0.000  0.200  0.001  0.914
 
band     2 # energy    8.80886926 # occ.  1.00000000
 
ion      s     py     pz     px    dxy    dyz    dz2    dxz  x2-y2    tot
    1  0.000  0.003  0.003  0.000  0.045  0.290  0.145  0.045  0.436  0.969
 
band     3 # energy    8.92579206 # occ.  1.00000000
 
ion      s     py     pz     px    dxy    dyz    dz2    dxz  x2-y2    tot
    1  0.000  0.000  0.000  0.000  0.188  0.000  0.447  0.188  0.149  0.973
 
band     4 # energy    9.66779994 # occ.  1.00000000
 
ion      s     py     pz     px    dxy    dyz    dz2    dxz  x2-y2    tot
    1  0.065  0.119  0.119  0.119  0.181  0.022  0.017  0.181  0.051  0.874
 
band     5 # energy   10.86318547 # occ.  1.00000000
 
ion      s     py     pz     px    dxy    dyz    dz2    dxz  x2-y2    tot
    1  0.000  0.001  0.001  0.000  0.304  0.000  0.284  0.304  0.095  0.987
 
band     6 # energy   11.59316530 # occ.  0.99998187
 
ion      s     py     pz     px    dxy    dyz    dz2    dxz  x2-y2    tot
    1  0.040  0.052  0.052  0.031  0.013  0.424  0.082  0.013  0.245  0.952
 
band     7 # energy   21.13567431 # occ.  0.00000000
 
ion      s     py     pz     px    dxy    dyz    dz2    dxz  x2-y2    tot
    1  0.300  0.046  0.046  0.100  0.152  0.124  0.001  0.152  0.002  0.922
 
band     8 # energy   33.71047241 # occ.  0.00000000
 
ion      s     py     pz     px    dxy    dyz    dz2    dxz  x2-y2    tot
    1  0.010  0.001  0.001  0.089  0.054  0.032  0.026  0.054  0.078  0.346
 
band     9 # energy   37.03265492 # occ.  0.00000000
 
ion      s     py     pz     px    dxy    dyz    dz2    dxz  x2-y2    tot
    1  0.018  0.105  0.105  0.208  0.024  0.046  0.007  0.024  0.022  0.561
 
band    10 # energy   39.16913390 # occ.  0.00000000
 
ion      s     py     pz     px    dxy    dyz    dz2    dxz  x2-y2    tot
    1  0.000  0.245  0.245  0.000  0.001  0.000  0.177  0.001  0.059  0.728
 
band    11 # energy   41.62701235 # occ.  0.00000000
 
ion      s     py     pz     px    dxy    dyz    dz2    dxz  x2-y2    tot
    1  0.000  0.033  0.033  0.000  0.237  0.000  0.466  0.237  0.155  1.162
 
band    12 # energy   43.20916121 # occ.  0.00000000
 
ion      s     py     pz     px    dxy    dyz    dz2    dxz  x2-y2    tot
    1  0.077  0.017  0.017  0.013  0.000  0.229  0.153  0.000  0.458  0.964
 

 k-point     5 :   -0.43750000 0.06250000 0.06250000     weight = 0.01171875

band     1 # energy    6.19328874 # occ.  1.00000000
 
ion      s     py     pz     px    dxy    dyz    dz2    dxz  x2-y2    tot
    1  0.180  0.000  0.000  0.008  0.241  0.263  0.000  0.241  0.000  0.934
 
band     2 # energy    8.69752795 # occ.  1.00000000
 
ion      s     py     pz     px    dxy    dyz    dz2    dxz  x2-y2    tot
    1  0.000  0.003  0.003  0.000  0.063  0.201  0.158  0.063  0.474  0.967
 
band     3 # energy    8.86413384 # occ.  1.00000000
 
ion      s     py     pz     px    dxy    dyz    dz2    dxz  x2-y2    tot
    1  0.000  0.001  0.001  0.000  0.186  0.000  0.451  0.186  0.150  0.973
 
band     4 # energy   10.32365937 # occ.  1.00000000
 
ion      s     py     pz     px    dxy    dyz    dz2    dxz  x2-y2    tot
    1  0.003  0.097  0.097  0.096  0.057  0.336  0.040  0.057  0.121  0.905
 
band     5 # energy   11.19364868 # occ.  1.00000000
 
ion      s     py     pz     px    dxy    dyz    dz2    dxz  x2-y2    tot
    1  0.000  0.000  0.000  0.000  0.308  0.000  0.282  0.308  0.094  0.992
 
band     6 # energy   12.34561174 # occ.  0.00000000
 
ion      s     py     pz     px    dxy    dyz    dz2    dxz  x2-y2    tot
    1  0.006  0.146  0.146  0.164  0.058  0.106  0.046  0.058  0.139  0.869
 
band     7 # energy   18.94107769 # occ.  0.00000000
 
ion      s     py     pz     px    dxy    dyz    dz2    dxz  x2-y2    tot
    1  0.449  0.011  0.011  0.000  0.158  0.172  0.000  0.158  0.000  0.959
 
band     8 # energy   33.67375037 # occ.  0.00000000
 
ion      s     py     pz     px    dxy    dyz    dz2    dxz  x2-y2    tot
    1  0.000  0.003  0.003  0.039  0.009  0.043  0.026  0.009  0.079  0.210
 
band     9 # energy   37.17741742 # occ.  0.00000000
 
ion      s     py     pz     px    dxy    dyz    dz2    dxz  x2-y2    tot
    1  0.000  0.246  0.246  0.000  0.043  0.000  0.139  0.043  0.046  0.762
 
band    10 # energy   37.34159365 # occ.  0.00000000
 
ion      s     py     pz     px    dxy    dyz    dz2    dxz  x2-y2    tot
    1  0.038  0.088  0.088  0.312  0.017  0.003  0.021  0.017  0.064  0.647
 
band    11 # energy   42.47229816 # occ.  0.00000000
 
ion      s     py     pz     px    dxy    dyz    dz2    dxz  x2-y2    tot
    1  0.017  0.004  0.004  0.029  0.032  0.312  0.165  0.032  0.494  1.087
 
band    12 # energy   42.49920185 # occ.  0.00000000
 
ion      s     py     pz     px    dxy    dyz    dz2    dxz  x2-y2    tot
    1  0.000  0.051  0.051  0.000  0.162  0.000  0.489  0.162  0.163  1.078
 

 k-point     6 :   -0.31250000 0.06250000 0.06250000     weight = 0.01171875

band     1 # energy    5.88983266 # occ.  1.00000000
 
ion      s     py     pz     px    dxy    dyz    dz2    dxz  x2-y2    tot
    1  0.331  0.016  0.016  0.057  0.153  0.157  0.002  0.153  0.005  0.889
 
band     2 # energy    8.85038425 # occ.  1.00000000
 
ion      s     py     pz     px    dxy    dyz    dz2    dxz  x2-y2    tot
    1  0.003  0.009  0.009  0.007  0.119  0.076  0.155  0.119  0.464  0.961
 
band     3 # energy    9.02893473 # occ.  1.00000000
 
ion      s     py     pz     px    dxy    dyz    dz2    dxz  x2-y2    tot
    1  0.000  0.001  0.001  0.000  0.229  0.000  0.386  0.229  0.129  0.975
 
band     4 # energy    9.08840700 # occ.  1.00000000
 
ion      s     py     pz     px    dxy    dyz    dz2    dxz  x2-y2    tot
    1  0.074  0.082  0.082  0.086  0.009  0.557  0.000  0.009  0.000  0.899
 
band     5 # energy   10.95416151 # occ.  1.00000000
 
ion      s     py     pz     px    dxy    dyz    dz2    dxz  x2-y2    tot
    1  0.000  0.001  0.001  0.000  0.261  0.000  0.349  0.261  0.116  0.989
 
band     6 # energy   11.00151564 # occ.  1.00000000
 
ion      s     py     pz     px    dxy    dyz    dz2    dxz  x2-y2    tot
    1  0.031  0.017  0.017  0.039  0.182  0.148  0.087  0.182  0.261  0.965
 
band     7 # energy   22.80919886 # occ.  0.00000000
 
ion      s     py     pz     px    dxy    dyz    dz2    dxz  x2-y2    tot
    1  0.229  0.101  0.101  0.049  0.129  0.162  0.001  0.129  0.002  0.904
 
band     8 # energy   34.42994982 # occ.  0.00000000
 
ion      s     py     pz     px    dxy    dyz    dz2    dxz  x2-y2    tot
    1  0.005  0.007  0.007  0.004  0.000  0.106  0.022  0.000  0.067  0.220
 
band     9 # energy   36.61575822 # occ.  0.00000000
 
ion      s     py     pz     px    dxy    dyz    dz2    dxz  x2-y2    tot
    1  0.000  0.223  0.223  0.000  0.145  0.000  0.093  0.145  0.031  0.859
 
band    10 # energy   39.23541964 # occ.  0.00000000
 
ion      s     py     pz     px    dxy    dyz    dz2    dxz  x2-y2    tot
    1  0.052  0.041  0.041  0.370  0.000  0.098  0.035  0.000  0.106  0.742
 
band    11 # energy   42.22142609 # occ.  0.00000000
 
ion      s     py     pz     px    dxy    dyz    dz2    dxz  x2-y2    tot
    1  0.000  0.004  0.004  0.020  0.075  0.219  0.153  0.075  0.459  1.008
 
band    12 # energy   44.24483473 # occ.  0.00000000
 
ion      s     py     pz     px    dxy    dyz    dz2    dxz  x2-y2    tot
    1  0.000  0.060  0.060  0.000  0.043  0.000  0.499  0.043  0.166  0.871
 

 k-point     7 :   -0.18750000 0.06250000 0.06250000     weight = 0.01171875

band     1 # energy    4.35810152 # occ.  1.00000000
 
ion      s     py     pz     px    dxy    dyz    dz2    dxz  x2-y2    tot
    1  0.624  0.027  0.027  0.084  0.021  0.012  0.001  0.021  0.004  0.822
 
band     2 # energy    8.42185219 # occ.  1.00000000
 
ion      s     py     pz     px    dxy    dyz    dz2    dxz  x2-y2    tot
    1  0.010  0.017  0.017  0.011  0.136  0.627  0.000  0.136  0.001  0.956
 
band     3 # energy    9.14951971 # occ.  1.00000000
 
ion      s     py     pz     px    dxy    dyz    dz2    dxz  x2-y2    tot
    1  0.000  0.001  0.001  0.001  0.200  0.219  0.089  0.200  0.266  0.976
 
band     4 # energy    9.21755429 # occ.  1.00000000
 
ion      s     py     pz     px    dxy    dyz    dz2    dxz  x2-y2    tot
    1  0.000  0.002  0.002  0.000  0.361  0.000  0.190  0.361  0.063  0.978
 
band     5 # energy   10.13902168 # occ.  1.00000000
 
ion      s     py     pz     px    dxy    dyz    dz2    dxz  x2-y2    tot
    1  0.007  0.001  0.001  0.007  0.122  0.104  0.154  0.122  0.462  0.979
 
band     6 # energy   10.44675279 # occ.  1.00000000
 
ion      s     py     pz     px    dxy    dyz    dz2    dxz  x2-y2    tot
    1  0.000  0.001  0.001  0.000  0.127  0.000  0.548  0.127  0.183  0.985
 
band     7 # energy   28.74656591 # occ.  0.00000000
 
ion      s     py     pz     px    dxy    dyz    dz2    dxz  x2-y2    tot
    1  0.084  0.111  0.111  0.059  0.143  0.182  0.001  0.143  0.003  0.838
 
band     8 # energy   35.62820934 # occ.  0.00000000
 
ion      s     py     pz     px    dxy    dyz    dz2    dxz  x2-y2    tot
    1  0.024  0.001  0.001  0.008  0.001  0.179  0.015  0.001  0.045  0.275
 
band     9 # energy   37.17130040 # occ.  0.00000000
 
ion      s     py     pz     px    dxy    dyz    dz2    dxz  x2-y2    tot
    1  0.000  0.188  0.188  0.000  0.221  0.000  0.050  0.221  0.017  0.886
 
band    10 # energy   41.69166773 # occ.  0.00000000
 
ion      s     py     pz     px    dxy    dyz    dz2    dxz  x2-y2    tot
    1  0.024  0.019  0.019  0.059  0.000  0.012  0.114  0.000  0.343  0.591
 
band    11 # energy   42.14797353 # occ.  0.00000000
 
ion      s     py     pz     px    dxy    dyz    dz2    dxz  x2-y2    tot
    1  0.017  0.022  0.022  0.262  0.091  0.307  0.004  0.091  0.013  0.828
 
band    12 # energy   46.45481971 # occ.  0.00000000
 
ion      s     py     pz     px    dxy    dyz    dz2    dxz  x2-y2    tot
    1  0.000  0.035  0.036  0.000  0.023  0.000  0.364  0.023  0.120  0.602
 

 k-point     8 :   -0.06250000 0.06250000 0.06250000     weight = 0.01171875

band     1 # energy    2.79716280 # occ.  1.00000000
 
ion      s     py     pz     px    dxy    dyz    dz2    dxz  x2-y2    tot
    1  0.765  0.004  0.004  0.037  0.001  0.000  0.000  0.001  0.001  0.812
 
band     2 # energy    8.68970372 # occ.  1.00000000
 
ion      s     py     pz     px    dxy    dyz    dz2    dxz  x2-y2    tot
    1  0.000  0.001  0.001  0.000  0.059  0.856  0.000  0.059  0.000  0.976
 
band     3 # energy    9.07995843 # occ.  1.00000000
 
ion      s     py     pz     px    dxy    dyz    dz2    dxz  x2-y2    tot
    1  0.000  0.001  0.001  0.001  0.425  0.119  0.002  0.425  0.007  0.980
 
band     4 # energy    9.08505741 # occ.  1.00000000
 
ion      s     py     pz     px    dxy    dyz    dz2    dxz  x2-y2    tot
    1  0.000  0.002  0.002  0.000  0.483  0.000  0.009  0.483  0.003  0.981
 
band     5 # energy   10.00545029 # occ.  1.00000000
 
ion      s     py     pz     px    dxy    dyz    dz2    dxz  x2-y2    tot
    1  0.001  0.000  0.000  0.000  0.004  0.001  0.243  0.004  0.730  0.984
 
band     6 # energy   10.24264717 # occ.  1.00000000
 
ion      s     py     pz     px    dxy    dyz    dz2    dxz  x2-y2    tot
    1  0.000  0.000  0.000  0.000  0.006  0.000  0.732  0.006  0.244  0.988
 
band     7 # energy   34.53998566 # occ.  0.00000000
 
ion      s     py     pz     px    dxy    dyz    dz2    dxz  x2-y2    tot
    1  0.005  0.033  0.033  0.009  0.071  0.251  0.000  0.071  0.001  0.475
 
band     8 # energy   37.14921469 # occ.  0.00000000
 
ion      s     py     pz     px    dxy    dyz    dz2    dxz  x2-y2    tot
    1  0.037  0.049  0.049  0.067  0.056  0.019  0.007  0.056  0.022  0.362
 
band     9 # energy   38.54699488 # occ.  0.00000000
 
ion      s     py     pz     px    dxy    dyz    dz2    dxz  x2-y2    tot
    1  0.000  0.158  0.158  0.000  0.210  0.000  0.009  0.210  0.003  0.748
 
band    10 # energy   40.25716473 # occ.  0.00000000
 
ion      s     py     pz     px    dxy    dyz    dz2    dxz  x2-y2    tot
    1  0.008  0.079  0.079  0.040  0.040  0.006  0.028  0.040  0.084  0.404
 
band    11 # energy   44.68695182 # occ.  0.00000000
 
ion      s     py     pz     px    dxy    dyz    dz2    dxz  x2-y2    tot
    1  0.001  0.000  0.000  0.065  0.286  0.454  0.000  0.286  0.001  1.094
 
band    12 # energy   46.41168035 # occ.  0.00000000
 
ion      s     py     pz     px    dxy    dyz    dz2    dxz  x2-y2    tot
    1  0.000  0.000  0.000  0.000  0.385  0.001  0.026  0.374  0.009  0.795
 

 k-point     9 :    0.18750000 0.18750000 0.06250000     weight = 0.01171875

band     1 # energy    3.62568497 # occ.  1.00000000
 
ion      s     py     pz     px    dxy    dyz    dz2    dxz  x2-y2    tot
    1  0.695  0.004  0.096  0.004  0.000  0.002  0.013  0.002  0.000  0.814
 
band     2 # energy    8.36579207 # occ.  1.00000000
 
ion      s     py     pz     px    dxy    dyz    dz2    dxz  x2-y2    tot
    1  0.000  0.001  0.000  0.001  0.929  0.019  0.000  0.019  0.000  0.970
 
band     3 # energy    9.30753286 # occ.  1.00000000
 
ion      s     py     pz     px    dxy    dyz    dz2    dxz  x2-y2    tot
    1  0.000  0.003  0.000  0.003  0.036  0.402  0.132  0.402  0.000  0.978
 
band     4 # energy    9.34216051 # occ.  1.00000000
 
ion      s     py     pz     px    dxy    dyz    dz2    dxz  x2-y2    tot
    1  0.000  0.004  0.000  0.004  0.000  0.469  0.000  0.469  0.034  0.979
 
band     5 # energy    9.78592578 # occ.  1.00000000
 
ion      s     py     pz     px    dxy    dyz    dz2    dxz  x2-y2    tot
    1  0.009  0.001  0.005  0.001  0.005  0.062  0.832  0.062  0.000  0.976
 
band     6 # energy   10.38626461 # occ.  1.00000000
 
ion      s     py     pz     px    dxy    dyz    dz2    dxz  x2-y2    tot
    1  0.000  0.000  0.000  0.000  0.000  0.017  0.000  0.017  0.954  0.988
 
band     7 # energy   33.21012728 # occ.  0.00000000
 
ion      s     py     pz     px    dxy    dyz    dz2    dxz  x2-y2    tot
    1  0.016  0.088  0.012  0.088  0.306  0.105  0.012  0.105  0.000  0.732
 
band     8 # energy   35.59762308 # occ.  0.00000000
 
ion      s     py     pz     px    dxy    dyz    dz2    dxz  x2-y2    tot
    1  0.033  0.020  0.017  0.020  0.196  0.022  0.109  0.022  0.000  0.440
 
band     9 # energy   36.19014253 # occ.  0.00000000
 
ion      s     py     pz     px    dxy    dyz    dz2    dxz  x2-y2    tot
    1  0.000  0.196  0.000  0.196  0.000  0.217  0.000  0.217  0.009  0.836
 
band    10 # energy   38.21952722 # occ.  0.00000000
 
ion      s     py     pz     px    dxy    dyz    dz2    dxz  x2-y2    tot
    1  0.002  0.080  0.001  0.080  0.041  0.073  0.209  0.073  0.000  0.561
 
band    11 # energy   44.93135487 # occ.  0.00000000
 
ion      s     py     pz     px    dxy    dyz    dz2    dxz  x2-y2    tot
    1  0.492  0.014  0.530  0.014  0.017  0.001  0.139  0.001  0.000  1.207
 
band    12 # energy   46.97979028 # occ.  0.00000000
 
ion      s     py     pz     px    dxy    dyz    dz2    dxz  x2-y2    tot
    1  0.244  0.001  0.005  0.001  0.380  0.169  0.096  0.169  0.000  1.066
 

 k-point    10 :    0.31250000 0.18750000 0.06250000     weight = 0.02343750

band     1 # energy    5.05320511 # occ.  1.00000000
 
ion      s     py     pz     px    dxy    dyz    dz2    dxz  x2-y2    tot
    1  0.544  0.027  0.153  0.002  0.003  0.032  0.058  0.005  0.001  0.824
 
band     2 # energy    8.01516515 # occ.  1.00000000
 
ion      s     py     pz     px    dxy    dyz    dz2    dxz  x2-y2    tot
    1  0.001  0.003  0.002  0.014  0.856  0.006  0.003  0.076  0.000  0.961
 
band     3 # energy    9.05995138 # occ.  1.00000000
 
ion      s     py     pz     px    dxy    dyz    dz2    dxz  x2-y2    tot
    1  0.008  0.005  0.002  0.000  0.018  0.355  0.528  0.016  0.037  0.967
 
band     4 # energy    9.64479132 # occ.  1.00000000
 
ion      s     py     pz     px    dxy    dyz    dz2    dxz  x2-y2    tot
    1  0.002  0.002  0.002  0.005  0.045  0.120  0.048  0.576  0.177  0.977
 
band     5 # energy   10.09171576 # occ.  1.00000000
 
ion      s     py     pz     px    dxy    dyz    dz2    dxz  x2-y2    tot
    1  0.018  0.004  0.017  0.004  0.035  0.121  0.265  0.286  0.224  0.974
 
band     6 # energy   10.81962209 # occ.  1.00000000
 
ion      s     py     pz     px    dxy    dyz    dz2    dxz  x2-y2    tot
    1  0.015  0.006  0.009  0.000  0.001  0.336  0.067  0.003  0.547  0.984
 
band     7 # energy   29.31614913 # occ.  0.00000000
 
ion      s     py     pz     px    dxy    dyz    dz2    dxz  x2-y2    tot
    1  0.055  0.104  0.018  0.190  0.217  0.094  0.024  0.140  0.004  0.846
 
band     8 # energy   31.98406770 # occ.  0.00000000
 
ion      s     py     pz     px    dxy    dyz    dz2    dxz  x2-y2    tot
    1  0.037  0.130  0.007  0.128  0.136  0.124  0.074  0.085  0.021  0.744
 
band     9 # energy   35.85918152 # occ.  0.00000000
 
ion      s     py     pz     px    dxy    dyz    dz2    dxz  x2-y2    tot
    1  0.011  0.088  0.088  0.033  0.029  0.051  0.338  0.025  0.008  0.671
 
band    10 # energy   37.99652677 # occ.  0.00000000
 
ion      s     py     pz     px    dxy    dyz    dz2    dxz  x2-y2    tot
    1  0.026  0.000  0.065  0.109  0.329  0.000  0.076  0.076  0.000  0.680
 
band    11 # energy   43.65991291 # occ.  0.00000000
 
ion      s     py     pz     px    dxy    dyz    dz2    dxz  x2-y2    tot
    1  0.341  0.176  0.328  0.021  0.008  0.058  0.016  0.004  0.000  0.953
 
band    12 # energy   46.65317579 # occ.  0.00000000
 
ion      s     py     pz     px    dxy    dyz    dz2    dxz  x2-y2    tot
    1  0.152  0.022  0.021  0.001  0.068  0.013  0.205  0.029  0.161  0.671
 

 k-point    11 :    0.43750000 0.18750000 0.06250000     weight = 0.02343750

band     1 # energy    6.43647179 # occ.  1.00000000
 
ion      s     py     pz     px    dxy    dyz    dz2    dxz  x2-y2    tot
    1  0.259  0.021  0.104  0.001  0.177  0.145  0.093  0.089  0.001  0.889
 
band     2 # energy    8.15761826 # occ.  1.00000000
 
ion      s     py     pz     px    dxy    dyz    dz2    dxz  x2-y2    tot
    1  0.016  0.047  0.029  0.047  0.347  0.025  0.337  0.061  0.011  0.921
 
band     3 # energy    8.70484412 # occ.  1.00000000
 
ion      s     py     pz     px    dxy    dyz    dz2    dxz  x2-y2    tot
    1  0.030  0.001  0.027  0.009  0.314  0.282  0.249  0.007  0.042  0.960
 
band     4 # energy    9.46538226 # occ.  1.00000000
 
ion      s     py     pz     px    dxy    dyz    dz2    dxz  x2-y2    tot
    1  0.003  0.005  0.007  0.001  0.038  0.077  0.051  0.302  0.489  0.973
 
band     5 # energy   10.91193251 # occ.  1.00000000
 
ion      s     py     pz     px    dxy    dyz    dz2    dxz  x2-y2    tot
    1  0.004  0.001  0.010  0.005  0.038  0.057  0.057  0.467  0.346  0.984
 
band     6 # energy   12.14274800 # occ.  0.00000000
 
ion      s     py     pz     px    dxy    dyz    dz2    dxz  x2-y2    tot
    1  0.089  0.038  0.098  0.019  0.017  0.389  0.179  0.029  0.090  0.947
 
band     7 # energy   23.31589300 # occ.  0.00000000
 
ion      s     py     pz     px    dxy    dyz    dz2    dxz  x2-y2    tot
    1  0.188  0.106  0.018  0.181  0.183  0.086  0.017  0.109  0.004  0.891
 
band     8 # energy   31.27801093 # occ.  0.00000000
 
ion      s     py     pz     px    dxy    dyz    dz2    dxz  x2-y2    tot
    1  0.012  0.087  0.005  0.152  0.123  0.074  0.163  0.041  0.060  0.717
 
band     9 # energy   33.53372115 # occ.  0.00000000
 
ion      s     py     pz     px    dxy    dyz    dz2    dxz  x2-y2    tot
    1  0.072  0.041  0.205  0.097  0.000  0.004  0.248  0.050  0.036  0.753
 
band    10 # energy   37.73675867 # occ.  0.00000000
 
ion      s     py     pz     px    dxy    dyz    dz2    dxz  x2-y2    tot
    1  0.067  0.133  0.113  0.027  0.256  0.023  0.016  0.017  0.007  0.660
 
band    11 # energy   44.68916066 # occ.  0.00000000
 
ion      s     py     pz     px    dxy    dyz    dz2    dxz  x2-y2    tot
    1  0.036  0.099  0.002  0.002  0.216  0.018  0.138  0.049  0.232  0.793
 
band    12 # energy   47.28734065 # occ.  0.00000000
 
ion      s     py     pz     px    dxy    dyz    dz2    dxz  x2-y2    tot
    1  1.333  0.098  0.079  0.036  0.001  0.001  0.193  0.002  0.000  1.743
 

 k-point    12 :   -0.43750000 0.18750000 0.06250000     weight = 0.02343750

band     1 # energy    6.71879359 # occ.  1.00000000
 
ion      s     py     pz     px    dxy    dyz    dz2    dxz  x2-y2    tot
    1  0.132  0.000  0.029  0.011  0.344  0.241  0.010  0.170  0.000  0.937
 
band     2 # energy    8.19521097 # occ.  1.00000000
 
ion      s     py     pz     px    dxy    dyz    dz2    dxz  x2-y2    tot
    1  0.000  0.035  0.004  0.016  0.029  0.075  0.685  0.012  0.075  0.931
 
band     3 # energy    9.19730361 # occ.  1.00000000
 
ion      s     py     pz     px    dxy    dyz    dz2    dxz  x2-y2    tot
    1  0.003  0.040  0.057  0.064  0.297  0.333  0.061  0.006  0.078  0.939
 
band     4 # energy    9.28636299 # occ.  1.00000000
 
ion      s     py     pz     px    dxy    dyz    dz2    dxz  x2-y2    tot
    1  0.001  0.015  0.026  0.002  0.128  0.000  0.027  0.256  0.510  0.964
 
band     5 # energy   11.14883729 # occ.  1.00000000
 
ion      s     py     pz     px    dxy    dyz    dz2    dxz  x2-y2    tot
    1  0.000  0.000  0.000  0.000  0.037  0.170  0.031  0.463  0.288  0.991
 
band     6 # energy   14.38423042 # occ.  0.00000000
 
ion      s     py     pz     px    dxy    dyz    dz2    dxz  x2-y2    tot
    1  0.011  0.138  0.198  0.141  0.066  0.114  0.171  0.015  0.022  0.877
 
band     7 # energy   19.10592464 # occ.  0.00000000
 
ion      s     py     pz     px    dxy    dyz    dz2    dxz  x2-y2    tot
    1  0.414  0.015  0.013  0.058  0.178  0.132  0.001  0.130  0.001  0.941
 
band     8 # energy   30.61963895 # occ.  0.00000000
 
ion      s     py     pz     px    dxy    dyz    dz2    dxz  x2-y2    tot