<?xml version="1.0" encoding="ISO-8859-1"?>
<modeling>
 <generator>
  <i name="program" type="string">vasp </i>
  <i name="version" type="string">6.3.2  </i>
  <i name="subversion" type="string">27Jun22 (build Aug 12 2022 00:53:59) complex                          parallel </i>
  <i name="platform" type="string">tv2STD </i>
  <i name="date" type="string">2024 12 03 </i>
  <i name="time" type="string">02:19:01 </i>
 </generator>
 <incar>
  <i type="string" name="SYSTEM">Co-fcc</i>
  <i type="int" name="ISTART">     0</i>
  <i type="string" name="PREC">Accurate      normal | accurate</i>
  <i type="string" name="ALGO">Normal     Normal, Fast, Very_Fast</i>
  <i type="logical" name="ADDGRID"> F  </i>
  <i type="int" name="ISPIN">     2</i>
  <i type="int" name="ICHARG">     2</i>
  <i type="int" name="INIWAV">     1</i>
  <i type="int" name="NELM">   100</i>
  <i type="int" name="IBRION">     2</i>
  <i name="EDIFF">      0.00000100</i>
  <i name="EDIFFG">     -0.02000000</i>
  <i type="int" name="NSW">   100</i>
  <i type="int" name="ISIF">     2</i>
  <i type="int" name="ISYM">     1</i>
  <i name="ENCUT">    400.00000000</i>
  <v name="MAGMOM">      3.00000000</v>
  <i type="logical" name="LREAL"> F  </i>
  <i type="int" name="ISMEAR">     0</i>
  <i name="SIGMA">      0.05000000</i>
  <i type="int" name="NWRITE">     2</i>
  <i type="logical" name="LWAVE"> T  </i>
  <i type="logical" name="LCHARG"> T  </i>
  <i type="int" name="LORBIT">    11</i>
 </incar>
 <primitive_cell>
  <structure name="primitive_cell" >
   <crystal>
    <varray name="basis" >
     <v>       0.00000000       1.70163953       1.70163953 </v>
     <v>       1.70163953       0.00000000       1.70163953 </v>
     <v>       1.70163953       1.70163953       0.00000000 </v>
    </varray>
    <i name="volume">      9.85445688 </i>
    <varray name="rec_basis" >
     <v>      -0.29383426       0.29383426       0.29383426 </v>
     <v>       0.29383426      -0.29383426       0.29383426 </v>
     <v>       0.29383426       0.29383426      -0.29383426 </v>
    </varray>
   </crystal>
   <varray name="positions" >
    <v>       0.00000000       0.00000000       0.00000000 </v>
   </varray>
  </structure>
  <varray name="primitive_index" >
   <v type="int" >        1 </v>
  </varray>
 </primitive_cell>
 <kpoints>
  <generation param="Monkhorst-Pack">
   <v type="int" name="divisions">       8        8        8 </v>
   <v name="usershift">      0.00000000       0.00000000       0.00000000 </v>
   <v name="genvec1">      0.12500000       0.00000000       0.00000000 </v>
   <v name="genvec2">      0.00000000       0.12500000       0.00000000 </v>
   <v name="genvec3">      0.00000000       0.00000000       0.12500000 </v>
   <v name="shift">      0.50000000       0.50000000       0.50000000 </v>
  </generation>
  <varray name="kpointlist" >
   <v>       0.06250000       0.06250000       0.06250000 </v>
   <v>       0.18750000       0.06250000       0.06250000 </v>
   <v>       0.31250000       0.06250000       0.06250000 </v>
   <v>       0.43750000       0.06250000       0.06250000 </v>
   <v>      -0.43750000       0.06250000       0.06250000 </v>
   <v>      -0.31250000       0.06250000       0.06250000 </v>
   <v>      -0.18750000       0.06250000       0.06250000 </v>
   <v>      -0.06250000       0.06250000       0.06250000 </v>
   <v>       0.18750000       0.18750000       0.06250000 </v>
   <v>       0.31250000       0.18750000       0.06250000 </v>
   <v>       0.43750000       0.18750000       0.06250000 </v>
   <v>      -0.43750000       0.18750000       0.06250000 </v>
   <v>      -0.31250000       0.18750000       0.06250000 </v>
   <v>      -0.18750000       0.18750000       0.06250000 </v>
   <v>      -0.06250000       0.18750000       0.06250000 </v>
   <v>       0.31250000       0.31250000       0.06250000 </v>
   <v>       0.43750000       0.31250000       0.06250000 </v>
   <v>      -0.43750000       0.31250000       0.06250000 </v>
   <v>      -0.31250000       0.31250000       0.06250000 </v>
   <v>      -0.18750000       0.31250000       0.06250000 </v>
   <v>      -0.06250000       0.31250000       0.06250000 </v>
   <v>       0.43750000       0.43750000       0.06250000 </v>
   <v>      -0.43750000       0.43750000       0.06250000 </v>
   <v>      -0.31250000       0.43750000       0.06250000 </v>
   <v>      -0.18750000       0.43750000       0.06250000 </v>
   <v>      -0.06250000       0.43750000       0.06250000 </v>
   <v>      -0.43750000      -0.43750000       0.06250000 </v>
   <v>      -0.31250000      -0.43750000       0.06250000 </v>
   <v>      -0.18750000      -0.43750000       0.06250000 </v>
   <v>      -0.31250000      -0.31250000       0.06250000 </v>
   <v>      -0.18750000      -0.31250000       0.06250000 </v>
   <v>      -0.18750000      -0.18750000       0.06250000 </v>
   <v>       0.18750000       0.18750000       0.18750000 </v>
   <v>       0.31250000       0.18750000       0.18750000 </v>
   <v>       0.43750000       0.18750000       0.18750000 </v>
   <v>      -0.43750000       0.18750000       0.18750000 </v>
   <v>      -0.31250000       0.18750000       0.18750000 </v>
   <v>      -0.18750000       0.18750000       0.18750000 </v>
   <v>       0.31250000       0.31250000       0.18750000 </v>
   <v>       0.43750000       0.31250000       0.18750000 </v>
   <v>      -0.43750000       0.31250000       0.18750000 </v>
   <v>      -0.31250000       0.31250000       0.18750000 </v>
   <v>      -0.18750000       0.31250000       0.18750000 </v>
   <v>       0.43750000       0.43750000       0.18750000 </v>
   <v>      -0.43750000       0.43750000       0.18750000 </v>
   <v>      -0.31250000       0.43750000       0.18750000 </v>
   <v>      -0.18750000       0.43750000       0.18750000 </v>
   <v>      -0.43750000      -0.43750000       0.18750000 </v>
   <v>      -0.31250000      -0.43750000       0.18750000 </v>
   <v>      -0.31250000      -0.31250000       0.18750000 </v>
   <v>       0.31250000       0.31250000       0.31250000 </v>
   <v>       0.43750000       0.31250000       0.31250000 </v>
   <v>      -0.43750000       0.31250000       0.31250000 </v>
   <v>      -0.31250000       0.31250000       0.31250000 </v>
   <v>       0.43750000       0.43750000       0.31250000 </v>
   <v>      -0.43750000       0.43750000       0.31250000 </v>
   <v>      -0.31250000       0.43750000       0.31250000 </v>
   <v>      -0.43750000      -0.43750000       0.31250000 </v>
   <v>       0.43750000       0.43750000       0.43750000 </v>
   <v>      -0.43750000       0.43750000       0.43750000 </v>
  </varray>
  <varray name="weights" >
   <v>       0.00390625 </v>
   <v>       0.01171875 </v>
   <v>       0.01171875 </v>
   <v>       0.01171875 </v>
   <v>       0.01171875 </v>
   <v>       0.01171875 </v>
   <v>       0.01171875 </v>
   <v>       0.01171875 </v>
   <v>       0.01171875 </v>
   <v>       0.02343750 </v>
   <v>       0.02343750 </v>
   <v>       0.02343750 </v>
   <v>       0.02343750 </v>
   <v>       0.02343750 </v>
   <v>       0.02343750 </v>
   <v>       0.01171875 </v>
   <v>       0.02343750 </v>
   <v>       0.02343750 </v>
   <v>       0.02343750 </v>
   <v>       0.02343750 </v>
   <v>       0.02343750 </v>
   <v>       0.01171875 </v>
   <v>       0.02343750 </v>
   <v>       0.02343750 </v>
   <v>       0.02343750 </v>
   <v>       0.02343750 </v>
   <v>       0.01171875 </v>
   <v>       0.02343750 </v>
   <v>       0.02343750 </v>
   <v>       0.01171875 </v>
   <v>       0.02343750 </v>
   <v>       0.01171875 </v>
   <v>       0.00390625 </v>
   <v>       0.01171875 </v>
   <v>       0.01171875 </v>
   <v>       0.01171875 </v>
   <v>       0.01171875 </v>
   <v>       0.01171875 </v>
   <v>       0.01171875 </v>
   <v>       0.02343750 </v>
   <v>       0.02343750 </v>
   <v>       0.02343750 </v>
   <v>       0.02343750 </v>
   <v>       0.01171875 </v>
   <v>       0.02343750 </v>
   <v>       0.02343750 </v>
   <v>       0.02343750 </v>
   <v>       0.01171875 </v>
   <v>       0.02343750 </v>
   <v>       0.01171875 </v>
   <v>       0.00390625 </v>
   <v>       0.01171875 </v>
   <v>       0.01171875 </v>
   <v>       0.01171875 </v>
   <v>       0.01171875 </v>
   <v>       0.02343750 </v>
   <v>       0.02343750 </v>
   <v>       0.01171875 </v>
   <v>       0.00390625 </v>
   <v>       0.01171875 </v>
  </varray>
 </kpoints>
 <parameters>
  <separator name="general" >
   <i type="string" name="SYSTEM">Co-fcc</i>
   <i type="logical" name="LCOMPAT"> F  </i>
  </separator>
  <separator name="electronic" >
   <i type="string" name="PREC">accura</i>
   <i name="ENMAX">    400.00000000</i>
   <i name="ENAUG">    477.81800000</i>
   <i name="EDIFF">      0.00000100</i>
   <i type="int" name="IALGO">    38</i>
   <i type="int" name="IWAVPR">    11</i>
   <i type="int" name="NBANDS">    12</i>
   <i type="int" name="NBANDSLOW">    -1</i>
   <i type="int" name="NBANDSHIGH">    -1</i>
   <i name="NELECT">      9.00000000</i>
   <i type="int" name="TURBO">     0</i>
   <i type="int" name="IRESTART">     0</i>
   <i type="int" name="NREBOOT">     0</i>
   <i type="int" name="NMIN">     0</i>
   <i name="EREF">      0.00000000</i>
   <separator name="electronic smearing" >
    <i type="int" name="ISMEAR">     0</i>
    <i name="SIGMA">      0.05000000</i>
    <i name="KSPACING">      0.50000000</i>
    <i type="logical" name="KGAMMA"> T  </i>
    <i type="logical" name="KBLOWUP"> T  </i>
   </separator>
   <separator name="electronic projectors" >
    <i type="logical" name="LREAL"> F  </i>
    <v name="ROPT">      0.00000000</v>
    <i type="int" name="LMAXPAW">  -100</i>
    <i type="int" name="LMAXMIX">     2</i>
    <i type="logical" name="NLSPLINE"> F  </i>
   </separator>
   <separator name="electronic startup" >
    <i type="int" name="ISTART">     0</i>
    <i type="int" name="ICHARG">     2</i>
    <i type="int" name="INIWAV">     1</i>
   </separator>
   <separator name="electronic spin" >
    <i type="int" name="ISPIN">     2</i>
    <i type="logical" name="LNONCOLLINEAR"> F  </i>
    <v name="MAGMOM">      3.00000000</v>
    <i name="NUPDOWN">     -1.00000000</i>
    <i type="logical" name="LSORBIT"> F  </i>
    <v name="SAXIS">      0.00000000      0.00000000      1.00000000</v>
    <i type="logical" name="LSPIRAL"> F  </i>
    <v name="QSPIRAL">      0.00000000      0.00000000      0.00000000</v>
    <i type="logical" name="LZEROZ"> F  </i>
   </separator>
   <separator name="electronic exchange-correlation" >
    <i type="logical" name="LASPH"> F  </i>
    <i type="logical" name="LMETAGGA"> F  </i>
   </separator>
   <separator name="electronic convergence" >
    <i type="int" name="NELM">   100</i>
    <i type="int" name="NELMDL">    -5</i>
    <i type="int" name="NELMIN">     2</i>
    <i name="ENINI">    400.00000000</i>
    <separator name="electronic convergence detail" >
     <i type="logical" name="LDIAG"> T  </i>
     <i type="logical" name="LSUBROT"> F  </i>
     <i name="WEIMIN">      0.00100000</i>
     <i name="EBREAK">      0.00000002</i>
     <i name="DEPER">      0.30000000</i>
     <i type="int" name="NRMM">     4</i>
     <i name="TIME">      0.40000000</i>
    </separator>
   </separator>
   <separator name="electronic mixer" >
    <i name="AMIX">      0.40000000</i>
    <i name="BMIX">      1.00000000</i>
    <i name="AMIN">      0.10000000</i>
    <i name="AMIX_MAG">      1.60000000</i>
    <i name="BMIX_MAG">      1.00000000</i>
    <separator name="electronic mixer details" >
     <i type="int" name="IMIX">     4</i>
     <i type="logical" name="MIXFIRST"> F  </i>
     <i type="int" name="MAXMIX">   -45</i>
     <i name="WC">    100.00000000</i>
     <i type="int" name="INIMIX">     1</i>
     <i type="int" name="MIXPRE">     1</i>
     <i type="int" name="MREMOVE">     5</i>
    </separator>
   </separator>
   <separator name="electronic dipolcorrection" >
    <i type="logical" name="LDIPOL"> F  </i>
    <i type="logical" name="LMONO"> F  </i>
    <i type="int" name="IDIPOL">     0</i>
    <i name="EPSILON">      1.00000000</i>
    <v name="DIPOL">   -100.00000000   -100.00000000   -100.00000000</v>
    <i name="EFIELD">      0.00000000</i>
   </separator>
  </separator>
  <separator name="grids" >
   <i type="int" name="NGX">    16</i>
   <i type="int" name="NGY">    16</i>
   <i type="int" name="NGZ">    16</i>
   <i type="int" name="NGXF">    32</i>
   <i type="int" name="NGYF">    32</i>
   <i type="int" name="NGZF">    32</i>
   <i type="logical" name="ADDGRID"> F  </i>
  </separator>
  <separator name="ionic" >
   <i type="int" name="NSW">   100</i>
   <i type="int" name="IBRION">     2</i>
   <i type="int" name="MDALGO">     0</i>
   <i type="int" name="ISIF">     2</i>
   <i name="PSTRESS">      0.00000000</i>
   <i name="EDIFFG">     -0.02000000</i>
   <i type="int" name="NFREE">     1</i>
   <i name="POTIM">      0.50000000</i>
   <i name="SMASS">     -3.00000000</i>
   <i name="SCALEE">      1.00000000</i>
  </separator>
  <separator name="ionic md" >
   <i name="TEBEG">      0.00010000</i>
   <i name="TEEND">      0.00010000</i>
   <i type="int" name="NBLOCK">     1</i>
   <i type="int" name="KBLOCK">   100</i>
   <i type="int" name="NPACO">   256</i>
   <i name="APACO">     10.00000000</i>
  </separator>
  <separator name="symmetry" >
   <i type="int" name="ISYM">     1</i>
   <i name="SYMPREC">      0.00001000</i>
  </separator>
  <separator name="dos" >
   <i type="int" name="LORBIT">    11</i>
   <v name="RWIGS">     -1.00000000</v>
   <i type="int" name="NEDOS">   301</i>
   <i name="EMIN">     10.00000000</i>
   <i name="EMAX">    -10.00000000</i>
   <i name="EFERMI">      0.00000000</i>
  </separator>
  <separator name="writing" >
   <i type="int" name="NWRITE">     2</i>
   <i type="logical" name="LWAVE"> T  </i>
   <i type="logical" name="LDOWNSAMPLE"> F  </i>
   <i type="logical" name="LCHARG"> T  </i>
   <i type="logical" name="LPARD"> F  </i>
   <i type="logical" name="LVTOT"> F  </i>
   <i type="logical" name="LVHAR"> F  </i>
   <i type="logical" name="LELF"> F  </i>
   <i type="logical" name="LOPTICS"> F  </i>
   <v name="STM">      0.00000000      0.00000000      0.00000000      0.00000000      0.00000000      0.00000000      0.00000000</v>
  </separator>
  <separator name="performance" >
   <i type="int" name="NPAR">     4</i>
   <i type="int" name="NSIM">     4</i>
   <i type="int" name="NBLK">    -1</i>
   <i type="logical" name="LPLANE"> T  </i>
   <i type="logical" name="LSCALAPACK"> T  </i>
   <i type="logical" name="LSCAAWARE"> T  </i>
   <i type="logical" name="LSCALU"> F  </i>
   <i type="logical" name="LASYNC"> F  </i>
   <i type="logical" name="LORBITALREAL"> F  </i>
  </separator>
  <separator name="miscellaneous" >
   <i type="int" name="IDIOT">     3</i>
   <i type="int" name="PHON_NSTRUCT">    -1</i>
   <i type="logical" name="LMUSIC"> F  </i>
   <v name="POMASS">     58.93300000</v>
   <v name="DARWINR">      0.00000000</v>
   <v name="DARWINV">      1.00000000</v>
   <i type="logical" name="LCORR"> T  </i>
  </separator>
  <i type="logical" name="GGA_COMPAT"> T  </i>
  <i type="logical" name="LBERRY"> F  </i>
  <i type="int" name="ICORELEVEL">     0</i>
  <i type="logical" name="LDAU"> F  </i>
  <i type="int" name="I_CONSTRAINED_M">     0</i>
  <separator name="electronic exchange-correlation" >
   <i type="string" name="GGA">--</i>
   <i type="int" name="VOSKOWN">     0</i>
   <i type="logical" name="LHFCALC"> F  </i>
   <i type="string" name="PRECFOCK"></i>
   <i type="logical" name="LSYMGRAD"> F  </i>
   <i type="logical" name="LHFONE"> F  </i>
   <i type="logical" name="LRHFCALC"> F  </i>
   <i type="logical" name="LTHOMAS"> F  </i>
   <i type="logical" name="LMODELHF"> F  </i>
   <i type="logical" name="LFOCKACE"> F  </i>
   <i name="ENCUT4O">     -1.00000000</i>
   <i type="int" name="EXXOEP">     0</i>
   <i type="int" name="FOURORBIT">     0</i>
   <i name="AEXX">      0.00000000</i>
   <i name="HFALPHA">      0.00000000</i>
   <i name="MCALPHA">      0.00000000</i>
   <i name="ALDAX">      1.00000000</i>
   <i name="AGGAX">      1.00000000</i>
   <i name="ALDAC">      1.00000000</i>
   <i name="AGGAC">      1.00000000</i>
   <i type="int" name="NKREDX">     1</i>
   <i type="int" name="NKREDY">     1</i>
   <i type="int" name="NKREDZ">     1</i>
   <i type="logical" name="SHIFTRED"> F  </i>
   <i type="logical" name="ODDONLY"> F  </i>
   <i type="logical" name="EVENONLY"> F  </i>
   <i type="int" name="LMAXFOCK">     0</i>
   <i type="int" name="NMAXFOCKAE">     0</i>
   <i type="logical" name="LFOCKAEDFT"> F  </i>
   <i name="HFSCREEN">      0.00000000</i>
   <i name="HFSCREENC">      0.00000000</i>
   <i type="int" name="NBANDSGWLOW">     0</i>
  </separator>
  <separator name="vdW DFT" >
   <i type="logical" name="LUSE_VDW"> F  </i>
   <i name="Zab_VDW">     -0.84910000</i>
   <i name="PARAM1">      0.12340000</i>
   <i name="PARAM2">      1.00000000</i>
   <i name="PARAM3">      0.00000000</i>
  </separator>
  <separator name="model GW" >
   <i type="int" name="MODEL_GW">     0</i>
   <i name="MODEL_EPS0">      5.91267413</i>
   <i name="MODEL_ALPHA">      1.00000000</i>
  </separator>
  <separator name="linear response parameters" >
   <i type="logical" name="LEPSILON"> F  </i>
   <i type="logical" name="LRPA"> F  </i>
   <i type="logical" name="LNABLA"> F  </i>
   <i type="logical" name="LVEL"> F  </i>
   <i name="CSHIFT">      0.10000000</i>
   <i name="OMEGAMAX">     -1.00000000</i>
   <i name="DEG_THRESHOLD">      0.00200000</i>
   <i name="RTIME">     -0.10000000</i>
   <i name="WPLASMAI">      0.00000000</i>
   <v name="DFIELD">      0.00000000      0.00000000      0.00000000</v>
   <v name="WPLASMA">      0.00000000      0.00000000      0.00000000      0.00000000      0.00000000      0.00000000      0.00000000      0.00000000      0.00000000</v>
  </separator>
  <separator name="orbital magnetization" >
   <i type="logical" name="NUCIND"> F  </i>
   <v name="MAGPOS">      0.00000000      0.00000000      0.00000000</v>
   <i type="logical" name="LNICSALL"> T  </i>
   <i type="logical" name="ORBITALMAG"> F  </i>
   <i type="logical" name="LMAGBLOCH"> F  </i>
   <i type="logical" name="LCHIMAG"> F  </i>
   <i type="logical" name="LGAUGE"> T  </i>
   <i type="int" name="MAGATOM">     0</i>
   <v name="MAGDIPOL">      0.00000000      0.00000000      0.00000000</v>
   <v name="AVECCONST">      0.00000000      0.00000000      0.00000000</v>
  </separator>
  <separator name="response functions" >
   <i type="logical" name="LFINITE_TEMPERATURE"> F  </i>
   <i type="logical" name="LADDER"> F  </i>
   <i type="logical" name="LRPAFORCE"> F  </i>
   <i type="logical" name="LFXC"> F  </i>
   <i type="logical" name="LHARTREE"> T  </i>
   <i type="int" name="IBSE">     0</i>
   <v type="int" name="KPOINT">    -1     0     0     0</v>
   <i type="logical" name="LTCTC"> F  </i>
   <i type="logical" name="LTCTE"> F  </i>
   <i type="logical" name="LTETE"> F  </i>
   <i type="logical" name="LTRIPLET"> F  </i>
   <i type="logical" name="LFXCEPS"> F  </i>
   <i type="logical" name="LFXHEG"> F  </i>
   <i type="int" name="NATURALO">     2</i>
   <i type="logical" name="LHOLEGF"> F  </i>
   <i type="logical" name="L2ORDER"> F  </i>
   <i type="logical" name="LDMP1"> F  </i>
   <i type="logical" name="LMP2LT"> F  </i>
   <i type="logical" name="LSMP2LT"> F  </i>
   <i type="logical" name="LGWLF"> F  </i>
   <i name="ENCUTGW">     -2.00000000</i>
   <i name="ENCUTGWSOFT">     -2.00000000</i>
   <i name="ENCUTLF">     -1.00000000</i>
   <i type="logical" name="LESF_SPLINES"> F  </i>
   <i type="int" name="LMAXMP2">    -1</i>
   <i name="SCISSOR">      0.00000000</i>
   <i type="int" name="NOMEGA">     0</i>
   <i type="int" name="NOMEGAR">     0</i>
   <i type="int" name="NBANDSGW">    -1</i>
   <i type="int" name="NBANDSO">    -1</i>
   <i type="int" name="NBANDSV">    -1</i>
   <i type="int" name="NELMGW">     1</i>
   <i type="int" name="NELMHF">     1</i>
   <i type="int" name="DIM">     3</i>
   <i type="int" name="IESPILON">     4</i>
   <i type="int" name="ANTIRES">     0</i>
   <i name="OMEGAMAX">    -30.00000000</i>
   <i name="OMEGAMIN">    -30.00000000</i>
   <i name="OMEGATL">   -200.00000000</i>
   <i type="int" name="OMEGAGRID">     0</i>
   <i name="CSHIFT">     -0.10000000</i>
   <i type="logical" name="LSELFENERGY"> F  </i>
   <i type="logical" name="LSPECTRAL"> F  </i>
   <i type="logical" name="LSPECTRALGW"> F  </i>
   <i type="logical" name="LSINGLES"> F  </i>
   <i type="logical" name="LFERMIGW"> F  </i>
   <i type="logical" name="ODDONLYGW"> F  </i>
   <i type="logical" name="EVENONLYGW"> F  </i>
   <i type="int" name="NKREDLFX">     1</i>
   <i type="int" name="NKREDLFY">     1</i>
   <i type="int" name="NKREDLFZ">     1</i>
   <i type="int" name="MAXMEM">  2800</i>
   <i type="int" name="TELESCOPE">     0</i>
   <i type="int" name="NTAUPAR">    -1</i>
   <i type="int" name="NOMEGAPAR">    -1</i>
   <i name="DAMP_NEWTON">      0.80000001</i>
   <i name="LAMBDA">      1.00000000</i>
  </separator>
  <separator name="External order field" >
   <i name="OFIELD_KAPPA">      0.00000000</i>
   <v name="OFIELD_K">      0.00000000      0.00000000      0.00000000</v>
   <i name="OFIELD_Q6_NEAR">      0.00000000</i>
   <i name="OFIELD_Q6_FAR">      0.00000000</i>
   <i name="OFIELD_A">      0.00000000</i>
  </separator>
  <separator name="optional k-points parameters" >
   <i type="int" name="KPOINTS_OPT_MODE">     1</i>
   <i type="logical" name="LKPOINTS_OPT"> F  </i>
  </separator>
 </parameters>
 <atominfo>
  <atoms>       1 </atoms>
  <types>       1 </types>
  <array name="atoms" >
   <dimension dim="1">ion</dimension>
   <field type="string">element</field>
   <field type="int">atomtype</field>
   <set>
    <rc><c>Co</c><c>   1</c></rc>
   </set>
  </array>
  <array name="atomtypes" >
   <dimension dim="1">type</dimension>
   <field type="int">atomspertype</field>
   <field type="string">element</field>
   <field>mass</field>
   <field>valence</field>
   <field type="string">pseudopotential</field>
   <set>
    <rc><c>   1</c><c>Co</c><c>     58.93300000</c><c>      9.00000000</c><c>  PAW_PBE Co 02Aug2007                  </c></rc>
   </set>
  </array>
 </atominfo>
 <structure name="initialpos" >
  <crystal>
   <varray name="basis" >
    <v>       0.00000000       1.70163953       1.70163953 </v>
    <v>       1.70163953       0.00000000       1.70163953 </v>
    <v>       1.70163953       1.70163953       0.00000000 </v>
   </varray>
   <i name="volume">      9.85445688 </i>
   <varray name="rec_basis" >
    <v>      -0.29383426       0.29383426       0.29383426 </v>
    <v>       0.29383426      -0.29383426       0.29383426 </v>
    <v>       0.29383426       0.29383426      -0.29383426 </v>
   </varray>
  </crystal>
  <varray name="positions" >
   <v>       0.00000000       0.00000000       0.00000000 </v>
  </varray>
 </structure>
 <calculation>
  <scstep>
   <time name="dav">    0.26    0.26</time>
   <time name="total">    0.27    0.27</time>
   <energy>
    <i name="alphaZ">     42.98328302 </i>
    <i name="ewald">   -785.66934823 </i>
    <i name="hartreedc">   -139.83518292 </i>
    <i name="XCdc">     18.14068574 </i>
    <i name="pawpsdc">    719.99081943 </i>
    <i name="pawaedc">   -772.94345096 </i>
    <i name="eentropy">     -0.00163598 </i>
    <i name="bandstr">    126.85970306 </i>
    <i name="atom">    813.35773410 </i>
    <i name="e_fr_energy">     22.88260727 </i>
    <i name="e_wo_entrp">     22.88424324 </i>
    <i name="e_0_energy">     22.88342526 </i>
   </energy>
  </scstep>
  <scstep>
   <time name="dav">    0.26    0.26</time>
   <time name="total">    0.26    0.26</time>
   <energy>
    <i name="e_fr_energy">     -6.88512325 </i>
    <i name="e_wo_entrp">     -6.88382072 </i>
    <i name="e_0_energy">     -6.88447199 </i>
   </energy>
  </scstep>
  <scstep>
   <time name="dav">    0.27    0.27</time>
   <time name="total">    0.27    0.27</time>
   <energy>
    <i name="e_fr_energy">     -7.62401162 </i>
    <i name="e_wo_entrp">     -7.62268110 </i>
    <i name="e_0_energy">     -7.62334636 </i>
   </energy>
  </scstep>
  <scstep>
   <time name="dav">    0.27    0.28</time>
   <time name="total">    0.27    0.28</time>
   <energy>
    <i name="e_fr_energy">     -7.63021359 </i>
    <i name="e_wo_entrp">     -7.62887603 </i>
    <i name="e_0_energy">     -7.62954481 </i>
   </energy>
  </scstep>
  <scstep>
   <time name="dav">    0.30    0.30</time>
   <time name="total">    0.31    0.31</time>
   <energy>
    <i name="e_fr_energy">     -7.63032527 </i>
    <i name="e_wo_entrp">     -7.62898741 </i>
    <i name="e_0_energy">     -7.62965634 </i>
   </energy>
  </scstep>
  <scstep>
   <time name="dav">    0.29    0.29</time>
   <time name="total">    0.31    0.31</time>
   <energy>
    <i name="e_fr_energy">     -7.06454583 </i>
    <i name="e_wo_entrp">     -7.06293864 </i>
    <i name="e_0_energy">     -7.06374224 </i>
   </energy>
  </scstep>
  <scstep>
   <time name="dav">    0.28    0.28</time>
   <time name="total">    0.29    0.29</time>
   <energy>
    <i name="e_fr_energy">     -6.96808242 </i>
    <i name="e_wo_entrp">     -6.96707740 </i>
    <i name="e_0_energy">     -6.96757991 </i>
   </energy>
  </scstep>
  <scstep>
   <time name="dav">    0.30    0.30</time>
   <time name="total">    0.32    0.32</time>
   <energy>
    <i name="e_fr_energy">     -6.95303800 </i>
    <i name="e_wo_entrp">     -6.95202409 </i>
    <i name="e_0_energy">     -6.95253104 </i>
   </energy>
  </scstep>
  <scstep>
   <time name="dav">    0.34    0.35</time>
   <time name="total">    0.36    0.36</time>
   <energy>
    <i name="e_fr_energy">     -6.94812047 </i>
    <i name="e_wo_entrp">     -6.94709651 </i>
    <i name="e_0_energy">     -6.94760849 </i>
   </energy>
  </scstep>
  <scstep>
   <time name="dav">    0.31    0.31</time>
   <time name="total">    0.32    0.33</time>
   <energy>
    <i name="e_fr_energy">     -6.94770717 </i>
    <i name="e_wo_entrp">     -6.94668130 </i>
    <i name="e_0_energy">     -6.94719424 </i>
   </energy>
  </scstep>
  <scstep>
   <time name="dav">    0.28    0.28</time>
   <time name="total">    0.30    0.30</time>
   <energy>
    <i name="e_fr_energy">     -6.94770985 </i>
    <i name="e_wo_entrp">     -6.94668371 </i>
    <i name="e_0_energy">     -6.94719678 </i>
   </energy>
  </scstep>
  <scstep>
   <time name="dav">    0.27    0.27</time>
   <time name="total">    0.28    0.28</time>
   <energy>
    <i name="alphaZ">     42.98328302 </i>
    <i name="ewald">   -785.66934823 </i>
    <i name="hartreedc">   -122.26271951 </i>
    <i name="XCdc">     16.69268177 </i>
    <i name="pawpsdc">    963.26455174 </i>
    <i name="pawaedc">  -1016.79002290 </i>
    <i name="eentropy">     -0.00102658 </i>
    <i name="bandstr">     81.47715693 </i>
    <i name="atom">    813.35773410 </i>
    <i name="e_fr_energy">     -6.94770965 </i>
    <i name="e_wo_entrp">     -6.94668307 </i>
    <i name="e_0_energy">     -6.94719636 </i>
   </energy>
  </scstep>
  <structure>
   <crystal>
    <varray name="basis" >
     <v>       0.00000000       1.70163953       1.70163953 </v>
     <v>       1.70163953       0.00000000       1.70163953 </v>
     <v>       1.70163953       1.70163953       0.00000000 </v>
    </varray>
    <i name="volume">      9.85445688 </i>
    <varray name="rec_basis" >
     <v>      -0.29383426       0.29383426       0.29383426 </v>
     <v>       0.29383426      -0.29383426       0.29383426 </v>
     <v>       0.29383426       0.29383426      -0.29383426 </v>
    </varray>
   </crystal>
   <varray name="positions" >
    <v>       0.00000000       0.00000000       0.00000000 </v>
   </varray>
  </structure>
  <varray name="forces" >
   <v>       0.00000000       0.00000000       0.00000000 </v>
  </varray>
  <varray name="stress" >
   <v>     253.94762103       0.00000000      -0.00000000 </v>
   <v>       0.00000000     253.94762103       0.00000000 </v>
   <v>      -0.00000000       0.00000000     253.94762103 </v>
  </varray>
  <energy>
   <i name="e_fr_energy">     -6.94770965 </i>
   <i name="e_wo_entrp">     -6.94668307 </i>
   <i name="e_0_energy">     -6.94719636 </i>
  </energy>
  <time name="totalsc">    3.69    3.81</time>
  <eigenvalues>
   <array>
    <dimension dim="1">band</dimension>
    <dimension dim="2">kpoint</dimension>
    <dimension dim="3">spin</dimension>
    <field>eigene</field>
    <field>occ</field>
    <set>
     <set comment="spin 1">
      <set comment="kpoint 1">
       <r>    2.3599    1.0000 </r>
       <r>    8.8581    1.0000 </r>
       <r>    8.9531    1.0000 </r>
       <r>    8.9531    1.0000 </r>
       <r>   10.1656    1.0000 </r>
       <r>   10.1656    1.0000 </r>
       <r>   35.3655    0.0000 </r>
       <r>   38.8881    0.0000 </r>
       <r>   40.5094    0.0000 </r>
       <r>   40.5094    0.0000 </r>
       <r>   44.7993    0.0000 </r>
       <r>   44.7997    0.0000 </r>
      </set>
      <set comment="kpoint 2">
       <r>    3.2184    1.0000 </r>
       <r>    8.6072    1.0000 </r>
       <r>    9.1370    1.0000 </r>
       <r>    9.1417    1.0000 </r>
       <r>    9.9813    1.0000 </r>
       <r>   10.2669    1.0000 </r>
       <r>   32.8777    0.0000 </r>
       <r>   35.5662    0.0000 </r>
       <r>   39.2416    0.0000 </r>
       <r>   41.5800    0.0000 </r>
       <r>   43.3729    0.0000 </r>
       <r>   44.8757    0.0000 </r>
      </set>
      <set comment="kpoint 3">
       <r>    4.9834    1.0000 </r>
       <r>    8.4783    1.0000 </r>
       <r>    9.0757    1.0000 </r>
       <r>    9.1634    1.0000 </r>
       <r>   10.2197    1.0000 </r>
       <r>   10.7258    1.0000 </r>
       <r>   26.6733    0.0000 </r>
       <r>   34.3811    0.0000 </r>
       <r>   38.2006    0.0000 </r>
       <r>   41.3636    0.0000 </r>
       <r>   42.5448    0.0000 </r>
       <r>   43.3747    0.0000 </r>
      </set>
      <set comment="kpoint 4">
       <r>    6.0880    1.0000 </r>
       <r>    8.8089    1.0000 </r>
       <r>    8.9258    1.0000 </r>
       <r>    9.6678    1.0000 </r>
       <r>   10.8632    1.0000 </r>
       <r>   11.5932    1.0000 </r>
       <r>   21.1357    0.0000 </r>
       <r>   33.7105    0.0000 </r>
       <r>   37.0327    0.0000 </r>
       <r>   39.1691    0.0000 </r>
       <r>   41.6270    0.0000 </r>
       <r>   43.2092    0.0000 </r>
      </set>
      <set comment="kpoint 5">
       <r>    6.1933    1.0000 </r>
       <r>    8.6975    1.0000 </r>
       <r>    8.8641    1.0000 </r>
       <r>   10.3237    1.0000 </r>
       <r>   11.1936    1.0000 </r>
       <r>   12.3456    0.0000 </r>
       <r>   18.9411    0.0000 </r>
       <r>   33.6738    0.0000 </r>
       <r>   37.1774    0.0000 </r>
       <r>   37.3416    0.0000 </r>
       <r>   42.4723    0.0000 </r>
       <r>   42.4992    0.0000 </r>
      </set>
      <set comment="kpoint 6">
       <r>    5.8898    1.0000 </r>
       <r>    8.8504    1.0000 </r>
       <r>    9.0289    1.0000 </r>
       <r>    9.0884    1.0000 </r>
       <r>   10.9542    1.0000 </r>
       <r>   11.0015    1.0000 </r>
       <r>   22.8092    0.0000 </r>
       <r>   34.4299    0.0000 </r>
       <r>   36.6158    0.0000 </r>
       <r>   39.2354    0.0000 </r>
       <r>   42.2214    0.0000 </r>
       <r>   44.2448    0.0000 </r>
      </set>
      <set comment="kpoint 7">
       <r>    4.3581    1.0000 </r>
       <r>    8.4219    1.0000 </r>
       <r>    9.1495    1.0000 </r>
       <r>    9.2176    1.0000 </r>
       <r>   10.1390    1.0000 </r>
       <r>   10.4468    1.0000 </r>
       <r>   28.7466    0.0000 </r>
       <r>   35.6282    0.0000 </r>
       <r>   37.1713    0.0000 </r>
       <r>   41.6917    0.0000 </r>
       <r>   42.1480    0.0000 </r>
       <r>   46.4548    0.0000 </r>
      </set>
      <set comment="kpoint 8">
       <r>    2.7972    1.0000 </r>
       <r>    8.6897    1.0000 </r>
       <r>    9.0800    1.0000 </r>
       <r>    9.0851    1.0000 </r>
       <r>   10.0055    1.0000 </r>
       <r>   10.2426    1.0000 </r>
       <r>   34.5400    0.0000 </r>
       <r>   37.1492    0.0000 </r>
       <r>   38.5470    0.0000 </r>
       <r>   40.2572    0.0000 </r>
       <r>   44.6870    0.0000 </r>
       <r>   46.4117    0.0000 </r>
      </set>
      <set comment="kpoint 9">
       <r>    3.6257    1.0000 </r>
       <r>    8.3658    1.0000 </r>
       <r>    9.3075    1.0000 </r>
       <r>    9.3422    1.0000 </r>
       <r>    9.7859    1.0000 </r>
       <r>   10.3863    1.0000 </r>
       <r>   33.2101    0.0000 </r>
       <r>   35.5976    0.0000 </r>
       <r>   36.1901    0.0000 </r>
       <r>   38.2195    0.0000 </r>
       <r>   44.9314    0.0000 </r>
       <r>   46.9798    0.0000 </r>
      </set>
      <set comment="kpoint 10">
       <r>    5.0532    1.0000 </r>
       <r>    8.0152    1.0000 </r>
       <r>    9.0600    1.0000 </r>
       <r>    9.6448    1.0000 </r>
       <r>   10.0917    1.0000 </r>
       <r>   10.8196    1.0000 </r>
       <r>   29.3161    0.0000 </r>
       <r>   31.9841    0.0000 </r>
       <r>   35.8592    0.0000 </r>
       <r>   37.9965    0.0000 </r>
       <r>   43.6599    0.0000 </r>
       <r>   46.6532    0.0000 </r>
      </set>
      <set comment="kpoint 11">
       <r>    6.4365    1.0000 </r>
       <r>    8.1576    1.0000 </r>
       <r>    8.7048    1.0000 </r>
       <r>    9.4654    1.0000 </r>
       <r>   10.9119    1.0000 </r>
       <r>   12.1427    0.0000 </r>
       <r>   23.3159    0.0000 </r>
       <r>   31.2780    0.0000 </r>
       <r>   33.5337    0.0000 </r>
       <r>   37.7368    0.0000 </r>
       <r>   44.6892    0.0000 </r>
       <r>   47.2873    0.0000 </r>
      </set>
      <set comment="kpoint 12">
       <r>    6.7188    1.0000 </r>
       <r>    8.1952    1.0000 </r>
       <r>    9.1973    1.0000 </r>
       <r>    9.2864    1.0000 </r>
       <r>   11.1488    1.0000 </r>
       <r>   14.3842    0.0000 </r>
       <r>   19.1059    0.0000 </r>
       <r>   30.6196    0.0000 </r>
       <r>   32.8814    0.0000 </r>
       <r>   37.4192    0.0000 </r>
       <r>   43.8399    0.0000 </r>
       <r>   47.5621    0.0000 </r>
      </set>
      <set comment="kpoint 13">
       <r>    6.6713    1.0000 </r>
       <r>    8.3669    1.0000 </r>
       <r>    8.7770    1.0000 </r>
       <r>    9.3358    1.0000 </r>
       <r>   10.7724    1.0000 </r>
       <r>   13.0637    0.0000 </r>
       <r>   21.5964    0.0000 </r>
       <r>   29.8726    0.0000 </r>
       <r>   34.3907    0.0000 </r>
       <r>   38.5947    0.0000 </r>
       <r>   43.1601    0.0000 </r>
       <r>   46.9381    0.0000 </r>
      </set>
      <set comment="kpoint 14">
       <r>    5.6639    1.0000 </r>
       <r>    8.1035    1.0000 </r>
       <r>    8.8536    1.0000 </r>
       <r>    9.5711    1.0000 </r>
       <r>   10.0100    1.0000 </r>
       <r>   11.3891    1.0000 </r>
       <r>   27.2537    0.0000 </r>
       <r>   30.0626    0.0000 </r>
       <r>   36.9352    0.0000 </r>
       <r>   40.5772    0.0000 </r>
       <r>   42.5627    0.0000 </r>
       <r>   45.9481    0.0000 </r>
      </set>
      <set comment="kpoint 15">
       <r>    4.0138    1.0000 </r>
       <r>    8.3632    1.0000 </r>
       <r>    9.1898    1.0000 </r>
       <r>    9.3459    1.0000 </r>
       <r>    9.8760    1.0000 </r>
       <r>   10.4847    1.0000 </r>
       <r>   31.0505    0.0000 </r>
       <r>   33.7384    0.0000 </r>
       <r>   38.2956    0.0000 </r>
       <r>   40.1594    0.0000 </r>
       <r>   44.1661    0.0000 </r>
       <r>   45.6741    0.0000 </r>
      </set>
      <set comment="kpoint 16">
       <r>    5.7153    1.0000 </r>
       <r>    7.5300    1.0000 </r>
       <r>    9.4410    1.0000 </r>
       <r>   10.1391    1.0000 </r>
       <r>   10.5234    1.0000 </r>
       <r>   10.7937    1.0000 </r>
       <r>   29.8981    0.0000 </r>
       <r>   31.6362    0.0000 </r>
       <r>   31.7409    0.0000 </r>
       <r>   34.6419    0.0000 </r>
       <r>   40.1240    0.0000 </r>
       <r>   48.7090    0.0000 </r>
      </set>
      <set comment="kpoint 17">
       <r>    6.4276    1.0000 </r>
       <r>    7.2943    1.0000 </r>
       <r>    9.3657    1.0000 </r>
       <r>   10.4281    1.0000 </r>
       <r>   10.9686    1.0000 </r>
       <r>   12.4171    0.0000 </r>
       <r>   26.3399    0.0000 </r>
       <r>   28.3382    0.0000 </r>
       <r>   29.5428    0.0000 </r>
       <r>   35.9775    0.0000 </r>
       <r>   41.1280    0.0000 </r>
       <r>   48.5955    0.0000 </r>
      </set>
      <set comment="kpoint 18">
       <r>    6.9319    1.0000 </r>
       <r>    7.4544    1.0000 </r>
       <r>    9.0100    1.0000 </r>
       <r>   10.1031    1.0000 </r>
       <r>   11.2211    1.0000 </r>
       <r>   15.7996    0.0000 </r>
       <r>   21.0355    0.0000 </r>
       <r>   26.1577    0.0000 </r>
       <r>   29.6799    0.0000 </r>
       <r>   36.4699    0.0000 </r>
       <r>   45.9668    0.0000 </r>
       <r>   48.0446    0.0000 </r>
      </set>
      <set comment="kpoint 19">
       <r>    7.4912    1.0000 </r>
       <r>    7.6498    1.0000 </r>
       <r>    8.4829    1.0000 </r>
       <r>    9.8736    1.0000 </r>
       <r>   10.8489    1.0000 </r>
       <r>   16.1555    0.0000 </r>
       <r>   20.8716    0.0000 </r>
       <r>   24.8081    0.0000 </r>
       <r>   31.4965    0.0000 </r>
       <r>   37.3473    0.0000 </r>
       <r>   46.3809    0.0000 </r>
       <r>   48.2609    0.0000 </r>
      </set>
      <set comment="kpoint 20">
       <r>    7.0214    1.0000 </r>
       <r>    8.1235    1.0000 </r>
       <r>    8.3018    1.0000 </r>
       <r>    9.6670    1.0000 </r>
       <r>   10.4124    1.0000 </r>
       <r>   13.1975    0.0000 </r>
       <r>   23.8572    0.0000 </r>
       <r>   26.9772    0.0000 </r>
       <r>   34.1471    0.0000 </r>
       <r>   39.1949    0.0000 </r>
       <r>   43.4980    0.0000 </r>
       <r>   48.0526    0.0000 </r>
      </set>
      <set comment="kpoint 21">
       <r>    5.7478    1.0000 </r>
       <r>    8.4288    1.0000 </r>
       <r>    8.8744    1.0000 </r>
       <r>    9.2402    1.0000 </r>
       <r>   10.4849    1.0000 </r>
       <r>   11.2346    1.0000 </r>
       <r>   24.8658    0.0000 </r>
       <r>   32.8152    0.0000 </r>
       <r>   36.5370    0.0000 </r>
       <r>   39.5647    0.0000 </r>
       <r>   43.2195    0.0000 </r>
       <r>   44.8747    0.0000 </r>
      </set>
      <set comment="kpoint 22">
       <r>    6.1352    1.0000 </r>
       <r>    6.8708    1.0000 </r>
       <r>   10.8049    1.0000 </r>
       <r>   10.8850    1.0000 </r>
       <r>   11.2488    1.0000 </r>
       <r>   13.0438    0.0000 </r>
       <r>   25.0316    0.0000 </r>
       <r>   27.4662    0.0000 </r>
       <r>   28.6627    0.0000 </r>
       <r>   33.8094    0.0000 </r>
       <r>   38.5144    0.0000 </r>
       <r>   48.7817    0.0000 </r>
      </set>
      <set comment="kpoint 23">
       <r>    6.2840    1.0000 </r>
       <r>    6.9024    1.0000 </r>
       <r>   10.3175    1.0000 </r>
       <r>   10.8255    1.0000 </r>
       <r>   11.4075    1.0000 </r>
       <r>   15.7464    0.0000 </r>
       <r>   22.8253    0.0000 </r>
       <r>   24.9536    0.0000 </r>
       <r>   27.4987    0.0000 </r>
       <r>   35.3433    0.0000 </r>
       <r>   40.4212    0.0000 </r>
       <r>   48.7743    0.0000 </r>
      </set>
      <set comment="kpoint 24">
       <r>    6.8619    1.0000 </r>
       <r>    7.3496    1.0000 </r>
       <r>    9.2047    1.0000 </r>
       <r>   10.3142    1.0000 </r>
       <r>   11.2042    1.0000 </r>
       <r>   17.9380    0.0000 </r>
       <r>   20.2890    0.0000 </r>
       <r>   23.6544    0.0000 </r>
       <r>   29.1613    0.0000 </r>
       <r>   36.3093    0.0000 </r>
       <r>   45.9501    0.0000 </r>
       <r>   48.7666    0.0000 </r>
      </set>
      <set comment="kpoint 25">
       <r>    7.1324    1.0000 </r>
       <r>    7.8443    1.0000 </r>
       <r>    8.8266    1.0000 </r>
       <r>    9.5905    1.0000 </r>
       <r>   11.0307    1.0000 </r>
       <r>   15.7360    0.0000 </r>
       <r>   19.3322    0.0000 </r>
       <r>   27.6160    0.0000 </r>
       <r>   31.8914    0.0000 </r>
       <r>   37.3388    0.0000 </r>
       <r>   45.1608    0.0000 </r>
       <r>   48.3352    0.0000 </r>
      </set>
      <set comment="kpoint 26">
       <r>    6.3619    1.0000 </r>
       <r>    8.5622    1.0000 </r>
       <r>    9.0262    1.0000 </r>
       <r>    9.5742    1.0000 </r>
       <r>   11.0829    1.0000 </r>
       <r>   12.7530    0.0000 </r>
       <r>   19.8659    0.0000 </r>
       <r>   32.5432    0.0000 </r>
       <r>   35.1917    0.0000 </r>
       <r>   37.8158    0.0000 </r>
       <r>   42.7588    0.0000 </r>
       <r>   44.9356    0.0000 </r>
      </set>
      <set comment="kpoint 27">
       <r>    6.0459    1.0000 </r>
       <r>    6.7220    1.0000 </r>
       <r>   11.0270    1.0000 </r>
       <r>   11.1421    1.0000 </r>
       <r>   11.4222    1.0000 </r>
       <r>   14.6142    0.0000 </r>
       <r>   22.7826    0.0000 </r>
       <r>   26.8097    0.0000 </r>
       <r>   27.9695    0.0000 </r>
       <r>   33.6837    0.0000 </r>
       <r>   38.3210    0.0000 </r>
       <r>   48.7515    0.0000 </r>
      </set>
      <set comment="kpoint 28">
       <r>    6.3869    1.0000 </r>
       <r>    7.0377    1.0000 </r>
       <r>    9.9326    1.0000 </r>
       <r>   10.7311    1.0000 </r>
       <r>   11.2349    1.0000 </r>
       <r>   14.0923    0.0000 </r>
       <r>   24.9126    0.0000 </r>
       <r>   25.7978    0.0000 </r>
       <r>   28.1264    0.0000 </r>
       <r>   35.5416    0.0000 </r>
       <r>   40.6233    0.0000 </r>
       <r>   48.7298    0.0000 </r>
      </set>
      <set comment="kpoint 29">
       <r>    6.8469    1.0000 </r>
       <r>    7.7481    1.0000 </r>
       <r>    8.7804    1.0000 </r>
       <r>    9.7822    1.0000 </r>
       <r>   11.1538    1.0000 </r>
       <r>   13.7193    0.0000 </r>
       <r>   22.0292    0.0000 </r>
       <r>   29.2067    0.0000 </r>
       <r>   30.8627    0.0000 </r>
       <r>   36.8760    0.0000 </r>
       <r>   45.6842    0.0000 </r>
       <r>   47.4127    0.0000 </r>
      </set>
      <set comment="kpoint 30">
       <r>    6.1519    1.0000 </r>
       <r>    7.1514    1.0000 </r>
       <r>   10.1270    1.0000 </r>
       <r>   10.5694    1.0000 </r>
       <r>   11.0183    1.0000 </r>
       <r>   11.4636    1.0000 </r>
       <r>   27.9385    0.0000 </r>
       <r>   28.8487    0.0000 </r>
       <r>   29.9627    0.0000 </r>
       <r>   34.0920    0.0000 </r>
       <r>   39.0303    0.0000 </r>
       <r>   48.7545    0.0000 </r>
      </set>
      <set comment="kpoint 31">
       <r>    6.0143    1.0000 </r>
       <r>    7.6380    1.0000 </r>
       <r>    8.9909    1.0000 </r>
       <r>   10.0213    1.0000 </r>
       <r>   10.5693    1.0000 </r>
       <r>   11.3494    1.0000 </r>
       <r>   27.7315    0.0000 </r>
       <r>   30.2875    0.0000 </r>
       <r>   32.5296    0.0000 </r>
       <r>   36.7363    0.0000 </r>
       <r>   42.0931    0.0000 </r>
       <r>   48.2275    0.0000 </r>
      </set>
      <set comment="kpoint 32">
       <r>    4.7129    1.0000 </r>
       <r>    7.9560    1.0000 </r>
       <r>    9.3219    1.0000 </r>
       <r>    9.7062    1.0000 </r>
       <r>    9.9524    1.0000 </r>
       <r>   10.5775    1.0000 </r>
       <r>   31.5956    0.0000 </r>
       <r>   33.8625    0.0000 </r>
       <r>   34.1291    0.0000 </r>
       <r>   35.9471    0.0000 </r>
       <r>   42.1093    0.0000 </r>
       <r>   48.6869    0.0000 </r>
      </set>
      <set comment="kpoint 33">
       <r>    3.6154    1.0000 </r>
       <r>    8.5744    1.0000 </r>
       <r>    9.1468    1.0000 </r>
       <r>    9.1468    1.0000 </r>
       <r>   10.1632    1.0000 </r>
       <r>   10.1632    1.0000 </r>
       <r>   30.7527    0.0000 </r>
       <r>   36.5639    0.0000 </r>
       <r>   39.5765    0.0000 </r>
       <r>   39.5765    0.0000 </r>
       <r>   44.9890    0.0000 </r>
       <r>   45.5214    0.0000 </r>
      </set>
      <set comment="kpoint 34">
       <r>    4.7375    1.0000 </r>
       <r>    8.2881    1.0000 </r>
       <r>    9.0837    1.0000 </r>
       <r>    9.4184    1.0000 </r>
       <r>    9.8232    1.0000 </r>
       <r>   10.8466    1.0000 </r>
       <r>   29.0436    0.0000 </r>
       <r>   31.7946    0.0000 </r>
       <r>   39.5692    0.0000 </r>
       <r>   41.5936    0.0000 </r>
       <r>   41.9464    0.0000 </r>
       <r>   44.3685    0.0000 </r>
      </set>
      <set comment="kpoint 35">
       <r>    6.3893    1.0000 </r>
       <r>    8.1626    1.0000 </r>
       <r>    8.6485    1.0000 </r>
       <r>    9.4928    1.0000 </r>
       <r>   10.1015    1.0000 </r>
       <r>   12.1448    0.0000 </r>
       <r>   25.4358    0.0000 </r>
       <r>   28.3752    0.0000 </r>
       <r>   37.5687    0.0000 </r>
       <r>   38.5271    0.0000 </r>
       <r>   43.6024    0.0000 </r>
       <r>   45.8331    0.0000 </r>
      </set>
      <set comment="kpoint 36">
       <r>    6.8920    1.0000 </r>
       <r>    8.1858    1.0000 </r>
       <r>    8.9346    1.0000 </r>
       <r>    9.3561    1.0000 </r>
       <r>   10.8451    1.0000 </r>
       <r>   14.2623    0.0000 </r>
       <r>   20.2284    0.0000 </r>
       <r>   28.6034    0.0000 </r>
       <r>   35.2703    0.0000 </r>
       <r>   35.9067    0.0000 </r>
       <r>   45.9221    0.0000 </r>
       <r>   46.0537    0.0000 </r>
      </set>
      <set comment="kpoint 37">
       <r>    6.7710    1.0000 </r>
       <r>    8.0212    1.0000 </r>
       <r>    8.9867    1.0000 </r>
       <r>    9.4440    1.0000 </r>
       <r>   11.2322    1.0000 </r>
       <r>   14.0682    0.0000 </r>
       <r>   20.1796    0.0000 </r>
       <r>   29.9424    0.0000 </r>
       <r>   33.2361    0.0000 </r>
       <r>   35.5572    0.0000 </r>
       <r>   46.9428    0.0000 </r>
       <r>   47.2370    0.0000 </r>
      </set>
      <set comment="kpoint 38">
       <r>    6.1875    1.0000 </r>
       <r>    7.8128    1.0000 </r>
       <r>    8.8660    1.0000 </r>
       <r>    9.6622    1.0000 </r>
       <r>   11.0299    1.0000 </r>
       <r>   11.4468    1.0000 </r>
       <r>   25.3753    0.0000 </r>
       <r>   32.0443    0.0000 </r>
       <r>   32.7946    0.0000 </r>
       <r>   36.1113    0.0000 </r>
       <r>   44.4438    0.0000 </r>
       <r>   48.0023    0.0000 </r>
      </set>
      <set comment="kpoint 39">
       <r>    5.3126    1.0000 </r>
       <r>    8.1531    1.0000 </r>
       <r>    8.9826    1.0000 </r>
       <r>    9.3896    1.0000 </r>
       <r>   10.5388    1.0000 </r>
       <r>   10.7555    1.0000 </r>
       <r>   26.9517    0.0000 </r>
       <r>   34.2758    0.0000 </r>
       <r>   34.8506    0.0000 </r>
       <r>   38.3672    0.0000 </r>
       <r>   44.8595    0.0000 </r>
       <r>   46.1189    0.0000 </r>
      </set>
      <set comment="kpoint 40">
       <r>    6.5184    1.0000 </r>
       <r>    7.8480    1.0000 </r>
       <r>    8.5799    1.0000 </r>
       <r>    9.8738    1.0000 </r>
       <r>   10.4294    1.0000 </r>
       <r>   12.1989    0.0000 </r>
       <r>   25.6867    0.0000 </r>
       <r>   28.5508    0.0000 </r>
       <r>   33.2114    0.0000 </r>
       <r>   39.6118    0.0000 </r>
       <r>   43.1003    0.0000 </r>
       <r>   46.5764    0.0000 </r>
      </set>
      <set comment="kpoint 41">
       <r>    7.3728    1.0000 </r>
       <r>    7.8393    1.0000 </r>
       <r>    8.2020    1.0000 </r>
       <r>    9.9503    1.0000 </r>
       <r>   10.8076    1.0000 </r>
       <r>   14.7450    0.0000 </r>
       <r>   22.5318    0.0000 </r>
       <r>   25.8836    0.0000 </r>
       <r>   30.4019    0.0000 </r>
       <r>   40.5675    0.0000 </r>
       <r>   42.9111    0.0000 </r>
       <r>   47.8035    0.0000 </r>
      </set>
      <set comment="kpoint 42">
       <r>    7.3261    1.0000 </r>
       <r>    7.5946    1.0000 </r>
       <r>    8.5946    1.0000 </r>
       <r>    9.8919    1.0000 </r>
       <r>   11.1434    1.0000 </r>
       <r>   16.7609    0.0000 </r>
       <r>   19.6390    0.0000 </r>
       <r>   26.8197    0.0000 </r>
       <r>   28.5896    0.0000 </r>
       <r>   39.3290    0.0000 </r>
       <r>   44.4017    0.0000 </r>
       <r>   48.1336    0.0000 </r>
      </set>
      <set comment="kpoint 43">
       <r>    6.8953    1.0000 </r>
       <r>    7.5721    1.0000 </r>
       <r>    8.6516    1.0000 </r>
       <r>   10.2220    1.0000 </r>
       <r>   10.8516    1.0000 </r>
       <r>   13.5262    0.0000 </r>
       <r>   24.3659    0.0000 </r>
       <r>   27.2436    0.0000 </r>
       <r>   29.6080    0.0000 </r>
       <r>   38.8583    0.0000 </r>
       <r>   43.3477    0.0000 </r>
       <r>   47.0588    0.0000 </r>
      </set>
      <set comment="kpoint 44">
       <r>    6.5984    1.0000 </r>
       <r>    7.4568    1.0000 </r>
       <r>    9.1275    1.0000 </r>
       <r>   10.0045    1.0000 </r>
       <r>   11.2213    1.0000 </r>
       <r>   12.8850    0.0000 </r>
       <r>   24.0383    0.0000 </r>
       <r>   28.8696    0.0000 </r>
       <r>   31.1208    0.0000 </r>
       <r>   35.2044    0.0000 </r>
       <r>   43.5851    0.0000 </r>
       <r>   48.5494    0.0000 </r>
      </set>
      <set comment="kpoint 45">
       <r>    6.8116    1.0000 </r>
       <r>    7.3637    1.0000 </r>
       <r>    9.0390    1.0000 </r>
       <r>   10.4320    1.0000 </r>
       <r>   11.1902    1.0000 </r>
       <r>   15.4006    0.0000 </r>
       <r>   23.3414    0.0000 </r>
       <r>   25.5970    0.0000 </r>
       <r>   27.0093    0.0000 </r>
       <r>   38.3671    0.0000 </r>
       <r>   43.4346    0.0000 </r>
       <r>   47.8952    0.0000 </r>
      </set>
      <set comment="kpoint 46">
       <r>    7.0282    1.0000 </r>
       <r>    7.7822    1.0000 </r>
       <r>    8.4954    1.0000 </r>
       <r>   10.1443    1.0000 </r>
       <r>   11.4013    1.0000 </r>
       <r>   19.0065    0.0000 </r>
       <r>   20.8932    0.0000 </r>
       <r>   23.5553    0.0000 </r>
       <r>   25.3213    0.0000 </r>
       <r>   41.4516    0.0000 </r>
       <r>   45.0820    0.0000 </r>
       <r>   47.0000    0.0000 </r>
      </set>
      <set comment="kpoint 47">
       <r>    7.2187    1.0000 </r>
       <r>    7.7883    1.0000 </r>
       <r>    8.3269    1.0000 </r>
       <r>   10.1143    1.0000 </r>
       <r>   11.1701    1.0000 </r>
       <r>   16.8008    0.0000 </r>
       <r>   21.5224    0.0000 </r>
       <r>   25.0123    0.0000 </r>
       <r>   27.0577    0.0000 </r>
       <r>   41.4522    0.0000 </r>
       <r>   43.3572    0.0000 </r>
       <r>   47.5398    0.0000 </r>
      </set>
      <set comment="kpoint 48">
       <r>    6.4965    1.0000 </r>
       <r>    7.0601    1.0000 </r>
       <r>    9.9033    1.0000 </r>
       <r>   10.6103    1.0000 </r>
       <r>   11.2858    1.0000 </r>
       <r>   16.6220    0.0000 </r>
       <r>   22.0829    0.0000 </r>
       <r>   23.5397    0.0000 </r>
       <r>   29.3109    0.0000 </r>
       <r>   34.7203    0.0000 </r>
       <r>   42.8585    0.0000 </r>
       <r>   48.8281    0.0000 </r>
      </set>
      <set comment="kpoint 49">
       <r>    6.6788    1.0000 </r>
       <r>    7.2594    1.0000 </r>
       <r>    9.3559    1.0000 </r>
       <r>   10.4662    1.0000 </r>
       <r>   11.4027    1.0000 </r>
       <r>   17.3049    0.0000 </r>
       <r>   22.4935    0.0000 </r>
       <r>   23.5312    0.0000 </r>
       <r>   26.2825    0.0000 </r>
       <r>   38.1283    0.0000 </r>
       <r>   43.4721    0.0000 </r>
       <r>   48.6292    0.0000 </r>
      </set>
      <set comment="kpoint 50">
       <r>    6.5900    1.0000 </r>
       <r>    7.1898    1.0000 </r>
       <r>    9.5926    1.0000 </r>
       <r>   10.3555    1.0000 </r>
       <r>   11.2999    1.0000 </r>
       <r>   14.7829    0.0000 </r>
       <r>   22.9777    0.0000 </r>
       <r>   25.7032    0.0000 </r>
       <r>   29.9312    0.0000 </r>
       <r>   34.8506    0.0000 </r>
       <r>   43.0798    0.0000 </r>
       <r>   48.7387    0.0000 </r>
      </set>
      <set comment="kpoint 51">
       <r>    5.4035    1.0000 </r>
       <r>    8.8339    1.0000 </r>
       <r>    9.0247    1.0000 </r>
       <r>    9.0247    1.0000 </r>
       <r>   10.6194    1.0000 </r>
       <r>   10.6194    1.0000 </r>
       <r>   24.5851    0.0000 </r>
       <r>   35.3085    0.0000 </r>
       <r>   38.8835    0.0000 </r>
       <r>   38.8835    0.0000 </r>
       <r>   43.1764    0.0000 </r>
       <r>   43.1764    0.0000 </r>
      </set>
      <set comment="kpoint 52">
       <r>    6.2290    1.0000 </r>
       <r>    8.7052    1.0000 </r>
       <r>    8.7355    1.0000 </r>
       <r>    9.1717    1.0000 </r>
       <r>   10.4942    1.0000 </r>
       <r>   11.9647    0.0000 </r>
       <r>   23.0837    0.0000 </r>
       <r>   31.2379    0.0000 </r>
       <r>   37.0955    0.0000 </r>
       <r>   38.8073    0.0000 </r>
       <r>   43.5702    0.0000 </r>
       <r>   43.7537    0.0000 </r>
      </set>
      <set comment="kpoint 53">
       <r>    7.3357    1.0000 </r>
       <r>    8.0081    1.0000 </r>
       <r>    8.3747    1.0000 </r>
       <r>    9.6586    1.0000 </r>
       <r>   10.5642    1.0000 </r>
       <r>   14.4682    0.0000 </r>
       <r>   22.2440    0.0000 </r>
       <r>   25.7203    0.0000 </r>
       <r>   34.8854    0.0000 </r>
       <r>   35.9816    0.0000 </r>
       <r>   46.8206    0.0000 </r>
       <r>   47.7705    0.0000 </r>
      </set>
      <set comment="kpoint 54">
       <r>    7.1580    1.0000 </r>
       <r>    7.5267    1.0000 </r>
       <r>    8.8869    1.0000 </r>
       <r>   10.0690    1.0000 </r>
       <r>   10.9857    1.0000 </r>
       <r>   17.7771    0.0000 </r>
       <r>   19.5162    0.0000 </r>
       <r>   24.0799    0.0000 </r>
       <r>   31.7214    0.0000 </r>
       <r>   35.1688    0.0000 </r>
       <r>   47.9950    0.0000 </r>
       <r>   49.8852    0.0000 </r>
      </set>
      <set comment="kpoint 55">
       <r>    6.3604    1.0000 </r>
       <r>    8.4781    1.0000 </r>
       <r>    9.0689    1.0000 </r>
       <r>    9.1762    1.0000 </r>
       <r>   11.1702    1.0000 </r>
       <r>   12.2380    0.0000 </r>
       <r>   21.3375    0.0000 </r>
       <r>   32.7918    0.0000 </r>
       <r>   34.7127    0.0000 </r>
       <r>   36.6731    0.0000 </r>
       <r>   44.8037    0.0000 </r>
       <r>   45.6237    0.0000 </r>
      </set>
      <set comment="kpoint 56">
       <r>    7.0593    1.0000 </r>
       <r>    7.9144    1.0000 </r>
       <r>    8.7013    1.0000 </r>
       <r>    9.6166    1.0000 </r>
       <r>   11.0304    1.0000 </r>
       <r>   14.7180    0.0000 </r>
       <r>   20.4133    0.0000 </r>
       <r>   28.6949    0.0000 </r>
       <r>   30.8816    0.0000 </r>
       <r>   39.0693    0.0000 </r>
       <r>   43.3905    0.0000 </r>
       <r>   48.2352    0.0000 </r>
      </set>
      <set comment="kpoint 57">
       <r>    7.2384    1.0000 </r>
       <r>    7.6830    1.0000 </r>
       <r>    8.5082    1.0000 </r>
       <r>   10.0626    1.0000 </r>
       <r>   11.1722    1.0000 </r>
       <r>   18.2230    0.0000 </r>
       <r>   19.8883    0.0000 </r>
       <r>   24.1899    0.0000 </r>
       <r>   28.0287    0.0000 </r>
       <r>   39.4065    0.0000 </r>
       <r>   45.7099    0.0000 </r>
       <r>   48.0858    0.0000 </r>
      </set>
      <set comment="kpoint 58">
       <r>    7.0647    1.0000 </r>
       <r>    7.6595    1.0000 </r>
       <r>    8.9198    1.0000 </r>
       <r>    9.7801    1.0000 </r>
       <r>   11.1433    1.0000 </r>
       <r>   16.1882    0.0000 </r>
       <r>   19.4276    0.0000 </r>
       <r>   26.7443    0.0000 </r>
       <r>   32.2300    0.0000 </r>
       <r>   35.2434    0.0000 </r>
       <r>   48.0528    0.0000 </r>
       <r>   48.6303    0.0000 </r>
      </set>
      <set comment="kpoint 59">
       <r>    6.0642    1.0000 </r>
       <r>    8.8178    1.0000 </r>
       <r>    8.8178    1.0000 </r>
       <r>   10.8383    1.0000 </r>
       <r>   11.1129    1.0000 </r>
       <r>   11.1129    1.0000 </r>
       <r>   19.7204    0.0000 </r>
       <r>   34.2985    0.0000 </r>
       <r>   38.5329    0.0000 </r>
       <r>   38.5329    0.0000 </r>
       <r>   41.3433    0.0000 </r>
       <r>   41.3433    0.0000 </r>
      </set>
      <set comment="kpoint 60">
       <r>    6.4782    1.0000 </r>
       <r>    8.4577    1.0000 </r>
       <r>    9.0561    1.0000 </r>
       <r>    9.6099    1.0000 </r>
       <r>   11.0930    1.0000 </r>
       <r>   13.5810    0.0000 </r>
       <r>   19.0215    0.0000 </r>
       <r>   31.6188    0.0000 </r>
       <r>   36.0411    0.0000 </r>
       <r>   36.0592    0.0000 </r>
       <r>   44.1502    0.0000 </r>
       <r>   44.5317    0.0000 </r>
      </set>
     </set>
     <set comment="spin 2">
      <set comment="kpoint 1">
       <r>    2.3964    1.0000 </r>
       <r>   10.3859    1.0000 </r>
       <r>   10.4979    1.0000 </r>
       <r>   10.4979    1.0000 </r>
       <r>   12.0272    0.0000 </r>
       <r>   12.0272    0.0000 </r>
       <r>   35.1649    0.0000 </r>
       <r>   39.0089    0.0000 </r>
       <r>   40.6933    0.0000 </r>
       <r>   40.6933    0.0000 </r>
       <r>   45.0924    0.0000 </r>
       <r>   45.0938    0.0000 </r>
      </set>
      <set comment="kpoint 2">
       <r>    3.2632    1.0000 </r>
       <r>   10.0714    1.0000 </r>
       <r>   10.6992    1.0000 </r>
       <r>   10.7079    1.0000 </r>
       <r>   11.8083    0.0253 </r>
       <r>   12.1167    0.0000 </r>
       <r>   33.0856    0.0000 </r>
       <r>   35.6414    0.0000 </r>
       <r>   39.3473    0.0000 </r>
       <r>   41.7681    0.0000 </r>
       <r>   43.4135    0.0000 </r>
       <r>   45.1450    0.0000 </r>
      </set>
      <set comment="kpoint 3">
       <r>    5.1382    1.0000 </r>
       <r>    9.7218    1.0000 </r>
       <r>   10.6739    1.0000 </r>
       <r>   10.7908    1.0000 </r>
       <r>   11.9934    0.0000 </r>
       <r>   12.5268    0.0000 </r>
       <r>   27.1537    0.0000 </r>
       <r>   34.4322    0.0000 </r>
       <r>   38.3462    0.0000 </r>
       <r>   41.6824    0.0000 </r>
       <r>   42.8456    0.0000 </r>
       <r>   43.4727    0.0000 </r>
      </set>
      <set comment="kpoint 4">
       <r>    6.7822    1.0000 </r>
       <r>   10.2652    1.0000 </r>
       <r>   10.4620    1.0000 </r>
       <r>   10.5525    1.0000 </r>
       <r>   12.6725    0.0000 </r>
       <r>   13.2191    0.0000 </r>
       <r>   21.8950    0.0000 </r>
       <r>   33.6472    0.0000 </r>
       <r>   37.2570    0.0000 </r>
       <r>   39.5092    0.0000 </r>
       <r>   41.9380    0.0000 </r>
       <r>   43.4445    0.0000 </r>
      </set>
      <set comment="kpoint 5">
       <r>    7.0884    1.0000 </r>
       <r>   10.2590    1.0000 </r>
       <r>   10.4827    1.0000 </r>
       <r>   11.0416    1.0000 </r>
       <r>   13.0410    0.0000 </r>
       <r>   13.5180    0.0000 </r>
       <r>   19.9242    0.0000 </r>
       <r>   33.5206    0.0000 </r>
       <r>   37.5128    0.0000 </r>
       <r>   37.6449    0.0000 </r>
       <r>   42.7322    0.0000 </r>
       <r>   42.7910    0.0000 </r>
      </set>
      <set comment="kpoint 6">
       <r>    6.3832    1.0000 </r>
       <r>    9.9187    1.0000 </r>
       <r>   10.4860    1.0000 </r>
       <r>   10.6512    1.0000 </r>
       <r>   12.6714    0.0000 </r>
       <r>   12.7920    0.0000 </r>
       <r>   23.4599    0.0000 </r>
       <r>   34.2811    0.0000 </r>
       <r>   36.9794    0.0000 </r>
       <r>   39.5890    0.0000 </r>
       <r>   42.4496    0.0000 </r>
       <r>   44.4757    0.0000 </r>
      </set>
      <set comment="kpoint 7">
       <r>    4.4464    1.0000 </r>
       <r>    9.7735    1.0000 </r>
       <r>   10.7547    1.0000 </r>
       <r>   10.8177    1.0000 </r>
       <r>   11.8973    0.0000 </r>
       <r>   12.2843    0.0000 </r>
       <r>   29.1501    0.0000 </r>
       <r>   35.5207    0.0000 </r>
       <r>   37.5338    0.0000 </r>
       <r>   41.7951    0.0000 </r>
       <r>   42.4690    0.0000 </r>
       <r>   46.5827    0.0000 </r>
      </set>
      <set comment="kpoint 8">
       <r>    2.8366    1.0000 </r>
       <r>   10.1866    1.0000 </r>
       <r>   10.6332    1.0000 </r>
       <r>   10.6392    1.0000 </r>
       <r>   11.8381    0.0026 </r>
       <r>   12.1099    0.0000 </r>
       <r>   34.5419    0.0000 </r>
       <r>   37.1928    0.0000 </r>
       <r>   38.8436    0.0000 </r>
       <r>   40.3688    0.0000 </r>
       <r>   44.9072    0.0000 </r>
       <r>   46.5521    0.0000 </r>
      </set>
      <set comment="kpoint 9">
       <r>    3.6782    1.0000 </r>
       <r>    9.8104    1.0000 </r>
       <r>   10.8891    1.0000 </r>
       <r>   10.9164    1.0000 </r>
       <r>   11.5423    1.0000 </r>
       <r>   12.2635    0.0000 </r>
       <r>   33.4253    0.0000 </r>
       <r>   35.6114    0.0000 </r>
       <r>   36.5367    0.0000 </r>
       <r>   38.3351    0.0000 </r>
       <r>   45.6551    0.0000 </r>
       <r>   47.1927    0.0000 </r>
      </set>
      <set comment="kpoint 10">
       <r>    5.1807    1.0000 </r>
       <r>    9.3746    1.0000 </r>
       <r>   10.6608    1.0000 </r>
       <r>   11.2704    1.0000 </r>
       <r>   11.7615    0.2636 </r>
       <r>   12.6394    0.0000 </r>
       <r>   29.7038    0.0000 </r>
       <r>   32.2544    0.0000 </r>
       <r>   36.0388    0.0000 </r>
       <r>   38.1701    0.0000 </r>
       <r>   44.2690    0.0000 </r>
       <r>   46.7704    0.0000 </r>
      </set>
      <set comment="kpoint 11">
       <r>    6.9909    1.0000 </r>
       <r>    9.2982    1.0000 </r>
       <r>   10.1780    1.0000 </r>
       <r>   11.1187    1.0000 </r>
       <r>   12.6813    0.0000 </r>
       <r>   13.6275    0.0000 </r>
       <r>   23.9094    0.0000 </r>
       <r>   31.5193    0.0000 </r>
       <r>   33.8373    0.0000 </r>
       <r>   37.9710    0.0000 </r>
       <r>   44.8554    0.0000 </r>
       <r>   47.7215    0.0000 </r>
      </set>
      <set comment="kpoint 12">
       <r>    7.6806    1.0000 </r>
       <r>    9.4964    1.0000 </r>
       <r>   10.3390    1.0000 </r>
       <r>   10.9316    1.0000 </r>
       <r>   12.9782    0.0000 </r>
       <r>   15.3157    0.0000 </r>
       <r>   20.0064    0.0000 </r>
       <r>   30.8528    0.0000 </r>
       <r>   33.2426    0.0000 </r>
       <r>   37.5683    0.0000 </r>
       <r>   44.0951    0.0000 </r>
       <r>   47.7214    0.0000 </r>
      </set>
      <set comment="kpoint 13">
       <r>    7.4129    1.0000 </r>
       <r>    9.5760    1.0000 </r>
       <r>   10.0576    1.0000 </r>
       <r>   10.9917    1.0000 </r>
       <r>   12.5409    0.0000 </r>
       <r>   14.4041    0.0000 </r>
       <r>   22.2904    0.0000 </r>
       <r>   30.1798    0.0000 </r>
       <r>   34.6452    0.0000 </r>
       <r>   38.7593    0.0000 </r>
       <r>   43.3957    0.0000 </r>
       <r>   47.1057    0.0000 </r>
      </set>
      <set comment="kpoint 14">
       <r>    5.8484    1.0000 </r>
       <r>    9.4164    1.0000 </r>
       <r>   10.4196    1.0000 </r>
       <r>   11.2409    1.0000 </r>
       <r>   11.7080    0.8115 </r>
       <r>   13.1206    0.0000 </r>
       <r>   27.7147    0.0000 </r>
       <r>   30.3893    0.0000 </r>
       <r>   37.0937    0.0000 </r>
       <r>   40.6961    0.0000 </r>
       <r>   42.7240    0.0000 </r>
       <r>   46.2963    0.0000 </r>
      </set>
      <set comment="kpoint 15">
       <r>    4.0774    1.0000 </r>
       <r>    9.7786    1.0000 </r>
       <r>   10.7767    1.0000 </r>
       <r>   10.9347    1.0000 </r>
       <r>   11.6425    0.9969 </r>
       <r>   12.3263    0.0000 </r>
       <r>   31.3727    0.0000 </r>
       <r>   33.9193    0.0000 </r>
       <r>   38.4113    0.0000 </r>
       <r>   40.2406    0.0000 </r>
       <r>   44.3915    0.0000 </r>
       <r>   45.9490    0.0000 </r>
      </set>
      <set comment="kpoint 16">
       <r>    6.0287    1.0000 </r>
       <r>    8.8530    1.0000 </r>
       <r>   10.8424    1.0000 </r>
       <r>   11.7996    0.0437 </r>
       <r>   12.0962    0.0000 </r>
       <r>   12.6897    0.0000 </r>
       <r>   30.2352    0.0000 </r>
       <r>   31.9113    0.0000 </r>
       <r>   32.0677    0.0000 </r>
       <r>   34.9135    0.0000 </r>
       <r>   40.7024    0.0000 </r>
       <r>   52.0290    0.0000 </r>
      </set>
      <set comment="kpoint 17">
       <r>    7.1655    1.0000 </r>
       <r>    8.5566    1.0000 </r>
       <r>   10.6200    1.0000 </r>
       <r>   12.1548    0.0000 </r>
       <r>   12.7496    0.0000 </r>
       <r>   13.7521    0.0000 </r>
       <r>   26.7582    0.0000 </r>
       <r>   28.7364    0.0000 </r>
       <r>   29.9113    0.0000 </r>
       <r>   36.2439    0.0000 </r>
       <r>   41.5897    0.0000 </r>
       <r>   50.8104    0.0000 </r>
      </set>
      <set comment="kpoint 18">
       <r>    8.0431    1.0000 </r>
       <r>    8.6132    1.0000 </r>
       <r>   10.2331    1.0000 </r>
       <r>   11.8547    0.0005 </r>
       <r>   13.0351    0.0000 </r>
       <r>   16.6753    0.0000 </r>
       <r>   21.6361    0.0000 </r>
       <r>   26.6700    0.0000 </r>
       <r>   30.0254    0.0000 </r>
       <r>   36.7070    0.0000 </r>
       <r>   46.3662    0.0000 </r>
       <r>   49.0995    0.0000 </r>
      </set>
      <set comment="kpoint 19">
       <r>    8.5077    1.0000 </r>
       <r>    8.8804    1.0000 </r>
       <r>    9.7037    1.0000 </r>
       <r>   11.6328    0.9987 </r>
       <r>   12.5908    0.0000 </r>
       <r>   17.0722    0.0000 </r>
       <r>   21.5206    0.0000 </r>
       <r>   25.3447    0.0000 </r>
       <r>   31.8462    0.0000 </r>
       <r>   37.5293    0.0000 </r>
       <r>   46.4884    0.0000 </r>
       <r>   51.4695    0.0000 </r>
      </set>
      <set comment="kpoint 20">
       <r>    7.5721    1.0000 </r>
       <r>    9.3284    1.0000 </r>
       <r>    9.7663    1.0000 </r>
       <r>   11.3834    1.0000 </r>
       <r>   12.1147    0.0000 </r>
       <r>   14.5990    0.0000 </r>
       <r>   24.4319    0.0000 </r>
       <r>   27.4015    0.0000 </r>
       <r>   34.4191    0.0000 </r>
       <r>   39.3697    0.0000 </r>
       <r>   43.5933    0.0000 </r>
       <r>   48.6455    0.0000 </r>
      </set>
      <set comment="kpoint 21">
       <r>    6.0473    1.0000 </r>
       <r>    9.5731    1.0000 </r>
       <r>   10.4652    1.0000 </r>
       <r>   10.8769    1.0000 </r>
       <r>   12.2172    0.0000 </r>
       <r>   12.9714    0.0000 </r>
       <r>   25.4132    0.0000 </r>
       <r>   32.9830    0.0000 </r>
       <r>   36.6927    0.0000 </r>
       <r>   39.8599    0.0000 </r>
       <r>   43.4271    0.0000 </r>
       <r>   45.0650    0.0000 </r>
      </set>
      <set comment="kpoint 22">
       <r>    7.1252    1.0000 </r>
       <r>    8.1093    1.0000 </r>
       <r>   12.1373    0.0000 </r>
       <r>   12.7369    0.0000 </r>
       <r>   13.0880    0.0000 </r>
       <r>   13.8421    0.0000 </r>
       <r>   25.6621    0.0000 </r>
       <r>   27.7581    0.0000 </r>
       <r>   28.8954    0.0000 </r>
       <r>   34.2034    0.0000 </r>
       <r>   38.9946    0.0000 </r>
       <r>   52.2929    0.0000 </r>
      </set>
      <set comment="kpoint 23">
       <r>    7.3955    1.0000 </r>
       <r>    8.1178    1.0000 </r>
       <r>   11.6399    0.9975 </r>
       <r>   12.7159    0.0000 </r>
       <r>   13.2021    0.0000 </r>
       <r>   16.3110    0.0000 </r>
       <r>   23.6135    0.0000 </r>
       <r>   25.3207    0.0000 </r>
       <r>   27.7737    0.0000 </r>
       <r>   35.6678    0.0000 </r>
       <r>   40.8717    0.0000 </r>
       <r>   52.2512    0.0000 </r>
      </set>
      <set comment="kpoint 24">
       <r>    8.0572    1.0000 </r>
       <r>    8.4994    1.0000 </r>
       <r>   10.4304    1.0000 </r>
       <r>   12.1297    0.0000 </r>
       <r>   12.9814    0.0000 </r>
       <r>   18.5965    0.0000 </r>
       <r>   20.8823    0.0000 </r>
       <r>   24.3141    0.0000 </r>
       <r>   29.4991    0.0000 </r>
       <r>   36.5632    0.0000 </r>
       <r>   46.4872    0.0000 </r>
       <r>   49.9982    0.0000 </r>
      </set>
      <set comment="kpoint 25">
       <r>    8.1595    1.0000 </r>
       <r>    9.0652    1.0000 </r>
       <r>   10.0289    1.0000 </r>
       <r>   11.2938    1.0000 </r>
       <r>   12.8269    0.0000 </r>
       <r>   16.5964    0.0000 </r>
       <r>   20.1575    0.0000 </r>
       <r>   28.0267    0.0000 </r>
       <r>   32.2337    0.0000 </r>
       <r>   37.4984    0.0000 </r>
       <r>   45.3594    0.0000 </r>
       <r>   49.9171    0.0000 </r>
      </set>
      <set comment="kpoint 26">
       <r>    7.2141    1.0000 </r>
       <r>    9.9903    1.0000 </r>
       <r>   10.5059    1.0000 </r>
       <r>   10.6684    1.0000 </r>
       <r>   12.9036    0.0000 </r>
       <r>   13.9820    0.0000 </r>
       <r>   20.7190    0.0000 </r>
       <r>   32.6041    0.0000 </r>
       <r>   35.5005    0.0000 </r>
       <r>   38.0385    0.0000 </r>
       <r>   43.0452    0.0000 </r>
       <r>   45.1351    0.0000 </r>
      </set>
      <set comment="kpoint 27">
       <r>    7.1328    1.0000 </r>
       <r>    7.9426    1.0000 </r>
       <r>   12.6686    0.0000 </r>
       <r>   12.9605    0.0000 </r>
       <r>   13.2224    0.0000 </r>
       <r>   14.9724    0.0000 </r>
       <r>   23.6166    0.0000 </r>
       <r>   27.0616    0.0000 </r>
       <r>   28.1678    0.0000 </r>
       <r>   34.1050    0.0000 </r>
       <r>   38.7975    0.0000 </r>
       <r>   52.2748    0.0000 </r>
      </set>
      <set comment="kpoint 28">
       <r>    7.4049    1.0000 </r>
       <r>    8.2691    1.0000 </r>
       <r>   11.1837    1.0000 </r>
       <r>   12.5459    0.0000 </r>
       <r>   13.0387    0.0000 </r>
       <r>   15.0000    0.0000 </r>
       <r>   25.4278    0.0000 </r>
       <r>   26.2713    0.0000 </r>
       <r>   28.4293    0.0000 </r>
       <r>   35.8452    0.0000 </r>
       <r>   41.0725    0.0000 </r>
       <r>   52.0013    0.0000 </r>
      </set>
      <set comment="kpoint 29">
       <r>    7.7192    1.0000 </r>
       <r>    8.9239    1.0000 </r>
       <r>   10.0778    1.0000 </r>
       <r>   11.4734    1.0000 </r>
       <r>   12.9774    0.0000 </r>
       <r>   14.8687    0.0000 </r>
       <r>   22.6395    0.0000 </r>
       <r>   29.5515    0.0000 </r>
       <r>   31.2359    0.0000 </r>
       <r>   37.0947    0.0000 </r>
       <r>   45.8728    0.0000 </r>
       <r>   48.4717    0.0000 </r>
      </set>
      <set comment="kpoint 30">
       <r>    6.8645    1.0000 </r>
       <r>    8.4248    1.0000 </r>
       <r>   11.2751    1.0000 </r>
       <r>   12.3090    0.0000 </r>
       <r>   12.8237    0.0000 </r>
       <r>   12.9039    0.0000 </r>
       <r>   28.3417    0.0000 </r>
       <r>   29.2245    0.0000 </r>
       <r>   30.2451    0.0000 </r>
       <r>   34.4331    0.0000 </r>
       <r>   39.5361    0.0000 </r>
       <r>   52.2430    0.0000 </r>
      </set>
      <set comment="kpoint 31">
       <r>    6.3500    1.0000 </r>
       <r>    8.9437    1.0000 </r>
       <r>   10.4576    1.0000 </r>
       <r>   11.6885    0.9241 </r>
       <r>   12.2478    0.0000 </r>
       <r>   13.0427    0.0000 </r>
       <r>   28.1493    0.0000 </r>
       <r>   30.6051    0.0000 </r>
       <r>   32.8410    0.0000 </r>
       <r>   36.9590    0.0000 </r>
       <r>   42.6047    0.0000 </r>
       <r>   48.9338    0.0000 </r>
      </set>
      <set comment="kpoint 32">
       <r>    4.8208    1.0000 </r>
       <r>    9.3387    1.0000 </r>
       <r>   10.9410    1.0000 </r>
       <r>   11.3145    1.0000 </r>
       <r>   11.5686    1.0000 </r>
       <r>   12.4662    0.0000 </r>
       <r>   31.9116    0.0000 </r>
       <r>   34.2141    0.0000 </r>
       <r>   34.2169    0.0000 </r>
       <r>   36.1448    0.0000 </r>
       <r>   42.8014    0.0000 </r>
       <r>   49.4894    0.0000 </r>
      </set>
      <set comment="kpoint 33">
       <r>    3.6710    1.0000 </r>
       <r>    9.9903    1.0000 </r>
       <r>   10.7271    1.0000 </r>
       <r>   10.7271    1.0000 </r>
       <r>   11.9912    0.0000 </r>
       <r>   11.9912    0.0000 </r>
       <r>   31.0757    0.0000 </r>
       <r>   36.3777    0.0000 </r>
       <r>   39.8947    0.0000 </r>
       <r>   39.8947    0.0000 </r>
       <r>   44.9515    0.0000 </r>
       <r>   45.6767    0.0000 </r>
      </set>
      <set comment="kpoint 34">
       <r>    4.8342    1.0000 </r>
       <r>    9.6543    1.0000 </r>
       <r>   10.6581    1.0000 </r>
       <r>   11.0443    1.0000 </r>
       <r>   11.5841    1.0000 </r>
       <r>   12.6415    0.0000 </r>
       <r>   29.4432    0.0000 </r>
       <r>   32.0565    0.0000 </r>
       <r>   39.5849    0.0000 </r>
       <r>   41.5948    0.0000 </r>
       <r>   42.1498    0.0000 </r>
       <r>   44.7485    0.0000 </r>
      </set>
      <set comment="kpoint 35">
       <r>    6.7071    1.0000 </r>
       <r>    9.4153    1.0000 </r>
       <r>   10.1589    1.0000 </r>
       <r>   11.2109    1.0000 </r>
       <r>   11.7902    0.0747 </r>
       <r>   13.7629    0.0000 </r>
       <r>   25.9635    0.0000 </r>
       <r>   28.7550    0.0000 </r>
       <r>   37.6064    0.0000 </r>
       <r>   38.8846    0.0000 </r>
       <r>   43.5838    0.0000 </r>
       <r>   46.0992    0.0000 </r>
      </set>
      <set comment="kpoint 36">
       <r>    7.7953    1.0000 </r>
       <r>    9.4742    1.0000 </r>
       <r>   10.0790    1.0000 </r>
       <r>   11.0386    1.0000 </r>
       <r>   12.6279    0.0000 </r>
       <r>   15.3590    0.0000 </r>
       <r>   21.0095    0.0000 </r>
       <r>   28.9657    0.0000 </r>
       <r>   35.6325    0.0000 </r>
       <r>   35.9978    0.0000 </r>
       <r>   46.0605    0.0000 </r>
       <r>   46.3019    0.0000 </r>
      </set>
      <set comment="kpoint 37">
       <r>    7.7115    1.0000 </r>
       <r>    9.2154    1.0000 </r>
       <r>   10.2211    1.0000 </r>
       <r>   11.1178    1.0000 </r>
       <r>   13.0797    0.0000 </r>
       <r>   15.0966    0.0000 </r>
       <r>   20.9377    0.0000 </r>
       <r>   30.2453    0.0000 </r>
       <r>   33.5758    0.0000 </r>
       <r>   35.7624    0.0000 </r>
       <r>   47.0954    0.0000 </r>
       <r>   47.4504    0.0000 </r>
      </set>
      <set comment="kpoint 38">
       <r>    6.5931    1.0000 </r>
       <r>    9.0557    1.0000 </r>
       <r>   10.3433    1.0000 </r>
       <r>   11.3283    1.0000 </r>
       <r>   12.8932    0.0000 </r>
       <r>   12.9169    0.0000 </r>
       <r>   25.8737    0.0000 </r>
       <r>   32.2432    0.0000 </r>
       <r>   33.1360    0.0000 </r>
       <r>   36.4102    0.0000 </r>
       <r>   44.9073    0.0000 </r>
       <r>   48.3294    0.0000 </r>
      </set>
      <set comment="kpoint 39">
       <r>    5.4901    1.0000 </r>
       <r>    9.4417    1.0000 </r>
       <r>   10.5861    1.0000 </r>
       <r>   11.0169    1.0000 </r>
       <r>   12.1729    0.0000 </r>
       <r>   12.6075    0.0000 </r>
       <r>   27.4158    0.0000 </r>
       <r>   34.2782    0.0000 </r>
       <r>   35.2134    0.0000 </r>
       <r>   38.6515    0.0000 </r>
       <r>   45.1639    0.0000 </r>
       <r>   46.4002    0.0000 </r>
      </set>
      <set comment="kpoint 40">
       <r>    6.9181    1.0000 </r>
       <r>    9.1149    1.0000 </r>
       <r>   10.0735    1.0000 </r>
       <r>   11.5592    1.0000 </r>
       <r>   12.1284    0.0000 </r>
       <r>   13.7592    0.0000 </r>
       <r>   26.1860    0.0000 </r>
       <r>   28.9203    0.0000 </r>
       <r>   33.5055    0.0000 </r>
       <r>   39.7680    0.0000 </r>
       <r>   43.2982    0.0000 </r>
       <r>   47.3326    0.0000 </r>
      </set>
      <set comment="kpoint 41">
       <r>    8.2181    1.0000 </r>
       <r>    9.1052    1.0000 </r>
       <r>    9.4938    1.0000 </r>
       <r>   11.6870    0.9301 </r>
       <r>   12.5399    0.0000 </r>
       <r>   15.8470    0.0000 </r>
       <r>   23.1235    0.0000 </r>
       <r>   26.3444    0.0000 </r>
       <r>   30.7765    0.0000 </r>
       <r>   40.7041    0.0000 </r>
       <r>   43.0552    0.0000 </r>
       <r>   49.6469    0.0000 </r>
      </set>
      <set comment="kpoint 42">
       <r>    8.4559    1.0000 </r>
       <r>    8.7481    1.0000 </r>
       <r>    9.8228    1.0000 </r>
       <r>   11.6277    0.9992 </r>
       <r>   12.9315    0.0000 </r>
       <r>   17.5582    0.0000 </r>
       <r>   20.3744    0.0000 </r>
       <r>   27.2711    0.0000 </r>
       <r>   28.9980    0.0000 </r>
       <r>   39.4799    0.0000 </r>
       <r>   44.5832    0.0000 </r>
       <r>   50.5933    0.0000 </r>
      </set>
      <set comment="kpoint 43">
       <r>    7.6822    1.0000 </r>
       <r>    8.8132    1.0000 </r>
       <r>    9.9578    1.0000 </r>
       <r>   11.9510    0.0000 </r>
       <r>   12.5953    0.0000 </r>
       <r>   14.7680    0.0000 </r>
       <r>   24.8741    0.0000 </r>
       <r>   27.6402    0.0000 </r>
       <r>   30.0142    0.0000 </r>
       <r>   39.0464    0.0000 </r>
       <r>   43.6315    0.0000 </r>
       <r>   47.8524    0.0000 </r>
      </set>
      <set comment="kpoint 44">
       <r>    7.3866    1.0000 </r>
       <r>    8.6785    1.0000 </r>
       <r>   10.3924    1.0000 </r>
       <r>   11.7235    0.6713 </r>
       <r>   13.0839    0.0000 </r>
       <r>   14.0994    0.0000 </r>
       <r>   24.5398    0.0000 </r>
       <r>   29.2681    0.0000 </r>
       <r>   31.4313    0.0000 </r>
       <r>   35.4983    0.0000 </r>
       <r>   44.0218    0.0000 </r>
       <r>   50.9393    0.0000 </r>
      </set>
      <set comment="kpoint 45">
       <r>    7.8806    1.0000 </r>
       <r>    8.5827    1.0000 </r>
       <r>   10.2592    1.0000 </r>
       <r>   12.2257    0.0000 </r>
       <r>   12.9624    0.0000 </r>
       <r>   16.3031    0.0000 </r>
       <r>   23.8395    0.0000 </r>
       <r>   26.1170    0.0000 </r>
       <r>   27.4199    0.0000 </r>
       <r>   38.5809    0.0000 </r>
       <r>   43.8199    0.0000 </r>
       <r>   48.7706    0.0000 </r>
      </set>
      <set comment="kpoint 46">
       <r>    8.2156    1.0000 </r>
       <r>    8.9835    1.0000 </r>
       <r>    9.7091    1.0000 </r>
       <r>   11.9259    0.0000 </r>
       <r>   13.1911    0.0000 </r>
       <r>   19.6294    0.0000 </r>
       <r>   21.4618    0.0000 </r>
       <r>   24.1839    0.0000 </r>
       <r>   25.7928    0.0000 </r>
       <r>   41.6107    0.0000 </r>
       <r>   45.2159    0.0000 </r>
       <r>   47.5615    0.0000 </r>
      </set>
      <set comment="kpoint 47">
       <r>    8.3505    1.0000 </r>
       <r>    8.9866    1.0000 </r>
       <r>    9.5332    1.0000 </r>
       <r>   11.8839    0.0000 </r>
       <r>   12.9341    0.0000 </r>
       <r>   17.6342    0.0000 </r>
       <r>   22.1032    0.0000 </r>
       <r>   25.5155    0.0000 </r>
       <r>   27.5167    0.0000 </r>
       <r>   41.5942    0.0000 </r>
       <r>   43.5057    0.0000 </r>
       <r>   48.8376    0.0000 </r>
      </set>
      <set comment="kpoint 48">
       <r>    7.6400    1.0000 </r>
       <r>    8.2522    1.0000 </r>
       <r>   11.1592    1.0000 </r>
       <r>   12.4696    0.0000 </r>
       <r>   13.0790    0.0000 </r>
       <r>   17.2524    0.0000 </r>
       <r>   22.6456    0.0000 </r>
[...]
       </set>
       <set comment="band 5">
        <r>  0.0002  0.0000  0.0005  0.0008  0.0025  0.0310  0.0001  0.9524  0.0062 </r>
       </set>
       <set comment="band 6">
        <r>  0.0249  0.0075  0.5159  0.0011  0.0002  0.3106  0.0311  0.0155  0.0021 </r>
       </set>
       <set comment="band 7">
        <r>  0.0018  0.1449  0.0124  0.2881  0.1581  0.0090  0.2198  0.0051  0.0207 </r>
       </set>
       <set comment="band 8">
        <r>  0.2865  0.0162  0.0339  0.1218  0.0946  0.0051  0.3149  0.0006  0.0003 </r>
       </set>
       <set comment="band 9">
        <r>  0.2657  0.1837  0.0042  0.1541  0.0541  0.0014  0.0038  0.0015  0.1027 </r>
       </set>
       <set comment="band 10">
        <r>  0.0226  0.0276  0.0005  0.0690  0.7000  0.0000  0.0141  0.0011  0.0047 </r>
       </set>
       <set comment="band 11">
        <r>  0.2555  0.2567  0.0051  0.0141  0.0713  0.0000  0.1671  0.0003  0.0093 </r>
       </set>
       <set comment="band 12">
        <r>  0.1151  0.0018  0.0295  0.0002  0.0001  0.3893  0.0199  0.0024  0.0295 </r>
       </set>
      </set>
      <set comment="kpoint 50">
       <set comment="band 1">
        <r>  0.0882  0.0104  0.0500  0.0104  0.0603  0.0076  0.6467  0.0076  0.0000 </r>
       </set>
       <set comment="band 2">
        <r>  0.0005  0.0283  0.0002  0.0283  0.8218  0.0080  0.0530  0.0080  0.0000 </r>
       </set>
       <set comment="band 3">
        <r>  0.0394  0.0000  0.1950  0.0000  0.0319  0.2943  0.0808  0.2943  0.0000 </r>
       </set>
       <set comment="band 4">
        <r>  0.0000  0.0060  0.0000  0.0060  0.0000  0.1639  0.0000  0.1639  0.6383 </r>
       </set>
       <set comment="band 5">
        <r>  0.0000  0.0000  0.0000  0.0000  0.0000  0.3282  0.0000  0.3282  0.3376 </r>
       </set>
       <set comment="band 6">
        <r>  0.0753  0.0170  0.3107  0.0170  0.0050  0.1873  0.1266  0.1873  0.0000 </r>
       </set>
       <set comment="band 7">
        <r>  0.1044  0.2047  0.0024  0.2047  0.1761  0.0361  0.0764  0.0361  0.0000 </r>
       </set>
       <set comment="band 8">
        <r>  0.2253  0.0000  0.1716  0.0000  0.0248  0.0047  0.4244  0.0047  0.0000 </r>
       </set>
       <set comment="band 9">
        <r>  0.0000  0.2986  0.0000  0.2986  0.0000  0.0235  0.0000  0.0235  0.0930 </r>
       </set>
       <set comment="band 10">
        <r>  0.1365  0.0011  0.0206  0.0011  0.6782  0.0001  0.0332  0.0001  0.0000 </r>
       </set>
       <set comment="band 11">
        <r>  0.2491  0.0998  0.0322  0.0998  0.1986  0.0059  0.1119  0.0059  0.0000 </r>
       </set>
       <set comment="band 12">
        <r>  5.2897  0.0069  0.0058  0.0072  0.0158  0.0040  0.0204  0.0046  0.0002 </r>
       </set>
      </set>
      <set comment="kpoint 51">
       <set comment="band 1">
        <r>  0.4974  0.0547  0.0547  0.0547  0.0611  0.0611  0.0000  0.0611  0.0000 </r>
       </set>
       <set comment="band 2">
        <r>  0.0252  0.0626  0.0626  0.0626  0.2340  0.2340  0.0000  0.2340  0.0000 </r>
       </set>
       <set comment="band 3">
        <r>  0.0000  0.0003  0.0002  0.0007  0.0705  0.3293  0.0835  0.1455  0.3471 </r>
       </set>
       <set comment="band 4">
        <r>  0.0000  0.0005  0.0006  0.0001  0.2931  0.0342  0.3471  0.2181  0.0835 </r>
       </set>
       <set comment="band 5">
        <r>  0.0000  0.0014  0.0004  0.0004  0.0747  0.0723  0.1412  0.2876  0.4066 </r>
       </set>
       <set comment="band 6">
        <r>  0.0000  0.0000  0.0011  0.0011  0.2151  0.2174  0.4066  0.0021  0.1412 </r>
       </set>
       <set comment="band 7">
        <r>  0.1778  0.0853  0.0853  0.0853  0.1499  0.1499  0.0000  0.1499  0.0000 </r>
       </set>
       <set comment="band 8">
        <r>  0.0090  0.0036  0.0036  0.0036  0.0229  0.0229  0.0000  0.0229  0.0000 </r>
       </set>
       <set comment="band 9">
        <r>  0.0000  0.0474  0.1348  0.1859  0.1560  0.2152  0.0607  0.0548  0.0498 </r>
       </set>
       <set comment="band 10">
        <r>  0.0000  0.1980  0.1106  0.0595  0.1280  0.0689  0.0498  0.2292  0.0607 </r>
       </set>
       <set comment="band 11">
        <r>  0.0000  0.0408  0.0336  0.0606  0.0042  0.0076  0.2550  0.0051  0.4285 </r>
       </set>
       <set comment="band 12">
        <r>  0.0000  0.0491  0.0564  0.0294  0.0071  0.0037  0.4285  0.0062  0.2550 </r>
       </set>
      </set>
      <set comment="kpoint 52">
       <set comment="band 1">
        <r>  0.3627  0.0860  0.0860  0.0033  0.0772  0.1614  0.0033  0.0772  0.0098 </r>
       </set>
       <set comment="band 2">
        <r>  0.0206  0.0658  0.0658  0.0897  0.2884  0.0145  0.0180  0.2884  0.0540 </r>
       </set>
       <set comment="band 3">
        <r>  0.0014  0.0023  0.0023  0.0032  0.0645  0.3443  0.1204  0.0645  0.3613 </r>
       </set>
       <set comment="band 4">
        <r>  0.0000  0.0007  0.0007  0.0000  0.1901  0.0000  0.4439  0.1901  0.1480 </r>
       </set>
       <set comment="band 5">
        <r>  0.0000  0.0012  0.0012  0.0000  0.3010  0.0000  0.2829  0.3010  0.0943 </r>
       </set>
       <set comment="band 6">
        <r>  0.0382  0.0290  0.0290  0.0074  0.0072  0.4480  0.1023  0.0072  0.3069 </r>
       </set>
       <set comment="band 7">
        <r>  0.2064  0.0460  0.0460  0.1627  0.1605  0.1023  0.0044  0.1605  0.0131 </r>
       </set>
       <set comment="band 8">
        <r>  0.0438  0.0246  0.0246  0.1721  0.0973  0.0737  0.0358  0.0973  0.1074 </r>
       </set>
       <set comment="band 9">
        <r>  0.0377  0.1024  0.1024  0.0797  0.0034  0.0018  0.0025  0.0034  0.0076 </r>
       </set>
       <set comment="band 10">
        <r>  0.0000  0.1705  0.1705  0.0000  0.0011  0.0000  0.4091  0.0011  0.1364 </r>
       </set>
       <set comment="band 11">
        <r>  0.0679  0.0096  0.0096  0.0251  0.0153  0.1437  0.0680  0.0153  0.2040 </r>
       </set>
       <set comment="band 12">
        <r>  0.0000  0.0763  0.0763  0.0000  0.2970  0.0000  0.1934  0.2970  0.0645 </r>
       </set>
      </set>
      <set comment="kpoint 53">
       <set comment="band 1">
        <r>  0.1725  0.1072  0.1072  0.0021  0.0303  0.4078  0.0088  0.0303  0.0263 </r>
       </set>
       <set comment="band 2">
        <r>  0.0005  0.0346  0.0346  0.0241  0.0520  0.1113  0.1501  0.0520  0.4503 </r>
       </set>
       <set comment="band 3">
        <r>  0.0039  0.0017  0.0017  0.0931  0.3311  0.1105  0.0193  0.3311  0.0579 </r>
       </set>
       <set comment="band 4">
        <r>  0.0000  0.0047  0.0047  0.0000  0.0445  0.0000  0.6534  0.0445  0.2178 </r>
       </set>
       <set comment="band 5">
        <r>  0.0000  0.0004  0.0004  0.0000  0.4468  0.0000  0.0661  0.4468  0.0220 </r>
       </set>
       <set comment="band 6">
        <r>  0.1230  0.0902  0.0902  0.0058  0.0003  0.3852  0.0607  0.0003  0.1821 </r>
       </set>
       <set comment="band 7">
        <r>  0.1064  0.0097  0.0097  0.3666  0.1881  0.0283  0.0075  0.1881  0.0224 </r>
       </set>
       <set comment="band 8">
        <r>  0.2225  0.0451  0.0451  0.1152  0.0396  0.0727  0.0560  0.0396  0.1679 </r>
       </set>
       <set comment="band 9">
        <r>  0.0000  0.2227  0.2227  0.0000  0.0009  0.0000  0.3197  0.0009  0.1066 </r>
       </set>
       <set comment="band 10">
        <r>  0.1062  0.0663  0.0663  0.0052  0.0000  0.1531  0.0220  0.0000  0.0660 </r>
       </set>
       <set comment="band 11">
        <r>  0.0178  0.0001  0.0001  0.0791  0.0493  0.0337  0.0077  0.0493  0.0230 </r>
       </set>
       <set comment="band 12">
        <r>  0.0000  0.0117  0.0117  0.0000  0.3789  0.0000  0.0429  0.3789  0.0143 </r>
       </set>
      </set>
      <set comment="kpoint 54">
       <set comment="band 1">
        <r>  0.0463  0.0000  0.0000  0.0066  0.0082  0.4262  0.1081  0.0082  0.3242 </r>
       </set>
       <set comment="band 2">
        <r>  0.0104  0.0918  0.0918  0.0000  0.0048  0.3503  0.0866  0.0048  0.2598 </r>
       </set>
       <set comment="band 3">
        <r>  0.0015  0.0014  0.0014  0.1711  0.3662  0.0300  0.0012  0.3662  0.0036 </r>
       </set>
       <set comment="band 4">
        <r>  0.0000  0.0066  0.0066  0.0000  0.0358  0.0000  0.6659  0.0358  0.2220 </r>
       </set>
       <set comment="band 5">
        <r>  0.0000  0.0002  0.0002  0.0000  0.4577  0.0000  0.0538  0.4577  0.0179 </r>
       </set>
       <set comment="band 6">
        <r>  0.0725  0.1618  0.1618  0.0769  0.0161  0.2084  0.0422  0.0161  0.1267 </r>
       </set>
       <set comment="band 7">
        <r>  0.1202  0.0099  0.0099  0.3913  0.1709  0.0511  0.0001  0.1709  0.0003 </r>
       </set>
       <set comment="band 8">
        <r>  0.3310  0.0175  0.0175  0.0651  0.0107  0.0407  0.0871  0.0107  0.2612 </r>
       </set>
       <set comment="band 9">
        <r>  0.0000  0.2717  0.2717  0.0000  0.0018  0.0000  0.1848  0.0018  0.0616 </r>
       </set>
       <set comment="band 10">
        <r>  0.1435  0.0268  0.0268  0.0034  0.0000  0.4131  0.0197  0.0000  0.0592 </r>
       </set>
       <set comment="band 11">
        <r>  0.5883  0.0922  0.0922  0.0118  0.0017  0.3248  0.0165  0.0017  0.0496 </r>
       </set>
       <set comment="band 12">
        <r>  0.0001  0.0054  0.0054  0.0000  0.2745  0.0000  0.0327  0.2758  0.0107 </r>
       </set>
      </set>
      <set comment="kpoint 55">
       <set comment="band 1">
        <r>  0.2740  0.0080  0.0916  0.0080  0.1833  0.1503  0.0304  0.1503  0.0000 </r>
       </set>
       <set comment="band 2">
        <r>  0.0133  0.0907  0.0636  0.0907  0.1730  0.0479  0.3585  0.0479  0.0000 </r>
       </set>
       <set comment="band 3">
        <r>  0.0165  0.0130  0.0365  0.0130  0.4562  0.0745  0.2758  0.0745  0.0000 </r>
       </set>
       <set comment="band 4">
        <r>  0.0000  0.0031  0.0000  0.0031  0.0000  0.2237  0.0000  0.2237  0.5207 </r>
       </set>
       <set comment="band 5">
        <r>  0.0000  0.0002  0.0000  0.0002  0.0000  0.2674  0.0000  0.2674  0.4574 </r>
       </set>
       <set comment="band 6">
        <r>  0.0371  0.0351  0.0838  0.0351  0.0952  0.1797  0.3037  0.1797  0.0000 </r>
       </set>
       <set comment="band 7">
        <r>  0.2752  0.0933  0.0127  0.0933  0.1873  0.1223  0.0093  0.1223  0.0000 </r>
       </set>
       <set comment="band 8">
        <r>  0.0022  0.0004  0.0764  0.0004  0.0952  0.0070  0.2776  0.0070  0.0000 </r>
       </set>
       <set comment="band 9">
        <r>  0.0000  0.2424  0.0000  0.2424  0.0000  0.0886  0.0000  0.0886  0.1550 </r>
       </set>
       <set comment="band 10">
        <r>  0.1065  0.0386  0.2555  0.0386  0.1491  0.0066  0.0711  0.0066  0.0000 </r>
       </set>
       <set comment="band 11">
        <r>  0.0240  0.0002  0.0144  0.0002  0.3192  0.0243  0.4613  0.0243  0.0000 </r>
       </set>
       <set comment="band 12">
        <r>  0.0000  0.0526  0.0000  0.0526  0.0000  0.0807  0.0000  0.0807  0.5563 </r>
       </set>
      </set>
      <set comment="kpoint 56">
       <set comment="band 1">
        <r>  0.1453  0.0183  0.0852  0.0080  0.2503  0.2456  0.0643  0.0980  0.0017 </r>
       </set>
       <set comment="band 2">
        <r>  0.0001  0.0810  0.0249  0.0539  0.0872  0.0333  0.4714  0.0244  0.1160 </r>
       </set>
       <set comment="band 3">
        <r>  0.0122  0.0095  0.0529  0.0463  0.4017  0.3336  0.0541  0.0043  0.0361 </r>
       </set>
       <set comment="band 4">
        <r>  0.0000  0.0017  0.0136  0.0026  0.0323  0.0098  0.1486  0.2414  0.5202 </r>
       </set>
       <set comment="band 5">
        <r>  0.0007  0.0004  0.0027  0.0019  0.0871  0.0628  0.0636  0.5502  0.2179 </r>
       </set>
       <set comment="band 6">
        <r>  0.0666  0.0736  0.1679  0.0496  0.0229  0.2960  0.1625  0.0106  0.0730 </r>
       </set>
       <set comment="band 7">
        <r>  0.2738  0.0377  0.0000  0.1840  0.2060  0.0793  0.0126  0.1126  0.0121 </r>
       </set>
       <set comment="band 8">
        <r>  0.0313  0.0935  0.0063  0.1724  0.0983  0.0624  0.1668  0.0186  0.1187 </r>
       </set>
       <set comment="band 9">
        <r>  0.1631  0.0004  0.2661  0.0749  0.0013  0.0184  0.1952  0.0296  0.0384 </r>
       </set>
       <set comment="band 10">
        <r>  0.0044  0.2496  0.0402  0.0334  0.1060  0.0048  0.0029  0.0032  0.0001 </r>
       </set>
       <set comment="band 11">
        <r>  0.0596  0.0202  0.0007  0.0054  0.2835  0.1634  0.0794  0.0411  0.2410 </r>
       </set>
       <set comment="band 12">
        <r>  0.0101  0.0319  0.0165  0.0003  0.0989  0.0829  0.2402  0.0254  0.0459 </r>
       </set>
      </set>
      <set comment="kpoint 57">
       <set comment="band 1">
        <r>  0.0013  0.0779  0.0187  0.0034  0.0003  0.0007  0.4534  0.0001  0.3285 </r>
       </set>
       <set comment="band 2">
        <r>  0.0390  0.0102  0.0869  0.0065  0.0360  0.7447  0.0002  0.0124  0.0077 </r>
       </set>
       <set comment="band 3">
        <r>  0.0008  0.0012  0.0056  0.1397  0.6803  0.0507  0.0042  0.0620  0.0008 </r>
       </set>
       <set comment="band 4">
        <r>  0.0084  0.0012  0.0083  0.0017  0.0004  0.0034  0.3882  0.0272  0.5303 </r>
       </set>
       <set comment="band 5">
        <r>  0.0008  0.0000  0.0000  0.0030  0.1100  0.0059  0.0110  0.8443  0.0144 </r>
       </set>
       <set comment="band 6">
        <r>  0.0629  0.1054  0.2495  0.0637  0.0257  0.2171  0.1072  0.0008  0.0576 </r>
       </set>
       <set comment="band 7">
        <r>  0.1137  0.0000  0.0246  0.4055  0.2507  0.0464  0.0002  0.0741  0.0040 </r>
       </set>
       <set comment="band 8">
        <r>  0.2584  0.0843  0.0006  0.0738  0.0244  0.0396  0.1244  0.0037  0.2278 </r>
       </set>
       <set comment="band 9">
        <r>  0.1901  0.0734  0.2554  0.0037  0.0004  0.0689  0.2016  0.0022  0.0099 </r>
       </set>
       <set comment="band 10">
        <r>  0.0342  0.1541  0.0352  0.0022  0.0004  0.3412  0.0039  0.0005  0.0722 </r>
       </set>
       <set comment="band 11">
        <r>  0.0061  0.0171  0.0004  0.0464  0.4523  0.0353  0.0117  0.0159  0.0184 </r>
       </set>
       <set comment="band 12">
        <r>  0.3786  0.2512  0.0249  0.0003  0.0392  0.2652  0.0275  0.0000  0.0598 </r>
       </set>
      </set>
      <set comment="kpoint 58">
       <set comment="band 1">
        <r>  0.0925  0.0023  0.0418  0.0023  0.4867  0.0797  0.1485  0.0797  0.0000 </r>
       </set>
       <set comment="band 2">
        <r>  0.0002  0.0811  0.0078  0.0811  0.1188  0.0112  0.5765  0.0112  0.0000 </r>
       </set>
       <set comment="band 3">
        <r>  0.0101  0.0098  0.1323  0.0098  0.2144  0.2641  0.0405  0.2641  0.0000 </r>
       </set>
       <set comment="band 4">
        <r>  0.0000  0.0057  0.0000  0.0057  0.0000  0.1371  0.0000  0.1371  0.6866 </r>
       </set>
       <set comment="band 5">
        <r>  0.0000  0.0002  0.0000  0.0002  0.0000  0.3558  0.0000  0.3558  0.2784 </r>
       </set>
       <set comment="band 6">
        <r>  0.0072  0.0990  0.2366  0.0990  0.0700  0.0921  0.2042  0.0921  0.0000 </r>
       </set>
       <set comment="band 7">
        <r>  0.3208  0.0683  0.0469  0.0683  0.1937  0.1053  0.0073  0.1053  0.0000 </r>
       </set>
       <set comment="band 8">
        <r>  0.1558  0.0131  0.1989  0.0131  0.0296  0.0278  0.3485  0.0278  0.0000 </r>
       </set>
       <set comment="band 9">
        <r>  0.0000  0.2674  0.0000  0.2674  0.0000  0.0165  0.0000  0.0165  0.2263 </r>
       </set>
       <set comment="band 10">
        <r>  0.1389  0.0301  0.0329  0.0301  0.3678  0.0002  0.0436  0.0002  0.0000 </r>
       </set>
       <set comment="band 11">
        <r>  0.0000  0.0497  0.0322  0.0497  0.3703  0.0054  0.0364  0.0054  0.0000 </r>
       </set>
       <set comment="band 12">
        <r>  0.0000  0.0285  0.0000  0.0285  0.0000  0.2028  0.0000  0.2028  0.2496 </r>
       </set>
      </set>
      <set comment="kpoint 59">
       <set comment="band 1">
        <r>  0.2557  0.0090  0.0090  0.0090  0.2123  0.2123  0.0000  0.2123  0.0000 </r>
       </set>
       <set comment="band 2">
        <r>  0.0000  0.0001  0.0000  0.0001  0.0206  0.1797  0.0415  0.2156  0.5171 </r>
       </set>
       <set comment="band 3">
        <r>  0.0000  0.0000  0.0001  0.0000  0.2566  0.0975  0.5171  0.0617  0.0415 </r>
       </set>
       <set comment="band 4">
        <r>  0.0309  0.2154  0.2154  0.2154  0.0398  0.0398  0.0000  0.0398  0.0000 </r>
       </set>
       <set comment="band 5">
        <r>  0.0000  0.0001  0.0003  0.0002  0.3167  0.1749  0.3479  0.0803  0.0709 </r>
       </set>
       <set comment="band 6">
        <r>  0.0000  0.0003  0.0001  0.0002  0.0645  0.2064  0.0709  0.3009  0.3479 </r>
       </set>
       <set comment="band 7">
        <r>  0.3720  0.0254  0.0254  0.0254  0.1676  0.1676  0.0000  0.1676  0.0000 </r>
       </set>
       <set comment="band 8">
        <r>  0.0008  0.0102  0.0102  0.0102  0.0030  0.0030  0.0000  0.0030  0.0000 </r>
       </set>
       <set comment="band 9">
        <r>  0.0000  0.1139  0.3559  0.0755  0.0565  0.0120  0.0211  0.0181  0.0005 </r>
       </set>
       <set comment="band 10">
        <r>  0.0000  0.2497  0.0076  0.2880  0.0012  0.0457  0.0005  0.0396  0.0211 </r>
       </set>
       <set comment="band 11">
        <r>  0.0000  0.0059  0.0191  0.0045  0.2073  0.0493  0.7955  0.0636  0.0236 </r>
       </set>
       <set comment="band 12">
        <r>  0.0000  0.0138  0.0006  0.0151  0.0061  0.1641  0.0236  0.1499  0.7955 </r>
       </set>
      </set>
      <set comment="kpoint 60">
       <set comment="band 1">
        <r>  0.1886  0.0111  0.0111  0.0118  0.2102  0.2882  0.0000  0.2102  0.0000 </r>
       </set>
       <set comment="band 2">
        <r>  0.0002  0.0570  0.0570  0.0249  0.0104  0.0646  0.1707  0.0104  0.5120 </r>
       </set>
       <set comment="band 3">
        <r>  0.0010  0.0900  0.0900  0.1215  0.1450  0.3139  0.0005  0.1450  0.0016 </r>
       </set>
       <set comment="band 4">
        <r>  0.0000  0.0018  0.0018  0.0000  0.1823  0.0000  0.4533  0.1823  0.1511 </r>
       </set>
       <set comment="band 5">
        <r>  0.0000  0.0003  0.0003  0.0000  0.3113  0.0000  0.2752  0.3113  0.0917 </r>
       </set>
       <set comment="band 6">
        <r>  0.0076  0.0991  0.0991  0.0970  0.0339  0.2515  0.0741  0.0339  0.2222 </r>
       </set>
       <set comment="band 7">
        <r>  0.4039  0.0000  0.0000  0.0464  0.1742  0.1562  0.0005  0.1742  0.0016 </r>
       </set>
       <set comment="band 8">
        <r>  0.0236  0.0053  0.0053  0.1572  0.0438  0.0568  0.0592  0.0438  0.1777 </r>
       </set>
       <set comment="band 9">
        <r>  0.0737  0.0858  0.0858  0.1537  0.0089  0.0380  0.0005  0.0089  0.0015 </r>
       </set>
       <set comment="band 10">
        <r>  0.0000  0.2316  0.2316  0.0000  0.0229  0.0000  0.2264  0.0229  0.0755 </r>
       </set>
       <set comment="band 11">
        <r>  0.0000  0.0569  0.0569  0.0000  0.1994  0.0000  0.3450  0.1994  0.1150 </r>
       </set>
       <set comment="band 12">
        <r>  0.0644  0.0004  0.0004  0.0009  0.0000  0.3304  0.1166  0.0000  0.3497 </r>
       </set>
      </set>
     </set>
    </set>
   </array>
  </projected>
 </calculation>
 <structure name="finalpos" >
  <crystal>
   <varray name="basis" >
    <v>       0.00000000       1.70163953       1.70163953 </v>
    <v>       1.70163953       0.00000000       1.70163953 </v>
    <v>       1.70163953       1.70163953       0.00000000 </v>
   </varray>
   <i name="volume">      9.85445688 </i>
   <varray name="rec_basis" >
    <v>      -0.29383426       0.29383426       0.29383426 </v>
    <v>       0.29383426      -0.29383426       0.29383426 </v>
    <v>       0.29383426       0.29383426      -0.29383426 </v>
   </varray>
  </crystal>
  <varray name="positions" >
   <v>       0.00000000       0.00000000       0.00000000 </v>
  </varray>
 </structure>
</modeling>
