Co-fcc                                  
           1
     0.000000    1.701640    1.701640
     1.701640    0.000000    1.701640
     1.701640    1.701640    0.000000
   Co
     1
Direct configuration=     1
   0.00000000  0.00000000  0.00000000
