Co-fcc                                  
   1.00000000000000     
     0.000000    1.734555    1.734555
     1.734555    0.000000    1.734555
     1.734555    1.734555    0.000000
   Co
     1
Direct
  0.000000  0.000000  0.000000
 
   32   32   32
 0.98860516342E+02 0.96721238651E+02 0.90591565128E+02 0.81260640072E+02 0.69825585029E+02
 0.57460475397E+02 0.45228497630E+02 0.33978616771E+02 0.24316203924E+02 0.16606847950E+02
 0.10978667554E+02 0.73184379087E+01 0.52835865030E+01 0.43553903969E+01 0.39433075495E+01
 0.37044401772E+01 0.36244137062E+01 0.37044401772E+01 0.39433075495E+01 0.43553903969E+01
 0.52835865030E+01 0.73184379087E+01 0.10978667554E+02 0.16606847950E+02 0.24316203924E+02
 0.33978616771E+02 0.45228497630E+02 0.57460475397E+02 0.69825585029E+02 0.81260640072E+02
 0.90591565128E+02 0.96721238651E+02 0.96721238651E+02 0.92588082300E+02 0.84867313091E+02
 0.74511499095E+02 0.62662506652E+02 0.50438789242E+02 0.38790834536E+02 0.28438853546E+02
 0.19863713279E+02 0.13310638596E+02 0.87858630130E+01 0.60572676259E+01 0.46855321958E+01
 0.41023346783E+01 0.37899157910E+01 0.36318095166E+01 0.36318094735E+01 0.37899156667E+01
 0.41023344899E+01 0.46855319724E+01 0.60572674062E+01 0.87858628296E+01 0.13310638460E+02
 0.19863713160E+02 0.28438853379E+02 0.38790834236E+02 0.50438788751E+02 0.62662505969E+02
 0.74511498295E+02 0.84867312330E+02 0.92588081749E+02 0.96721238449E+02 0.90591565128E+02
 0.84867313091E+02 0.76143183671E+02 0.65435105365E+02 0.53837530205E+02 0.42351317828E+02
 0.31785641376E+02 0.22724469064E+02 0.15522222947E+02 0.10299817922E+02 0.69393975981E+01
 0.50989168679E+01 0.42686207413E+01 0.38814920816E+01 0.36525920885E+01 0.35761722550E+01
 0.36525920482E+01 0.38814919815E+01 0.42686205652E+01 0.50989166305E+01 0.69393973514E+01
 0.10299817724E+02 0.15522222816E+02 0.22724468932E+02 0.31785641098E+02 0.42351317231E+02
 0.53837529188E+02 0.65435103976E+02 0.76143182136E+02 0.84867311761E+02 0.90591564353E+02
 0.92588081749E+02 0.81260640072E+02 0.74511499095E+02 0.65435105365E+02 0.55018998283E+02
 0.44246229761E+02 0.33970424751E+02 0.24853603222E+02 0.17344622644E+02 0.11669107541E+02
 0.78196096408E+01 0.55585552112E+01 0.44558162990E+01 0.39711099722E+01 0.36829114356E+01
 0.35385230302E+01 0.35385231048E+01 0.36829116057E+01 0.39711101155E+01 0.44558163104E+01
 0.55585550797E+01 0.78196094573E+01 0.11669107428E+02 0.17344622646E+02 0.24853603223E+02
 0.33970424499E+02 0.44246228982E+02 0.55018996853E+02 0.65435103432E+02 0.74511497085E+02
 0.81260638547E+02 0.84867311761E+02 0.84867312330E+02 0.69825585029E+02 0.62662506652E+02
 0.53837530205E+02 0.44246229761E+02 0.34729885944E+02 0.25989797032E+02 0.18544414560E+02
 0.12707227957E+02 0.85704534570E+01 0.59990789424E+01 0.46531119820E+01 0.40515711284E+01
 0.37174380403E+01 0.35169720273E+01 0.34506808462E+01 0.35169723451E+01 0.37174384847E+01
 0.40515714414E+01 0.46531120067E+01 0.59990787235E+01 0.85704532085E+01 0.12707227905E+02
 0.18544414763E+02 0.25989797289E+02 0.34729885866E+02 0.44246228990E+02 0.53837528637E+02
 0.62662504576E+02 0.69825583050E+02 0.74511497085E+02 0.76143182136E+02 0.74511498295E+02
 0.57460475397E+02 0.50438789242E+02 0.42351317828E+02 0.33970424751E+02 0.25989797032E+02
 0.18963060443E+02 0.13266846144E+02 0.90754047147E+01 0.63464907348E+01 0.48312397225E+01
 0.41216022838E+01 0.37505877937E+01 0.35076572678E+01 0.33881258812E+01 0.33881260931E+01
 0.35076577609E+01 0.37505882323E+01 0.41216023522E+01 0.48312393348E+01 0.63464900960E+01
 0.90754042044E+01 0.13266846069E+02 0.18963060834E+02 0.25989797580E+02 0.33970424965E+02
 0.42351317320E+02 0.50438787972E+02 0.57460473746E+02 0.62662504576E+02 0.65435103432E+02
 0.65435103976E+02 0.62662505969E+02 0.45228497630E+02 0.38790834536E+02 0.31785641376E+02
 0.24853603222E+02 0.18544414560E+02 0.13266846144E+02 0.92533845469E+01 0.65380481095E+01
 0.49559796973E+01 0.41765112202E+01 0.37775830957E+01 0.35059374057E+01 0.33471587898E+01
 0.32953456864E+01 0.33471591226E+01 0.35059377887E+01 0.37775831429E+01 0.41765106884E+01
 0.49559786590E+01 0.65380469334E+01 0.92533837115E+01 0.13266845963E+02 0.18544415012E+02
 0.24853603959E+02 0.31785641913E+02 0.38790834535E+02 0.45228497080E+02 0.50438787972E+02
 0.53837528637E+02 0.55018996853E+02 0.53837529188E+02 0.50438788751E+02 0.33978616771E+02
 0.28438853546E+02 0.22724469064E+02 0.17344622644E+02 0.12707227957E+02 0.90754047147E+01
 0.65380481095E+01 0.50008528518E+01 0.42072345913E+01 0.37950415673E+01 0.35074948734E+01
 0.33228424174E+01 0.32339078717E+01 0.32339080084E+01 0.33228426960E+01 0.35074949737E+01
 0.37950411765E+01 0.42072335925E+01 0.50008514225E+01 0.65380466459E+01 0.90754036567E+01
 0.12707227578E+02 0.17344622937E+02 0.22724469780E+02 0.28438854334E+02 0.33978617358E+02
 0.38790834535E+02 0.42351317320E+02 0.44246228990E+02 0.44246228982E+02 0.42351317231E+02
 0.38790834236E+02 0.24316203924E+02 0.19863713279E+02 0.15522222947E+02 0.11669107541E+02
 0.85704534570E+01 0.63464907348E+01 0.49559796973E+01 0.42072345913E+01 0.38010604744E+01
 0.35091168371E+01 0.33104740050E+01 0.31976518032E+01 0.31613536486E+01 0.31976519691E+01
 0.33104741943E+01 0.35091168293E+01 0.38010600820E+01 0.42072337467E+01 0.49559785047E+01
 0.63464894337E+01 0.85704523469E+01 0.11669106880E+02 0.15522222859E+02 0.19863713737E+02
 0.24316204758E+02 0.28438854334E+02 0.31785641913E+02 0.33970424965E+02 0.34729885866E+02
 0.33970424499E+02 0.31785641098E+02 0.28438853379E+02 0.16606847950E+02 0.13310638596E+02
 0.10299817922E+02 0.78196096408E+01 0.59990789424E+01 0.48312397225E+01 0.41765112202E+01
 0.37950415673E+01 0.35091168371E+01 0.33067460979E+01 0.31811074968E+01 0.31218048003E+01
 0.31218048429E+01 0.31811076271E+01 0.33067463186E+01 0.35091170990E+01 0.37950417606E+01
 0.41765111834E+01 0.48312393302E+01 0.59990781832E+01 0.78196086629E+01 0.10299817019E+02
 0.13310638072E+02 0.16606847993E+02 0.19863713737E+02 0.22724469780E+02 0.24853603959E+02
 0.25989797580E+02 0.25989797289E+02 0.24853603223E+02 0.22724468932E+02 0.19863713160E+02
 0.10978667554E+02 0.87858630130E+01 0.69393975981E+01 0.55585552112E+01 0.46531119820E+01
 0.41216022838E+01 0.37775830957E+01 0.35074948734E+01 0.33104740050E+01 0.31811074968E+01
 0.31093530068E+01 0.30865470563E+01 0.31093529419E+01 0.31811075247E+01 0.33104743308E+01
 0.35074955872E+01 0.37775840812E+01 0.41216032354E+01 0.46531125456E+01 0.55585551809E+01
 0.69393970046E+01 0.87858621439E+01 0.10978666786E+02 0.13310638072E+02 0.15522222859E+02
 0.17344622937E+02 0.18544415012E+02 0.18963060834E+02 0.18544414763E+02 0.17344622646E+02
 0.15522222816E+02 0.13310638460E+02 0.73184379087E+01 0.60572676259E+01 0.50989168679E+01
 0.44558162990E+01 0.40515711284E+01 0.37505877937E+01 0.35059374057E+01 0.33228424174E+01
 0.31976518032E+01 0.31218048003E+01 0.30865470563E+01 0.30865469106E+01 0.31218044892E+01
 0.31976516206E+01 0.33228426797E+01 0.35059382631E+01 0.37505891470E+01 0.40515726606E+01
 0.44558175994E+01 0.50989176343E+01 0.60572677481E+01 0.73184374999E+01 0.87858621439E+01
 0.10299817019E+02 0.11669106880E+02 0.12707227578E+02 0.13266845963E+02 0.13266846069E+02
 0.12707227905E+02 0.11669107428E+02 0.10299817724E+02 0.87858628296E+01 0.52835865030E+01
 0.46855321958E+01 0.42686207413E+01 0.39711099722E+01 0.37174380403E+01 0.35076572678E+01
 0.33471587898E+01 0.32339078717E+01 0.31613536486E+01 0.31218048429E+01 0.31093529419E+01
 0.31218044892E+01 0.31613530844E+01 0.32339073447E+01 0.33471585764E+01 0.35076575917E+01
 0.37174389732E+01 0.39711114228E+01 0.42686224208E+01 0.46855337329E+01 0.52835875504E+01
 0.60572677481E+01 0.69393970046E+01 0.78196086629E+01 0.85704523469E+01 0.90754036567E+01
 0.92533837115E+01 0.90754042044E+01 0.85704532085E+01 0.78196094573E+01 0.69393973514E+01
 0.60572674062E+01 0.43553903969E+01 0.41023346783E+01 0.38814920816E+01 0.36829114356E+01
 0.35169720273E+01 0.33881258812E+01 0.32953456864E+01 0.32339080084E+01 0.31976519691E+01
 0.31811076271E+01 0.31811075247E+01 0.31976516206E+01 0.32339073447E+01 0.32953447311E+01
 0.33881248405E+01 0.35169712883E+01 0.36829113941E+01 0.38814929607E+01 0.41023363653E+01
 0.43553924229E+01 0.46855337329E+01 0.50989176343E+01 0.55585551809E+01 0.59990781832E+01
 0.63464894337E+01 0.65380466459E+01 0.65380469334E+01 0.63464900960E+01 0.59990787235E+01
 0.55585550797E+01 0.50989166305E+01 0.46855319724E+01 0.39433075495E+01 0.37899157910E+01
 0.36525920885E+01 0.35385230302E+01 0.34506808462E+01 0.33881260931E+01 0.33471591226E+01
 0.33228426960E+01 0.33104741943E+01 0.33067463186E+01 0.33104743308E+01 0.33228426797E+01
 0.33471585764E+01 0.33881248405E+01 0.34506790851E+01 0.35385213159E+01 0.36525910735E+01
 0.37899158972E+01 0.39433087681E+01 0.41023363653E+01 0.42686224208E+01 0.44558175994E+01
 0.46531125456E+01 0.48312393302E+01 0.49559785047E+01 0.50008514225E+01 0.49559786590E+01
 0.48312393348E+01 0.46531120067E+01 0.44558163104E+01 0.42686205652E+01 0.41023344899E+01
 0.37044401772E+01 0.36318095166E+01 0.35761722550E+01 0.35385231048E+01 0.35169723451E+01
 0.35076577609E+01 0.35059377887E+01 0.35074949737E+01 0.35091168293E+01 0.35091170990E+01
 0.35074955872E+01 0.35059382631E+01 0.35076575917E+01 0.35169712883E+01 0.35385213159E+01
 0.35761702416E+01 0.36318079082E+01 0.37044394322E+01 0.37899158972E+01 0.38814929607E+01
 0.39711114228E+01 0.40515726606E+01 0.41216032354E+01 0.41765111834E+01 0.42072337467E+01
 0.42072335925E+01 0.41765106884E+01 0.41216023522E+01 0.40515714414E+01 0.39711101155E+01
 0.38814919815E+01 0.37899156667E+01 0.36244137062E+01 0.36318094735E+01 0.36525920482E+01
 0.36829116057E+01 0.37174384847E+01 0.37505882323E+01 0.37775831429E+01 0.37950411765E+01
 0.38010600820E+01 0.37950417606E+01 0.37775840812E+01 0.37505891470E+01 0.37174389732E+01
 0.36829113941E+01 0.36525910735E+01 0.36318079082E+01 0.36244119185E+01 0.36318079082E+01
 0.36525910735E+01 0.36829113941E+01 0.37174389732E+01 0.37505891470E+01 0.37775840812E+01
 0.37950417606E+01 0.38010600820E+01 0.37950411765E+01 0.37775831429E+01 0.37505882323E+01
 0.37174384847E+01 0.36829116057E+01 0.36525920482E+01 0.36318094735E+01 0.37044401772E+01
 0.37899156667E+01 0.38814919815E+01 0.39711101155E+01 0.40515714414E+01 0.41216023522E+01
 0.41765106884E+01 0.42072335925E+01 0.42072337467E+01 0.41765111834E+01 0.41216032354E+01
 0.40515726606E+01 0.39711114228E+01 0.38814929607E+01 0.37899158972E+01 0.37044394322E+01
 0.36318079082E+01 0.35761702416E+01 0.35385213159E+01 0.35169712883E+01 0.35076575917E+01
 0.35059382631E+01 0.35074955872E+01 0.35091170990E+01 0.35091168293E+01 0.35074949737E+01
 0.35059377887E+01 0.35076577609E+01 0.35169723451E+01 0.35385231048E+01 0.35761722550E+01
 0.36318095166E+01 0.39433075495E+01 0.41023344899E+01 0.42686205652E+01 0.44558163104E+01
 0.46531120067E+01 0.48312393348E+01 0.49559786590E+01 0.50008514225E+01 0.49559785047E+01
 0.48312393302E+01 0.46531125456E+01 0.44558175994E+01 0.42686224208E+01 0.41023363653E+01
 0.39433087681E+01 0.37899158972E+01 0.36525910735E+01 0.35385213159E+01 0.34506790851E+01
 0.33881248405E+01 0.33471585764E+01 0.33228426797E+01 0.33104743308E+01 0.33067463186E+01
 0.33104741943E+01 0.33228426960E+01 0.33471591226E+01 0.33881260931E+01 0.34506808462E+01
 0.35385230302E+01 0.36525920885E+01 0.37899157910E+01 0.43553903969E+01 0.46855319724E+01
 0.50989166305E+01 0.55585550797E+01 0.59990787235E+01 0.63464900960E+01 0.65380469334E+01
 0.65380466459E+01 0.63464894337E+01 0.59990781832E+01 0.55585551809E+01 0.50989176343E+01
 0.46855337329E+01 0.43553924229E+01 0.41023363653E+01 0.38814929607E+01 0.36829113941E+01
 0.35169712883E+01 0.33881248405E+01 0.32953447311E+01 0.32339073447E+01 0.31976516206E+01
 0.31811075247E+01 0.31811076271E+01 0.31976519691E+01 0.32339080084E+01 0.32953456864E+01
 0.33881258812E+01 0.35169720273E+01 0.36829114356E+01 0.38814920816E+01 0.41023346783E+01
 0.52835865030E+01 0.60572674062E+01 0.69393973514E+01 0.78196094573E+01 0.85704532085E+01
 0.90754042044E+01 0.92533837115E+01 0.90754036567E+01 0.85704523469E+01 0.78196086629E+01
 0.69393970046E+01 0.60572677481E+01 0.52835875504E+01 0.46855337329E+01 0.42686224208E+01
 0.39711114228E+01 0.37174389732E+01 0.35076575917E+01 0.33471585764E+01 0.32339073447E+01
 0.31613530844E+01 0.31218044892E+01 0.31093529419E+01 0.31218048429E+01 0.31613536486E+01
 0.32339078717E+01 0.33471587898E+01 0.35076572678E+01 0.37174380403E+01 0.39711099722E+01
 0.42686207413E+01 0.46855321958E+01 0.73184379087E+01 0.87858628296E+01 0.10299817724E+02
 0.11669107428E+02 0.12707227905E+02 0.13266846069E+02 0.13266845963E+02 0.12707227578E+02
 0.11669106880E+02 0.10299817019E+02 0.87858621439E+01 0.73184374999E+01 0.60572677481E+01
 0.50989176343E+01 0.44558175994E+01 0.40515726606E+01 0.37505891470E+01 0.35059382631E+01
 0.33228426797E+01 0.31976516206E+01 0.31218044892E+01 0.30865469106E+01 0.30865470563E+01
 0.31218048003E+01 0.31976518032E+01 0.33228424174E+01 0.35059374057E+01 0.37505877937E+01
 0.40515711284E+01 0.44558162990E+01 0.50989168679E+01 0.60572676259E+01 0.10978667554E+02
 0.13310638460E+02 0.15522222816E+02 0.17344622646E+02 0.18544414763E+02 0.18963060834E+02
 0.18544415012E+02 0.17344622937E+02 0.15522222859E+02 0.13310638072E+02 0.10978666786E+02
 0.87858621439E+01 0.69393970046E+01 0.55585551809E+01 0.46531125456E+01 0.41216032354E+01
 0.37775840812E+01 0.35074955872E+01 0.33104743308E+01 0.31811075247E+01 0.31093529419E+01
 0.30865470563E+01 0.31093530068E+01 0.31811074968E+01 0.33104740050E+01 0.35074948734E+01
 0.37775830957E+01 0.41216022838E+01 0.46531119820E+01 0.55585552112E+01 0.69393975981E+01
 0.87858630130E+01 0.16606847950E+02 0.19863713160E+02 0.22724468932E+02 0.24853603223E+02
 0.25989797289E+02 0.25989797580E+02 0.24853603959E+02 0.22724469780E+02 0.19863713737E+02
 0.16606847993E+02 0.13310638072E+02 0.10299817019E+02 0.78196086629E+01 0.59990781832E+01
 0.48312393302E+01 0.41765111834E+01 0.37950417606E+01 0.35091170990E+01 0.33067463186E+01
 0.31811076271E+01 0.31218048429E+01 0.31218048003E+01 0.31811074968E+01 0.33067460979E+01
 0.35091168371E+01 0.37950415673E+01 0.41765112202E+01 0.48312397225E+01 0.59990789424E+01
 0.78196096408E+01 0.10299817922E+02 0.13310638596E+02 0.24316203924E+02 0.28438853379E+02
 0.31785641098E+02 0.33970424499E+02 0.34729885866E+02 0.33970424965E+02 0.31785641913E+02
 0.28438854334E+02 0.24316204758E+02 0.19863713737E+02 0.15522222859E+02 0.11669106880E+02
 0.85704523469E+01 0.63464894337E+01 0.49559785047E+01 0.42072337467E+01 0.38010600820E+01
 0.35091168293E+01 0.33104741943E+01 0.31976519691E+01 0.31613536486E+01 0.31976518032E+01
 0.33104740050E+01 0.35091168371E+01 0.38010604744E+01 0.42072345913E+01 0.49559796973E+01
 0.63464907348E+01 0.85704534570E+01 0.11669107541E+02 0.15522222947E+02 0.19863713279E+02
 0.33978616771E+02 0.38790834236E+02 0.42351317231E+02 0.44246228982E+02 0.44246228990E+02
 0.42351317320E+02 0.38790834535E+02 0.33978617358E+02 0.28438854334E+02 0.22724469780E+02
 0.17344622937E+02 0.12707227578E+02 0.90754036567E+01 0.65380466459E+01 0.50008514225E+01
 0.42072335925E+01 0.37950411765E+01 0.35074949737E+01 0.33228426960E+01 0.32339080084E+01
 0.32339078717E+01 0.33228424174E+01 0.35074948734E+01 0.37950415673E+01 0.42072345913E+01
 0.50008528518E+01 0.65380481095E+01 0.90754047147E+01 0.12707227957E+02 0.17344622644E+02
 0.22724469064E+02 0.28438853546E+02 0.45228497630E+02 0.50438788751E+02 0.53837529188E+02
 0.55018996853E+02 0.53837528637E+02 0.50438787972E+02 0.45228497080E+02 0.38790834535E+02
 0.31785641913E+02 0.24853603959E+02 0.18544415012E+02 0.13266845963E+02 0.92533837115E+01
 0.65380469334E+01 0.49559786590E+01 0.41765106884E+01 0.37775831429E+01 0.35059377887E+01
 0.33471591226E+01 0.32953456864E+01 0.33471587898E+01 0.35059374057E+01 0.37775830957E+01
 0.41765112202E+01 0.49559796973E+01 0.65380481095E+01 0.92533845469E+01 0.13266846144E+02
 0.18544414560E+02 0.24853603222E+02 0.31785641376E+02 0.38790834536E+02 0.57460475397E+02
 0.62662505969E+02 0.65435103976E+02 0.65435103432E+02 0.62662504576E+02 0.57460473746E+02
 0.50438787972E+02 0.42351317320E+02 0.33970424965E+02 0.25989797580E+02 0.18963060834E+02
 0.13266846069E+02 0.90754042044E+01 0.63464900960E+01 0.48312393348E+01 0.41216023522E+01
 0.37505882323E+01 0.35076577609E+01 0.33881260931E+01 0.33881258812E+01 0.35076572678E+01
 0.37505877937E+01 0.41216022838E+01 0.48312397225E+01 0.63464907348E+01 0.90754047147E+01
 0.13266846144E+02 0.18963060443E+02 0.25989797032E+02 0.33970424751E+02 0.42351317828E+02
 0.50438789242E+02 0.69825585029E+02 0.74511498295E+02 0.76143182136E+02 0.74511497085E+02
 0.69825583050E+02 0.62662504576E+02 0.53837528637E+02 0.44246228990E+02 0.34729885866E+02
 0.25989797289E+02 0.18544414763E+02 0.12707227905E+02 0.85704532085E+01 0.59990787235E+01
 0.46531120067E+01 0.40515714414E+01 0.37174384847E+01 0.35169723451E+01 0.34506808462E+01
 0.35169720273E+01 0.37174380403E+01 0.40515711284E+01 0.46531119820E+01 0.59990789424E+01
 0.85704534570E+01 0.12707227957E+02 0.18544414560E+02 0.25989797032E+02 0.34729885944E+02
 0.44246229761E+02 0.53837530205E+02 0.62662506652E+02 0.81260640072E+02 0.84867312330E+02
 0.84867311761E+02 0.81260638547E+02 0.74511497085E+02 0.65435103432E+02 0.55018996853E+02
 0.44246228982E+02 0.33970424499E+02 0.24853603223E+02 0.17344622646E+02 0.11669107428E+02
 0.78196094573E+01 0.55585550797E+01 0.44558163104E+01 0.39711101155E+01 0.36829116057E+01
 0.35385231048E+01 0.35385230302E+01 0.36829114356E+01 0.39711099722E+01 0.44558162990E+01
 0.55585552112E+01 0.78196096408E+01 0.11669107541E+02 0.17344622644E+02 0.24853603222E+02
 0.33970424751E+02 0.44246229761E+02 0.55018998283E+02 0.65435105365E+02 0.74511499095E+02
 0.90591565128E+02 0.92588081749E+02 0.90591564353E+02 0.84867311761E+02 0.76143182136E+02
 0.65435103976E+02 0.53837529188E+02 0.42351317231E+02 0.31785641098E+02 0.22724468932E+02
 0.15522222816E+02 0.10299817724E+02 0.69393973514E+01 0.50989166305E+01 0.42686205652E+01
 0.38814919815E+01 0.36525920482E+01 0.35761722550E+01 0.36525920885E+01 0.38814920816E+01
 0.42686207413E+01 0.50989168679E+01 0.69393975981E+01 0.10299817922E+02 0.15522222947E+02
 0.22724469064E+02 0.31785641376E+02 0.42351317828E+02 0.53837530205E+02 0.65435105365E+02
 0.76143183671E+02 0.84867313091E+02 0.96721238651E+02 0.96721238449E+02 0.92588081749E+02
 0.84867312330E+02 0.74511498295E+02 0.62662505969E+02 0.50438788751E+02 0.38790834236E+02
 0.28438853379E+02 0.19863713160E+02 0.13310638460E+02 0.87858628296E+01 0.60572674062E+01
 0.46855319724E+01 0.41023344899E+01 0.37899156667E+01 0.36318094735E+01 0.36318095166E+01
 0.37899157910E+01 0.41023346783E+01 0.46855321958E+01 0.60572676259E+01 0.87858630130E+01
 0.13310638596E+02 0.19863713279E+02 0.28438853546E+02 0.38790834536E+02 0.50438789242E+02
 0.62662506652E+02 0.74511499095E+02 0.84867313091E+02 0.92588082300E+02 0.96721238651E+02
 0.92588082300E+02 0.84867313091E+02 0.74511499095E+02 0.62662506652E+02 0.50438789242E+02
 0.38790834536E+02 0.28438853546E+02 0.19863713279E+02 0.13310638596E+02 0.87858630130E+01
 0.60572676259E+01 0.46855321958E+01 0.41023346783E+01 0.37899157910E+01 0.36318095166E+01
 0.36318094735E+01 0.37899156667E+01 0.41023344899E+01 0.46855319724E+01 0.60572674062E+01
 0.87858628296E+01 0.13310638460E+02 0.19863713160E+02 0.28438853379E+02 0.38790834236E+02
 0.50438788751E+02 0.62662505969E+02 0.74511498295E+02 0.84867312330E+02 0.92588081749E+02
 0.96721238449E+02 0.92588082300E+02 0.86739495088E+02 0.77827826110E+02 0.66892366649E+02
 0.55050858935E+02 0.43323101616E+02 0.32531456310E+02 0.23268378453E+02 0.15894006476E+02
 0.10533434066E+02 0.70713378132E+01 0.51655855850E+01 0.43029097108E+01 0.39075024046E+01
 0.36750301187E+01 0.35973311659E+01 0.36750299685E+01 0.39075021195E+01 0.43029093275E+01
 0.51655851621E+01 0.70713374169E+01 0.10533433742E+02 0.15894006212E+02 0.23268378158E+02
 0.32531455840E+02 0.43323100822E+02 0.55050857759E+02 0.66892365163E+02 0.77827824546E+02
 0.86739493771E+02 0.92588081543E+02 0.94628216257E+02 0.84867313091E+02 0.77827826110E+02
 0.68364808007E+02 0.57508796444E+02 0.46281723991E+02 0.35566970932E+02 0.26047117111E+02
 0.18185205140E+02 0.12217353451E+02 0.81434874852E+01 0.57288218293E+01 0.45395696764E+01
 0.40247389191E+01 0.37279214664E+01 0.35787262718E+01 0.35787262201E+01 0.37279213038E+01
 0.40247386385E+01 0.45395692964E+01 0.57288214118E+01 0.81434871111E+01 0.12217353168E+02
 0.18185204901E+02 0.26047116758E+02 0.35566970240E+02 0.46281722770E+02 0.57508794668E+02
 0.68364805883E+02 0.77827824045E+02 0.84867311580E+02 0.88630282030E+02 0.88630282584E+02
 0.74511499095E+02 0.66892366649E+02 0.57508796444E+02 0.47310458365E+02 0.37184486369E+02
 0.27866803344E+02 0.19901153438E+02 0.13620221488E+02 0.91306529156E+01 0.63056285161E+01
 0.48043918750E+01 0.41347788205E+01 0.37845850937E+01 0.35742777958E+01 0.35045253489E+01
 0.35742778119E+01 0.37845850643E+01 0.41347786771E+01 0.48043916108E+01 0.63056282143E+01
 0.91306527007E+01 0.13620221427E+02 0.19901153451E+02 0.27866803183E+02 0.37184485720E+02
 0.47310457002E+02 0.57508794405E+02 0.66892364287E+02 0.74511496990E+02 0.79497708084E+02
 0.81234381676E+02 0.79497709328E+02 0.62662506652E+02 0.55050858935E+02 0.46281723991E+02
 0.37184486369E+02 0.28500268126E+02 0.20820061413E+02 0.14550141312E+02 0.98880986443E+01
 0.68073013067E+01 0.50634770380E+01 0.42396836599E+01 0.38385311657E+01 0.35801308363E+01
 0.34522812568E+01 0.34522813213E+01 0.35801309655E+01 0.38385312141E+01 0.42396835204E+01
 0.50634767387E+01 0.68073010213E+01 0.98880985871E+01 0.14550141578E+02 0.20820061867E+02
 0.28500268413E+02 0.37184486081E+02 0.46281722889E+02 0.55050857127E+02 0.62662504611E+02
 0.68302482886E+02 0.71309176647E+02 0.71309177262E+02 0.68302484503E+02 0.50438789242E+02
 0.43323101616E+02 0.35566970932E+02 0.27866803344E+02 0.20820061413E+02 0.14875684083E+02
 0.10299232048E+02 0.71489478870E+01 0.52715707796E+01 0.43320702254E+01 0.38839179104E+01
 0.35914016067E+01 0.34189818958E+01 0.33624896907E+01 0.34189820221E+01 0.35914017012E+01
 0.38839177767E+01 0.43320697908E+01 0.52715701862E+01 0.71489474423E+01 0.10299232055E+02
 0.14875684643E+02 0.20820062324E+02 0.27866804167E+02 0.35566971212E+02 0.43323101125E+02
 0.50438788135E+02 0.56193729498E+02 0.59946997972E+02 0.61251684641E+02 0.59946998791E+02
 0.56193730749E+02 0.38790834536E+02 0.32531456310E+02 0.26047117111E+02 0.19901153438E+02
 0.14550141312E+02 0.10299232048E+02 0.72701084105E+01 0.53876474120E+01 0.43967550640E+01
 0.39163706058E+01 0.36033141971E+01 0.34000442229E+01 0.33015174119E+01 0.33015174728E+01
 0.34000443083E+01 0.36033140861E+01 0.39163701173E+01 0.43967542149E+01 0.53876464608E+01
 0.72701077503E+01 0.10299232010E+02 0.14550141973E+02 0.19901154572E+02 0.26047118288E+02
 0.32531457113E+02 0.38790834773E+02 0.44214538464E+02 0.48222117817E+02 0.50353684660E+02
 0.50353684825E+02 0.48222118176E+02 0.44214538686E+02 0.28438853546E+02 0.23268378453E+02
 0.18185205140E+02 0.13620221488E+02 0.98880986443E+01 0.71489478870E+01 0.53876474120E+01
 0.44201020635E+01 0.39332059700E+01 0.36120557021E+01 0.33906838373E+01 0.32639058626E+01
 0.32229498093E+01 0.32639059514E+01 0.33906838564E+01 0.36120554382E+01 0.39332053032E+01
 0.44201010674E+01 0.53876463580E+01 0.71489471237E+01 0.98880984500E+01 0.13620221932E+02
 0.18185206066E+02 0.23268379566E+02 0.28438854546E+02 0.33200177311E+02 0.37052218631E+02
 0.39561941147E+02 0.40433598581E+02 0.39561940990E+02 0.37052218237E+02 0.33200176603E+02
 0.19863713279E+02 0.15894006476E+02 0.12217353451E+02 0.91306529156E+01 0.68073013067E+01
 0.52715707796E+01 0.43967550640E+01 0.39332059700E+01 0.36152377733E+01 0.33870605981E+01
 0.32440753569E+01 0.31762104123E+01 0.31762104687E+01 0.32440754782E+01 0.33870606650E+01
 0.36152376531E+01 0.39332055892E+01 0.43967544450E+01 0.52715700517E+01 0.68073006471E+01
 0.91306525006E+01 0.12217353387E+02 0.15894006765E+02 0.19863713836E+02 0.23747552198E+02
 0.27136151245E+02 0.29647354044E+02 0.30984283239E+02 0.30984283082E+02 0.29647353606E+02
 0.27136150616E+02 0.23747551524E+02 0.13310638596E+02 0.10533434066E+02 0.81434874852E+01
 0.63056285161E+01 0.50634770380E+01 0.43320702254E+01 0.39163706058E+01 0.36120557021E+01
 0.33870605981E+01 0.32379587164E+01 0.31547640983E+01 0.31282426400E+01 0.31547641540E+01
 0.32379588503E+01 0.33870608298E+01 0.36120560056E+01 0.39163709037E+01 0.43320703926E+01
 0.50634769736E+01 0.63056281786E+01 0.81434869317E+01 0.10533433441E+02 0.13310638057E+02
 0.16216825847E+02 0.18941263787E+02 0.21168605865E+02 0.22627845145E+02 0.23135835870E+02
 0.22627845097E+02 0.21168605849E+02 0.18941263914E+02 0.16216826188E+02 0.87858630130E+01
 0.70713378132E+01 0.57288218293E+01 0.48043918750E+01 0.42396836599E+01 0.38839179104E+01
 0.36033141971E+01 0.33906838373E+01 0.32440753569E+01 0.31547640983E+01 0.31131139511E+01
 0.31131138948E+01 0.31547640020E+01 0.32440753858E+01 0.33906841659E+01 0.36033148840E+01
 0.38839188637E+01 0.42396846331E+01 0.48043925761E+01 0.57288220285E+01 0.70713374147E+01
 0.87858621034E+01 0.10732235504E+02 0.12703384351E+02 0.14462644797E+02 0.15784660136E+02
 0.16493722445E+02 0.16493722690E+02 0.15784660838E+02 0.14462645863E+02 0.12703385608E+02
 0.10732236717E+02 0.60572676259E+01 0.51655855850E+01 0.45395696764E+01 0.41347788205E+01
 0.38385311657E+01 0.35914016067E+01 0.34000442229E+01 0.32639058626E+01 0.31762104123E+01
 0.31282426400E+01 0.31131138948E+01 0.31282423696E+01 0.31762100198E+01 0.32639055875E+01
 0.34000443165E+01 0.35914022212E+01 0.38385322913E+01 0.41347802532E+01 0.45395710500E+01
 0.51655865074E+01 0.60572677698E+01 0.71781796858E+01 0.84221376313E+01 0.96375678217E+01
 0.10658991359E+02 0.11339425418E+02 0.11578158627E+02 0.11339426378E+02 0.10658992989E+02
 0.96375696359E+01 0.84221391085E+01 0.71781804305E+01 0.46855321958E+01 0.43029097108E+01
 0.40247389191E+01 0.37845850937E+01 0.35801308363E+01 0.34189818958E+01 0.33015174119E+01
 0.32229498093E+01 0.31762104687E+01 0.31547641540E+01 0.31547640020E+01 0.31762100198E+01
 0.32229491250E+01 0.33015166447E+01 0.34189813211E+01 0.35801307752E+01 0.37845857719E+01
 0.40247403335E+01 0.43029115175E+01 0.46855338280E+01 0.52121834347E+01 0.58628087041E+01
 0.65679158128E+01 0.72286492416E+01 0.77413761874E+01 0.80214086545E+01 0.80214092314E+01
 0.77413776664E+01 0.72286509777E+01 0.65679170577E+01 0.58628089362E+01 0.52121825604E+01
 0.41023346783E+01 0.39075024046E+01 0.37279214664E+01 0.35742777958E+01 0.34522812568E+01
 0.33624896907E+01 0.33015174728E+01 0.32639059514E+01 0.32440754782E+01 0.32379588503E+01
 0.32440753858E+01 0.32639055875E+01 0.33015166447E+01 0.33624884028E+01 0.34522798229E+01
 0.35742767652E+01 0.37279213408E+01 0.39075033812E+01 0.41023364795E+01 0.43189890970E+01
 0.45895656958E+01 0.49120911896E+01 0.52509028696E+01 0.55517589848E+01 0.57594399919E+01
 0.58335760840E+01 0.57594407505E+01 0.55517600166E+01 0.52509034750E+01 0.49120908397E+01
 0.45895643240E+01 0.43189871452E+01 0.37899157910E+01 0.36750301187E+01 0.35787262718E+01
 0.35045253489E+01 0.34522813213E+01 0.34189820221E+01 0.34000443083E+01 0.33906838564E+01
 0.33870606650E+01 0.33870608298E+01 0.33906841659E+01 0.34000443165E+01 0.34189813211E+01
 0.34522798229E+01 0.35045233963E+01 0.35787245152E+01 0.36750291886E+01 0.37899159825E+01
 0.39162754827E+01 0.40445141163E+01 0.41710093417E+01 0.43033884496E+01 0.44328634543E+01
 0.45383831573E+01 0.45979456243E+01 0.45979457198E+01 0.45383832892E+01 0.44328632753E+01
 0.43033876663E+01 0.41710079640E+01 0.40445125390E+01 0.39162743313E+01 0.36318095166E+01
 0.35973311659E+01 0.35787262201E+01 0.35742778119E+01 0.35801309655E+01 0.35914017012E+01
 0.36033140861E+01 0.36120554382E+01 0.36152376531E+01 0.36120560056E+01 0.36033148840E+01
 0.35914022212E+01 0.35801307752E+01 0.35742767652E+01 0.35787245152E+01 0.35973292713E+01
 0.36318079625E+01 0.36810393774E+01 0.37410607891E+01 0.38058233817E+01 0.38684901595E+01
 0.39228309864E+01 0.39647878451E+01 0.39923254520E+01 0.40020673392E+01 0.39923250540E+01
 0.39647870970E+01 0.39228300141E+01 0.38684892037E+01 0.38058227696E+01 0.37410608255E+01
 0.36810402195E+01 0.36318094735E+01 0.36750299685E+01 0.37279213038E+01 0.37845850643E+01
 0.38385312141E+01 0.38839177767E+01 0.39163701173E+01 0.39332053032E+01 0.39332055892E+01
 0.39163709037E+01 0.38839188637E+01 0.38385322913E+01 0.37845857719E+01 0.37279213408E+01
 0.36750291886E+01 0.36318079625E+01 0.36023195106E+01 0.35879709686E+01 0.35873887825E+01
 0.35969960962E+01 0.36120640200E+01 0.36278588304E+01 0.36405177748E+01 0.36474683052E+01
 0.36474679840E+01 0.36405169800E+01 0.36278579852E+01 0.36120636203E+01 0.35969964833E+01
 0.35873900038E+01 0.35879727660E+01 0.36023214131E+01 0.37899156667E+01 0.39075021195E+01
 0.40247386385E+01 0.41347786771E+01 0.42396835204E+01 0.43320697908E+01 0.43967542149E+01
 0.44201010674E+01 0.43967544450E+01 0.43320703926E+01 0.42396846331E+01 0.41347802532E+01
 0.40247403335E+01 0.39075033812E+01 0.37899159825E+01 0.36810393774E+01 0.35879709686E+01
 0.35146990883E+01 0.34618276630E+01 0.34271383595E+01 0.34066904340E+01 0.33960604612E+01
 0.33913977064E+01 0.33901405999E+01 0.33913972921E+01 0.33960600126E+01 0.34066904905E+01
 0.34271392887E+01 0.34618294267E+01 0.35147012132E+01 0.35879727498E+01 0.36810402195E+01
 0.41023344899E+01 0.43029093275E+01 0.45395692964E+01 0.48043916108E+01 0.50634767387E+01
 0.52715701862E+01 0.53876464608E+01 0.53876463580E+01 0.52715700517E+01 0.50634769736E+01
 0.48043925761E+01 0.45395710500E+01 0.43029115175E+01 0.41023364795E+01 0.39162754827E+01
 0.37410607891E+01 0.35873887825E+01 0.34618276630E+01 0.33662715526E+01 0.32987034726E+01
 0.32546894284E+01 0.32290767065E+01 0.32175045576E+01 0.32175045228E+01 0.32290767295E+01
 0.32546897994E+01 0.32987044068E+01 0.33662729857E+01 0.34618291842E+01 0.35873897887E+01