   1   1   1   0
  0.1043745E+02  0.2453031E-09  0.2453031E-09  0.2453031E-09  0.5000000E-15
  1.000000000000000E-004
  CAR 
 Co-fcc                                  
     53.98399940     -0.65020735  301     10.88246857      1.00000000
     -0.650  0.0000E+00  0.0000E+00  0.0000E+00  0.0000E+00
     -0.468  0.0000E+00  0.0000E+00  0.0000E+00  0.0000E+00
     -0.286  0.0000E+00  0.0000E+00  0.0000E+00  0.0000E+00
     -0.104  0.0000E+00  0.0000E+00  0.0000E+00  0.0000E+00
      0.078  0.0000E+00  0.0000E+00  0.0000E+00  0.0000E+00
      0.260  0.0000E+00  0.0000E+00  0.0000E+00  0.0000E+00
      0.442  0.0000E+00  0.0000E+00  0.0000E+00  0.0000E+00
      0.625  0.0000E+00  0.0000E+00  0.0000E+00  0.0000E+00
      0.807  0.0000E+00  0.0000E+00  0.0000E+00  0.0000E+00
      0.989  0.0000E+00  0.0000E+00  0.0000E+00  0.0000E+00
      1.171  0.0000E+00  0.0000E+00  0.0000E+00  0.0000E+00
      1.353  0.0000E+00  0.0000E+00  0.0000E+00  0.0000E+00
      1.535  0.0000E+00  0.0000E+00  0.0000E+00  0.0000E+00
      1.717  0.1122E-06  0.3338E-07  0.2043E-07  0.6080E-08
      1.899  0.2078E-03  0.2013E-03  0.3787E-04  0.3667E-04
      2.082  0.6549E-05  0.1312E-04  0.3906E-04  0.3906E-04
      2.264  0.4052E-03  0.3036E-03  0.1129E-03  0.9435E-04
      2.446  0.2383E-03  0.3399E-03  0.1562E-03  0.1562E-03
      2.628  0.1357E-03  0.5746E-04  0.1810E-03  0.1667E-03
      2.810  0.5078E-03  0.5860E-03  0.2734E-03  0.2734E-03
      2.992  0.5557E-04  0.9618E-05  0.2836E-03  0.2752E-03
      3.174  0.8023E-03  0.8465E-03  0.4297E-03  0.4293E-03
      3.356  0.3937E-04  0.4148E-05  0.4368E-03  0.4301E-03
      3.538  0.1247E-02  0.1268E-02  0.6639E-03  0.6611E-03
      3.721  0.9355E-04  0.1826E-04  0.6810E-03  0.6644E-03
      3.903  0.5506E-03  0.6362E-03  0.7812E-03  0.7803E-03
      4.085  0.2815E-03  0.8087E-05  0.8325E-03  0.7817E-03
      4.267  0.1007E-02  0.1268E-02  0.1016E-02  0.1013E-02
      4.449  0.1505E-02  0.9569E-04  0.1290E-02  0.1030E-02
      4.631  0.4546E-03  0.1848E-02  0.1373E-02  0.1367E-02
      4.813  0.7603E-03  0.1707E-03  0.1511E-02  0.1398E-02
      4.995  0.3148E-03  0.4917E-03  0.1568E-02  0.1487E-02
      5.177  0.2867E-02  0.7962E-03  0.2091E-02  0.1632E-02
      5.360  0.9911E-03  0.1120E-02  0.2271E-02  0.1836E-02
      5.542  0.2731E-02  0.1500E-02  0.2768E-02  0.2109E-02
      5.724  0.4003E-02  0.1233E-02  0.3497E-02  0.2334E-02
      5.906  0.8396E-02  0.8436E-03  0.5026E-02  0.2488E-02
      6.088  0.4174E-02  0.1505E-02  0.5787E-02  0.2762E-02
      6.270  0.7623E-02  0.2417E-02  0.7175E-02  0.3202E-02
      6.452  0.9591E-02  0.2223E-02  0.8921E-02  0.3607E-02
      6.634  0.7608E-02  0.4352E-02  0.1031E-01  0.4399E-02
      6.816  0.9388E-02  0.3226E-02  0.1202E-01  0.4987E-02
      6.999  0.7837E-02  0.3955E-02  0.1344E-01  0.5707E-02
      7.181  0.8975E-02  0.6018E-02  0.1508E-01  0.6803E-02
      7.363  0.5900E-02  0.3625E-02  0.1615E-01  0.7463E-02
      7.545  0.8684E-02  0.7244E-02  0.1773E-01  0.8782E-02
      7.727  0.9503E-02  0.5904E-02  0.1946E-01  0.9857E-02
      7.909  0.1125E-01  0.9385E-02  0.2151E-01  0.1157E-01
      8.091  0.1224E-01  0.5413E-02  0.2374E-01  0.1255E-01
      8.273  0.1413E-01  0.6864E-02  0.2632E-01  0.1380E-01
      8.455  0.1552E-01  0.7971E-02  0.2914E-01  0.1525E-01
      8.638  0.1220E-01  0.4740E-02  0.3136E-01  0.1612E-01
      8.820  0.9525E-02  0.8828E-02  0.3310E-01  0.1772E-01
      9.002  0.8385E-02  0.8957E-02  0.3463E-01  0.1936E-01
      9.184  0.1286E-01  0.8904E-02  0.3697E-01  0.2098E-01
      9.366  0.1236E-01  0.9814E-02  0.3922E-01  0.2276E-01
      9.548  0.1035E-01  0.9586E-02  0.4110E-01  0.2451E-01
      9.730  0.1086E-01  0.1052E-01  0.4308E-01  0.2643E-01
      9.912  0.1015E-01  0.1211E-01  0.4493E-01  0.2863E-01
     10.095  0.1206E-01  0.1013E-01  0.4712E-01  0.3048E-01
     10.277  0.1841E-01  0.8680E-02  0.5048E-01  0.3206E-01
     10.459  0.1029E-01  0.7694E-02  0.5235E-01  0.3346E-01
     10.641  0.2562E-02  0.6494E-02  0.5282E-01  0.3464E-01
     10.823  0.1886E-03  0.9927E-02  0.5285E-01  0.3645E-01
     11.005  0.5867E-03  0.1062E-01  0.5296E-01  0.3838E-01
     11.187  0.2766E-02  0.7255E-02  0.5346E-01  0.3970E-01
     11.369  0.1580E-02  0.1312E-01  0.5375E-01  0.4209E-01
     11.551  0.1502E-02  0.5901E-02  0.5402E-01  0.4317E-01
     11.734  0.4494E-03  0.1191E-01  0.5411E-01  0.4534E-01
     11.916  0.1473E-02  0.1087E-01  0.5437E-01  0.4732E-01
     12.098  0.2251E-02  0.2036E-01  0.5478E-01  0.5102E-01
     12.280  0.9741E-03  0.9718E-02  0.5496E-01  0.5279E-01
     12.462  0.9145E-03  0.3409E-03  0.5513E-01  0.5286E-01
     12.644  0.1725E-02  0.2930E-02  0.5544E-01  0.5339E-01
     12.826  0.5783E-03  0.3850E-02  0.5555E-01  0.5409E-01
     13.008  0.9345E-03  0.1538E-02  0.5572E-01  0.5437E-01
     13.190  0.1459E-02  0.6655E-03  0.5598E-01  0.5449E-01
     13.373  0.1888E-02  0.1068E-02  0.5633E-01  0.5469E-01
     13.555  0.5095E-03  0.1747E-02  0.5642E-01  0.5500E-01
     13.737  0.3554E-02  0.1808E-02  0.5707E-01  0.5533E-01
     13.919  0.2003E-04  0.2435E-02  0.5707E-01  0.5578E-01
     14.101  0.8780E-08  0.1306E-02  0.5707E-01  0.5602E-01
     14.283  0.1015E-02  0.1785E-02  0.5726E-01  0.5634E-01
     14.465  0.2721E-03  0.2894E-03  0.5730E-01  0.5639E-01
     14.647  0.2521E-02  0.2384E-02  0.5776E-01  0.5683E-01
     14.829  0.1340E-02  0.1334E-02  0.5801E-01  0.5707E-01
     15.012  0.1220E-02  0.4343E-06  0.5823E-01  0.5707E-01
     15.194  0.7109E-03  0.2199E-02  0.5836E-01  0.5747E-01
     15.376  0.3477E-05  0.4295E-03  0.5836E-01  0.5755E-01
     15.558  0.1061E-02  0.2471E-02  0.5855E-01  0.5800E-01
     15.740  0.2153E-02  0.5299E-04  0.5895E-01  0.5801E-01
     15.922  0.4885E-07  0.1855E-02  0.5895E-01  0.5835E-01
     16.104  0.4789E-03  0.6448E-03  0.5903E-01  0.5846E-01
     16.286  0.8080E-03  0.1083E-03  0.5918E-01  0.5848E-01
     16.469  0.2778E-05  0.2492E-02  0.5918E-01  0.5894E-01
     16.651  0.6709E-03  0.1121E-03  0.5930E-01  0.5896E-01
     16.833  0.1256E-02  0.1217E-02  0.5953E-01  0.5918E-01
     17.015  0.1012E-02  0.2540E-06  0.5972E-01  0.5918E-01
     17.197  0.2754E-03  0.2344E-04  0.5977E-01  0.5918E-01
     17.379  0.5158E-08  0.1715E-02  0.5977E-01  0.5950E-01
     17.561  0.5460E-03  0.1932E-03  0.5987E-01  0.5953E-01
     17.743  0.2421E-02  0.1256E-02  0.6031E-01  0.5976E-01
     17.925  0.1166E-02  0.3014E-04  0.6052E-01  0.5977E-01
     18.108  0.1591E-02  0.1330E-12  0.6081E-01  0.5977E-01
     18.290  0.1620E-02  0.1468E-03  0.6110E-01  0.5979E-01
     18.472  0.1443E-02  0.1322E-02  0.6137E-01  0.6003E-01
     18.654  0.1717E-02  0.2349E-02  0.6168E-01  0.6046E-01
     18.836  0.9558E-03  0.2186E-02  0.6185E-01  0.6086E-01
     19.018  0.2044E-02  0.1511E-02  0.6222E-01  0.6113E-01
     19.200  0.8668E-03  0.1456E-02  0.6238E-01  0.6140E-01
     19.382  0.3265E-06  0.1535E-02  0.6238E-01  0.6168E-01
     19.564  0.1969E-02  0.1797E-02  0.6274E-01  0.6201E-01
     19.747  0.2445E-02  0.1735E-02  0.6319E-01  0.6232E-01
     19.929  0.5331E-03  0.3323E-03  0.6328E-01  0.6238E-01
     20.111  0.4514E-03  0.1407E-02  0.6337E-01  0.6264E-01
     20.293  0.2322E-02  0.2388E-02  0.6379E-01  0.6307E-01
     20.475  0.4054E-06  0.6357E-03  0.6379E-01  0.6319E-01
     20.657  0.1158E-02  0.8683E-03  0.6400E-01  0.6335E-01
     20.839  0.1186E-02  0.1895E-02  0.6422E-01  0.6369E-01
     21.021  0.2386E-03  0.5277E-03  0.6426E-01  0.6379E-01
     21.203  0.2539E-02  0.8451E-03  0.6472E-01  0.6394E-01
     21.386  0.2123E-02  0.1192E-02  0.6511E-01  0.6416E-01
     21.568  0.7555E-03  0.5413E-03  0.6525E-01  0.6426E-01
     21.750  0.1012E-02  0.2535E-02  0.6543E-01  0.6472E-01
     21.932  0.1999E-02  0.1462E-03  0.6579E-01  0.6475E-01
     22.114  0.3037E-02  0.2036E-02  0.6635E-01  0.6512E-01
     22.296  0.2045E-02  0.1712E-02  0.6672E-01  0.6543E-01
     22.478  0.1277E-02  0.2518E-02  0.6695E-01  0.6589E-01
     22.660  0.1427E-02  0.1735E-02  0.6721E-01  0.6620E-01
     22.843  0.1212E-02  0.2800E-02  0.6743E-01  0.6671E-01
     23.025  0.1235E-02  0.1439E-02  0.6766E-01  0.6698E-01
     23.207  0.2097E-03  0.1224E-02  0.6770E-01  0.6720E-01
     23.389  0.2264E-02  0.2041E-02  0.6811E-01  0.6757E-01
     23.571  0.4246E-02  0.4882E-03  0.6888E-01  0.6766E-01
     23.753  0.1622E-02  0.3159E-03  0.6918E-01  0.6772E-01
     23.935  0.1238E-02  0.3923E-02  0.6940E-01  0.6843E-01
     24.117  0.8256E-03  0.2699E-02  0.6955E-01  0.6892E-01
     24.299  0.4507E-02  0.1707E-02  0.7037E-01  0.6923E-01
     24.482  0.1379E-02  0.1178E-02  0.7062E-01  0.6945E-01
     24.664  0.1086E-02  0.2866E-02  0.7082E-01  0.6997E-01
     24.846  0.2157E-02  0.3399E-02  0.7122E-01  0.7059E-01
     25.028  0.6205E-03  0.2860E-03  0.7133E-01  0.7064E-01
     25.210  0.9481E-03  0.2844E-02  0.7150E-01  0.7116E-01
     25.392  0.3361E-02  0.9275E-03  0.7211E-01  0.7133E-01
     25.574  0.3412E-02  0.7667E-03  0.7273E-01  0.7147E-01
     25.756  0.2092E-02  0.2416E-02  0.7312E-01  0.7191E-01
     25.938  0.1029E-02  0.4499E-02  0.7330E-01  0.7273E-01
     26.121  0.2567E-02  0.1400E-02  0.7377E-01  0.7298E-01
     26.303  0.1390E-02  0.3130E-02  0.7402E-01  0.7355E-01
     26.485  0.2278E-02  0.9690E-03  0.7444E-01  0.7373E-01
     26.667  0.1581E-02  0.2118E-02  0.7473E-01  0.7411E-01
     26.849  0.1642E-02  0.2702E-02  0.7503E-01  0.7461E-01
     27.031  0.2862E-02  0.6597E-03  0.7555E-01  0.7473E-01
     27.213  0.3159E-02  0.1649E-02  0.7612E-01  0.7503E-01
     27.395  0.1366E-02  0.3785E-02  0.7637E-01  0.7572E-01
     27.577  0.1579E-02  0.2409E-02  0.7666E-01  0.7616E-01
     27.760  0.3149E-02  0.1174E-02  0.7723E-01  0.7637E-01
     27.942  0.2305E-02  0.2114E-02  0.7765E-01  0.7675E-01
     28.124  0.1938E-02  0.2848E-02  0.7800E-01  0.7727E-01
     28.306  0.1147E-02  0.1943E-02  0.7821E-01  0.7763E-01
     28.488  0.3612E-02  0.2100E-02  0.7887E-01  0.7801E-01
     28.670  0.6438E-03  0.3418E-02  0.7899E-01  0.7863E-01
     28.852  0.2337E-02  0.1708E-02  0.7941E-01  0.7894E-01
     29.034  0.5395E-04  0.1229E-02  0.7942E-01  0.7917E-01
     29.216  0.3822E-02  0.1368E-02  0.8012E-01  0.7942E-01
     29.399  0.3882E-03  0.1295E-02  0.8019E-01  0.7965E-01
     29.581  0.1755E-02  0.2690E-02  0.8051E-01  0.8014E-01
     29.763  0.1949E-02  0.1524E-02  0.8086E-01  0.8042E-01
     29.945  0.1462E-02  0.1879E-02  0.8113E-01  0.8076E-01
     30.127  0.3010E-02  0.1154E-02  0.8168E-01  0.8097E-01
     30.309  0.2030E-02  0.2466E-02  0.8205E-01  0.8142E-01
     30.491  0.1545E-02  0.2564E-02  0.8233E-01  0.8189E-01
     30.673  0.9309E-03  0.2318E-02  0.8250E-01  0.8231E-01
     30.856  0.8034E-03  0.9191E-03  0.8265E-01  0.8248E-01
     31.038  0.1138E-02  0.1877E-03  0.8285E-01  0.8251E-01
     31.220  0.3173E-02  0.2512E-02  0.8343E-01  0.8297E-01
     31.402  0.1968E-02  0.2164E-02  0.8379E-01  0.8336E-01
     31.584  0.2184E-02  0.2347E-02  0.8419E-01  0.8379E-01
     31.766  0.5940E-03  0.8533E-03  0.8430E-01  0.8394E-01
     31.948  0.1284E-02  0.1721E-02  0.8453E-01  0.8426E-01
     32.130  0.2503E-02  0.1683E-02  0.8499E-01  0.8456E-01
     32.312  0.1601E-02  0.2096E-02  0.8528E-01  0.8495E-01
     32.495  0.2112E-02  0.1907E-02  0.8566E-01  0.8529E-01
     32.677  0.1604E-02  0.1665E-02  0.8595E-01  0.8560E-01
     32.859  0.1629E-02  0.2868E-02  0.8625E-01  0.8612E-01
     33.041  0.3570E-02  0.2090E-02  0.8690E-01  0.8650E-01
     33.223  0.1790E-02  0.1006E-02  0.8723E-01  0.8668E-01
     33.405  0.1344E-02  0.2371E-02  0.8747E-01  0.8711E-01
     33.587  0.3038E-02  0.6929E-03  0.8802E-01  0.8724E-01
     33.769  0.1133E-02  0.3778E-02  0.8823E-01  0.8793E-01
     33.951  0.2241E-02  0.1853E-02  0.8864E-01  0.8827E-01
     34.134  0.1491E-02  0.3691E-02  0.8891E-01  0.8894E-01
     34.316  0.5900E-02  0.1263E-02  0.8999E-01  0.8917E-01
     34.498  0.1584E-02  0.3903E-02  0.9027E-01  0.8988E-01
     34.680  0.1552E-02  0.1668E-02  0.9056E-01  0.9018E-01
     34.862  0.3126E-02  0.1788E-02  0.9113E-01  0.9051E-01
     35.044  0.1604E-02  0.2839E-02  0.9142E-01  0.9103E-01
     35.226  0.2813E-02  0.2261E-02  0.9193E-01  0.9144E-01
     35.408  0.2135E-02  0.3126E-02  0.9232E-01  0.9201E-01
     35.590  0.3498E-02  0.1818E-02  0.9296E-01  0.9234E-01
     35.773  0.2002E-02  0.4555E-02  0.9332E-01  0.9317E-01
     35.955  0.2081E-02  0.1475E-02  0.9370E-01  0.9344E-01
     36.137  0.1178E-02  0.1231E-02  0.9391E-01  0.9366E-01
     36.319  0.2352E-02  0.1416E-02  0.9434E-01  0.9392E-01
     36.501  0.2953E-02  0.1574E-02  0.9488E-01  0.9420E-01
     36.683  0.4451E-02  0.3976E-02  0.9569E-01  0.9493E-01
     36.865  0.2276E-02  0.2945E-02  0.9611E-01  0.9546E-01
     37.047  0.1509E-02  0.2806E-02  0.9638E-01  0.9598E-01
     37.230  0.1988E-02  0.1520E-02  0.9674E-01  0.9625E-01
     37.412  0.2799E-02  0.2871E-02  0.9725E-01  0.9678E-01
     37.594  0.3319E-02  0.3173E-02  0.9786E-01  0.9735E-01
     37.776  0.2019E-02  0.2718E-02  0.9822E-01  0.9785E-01
     37.958  0.2239E-02  0.3138E-02  0.9863E-01  0.9842E-01
     38.140  0.6772E-05  0.5268E-03  0.9863E-01  0.9852E-01
     38.322  0.1130E-02  0.7842E-05  0.9884E-01  0.9852E-01
     38.504  0.2827E-02  0.1883E-02  0.9935E-01  0.9886E-01
     38.686  0.1180E-02  0.1361E-02  0.9957E-01  0.9911E-01
     38.869  0.2373E-02  0.3410E-02  0.1000E+00  0.9973E-01
     39.051  0.1272E-02  0.1489E-02  0.1002E+00  0.1000E+00
     39.233  0.1285E-04  0.2959E-07  0.1002E+00  0.1000E+00
     39.415  0.8843E-03  0.1103E-02  0.1004E+00  0.1002E+00
     39.597  0.1720E-02  0.2004E-03  0.1007E+00  0.1002E+00
     39.779  0.2897E-02  0.3743E-02  0.1012E+00  0.1009E+00
     39.961  0.2637E-02  0.2066E-02  0.1017E+00  0.1013E+00
     40.143  0.1015E-02  0.3978E-03  0.1019E+00  0.1014E+00
     40.325  0.7239E-03  0.1193E-02  0.1020E+00  0.1016E+00
     40.508  0.9281E-03  0.2408E-02  0.1022E+00  0.1020E+00
     40.690  0.2521E-02  0.3285E-03  0.1027E+00  0.1021E+00
     40.872  0.1914E-02  0.3132E-02  0.1030E+00  0.1027E+00
     41.054  0.1861E-02  0.1147E-02  0.1033E+00  0.1029E+00
     41.236  0.3621E-02  0.2348E-02  0.1040E+00  0.1033E+00
     41.418  0.7812E-02  0.3206E-02  0.1054E+00  0.1039E+00
     41.600  0.4200E-02  0.6503E-02  0.1062E+00  0.1051E+00
     41.782  0.1159E-02  0.5441E-02  0.1064E+00  0.1060E+00
     41.964  0.2354E-02  0.2806E-02  0.1068E+00  0.1066E+00
     42.147  0.1510E-02  0.1502E-02  0.1071E+00  0.1068E+00
     42.329  0.2330E-02  0.3307E-03  0.1075E+00  0.1069E+00
     42.511  0.1413E-02  0.2287E-02  0.1078E+00  0.1073E+00
     42.693  0.2366E-02  0.2603E-02  0.1082E+00  0.1078E+00
     42.875  0.3743E-02  0.2260E-02  0.1089E+00  0.1082E+00
     43.057  0.2142E-02  0.3350E-02  0.1093E+00  0.1088E+00
     43.239  0.2519E-02  0.3573E-02  0.1098E+00  0.1095E+00
     43.421  0.6583E-04  0.1683E-02  0.1098E+00  0.1098E+00
     43.604  0.2293E-02  0.1638E-04  0.1102E+00  0.1098E+00
     43.786  0.3025E-02  0.1742E-02  0.1107E+00  0.1101E+00
     43.968  0.4241E-02  0.3131E-02  0.1115E+00  0.1107E+00
     44.150  0.1594E-02  0.2530E-02  0.1118E+00  0.1111E+00
     44.332  0.7473E-05  0.3741E-02  0.1118E+00  0.1118E+00
     44.514  0.2508E-02  0.1069E-02  0.1123E+00  0.1120E+00
     44.696  0.1831E-02  0.1533E-02  0.1126E+00  0.1123E+00
     44.878  0.1069E-02  0.1494E-02  0.1128E+00  0.1125E+00
     45.060  0.4227E-02  0.2145E-02  0.1136E+00  0.1129E+00
     45.243  0.2037E-02  0.2178E-02  0.1139E+00  0.1133E+00
     45.425  0.1193E-02  0.1874E-02  0.1141E+00  0.1137E+00
     45.607  0.1287E-02  0.1382E-02  0.1144E+00  0.1139E+00
     45.789  0.1929E-02  0.2492E-02  0.1147E+00  0.1144E+00
     45.971  0.1282E-02  0.6377E-03  0.1150E+00  0.1145E+00
     46.153  0.1015E-03  0.3714E-05  0.1150E+00  0.1145E+00
     46.335  0.1931E-02  0.1853E-02  0.1153E+00  0.1148E+00
     46.517  0.3578E-02  0.4836E-03  0.1160E+00  0.1149E+00
     46.699  0.2492E-02  0.3772E-02  0.1164E+00  0.1156E+00
     46.882  0.1264E-02  0.1115E-02  0.1167E+00  0.1158E+00
     47.064  0.1347E-02  0.2369E-02  0.1169E+00  0.1162E+00
     47.246  0.1663E-02  0.5732E-04  0.1172E+00  0.1163E+00
     47.428  0.4164E-02  0.1833E-02  0.1180E+00  0.1166E+00
     47.610  0.3028E-02  0.2274E-02  0.1185E+00  0.1170E+00
     47.792  0.1999E-02  0.1465E-02  0.1189E+00  0.1173E+00
     47.974  0.5229E-02  0.2034E-02  0.1198E+00  0.1176E+00
     48.156  0.8774E-03  0.1152E-03  0.1200E+00  0.1177E+00
     48.338  0.6120E-06  0.4875E-03  0.1200E+00  0.1177E+00
     48.521  0.0000E+00  0.2357E-02  0.1200E+00  0.1182E+00
     48.703  0.0000E+00  0.4340E-03  0.1200E+00  0.1183E+00
     48.885  0.0000E+00  0.1847E-02  0.1200E+00  0.1186E+00
     49.067  0.0000E+00  0.2157E-04  0.1200E+00  0.1186E+00
     49.249  0.0000E+00  0.6233E-06  0.1200E+00  0.1186E+00
     49.431  0.0000E+00  0.1245E-02  0.1200E+00  0.1188E+00
     49.613  0.0000E+00  0.4125E-04  0.1200E+00  0.1188E+00
     49.795  0.0000E+00  0.0000E+00  0.1200E+00  0.1188E+00
     49.977  0.0000E+00  0.9505E-12  0.1200E+00  0.1188E+00
     50.160  0.0000E+00  0.1395E-03  0.1200E+00  0.1189E+00
     50.342  0.0000E+00  0.9755E-03  0.1200E+00  0.1190E+00
     50.524  0.0000E+00  0.1459E-02  0.1200E+00  0.1193E+00
     50.706  0.0000E+00  0.6247E-07  0.1200E+00  0.1193E+00
     50.888  0.0000E+00  0.0000E+00  0.1200E+00  0.1193E+00
     51.070  0.0000E+00  0.1218E-16  0.1200E+00  0.1193E+00
     51.252  0.0000E+00  0.1024E-04  0.1200E+00  0.1193E+00
     51.434  0.0000E+00  0.3005E-02  0.1200E+00  0.1198E+00
     51.617  0.0000E+00  0.8456E-03  0.1200E+00  0.1200E+00
     51.799  0.0000E+00  0.3365E-06  0.1200E+00  0.1200E+00
     51.981  0.0000E+00  0.0000E+00  0.1200E+00  0.1200E+00
     52.163  0.0000E+00  0.0000E+00  0.1200E+00  0.1200E+00
     52.345  0.0000E+00  0.0000E+00  0.1200E+00  0.1200E+00
     52.527  0.0000E+00  0.0000E+00  0.1200E+00  0.1200E+00
     52.709  0.0000E+00  0.0000E+00  0.1200E+00  0.1200E+00
     52.891  0.0000E+00  0.0000E+00  0.1200E+00  0.1200E+00
     53.073  0.0000E+00  0.0000E+00  0.1200E+00  0.1200E+00
     53.256  0.0000E+00  0.0000E+00  0.1200E+00  0.1200E+00
     53.438  0.0000E+00  0.0000E+00  0.1200E+00  0.1200E+00
     53.620  0.0000E+00  0.0000E+00  0.1200E+00  0.1200E+00
     53.802  0.0000E+00  0.0000E+00  0.1200E+00  0.1200E+00
     53.984  0.0000E+00  0.0000E+00  0.1200E+00  0.1200E+00
     53.98399940     -0.65020735  301     10.88246857      1.00000000
     -0.650  0.0000E+00  0.0000E+00  0.0000E+00  0.0000E+00  0.0000E+00  0.0000E+00  0.0000E+00  0.0000E+00  0.0000E+00  0.0000E+00  0.0000E+00  0.0000E+00  0.0000E+00  0.0000E+00  0.0000E+00  0.0000E+00  0.0000E+00  0.0000E+00
     -0.468  0.0000E+00  0.0000E+00  0.0000E+00  0.0000E+00  0.0000E+00  0.0000E+00  0.0000E+00  0.0000E+00  0.0000E+00  0.0000E+00  0.0000E+00  0.0000E+00  0.0000E+00  0.0000E+00  0.0000E+00  0.0000E+00  0.0000E+00  0.0000E+00
     -0.286  0.0000E+00  0.0000E+00  0.0000E+00  0.0000E+00  0.0000E+00  0.0000E+00  0.0000E+00  0.0000E+00  0.0000E+00  0.0000E+00  0.0000E+00  0.0000E+00  0.0000E+00  0.0000E+00  0.0000E+00  0.0000E+00  0.0000E+00  0.0000E+00
     -0.104  0.0000E+00  0.0000E+00  0.0000E+00  0.0000E+00  0.0000E+00  0.0000E+00  0.0000E+00  0.0000E+00  0.0000E+00  0.0000E+00  0.0000E+00  0.0000E+00  0.0000E+00  0.0000E+00  0.0000E+00  0.0000E+00  0.0000E+00  0.0000E+00
      0.078  0.0000E+00  0.0000E+00  0.0000E+00  0.0000E+00  0.0000E+00  0.0000E+00  0.0000E+00  0.0000E+00  0.0000E+00  0.0000E+00  0.0000E+00  0.0000E+00  0.0000E+00  0.0000E+00  0.0000E+00  0.0000E+00  0.0000E+00  0.0000E+00
      0.260  0.0000E+00  0.0000E+00  0.0000E+00  0.0000E+00  0.0000E+00  0.0000E+00  0.0000E+00  0.0000E+00  0.0000E+00  0.0000E+00  0.0000E+00  0.0000E+00  0.0000E+00  0.0000E+00  0.0000E+00  0.0000E+00  0.0000E+00  0.0000E+00
      0.442  0.0000E+00  0.0000E+00  0.0000E+00  0.0000E+00  0.0000E+00  0.0000E+00  0.0000E+00  0.0000E+00  0.0000E+00  0.0000E+00  0.0000E+00  0.0000E+00  0.0000E+00  0.0000E+00  0.0000E+00  0.0000E+00  0.0000E+00  0.0000E+00
      0.625  0.0000E+00  0.0000E+00  0.0000E+00  0.0000E+00  0.0000E+00  0.0000E+00  0.0000E+00  0.0000E+00  0.0000E+00  0.0000E+00  0.0000E+00  0.0000E+00  0.0000E+00  0.0000E+00  0.0000E+00  0.0000E+00  0.0000E+00  0.0000E+00
      0.807  0.0000E+00  0.0000E+00  0.0000E+00  0.0000E+00  0.0000E+00  0.0000E+00  0.0000E+00  0.0000E+00  0.0000E+00  0.0000E+00  0.0000E+00  0.0000E+00  0.0000E+00  0.0000E+00  0.0000E+00  0.0000E+00  0.0000E+00  0.0000E+00
      0.989  0.0000E+00  0.0000E+00  0.0000E+00  0.0000E+00  0.0000E+00  0.0000E+00  0.0000E+00  0.0000E+00  0.0000E+00  0.0000E+00  0.0000E+00  0.0000E+00  0.0000E+00  0.0000E+00  0.0000E+00  0.0000E+00  0.0000E+00  0.0000E+00
      1.171  0.0000E+00  0.0000E+00  0.0000E+00  0.0000E+00  0.0000E+00  0.0000E+00  0.0000E+00  0.0000E+00  0.0000E+00  0.0000E+00  0.0000E+00  0.0000E+00  0.0000E+00  0.0000E+00  0.0000E+00  0.0000E+00  0.0000E+00  0.0000E+00
      1.353  0.0000E+00  0.0000E+00  0.0000E+00  0.0000E+00  0.0000E+00  0.0000E+00  0.0000E+00  0.0000E+00  0.0000E+00  0.0000E+00  0.0000E+00  0.0000E+00  0.0000E+00  0.0000E+00  0.0000E+00  0.0000E+00  0.0000E+00  0.0000E+00
      1.535  0.0000E+00  0.0000E+00  0.0000E+00  0.0000E+00  0.0000E+00  0.0000E+00  0.0000E+00  0.0000E+00  0.0000E+00  0.0000E+00  0.0000E+00  0.0000E+00  0.0000E+00  0.0000E+00  0.0000E+00  0.0000E+00  0.0000E+00  0.0000E+00
      1.717  0.8372E-05  0.2494E-05  0.4240E-07  0.1268E-07  0.4240E-07  0.1268E-07  0.4240E-07  0.1268E-07  0.6588E-09  0.1483E-09  0.6588E-09  0.1483E-09  0.1453E-21  0.1929E-22  0.6588E-09  0.1483E-09  0.1453E-21  0.1929E-22
      1.899  0.1551E-01  0.1504E-01  0.7856E-04  0.7650E-04  0.7856E-04  0.7650E-04  0.7856E-04  0.7650E-04  0.1221E-05  0.8945E-06  0.1221E-05  0.8945E-06  0.2692E-18  0.1163E-18  0.1221E-05  0.8945E-06  0.2692E-18  0.1163E-18
      2.082  0.4888E-03  0.9799E-03  0.2476E-05  0.4983E-05  0.2476E-05  0.4983E-05  0.2476E-05  0.4983E-05  0.3848E-07  0.5827E-07  0.3848E-07  0.5827E-07  0.2394E-10  0.2238E-11  0.3848E-07  0.5827E-07  0.2394E-10  0.2238E-11
      2.264  0.2902E-01  0.2176E-01  0.5463E-03  0.4121E-03  0.5463E-03  0.4121E-03  0.5463E-03  0.4121E-03  0.1572E-04  0.8747E-05  0.1572E-04  0.8747E-05  0.2100E-04  0.1192E-04  0.1572E-04  0.8747E-05  0.2100E-04  0.1192E-04
      2.446  0.1707E-01  0.2436E-01  0.3213E-03  0.4614E-03  0.3213E-03  0.4614E-03  0.3213E-03  0.4614E-03  0.9245E-05  0.9793E-05  0.9245E-05  0.9793E-05  0.1235E-04  0.1334E-04  0.9245E-05  0.9793E-05  0.1235E-04  0.1334E-04
      2.628  0.9307E-02  0.3947E-02  0.3027E-03  0.1297E-03  0.3027E-03  0.1297E-03  0.3027E-03  0.1297E-03  0.2927E-04  0.8980E-05  0.2927E-04  0.8980E-05  0.6571E-05  0.2120E-05  0.2927E-04  0.8980E-05  0.6571E-05  0.2120E-05
      2.810  0.3483E-01  0.4026E-01  0.1133E-02  0.1323E-02  0.1133E-02  0.1323E-02  0.1133E-02  0.1323E-02  0.1095E-03  0.9158E-04  0.1095E-03  0.9158E-04  0.2459E-04  0.2162E-04  0.1095E-03  0.9158E-04  0.2459E-04  0.2162E-04
      2.992  0.3632E-02  0.6311E-03  0.1701E-03  0.2991E-04  0.1701E-03  0.2991E-04  0.1701E-03  0.2991E-04  0.1680E-04  0.1993E-05  0.1680E-04  0.1993E-05  0.2052E-04  0.2547E-05  0.1680E-04  0.1993E-05  0.2052E-04  0.2547E-05
      3.174  0.5242E-01  0.5552E-01  0.2470E-02  0.2646E-02  0.2470E-02  0.2646E-02  0.2470E-02  0.2646E-02  0.1936E-03  0.1447E-03  0.1936E-03  0.1447E-03  0.3481E-03  0.2593E-03  0.1936E-03  0.1447E-03  0.3481E-03  0.2593E-03
      3.356  0.2451E-02  0.2653E-03  0.1504E-03  0.1477E-04  0.1504E-03  0.1477E-04  0.1504E-03  0.1477E-04  0.2390E-04  0.1222E-05  0.2390E-04  0.1222E-05  0.1677E-04  0.1334E-05  0.2390E-04  0.1222E-05  0.1677E-04  0.1334E-05
      3.538  0.7764E-01  0.7944E-01  0.4769E-02  0.4958E-02  0.4769E-02  0.4958E-02  0.4769E-02  0.4958E-02  0.7590E-03  0.5386E-03  0.7590E-03  0.5386E-03  0.5310E-03  0.3850E-03  0.7590E-03  0.5386E-03  0.5310E-03  0.3850E-03
      3.721  0.5511E-02  0.1138E-02  0.3942E-03  0.7239E-04  0.3942E-03  0.7239E-04  0.3942E-03  0.7239E-04  0.1548E-03  0.8982E-05  0.1548E-03  0.8982E-05  0.2358E-04  0.5309E-05  0.1548E-03  0.8982E-05  0.2358E-04  0.5309E-05
      3.903  0.3243E-01  0.3798E-01  0.2322E-02  0.2824E-02  0.2322E-02  0.2824E-02  0.2322E-02  0.2824E-02  0.9156E-03  0.6884E-03  0.9156E-03  0.6884E-03  0.1381E-03  0.1130E-03  0.9156E-03  0.6884E-03  0.1381E-03  0.1130E-03
      4.085  0.1546E-01  0.4731E-03  0.1430E-02  0.3822E-04  0.1430E-02  0.3822E-04  0.1430E-02  0.3822E-04  0.2011E-03  0.7086E-05  0.2011E-03  0.7086E-05  0.6547E-03  0.5124E-05  0.2011E-03  0.7086E-05  0.6547E-03  0.5124E-05
      4.267  0.5560E-01  0.7137E-01  0.5100E-02  0.6712E-02  0.5100E-02  0.6712E-02  0.5100E-02  0.6712E-02  0.1075E-02  0.8412E-03  0.1075E-02  0.8412E-03  0.1706E-02  0.1532E-02  0.1075E-02  0.8412E-03  0.1706E-02  0.1532E-02
      4.449  0.7764E-01  0.5170E-02  0.7852E-02  0.5151E-03  0.7852E-02  0.5151E-03  0.7852E-02  0.5151E-03  0.3680E-02  0.1932E-03  0.3680E-02  0.1932E-03  0.2484E-02  0.4781E-04  0.3680E-02  0.1932E-03  0.2484E-02  0.4781E-04
      4.631  0.2332E-01  0.9843E-01  0.2522E-02  0.1054E-01  0.2522E-02  0.1054E-01  0.2522E-02  0.1054E-01  0.6542E-03  0.2530E-02  0.6542E-03  0.2530E-02  0.1191E-02  0.2297E-02  0.6542E-03  0.2530E-02  0.1191E-02  0.2297E-02
      4.813  0.3564E-01  0.8578E-02  0.3897E-02  0.1030E-02  0.3897E-02  0.1030E-02  0.3897E-02  0.1030E-02  0.3435E-02  0.3610E-03  0.3435E-02  0.3610E-03  0.1271E-02  0.2346E-03  0.3435E-02  0.3610E-03  0.1271E-02  0.2346E-03
      4.995  0.1406E-01  0.2464E-01  0.1808E-02  0.2955E-02  0.1808E-02  0.2955E-02  0.1808E-02  0.2955E-02  0.1513E-02  0.1104E-02  0.1513E-02  0.1104E-02  0.4665E-03  0.6508E-03  0.1513E-02  0.1104E-02  0.4665E-03  0.6508E-03
      5.177  0.1176E+00  0.3770E-01  0.1567E-01  0.5105E-02  0.1567E-01  0.5105E-02  0.1567E-01  0.5105E-02  0.1397E-01  0.2524E-02  0.1397E-01  0.2524E-02  0.1142E-01  0.7577E-03  0.1397E-01  0.2524E-02  0.1142E-01  0.7577E-03
      5.360  0.3281E-01  0.5116E-01  0.3812E-02  0.7408E-02  0.3812E-02  0.7408E-02  0.3812E-02  0.7408E-02  0.1047E-01  0.2964E-02  0.1047E-01  0.2964E-02  0.3516E-02  0.2499E-02  0.1047E-01  0.2964E-02  0.3516E-02  0.2499E-02
      5.542  0.6497E-01  0.6496E-01  0.8558E-02  0.9335E-02  0.8558E-02  0.9335E-02  0.8558E-02  0.9335E-02  0.1964E-01  0.5311E-02  0.1964E-01  0.5311E-02  0.4079E-01  0.4550E-02  0.1964E-01  0.5311E-02  0.4079E-01  0.4550E-02
      5.724  0.7412E-01  0.4796E-01  0.9301E-02  0.8281E-02  0.9301E-02  0.8281E-02  0.9301E-02  0.8281E-02  0.3638E-01  0.2973E-02  0.3638E-01  0.2973E-02  0.6745E-01  0.7622E-02  0.3638E-01  0.2973E-02  0.6745E-01  0.7622E-02
      5.906  0.1469E+00  0.3199E-01  0.2339E-01  0.4726E-02  0.2339E-01  0.4726E-02  0.2339E-01  0.4726E-02  0.7731E-01  0.5545E-02  0.7731E-01  0.5545E-02  0.1386E+00  0.2578E-02  0.7731E-01  0.5545E-02  0.1386E+00  0.2578E-02
      6.088  0.5029E-01  0.5538E-01  0.8661E-02  0.1028E-01  0.8661E-02  0.1028E-01  0.8661E-02  0.1028E-01  0.4486E-01  0.8728E-02  0.4486E-01  0.8728E-02  0.7878E-01  0.3958E-02  0.4486E-01  0.8728E-02  0.7878E-01  0.3958E-02
      6.270  0.5717E-01  0.7500E-01  0.1247E-01  0.1344E-01  0.1247E-01  0.1344E-01  0.1247E-01  0.1344E-01  0.1052E+00  0.1787E-01  0.1052E+00  0.1787E-01  0.1376E+00  0.1437E-01  0.1052E+00  0.1787E-01  0.1376E+00  0.1437E-01
      6.452  0.6322E-01  0.6551E-01  0.1927E-01  0.1181E-01  0.1927E-01  0.1181E-01  0.1927E-01  0.1181E-01  0.1596E+00  0.1961E-01  0.1596E+00  0.1961E-01  0.1334E+00  0.1180E-01  0.1596E+00  0.1961E-01  0.1334E+00  0.1180E-01
      6.634  0.2049E-01  0.8175E-01  0.1087E-01  0.1137E-01  0.1087E-01  0.1137E-01  0.1087E-01  0.1137E-01  0.1382E+00  0.4102E-01  0.1382E+00  0.4102E-01  0.1155E+00  0.6667E-01  0.1382E+00  0.4102E-01  0.1155E+00  0.6667E-01
      6.816  0.2652E-01  0.6072E-01  0.2095E-01  0.1068E-01  0.2095E-01  0.1068E-01  0.2095E-01  0.1068E-01  0.1963E+00  0.3632E-01  0.1963E+00  0.3632E-01  0.9201E-01  0.3749E-01  0.1963E+00  0.3632E-01  0.9201E-01  0.3749E-01
      6.999  0.9573E-02  0.5972E-01  0.1694E-01  0.1496E-01  0.1694E-01  0.1496E-01  0.1694E-01  0.1496E-01  0.1601E+00  0.2015E-01  0.1601E+00  0.2015E-01  0.9121E-01  0.8454E-01  0.1601E+00  0.2015E-01  0.9121E-01  0.8454E-01
      7.181  0.5883E-02  0.8762E-01  0.2141E-01  0.1963E-01  0.2141E-01  0.1963E-01  0.2141E-01  0.1963E-01  0.1779E+00  0.7078E-01  0.1779E+00  0.7078E-01  0.1126E+00  0.8123E-01  0.1779E+00  0.7078E-01  0.1126E+00  0.8123E-01
      7.363  0.9354E-03  0.2430E-01  0.9607E-02  0.8891E-02  0.9607E-02  0.8891E-02  0.9607E-02  0.8891E-02  0.9430E-01  0.2553E-01  0.9430E-01  0.2553E-01  0.1171E+00  0.9404E-01  0.9430E-01  0.2553E-01  0.1171E+00  0.9404E-01
      7.545  0.8118E-02  0.5247E-01  0.1921E-01  0.1841E-01  0.1921E-01  0.1841E-01  0.1921E-01  0.1841E-01  0.1692E+00  0.1188E+00  0.1692E+00  0.1188E+00  0.1167E+00  0.9102E-01  0.1692E+00  0.1188E+00  0.1167E+00  0.9102E-01
      7.727  0.8821E-02  0.1937E-01  0.1726E-01  0.1415E-01  0.1726E-01  0.1415E-01  0.1726E-01  0.1415E-01  0.2095E+00  0.1017E+00  0.2095E+00  0.1017E+00  0.1015E+00  0.8204E-01  0.2095E+00  0.1017E+00  0.1015E+00  0.8204E-01
      7.909  0.1052E-01  0.2511E-01  0.2413E-01  0.2560E-01  0.2413E-01  0.2560E-01  0.2413E-01  0.2560E-01  0.2377E+00  0.1763E+00  0.2377E+00  0.1763E+00  0.1312E+00  0.1091E+00  0.2377E+00  0.1763E+00  0.1312E+00  0.1091E+00
      8.091  0.2126E-01  0.1627E-02  0.2708E-01  0.1437E-01  0.2708E-01  0.1437E-01  0.2708E-01  0.1437E-01  0.2454E+00  0.1231E+00  0.2454E+00  0.1231E+00  0.1572E+00  0.4084E-01  0.2454E+00  0.1231E+00  0.1572E+00  0.4084E-01
      8.273  0.1741E-01  0.6043E-02  0.2413E-01  0.1878E-01  0.2413E-01  0.1878E-01  0.2413E-01  0.1878E-01  0.2637E+00  0.1299E+00  0.2637E+00  0.1299E+00  0.2312E+00  0.8621E-01  0.2637E+00  0.1299E+00  0.2312E+00  0.8621E-01
      8.455  0.1352E-01  0.2630E-02  0.2267E-01  0.2336E-01  0.2267E-01  0.2336E-01  0.2267E-01  0.2336E-01  0.3272E+00  0.1615E+00  0.3272E+00  0.1615E+00  0.2104E+00  0.8543E-01  0.3272E+00  0.1615E+00  0.2104E+00  0.8543E-01