    1    1  100    2
  0.1043745E+02  0.2453031E-09  0.2453031E-09  0.2453031E-09  0.5000000E-15
  1.000000000000000E-004
  CAR 
 Co-fcc                                  
      9     60     12
 
  0.6250000E-01  0.6250000E-01  0.6250000E-01  0.3906250E-02
      1          1.833166        1.844756   1.000000   1.000000
      2          8.099219        9.631523   1.000000   1.000000
      3          8.185657        9.734578   1.000000   1.000000
      4          8.185657        9.734578   1.000000   1.000000
      5          9.284385       11.149414   1.000000   0.000000
      6          9.284385       11.149414   1.000000   0.000000
      7         33.966036       33.741655   0.000000   0.000000
      8         37.138093       37.240597   0.000000   0.000000
      9         38.680485       38.853307   0.000000   0.000000
     10         38.680485       38.853307   0.000000   0.000000
     11         42.721585       42.979767   0.000000   0.000000
     12         42.721650       42.980386   0.000000   0.000000
 
  0.1875000E+00  0.6250000E-01  0.6250000E-01  0.1171875E-01
      1          2.656249        2.675403   1.000000   1.000000
      2          7.871596        9.342169   1.000000   1.000000
      3          8.353974        9.920529   1.000000   1.000000
      4          8.358708        9.928720   1.000000   1.000000
      5          9.118134       10.949800   1.000000   0.028428
      6          9.378509       11.231705   1.000000   0.000000
      7         31.273580       31.465165   0.000000   0.000000
      8         33.936155       34.004890   0.000000   0.000000
      9         37.506464       37.568438   0.000000   0.000000
     10         39.718989       39.894286   0.000000   0.000000
     11         41.484979       41.480473   0.000000   0.000000
     12         42.827315       43.056117   0.000000   0.000000
 
  0.3125000E+00  0.6250000E-01  0.6250000E-01  0.1171875E-01
      1          4.370509        4.493665   1.000000   1.000000
      2          7.752280        9.008507   1.000000   1.000000
      3          8.296844        9.901007   1.000000   1.000000
      4          8.376279       10.008999   1.000000   1.000000
      5          9.340723       11.117858   1.000000   0.000000
      6          9.802483       11.606074   1.000000   0.000000
      7         25.133072       25.583273   0.000000   0.000000
      8         32.807706       32.859708   0.000000   0.000000
      9         36.453372       36.539551   0.000000   0.000000
     10         39.367291       39.678879   0.000000   0.000000
     11         40.535636       40.795888   0.000000   0.000000
     12         41.481427       41.548621   0.000000   0.000000
 
  0.4375000E+00  0.6250000E-01  0.6250000E-01  0.1171875E-01
      1          5.497351        6.167906   1.000000   1.000000
      2          8.052601        9.486107   1.000000   1.000000
      3          8.158277        9.695494   1.000000   1.000000
      4          8.863553        9.791685   1.000000   1.000000
      5          9.929500       11.739778   1.000000   0.000000
      6         10.621602       12.241538   1.000000   0.000000
      7         19.704351       20.432436   0.000000   0.000000
      8         32.246517       32.179728   0.000000   0.000000
      9         35.240090       35.411984   0.000000   0.000000
     10         37.193011       37.513942   0.000000   0.000000
     11         39.663053       39.942196   0.000000   0.000000
     12         41.245884       41.448408   0.000000   0.000000
 
 -0.4375000E+00  0.6250000E-01  0.6250000E-01  0.1171875E-01
      1          5.615411        6.505669   1.000000   1.000000
      2          7.950812        9.519682   1.000000   1.000000
      3          8.101566        9.726987   1.000000   1.000000
      4          9.470862       10.202119   1.000000   1.000000
      5         10.230134       12.077141   1.000000   0.000000
      6         11.396449       12.525949   0.000000   0.000000
      7         17.531607       18.494601   0.000000   0.000000
      8         32.292570       32.116499   0.000000   0.000000
      9         35.280725       35.593166   0.000000   0.000000
     10         35.449544       35.725515   0.000000   0.000000
     11         40.506348       40.740620   0.000000   0.000000
     12         40.516678       40.770422   0.000000   0.000000
 
 -0.3125000E+00  0.6250000E-01  0.6250000E-01  0.1171875E-01
      1          5.287901        5.746584   1.000000   1.000000
      2          8.091512        9.165318   1.000000   1.000000
      3          8.252778        9.729593   1.000000   1.000000
      4          8.315505        9.881171   1.000000   1.000000
      5         10.011083       11.737412   1.000000   0.000000
      6         10.065626       11.849685   1.000000   0.000000
      7         21.347209       21.965482   0.000000   0.000000
      8         33.027886       32.849685   0.000000   0.000000
      9         34.733655       35.071268   0.000000   0.000000
     10         37.233983       37.569691   0.000000   0.000000
     11         40.308574       40.498347   0.000000   0.000000
     12         42.239570       42.446027   0.000000   0.000000
 
 -0.1875000E+00  0.6250000E-01  0.6250000E-01  0.1171875E-01
      1          3.758044        3.818081   1.000000   1.000000
      2          7.701818        9.062830   1.000000   1.000000
      3          8.364478        9.974974   1.000000   1.000000
      4          8.426471       10.031226   1.000000   1.000000
      5          9.266148       11.029087   1.000000   0.000017
      6          9.544913       11.385076   1.000000   0.000000
      7         27.168403       27.544297   0.000000   0.000000
      8         34.151497       34.019431   0.000000   0.000000
      9         35.286380       35.624165   0.000000   0.000000
     10         39.838820       39.941670   0.000000   0.000000
     11         40.137439       40.404461   0.000000   0.000000
     12         44.476856       44.576628   0.000000   0.000000
 
 -0.6250000E-01  0.6250000E-01  0.6250000E-01  0.1171875E-01
      1          2.251916        2.266119   1.000000   1.000000
      2          7.946368        9.448831   1.000000   1.000000
      3          8.302045        9.859250   1.000000   1.000000
      4          8.306634        9.864739   1.000000   1.000000
      5          9.139564       10.976688   1.000000   0.003850
      6          9.355021       11.225508   1.000000   0.000000
      7         33.017591       33.011767   0.000000   0.000000
      8         35.509258       35.523269   0.000000   0.000000
      9         36.677027       36.956079   0.000000   0.000000
     10         38.486284       38.570592   0.000000   0.000000
     11         42.642659       42.833162   0.000000   0.000000
     12         44.436361       44.541231   0.000000   0.000000
 
  0.1875000E+00  0.1875000E+00  0.6250000E-01  0.1171875E-01
      1          3.048374        3.074730   1.000000   1.000000
      2          7.651582        9.103129   1.000000   1.000000
      3          8.510303       10.096002   1.000000   1.000000
      4          8.542179       10.120212   1.000000   1.000000
      5          8.941479       10.704462   1.000000   1.000000
      6          9.486684       11.366829   1.000000   0.000000
      7         31.590723       31.789484   0.000000   0.000000
      8         34.038777       34.027538   0.000000   0.000000
      9         34.354520       34.677313   0.000000   0.000000
     10         36.507323       36.583096   0.000000   0.000000
     11         42.545452       43.207763   0.000000   0.000000
     12         44.974272       45.102125   0.000000   0.000000
 
  0.3125000E+00  0.1875000E+00  0.6250000E-01  0.2343750E-01
      1          4.432746        4.530768   1.000000   1.000000
      2          7.330753        8.698486   1.000000   1.000000
      3          8.282031        9.891183   1.000000   1.000000
      4          8.817866       10.447556   1.000000   1.000000
      5          9.224523       10.900355   1.000000   0.306462
      6          9.887026       11.709219   1.000000   0.000000
      7         27.725620       28.085564   0.000000   0.000000
      8         30.359650       30.610793   0.000000   0.000000
      9         34.168735       34.310906   0.000000   0.000000
     10         36.226023       36.377332   0.000000   0.000000
     11         41.349557       41.897037   0.000000   0.000000
     12         44.707248       44.771100   0.000000   0.000000
 
  0.4375000E+00  0.1875000E+00  0.6250000E-01  0.2343750E-01
      1          5.812692        6.334729   1.000000   1.000000
      2          7.459331        8.609369   1.000000   1.000000
      3          7.955739        9.442706   1.000000   1.000000
      4          8.652387       10.311710   1.000000   1.000000
      5          9.974906       11.747028   1.000000   0.000000
      6         11.132066       12.615206   0.000000   0.000000
      7         21.854975       22.415704   0.000000   0.000000
      8         29.713543       29.935912   0.000000   0.000000
      9         31.800952       32.075011   0.000000   0.000000
     10         35.904059       36.109242   0.000000   0.000000
     11         42.703665       42.837081   0.000000   0.000000
     12         45.265801       45.558384   0.000000   0.000000
 
 -0.4375000E+00  0.1875000E+00  0.6250000E-01  0.2343750E-01
      1          6.109615        7.068541   1.000000   1.000000
      2          7.496484        8.801936   1.000000   1.000000
      3          8.415713        9.567759   1.000000   1.000000
      4          8.490756       10.141234   1.000000   1.000000
      5         10.190099       12.019217   1.000000   0.000000
      6         13.323871       14.223284   0.000000   0.000000
      7         17.712407       18.590025   0.000000   0.000000
      8         29.095927       29.308229   0.000000   0.000000
      9         31.108049       31.442608   0.000000   0.000000
     10         35.654626       35.772604   0.000000   0.000000
     11         41.847160       42.064327   0.000000   0.000000
     12         45.532366       45.645957   0.000000   0.000000
 
 -0.3125000E+00  0.1875000E+00  0.6250000E-01  0.2343750E-01
      1          6.048735        6.768631   1.000000   1.000000
      2          7.653769        8.861679   1.000000   1.000000
      3          8.025481        9.326543   1.000000   1.000000
      4          8.533856       10.196590   1.000000   1.000000
      5          9.848287       11.618489   1.000000   0.000000
      6         12.008512       13.338862   0.000000   0.000000
      7         20.169693       20.831200   0.000000   0.000000
      8         28.306710       28.592029   0.000000   0.000000
      9         32.653576       32.884958   0.000000   0.000000
     10         36.784766       36.915049   0.000000   0.000000
     11         41.196143       41.399891   0.000000   0.000000
     12         44.915476       45.041927   0.000000   0.000000
 
 -0.1875000E+00  0.1875000E+00  0.6250000E-01  0.2343750E-01
      1          5.026161        5.180596   1.000000   1.000000
      2          7.410165        8.732023   1.000000   1.000000
      3          8.095469        9.669993   1.000000   1.000000
      4          8.748680       10.423919   1.000000   1.000000
      5          9.151391       10.853708   1.000000   0.792027
      6         10.413837       12.147798   1.000000   0.000000
      7         25.703243       26.133628   0.000000   0.000000
      8         28.470992       28.774118   0.000000   0.000000
      9         35.190943       35.322723   0.000000   0.000000
     10         38.752583       38.852988   0.000000   0.000000
     11         40.638820       40.769493   0.000000   0.000000
     12         43.810920       44.125366   0.000000   0.000000
 
 -0.6250000E-01  0.1875000E+00  0.6250000E-01  0.2343750E-01
      1          3.422547        3.459432   1.000000   1.000000
      2          7.649182        9.072002   1.000000   1.000000
      3          8.401870        9.993965   1.000000   1.000000
      4          8.545482       10.138191   1.000000   1.000000
      5          9.024312       10.796550   1.000000   0.992453
      6          9.578736       11.423309   1.000000   0.000000
      7         29.438713       29.736545   0.000000   0.000000
      8         32.102974       32.273863   0.000000   0.000000
      9         36.573109       36.649086   0.000000   0.000000
     10         38.396084       38.444241   0.000000   0.000000
     11         42.124896       42.364869   0.000000   0.000000
     12         43.556462       43.804987   0.000000   0.000000
 
  0.3125000E+00  0.3125000E+00  0.6250000E-01  0.1171875E-01
      1          5.103119        5.380423   1.000000   1.000000
      2          6.887044        8.218893   1.000000   1.000000
      3          8.625681       10.044169   1.000000   1.000000
      4          9.270930       10.934402   1.000000   0.070929
      5          9.624289       11.203313   1.000000   0.000000
      6          9.860169       11.757697   1.000000   0.000000
      7         28.312282       28.623121   0.000000   0.000000
      8         30.057157       30.305899   0.000000   0.000000
      9         30.062936       30.355945   0.000000   0.000000
     10         32.953955       33.195484   0.000000   0.000000
     11         37.875425       38.402420   0.000000   0.000000
     12         47.849474       50.187294   0.000000   0.000000
 
  0.4375000E+00  0.3125000E+00  0.6250000E-01  0.2343750E-01
      1          5.831827        6.546026   1.000000   1.000000
      2          6.668950        7.939984   1.000000   1.000000
      3          8.560670        9.825967   1.000000   1.000000
      4          9.532348       11.263382   1.000000   0.000000
      5         10.026073       11.809492   1.000000   0.000000
      6         11.396385       12.727934   0.000000   0.000000
      7         24.844055       25.230291   0.000000   0.000000
      8         26.813299       27.180031   0.000000   0.000000
      9         27.879212       28.222391   0.000000   0.000000
     10         34.232514       34.468761   0.000000   0.000000
     11         38.968327       39.377151   0.000000   0.000000
     12         47.615813       48.761732   0.000000   0.000000
 
 -0.4375000E+00  0.3125000E+00  0.6250000E-01  0.2343750E-01
      1          6.327511        7.440906   1.000000   1.000000
      2          6.812527        7.978532   1.000000   1.000000
      3          8.238552        9.468651   1.000000   1.000000
      4          9.234601       10.991750   1.000000   0.000998
      5         10.257354       12.070683   1.000000   0.000000
      6         14.644129       15.494640   0.000000   0.000000
      7         19.666240       20.235081   0.000000   0.000000
      8         24.632089       25.114334   0.000000   0.000000
      9         28.046078       28.363008   0.000000   0.000000
     10         34.694372       34.903082   0.000000   0.000000
     11         43.863981       44.169305   0.000000   0.000000
     12         46.508450       46.994042   0.000000   0.000000
 
 -0.3125000E+00  0.3125000E+00  0.6250000E-01  0.2343750E-01
      1          6.836496        7.839032   1.000000   1.000000
      2          6.992718        8.246426   1.000000   1.000000
      3          7.756593        8.984214   1.000000   1.000000
      4          9.024091       10.789874   1.000000   0.995590
      5          9.920023       11.662168   1.000000   0.000000
      6         14.974586       15.865031   0.000000   0.000000
      7         19.505281       20.120135   0.000000   0.000000
      8         23.303751       23.810753   0.000000   0.000000
      9         29.806972       30.129400   0.000000   0.000000
     10         35.569079       35.723284   0.000000   0.000000
     11         44.423387       44.495933   0.000000   0.000000
     12         47.396964       49.365689   0.000000   0.000000
 
 -0.1875000E+00  0.3125000E+00  0.6250000E-01  0.2343750E-01
      1          6.361678        6.887504   1.000000   1.000000
      2          7.427281        8.641989   1.000000   1.000000
      3          7.592515        9.068732   1.000000   1.000000
      4          8.835631       10.559149   1.000000   1.000000
      5          9.521456       11.225713   1.000000   0.000000
      6         12.118886       13.513617   0.000000   0.000000
      7         22.390643       22.931018   0.000000   0.000000
      8         25.443167       25.839247   0.000000   0.000000
      9         32.412671       32.662734   0.000000   0.000000
     10         37.357600       37.500567   0.000000   0.000000
     11         41.621095       41.689411   0.000000   0.000000
     12         46.391404       46.545298   0.000000   0.000000
 
 -0.6250000E-01  0.3125000E+00  0.6250000E-01  0.2343750E-01
      1          5.125666        5.389842   1.000000   1.000000
      2          7.706030        8.864886   1.000000   1.000000
      3          8.112958        9.711505   1.000000   1.000000
      4          8.446285       10.088780   1.000000   1.000000
      5          9.585308       11.321247   1.000000   0.000000
      6         10.273469       12.012185   1.000000   0.000000
      7         23.363849       23.879244   0.000000   0.000000
      8         31.224996       31.385244   0.000000   0.000000
      9         34.826984       34.937071   0.000000   0.000000
     10         37.615511       37.893507   0.000000   0.000000
     11         41.277436       41.448456   0.000000   0.000000
     12         42.865755       43.024451   0.000000   0.000000
 
  0.4375000E+00  0.4375000E+00  0.6250000E-01  0.1171875E-01
      1          5.585852        6.575240   1.000000   1.000000
      2          6.280667        7.528419   1.000000   1.000000
      3          9.887242       11.227099   1.000000   0.000000
      4          9.945085       11.798994   1.000000   0.000000
      5         10.282337       12.120610   1.000000   0.000000
      6         12.040494       12.817657   0.000000   0.000000
      7         23.534183       24.132648   0.000000   0.000000
      8         25.938835       26.202510   0.000000   0.000000
      9         27.123690       27.329197   0.000000   0.000000
     10         32.098792       32.457097   0.000000   0.000000
     11         36.376969       36.813956   0.000000   0.000000
     12         47.882302       51.415197   0.000000   0.000000
 
 -0.4375000E+00  0.4375000E+00  0.6250000E-01  0.2343750E-01
      1          5.734650        6.856444   1.000000   1.000000
      2          6.307655        7.531602   1.000000   1.000000
      3          9.443232       10.772957   1.000000   0.999024
      4          9.890389       11.783858   1.000000   0.000000
      5         10.429188       12.221990   1.000000   0.000000
      6         14.642134       15.169526   0.000000   0.000000
      7         21.367037       22.127972   0.000000   0.000000
      8         23.478910       23.814878   0.000000   0.000000
      9         25.971183       26.219576   0.000000   0.000000
     10         33.594643       33.886072   0.000000   0.000000
     11         38.283980       38.683982   0.000000   0.000000
     12         47.904411       51.344070   0.000000   0.000000
 
 -0.3125000E+00  0.4375000E+00  0.6250000E-01  0.2343750E-01
      1          6.270797        7.478117   1.000000   1.000000
      2          6.714287        7.870072   1.000000   1.000000
      3          8.420478        9.651553   1.000000   1.000000
      4          9.425672       11.246542   1.000000   0.000000
      5         10.243917       12.019997   1.000000   0.000000
      6         16.719103       17.342311   0.000000   0.000000
      7         18.977580       19.537401   0.000000   0.000000
      8         22.141062       22.774044   0.000000   0.000000
      9         27.554746       27.863958   0.000000   0.000000
     10         34.531909       34.757125   0.000000   0.000000
     11         43.850232       44.240261   0.000000   0.000000
     12         47.581431       47.926727   0.000000   0.000000
 
 -0.1875000E+00  0.4375000E+00  0.6250000E-01  0.2343750E-01
      1          6.498404        7.523388   1.000000   1.000000
      2          7.175494        8.404474   1.000000   1.000000
      3          8.073615        9.284452   1.000000   1.000000
      4          8.766180       10.475925   1.000000   1.000000
      5         10.083805       11.880037   1.000000   0.000000
      6         14.608628       15.436836   0.000000   0.000000
      7         17.953730       18.753353   0.000000   0.000000
      8         26.079807       26.462746   0.000000   0.000000
      9         30.185509       30.500754   0.000000   0.000000
     10         35.573124       35.704749   0.000000   0.000000
     11         43.181465       43.338840   0.000000   0.000000
     12         47.379849       47.807703   0.000000   0.000000
 
 -0.6250000E-01  0.4375000E+00  0.6250000E-01  0.2343750E-01
      1          5.768452        6.609869   1.000000   1.000000
      2          7.829418        9.258570   1.000000   1.000000
      3          8.250143        9.716935   1.000000   1.000000
      4          8.771430        9.897298   1.000000   1.000000
      5         10.130099       11.951373   1.000000   0.000000
      6         11.747291       12.955239   0.000000   0.000000
      7         18.457606       19.282950   0.000000   0.000000
      8         31.049262       31.100330   0.000000   0.000000
      9         33.380387       33.659661   0.000000   0.000000
     10         35.984619       36.171068   0.000000   0.000000
     11         40.769647       41.022618   0.000000   0.000000
     12         42.936750       43.102443   0.000000   0.000000
 
 -0.4375000E+00 -0.4375000E+00  0.6250000E-01  0.1171875E-01
      1          5.513371        6.609979   1.000000   1.000000
      2          6.143601        7.373474   1.000000   1.000000
      3         10.072311       11.729352   1.000000   0.000000
      4         10.193904       12.007322   1.000000   0.000000
      5         10.442544       12.240956   1.000000   0.000000
      6         13.588848       13.907845   0.000000   0.000000
      7         21.295365       22.100057   0.000000   0.000000
      8         25.321876       25.547539   0.000000   0.000000
      9         26.467378       26.639372   0.000000   0.000000
     10         31.964842       32.349475   0.000000   0.000000
     11         36.193526       36.627707   0.000000   0.000000
     12         47.954693       51.500626   0.000000   0.000000
 
 -0.3125000E+00 -0.4375000E+00  0.6250000E-01  0.2343750E-01
      1          5.820943        6.839381   1.000000   1.000000
      2          6.432486        7.672524   1.000000   1.000000
      3          9.086998       10.343441   1.000000   1.000000
      4          9.806679       11.625227   1.000000   0.000000
      5         10.270573       12.073858   1.000000   0.000000
      6         13.016948       13.903487   0.000000   0.000000
      7         23.481024       23.965923   0.000000   0.000000
      8         24.250547       24.692240   0.000000   0.000000
      9         26.560233       26.835589   0.000000   0.000000
     10         33.795404       34.066896   0.000000   0.000000
     11         38.482780       38.881298   0.000000   0.000000
     12         47.789409       50.386017   0.000000   0.000000
 
 -0.1875000E+00 -0.4375000E+00  0.6250000E-01  0.2343750E-01
      1          6.228846        7.084195   1.000000   1.000000
      2          7.084668        8.267400   1.000000   1.000000
      3          8.024392        9.334978   1.000000   1.000000
      4          8.942067       10.639100   1.000000   1.000000
      5         10.194779       12.018731   1.000000   0.000000
      6         12.639236       13.776578   0.000000   0.000000
      7         20.612820       21.190628   0.000000   0.000000
      8         27.679530       27.995982   0.000000   0.000000
      9         29.151854       29.498615   0.000000   0.000000
     10         35.091703       35.282008   0.000000   0.000000
     11         43.616770       43.779757   0.000000   0.000000
     12         45.681234       46.259066   0.000000   0.000000
 
 -0.3125000E+00 -0.3125000E+00  0.6250000E-01  0.1171875E-01
      1          5.572076        6.259877   1.000000   1.000000
      2          6.539082        7.821634   1.000000   1.000000
      3          9.263387       10.420804   1.000000   1.000000
      4          9.661520       11.403594   1.000000   0.000000
      5         10.067660       11.869838   1.000000   0.000000
      6         10.506864       11.953658   1.000000   0.000000
      7         26.440728       26.811892   0.000000   0.000000
      8         27.239912       27.588443   0.000000   0.000000
      9         28.359147       28.613602   0.000000   0.000000
     10         32.395507       32.702942   0.000000   0.000000
     11         36.860218       37.319187   0.000000   0.000000
     12         47.852490       51.340905   0.000000   0.000000
 
 -0.1875000E+00 -0.3125000E+00  0.6250000E-01  0.2343750E-01
      1          5.389214        5.690292   1.000000   1.000000
      2          6.984983        8.299463   1.000000   1.000000
      3          8.215949        9.696739   1.000000   1.000000
      4          9.161626       10.833314   1.000000   0.917780
      5          9.662000       11.345958   1.000000   0.000000
      6         10.381146       12.076697   1.000000   0.000000
      7         26.180689       26.568512   0.000000   0.000000
      8         28.706604       28.996353   0.000000   0.000000
      9         30.844320       31.128000   0.000000   0.000000
     10         34.984424       35.180065   0.000000   0.000000
     11         39.880507       40.334065   0.000000   0.000000
     12         46.639524       46.871294   0.000000   0.000000
 
 -0.1875000E+00 -0.1875000E+00  0.6250000E-01  0.1171875E-01
      1          4.103672        4.182240   1.000000   1.000000
      2          7.277357        8.668248   1.000000   1.000000
      3          8.519073       10.147755   1.000000   1.000000
      4          8.875328       10.486955   1.000000   1.000000
      5          9.098801       10.720649   1.000000   0.999998
      6          9.661901       11.552990   1.000000   0.000000
      7         29.962264       30.254612   0.000000   0.000000
      8         32.096126       32.421040   0.000000   0.000000
      9         32.600744       32.655499   0.000000   0.000000
     10         34.246699       34.413521   0.000000   0.000000
     11         39.749825       40.385410   0.000000   0.000000
     12         47.447581       47.450422   0.000000   0.000000
 
  0.1875000E+00  0.1875000E+00  0.1875000E+00  0.3906250E-02
      1          3.039022        3.068302   1.000000   1.000000
      2          7.841743        9.265391   1.000000   1.000000
      3          8.362653        9.947268   1.000000   1.000000
      4          8.362653        9.947268   1.000000   1.000000
      5          9.285261       11.117058   1.000000   0.000000
      6          9.285261       11.117058   1.000000   0.000000
      7         29.149270       29.448176   0.000000   0.000000
      8         35.110199       34.894075   0.000000   0.000000
      9         37.654333       37.953792   0.000000   0.000000
     10         37.654333       37.953792   0.000000   0.000000
     11         43.071859       42.994939   0.000000   0.000000
     12         43.559152       43.677870   0.000000   0.000000
 
  0.3125000E+00  0.1875000E+00  0.1875000E+00  0.1171875E-01
      1          4.122784        4.191480   1.000000   1.000000
      2          7.579887        8.954166   1.000000   1.000000
      3          8.305394        9.886562   1.000000   1.000000
      4          8.610689       10.240815   1.000000   1.000000
      5          8.977592       10.743512   1.000000   0.999958
      6          9.912312       11.710014   1.000000   0.000000
      7         27.459230       27.830993   0.000000   0.000000
      8         30.178294       30.422117   0.000000   0.000000
      9         37.844804       37.820847   0.000000   0.000000
     10         39.828534       39.797190   0.000000   0.000000
     11         40.057734       40.238516   0.000000   0.000000
     12         42.205752       42.569031   0.000000   0.000000
 
  0.4375000E+00  0.1875000E+00  0.1875000E+00  0.1171875E-01
      1          5.736935        6.024556   1.000000   1.000000
      2          7.462885        8.725605   1.000000   1.000000
      3          7.910194        9.430813   1.000000   1.000000
      4          8.676038       10.400500   1.000000   1.000000
      5          9.236734       10.928180   1.000000   0.098023
      6         11.119106       12.737484   0.000000   0.000000
      7         23.925629       24.420261   0.000000   0.000000
      8         26.813134       27.166768   0.000000   0.000000
      9         35.872232       35.878943   0.000000   0.000000
     10         36.596496       36.930568   0.000000   0.000000
     11         41.805060       41.756625   0.000000   0.000000
     12         43.754212       43.992149   0.000000   0.000000
 
 -0.4375000E+00  0.1875000E+00  0.1875000E+00  0.1171875E-01
      1          6.266532        7.160494   1.000000   1.000000
      2          7.488485        8.781404   1.000000   1.000000
      3          8.174290        9.330953   1.000000   1.000000
      4          8.551918       10.241024   1.000000   1.000000
      5          9.914559       11.698148   1.000000   0.000000
      6         13.169839       14.244575   0.000000   0.000000
      7         18.830505       19.581347   0.000000   0.000000
      8         27.050410       27.387659   0.000000   0.000000
      9         33.439038       33.774600   0.000000   0.000000
     10         34.230489       34.292568   0.000000   0.000000