PROCAR lm decomposed
# of k-points:   60         # of bands:   12         # of ions:    1

 k-point     1 :    0.06250000 0.06250000 0.06250000     weight = 0.00390625

band     1 # energy    1.83316568 # occ.  1.00000000
 
ion      s     py     pz     px    dxy    dyz    dz2    dxz  x2-y2    tot
    1  0.746  0.004  0.004  0.004  0.000  0.000  0.000  0.000  0.000  0.758
 
band     2 # energy    8.09921855 # occ.  1.00000000
 
ion      s     py     pz     px    dxy    dyz    dz2    dxz  x2-y2    tot
    1  0.000  0.001  0.001  0.001  0.324  0.324  0.000  0.324  0.000  0.974
 
band     3 # energy    8.18565687 # occ.  1.00000000
 
ion      s     py     pz     px    dxy    dyz    dz2    dxz  x2-y2    tot
    1  0.000  0.000  0.000  0.000  0.517  0.010  0.001  0.447  0.000  0.976
 
band     4 # energy    8.18565687 # occ.  1.00000000
 
ion      s     py     pz     px    dxy    dyz    dz2    dxz  x2-y2    tot
    1  0.000  0.000  0.000  0.000  0.132  0.639  0.000  0.203  0.001  0.976
 
band     5 # energy    9.28438495 # occ.  1.00000000
 
ion      s     py     pz     px    dxy    dyz    dz2    dxz  x2-y2    tot
    1  0.000  0.000  0.000  0.000  0.000  0.001  0.131  0.000  0.854  0.986
 
band     6 # energy    9.28438495 # occ.  1.00000000
 
ion      s     py     pz     px    dxy    dyz    dz2    dxz  x2-y2    tot
    1  0.000  0.000  0.000  0.000  0.001  0.000  0.854  0.001  0.131  0.986
 
band     7 # energy   33.96603583 # occ.  0.00000000
 
ion      s     py     pz     px    dxy    dyz    dz2    dxz  x2-y2    tot
    1  0.001  0.005  0.005  0.005  0.047  0.047  0.000  0.047  0.000  0.157
 
band     8 # energy   37.13809316 # occ.  0.00000000
 
ion      s     py     pz     px    dxy    dyz    dz2    dxz  x2-y2    tot
    1  0.021  0.083  0.083  0.083  0.043  0.043  0.000  0.043  0.000  0.399
 
band     9 # energy   38.68048457 # occ.  0.00000000
 
ion      s     py     pz     px    dxy    dyz    dz2    dxz  x2-y2    tot
    1  0.000  0.060  0.039  0.185  0.020  0.094  0.004  0.031  0.015  0.447
 
band    10 # energy   38.68048457 # occ.  0.00000000
 
ion      s     py     pz     px    dxy    dyz    dz2    dxz  x2-y2    tot
    1  0.000  0.129  0.150  0.004  0.077  0.002  0.015  0.066  0.004  0.447
 
band    11 # energy   42.72158492 # occ.  0.00000000
 
ion      s     py     pz     px    dxy    dyz    dz2    dxz  x2-y2    tot
    1  0.000  0.001  0.001  0.003  0.171  0.803  0.001  0.249  0.005  1.235
 
band    12 # energy   42.72165003 # occ.  0.00000000
 
ion      s     py     pz     px    dxy    dyz    dz2    dxz  x2-y2    tot
    1  0.000  0.002  0.002  0.000  0.634  0.013  0.005  0.577  0.001  1.235
 

 k-point     2 :    0.18750000 0.06250000 0.06250000     weight = 0.01171875

band     1 # energy    2.65624938 # occ.  1.00000000
 
ion      s     py     pz     px    dxy    dyz    dz2    dxz  x2-y2    tot
    1  0.686  0.032  0.032  0.003  0.001  0.005  0.000  0.001  0.001  0.760
 
band     2 # energy    7.87159574 # occ.  1.00000000
 
ion      s     py     pz     px    dxy    dyz    dz2    dxz  x2-y2    tot
    1  0.001  0.001  0.001  0.007  0.460  0.034  0.000  0.460  0.000  0.965
 
band     3 # energy    8.35397375 # occ.  1.00000000
 
ion      s     py     pz     px    dxy    dyz    dz2    dxz  x2-y2    tot
    1  0.000  0.003  0.003  0.000  0.017  0.847  0.022  0.017  0.066  0.974
 
band     4 # energy    8.35870823 # occ.  1.00000000
 
ion      s     py     pz     px    dxy    dyz    dz2    dxz  x2-y2    tot
    1  0.000  0.000  0.000  0.000  0.477  0.000  0.016  0.477  0.005  0.975
 
band     5 # energy    9.11813443 # occ.  1.00000000
 
ion      s     py     pz     px    dxy    dyz    dz2    dxz  x2-y2    tot
    1  0.000  0.000  0.000  0.000  0.011  0.000  0.719  0.011  0.240  0.981
 
band     6 # energy    9.37850913 # occ.  1.00000000
 
ion      s     py     pz     px    dxy    dyz    dz2    dxz  x2-y2    tot
    1  0.001  0.000  0.000  0.000  0.002  0.083  0.224  0.002  0.672  0.984
 
band     7 # energy   31.27358026 # occ.  0.00000000
 
ion      s     py     pz     px    dxy    dyz    dz2    dxz  x2-y2    tot
    1  0.025  0.043  0.043  0.113  0.186  0.086  0.001  0.186  0.002  0.684
 
band     8 # energy   33.93615523 # occ.  0.00000000
 
ion      s     py     pz     px    dxy    dyz    dz2    dxz  x2-y2    tot
    1  0.040  0.076  0.076  0.024  0.056  0.138  0.007  0.056  0.020  0.493
 
band     9 # energy   37.50646384 # occ.  0.00000000
 
ion      s     py     pz     px    dxy    dyz    dz2    dxz  x2-y2    tot
    1  0.001  0.007  0.007  0.224  0.016  0.074  0.001  0.016  0.004  0.352
 
band    10 # energy   39.71898864 # occ.  0.00000000
 
ion      s     py     pz     px    dxy    dyz    dz2    dxz  x2-y2    tot
    1  0.000  0.097  0.097  0.000  0.091  0.000  0.141  0.091  0.047  0.565
 
band    11 # energy   41.48497857 # occ.  0.00000000
 
ion      s     py     pz     px    dxy    dyz    dz2    dxz  x2-y2    tot
    1  0.000  0.063  0.063  0.010  0.000  0.311  0.012  0.000  0.037  0.496
 
band    12 # energy   42.82731510 # occ.  0.00000000
 
ion      s     py     pz     px    dxy    dyz    dz2    dxz  x2-y2    tot
    1  0.000  0.003  0.003  0.000  0.503  0.000  0.083  0.503  0.028  1.123
 

 k-point     3 :    0.31250000 0.06250000 0.06250000     weight = 0.01171875

band     1 # energy    4.37050870 # occ.  1.00000000
 
ion      s     py     pz     px    dxy    dyz    dz2    dxz  x2-y2    tot
    1  0.516  0.062  0.062  0.018  0.033  0.058  0.001  0.033  0.003  0.785
 
band     2 # energy    7.75227976 # occ.  1.00000000
 
ion      s     py     pz     px    dxy    dyz    dz2    dxz  x2-y2    tot
    1  0.024  0.024  0.024  0.035  0.380  0.058  0.001  0.380  0.002  0.929
 
band     3 # energy    8.29684449 # occ.  1.00000000
 
ion      s     py     pz     px    dxy    dyz    dz2    dxz  x2-y2    tot
    1  0.000  0.003  0.003  0.000  0.034  0.478  0.104  0.034  0.312  0.969
 
band     4 # energy    8.37627939 # occ.  1.00000000
 
ion      s     py     pz     px    dxy    dyz    dz2    dxz  x2-y2    tot
    1  0.000  0.000  0.000  0.000  0.271  0.000  0.322  0.271  0.107  0.972
 
band     5 # energy    9.34072339 # occ.  1.00000000
 
ion      s     py     pz     px    dxy    dyz    dz2    dxz  x2-y2    tot
    1  0.000  0.001  0.001  0.000  0.217  0.000  0.408  0.217  0.136  0.979
 
band     6 # energy    9.80248275 # occ.  1.00000000
 
ion      s     py     pz     px    dxy    dyz    dz2    dxz  x2-y2    tot
    1  0.010  0.005  0.005  0.000  0.017  0.369  0.139  0.017  0.418  0.981
 
band     7 # energy   25.13307175 # occ.  0.00000000
 
ion      s     py     pz     px    dxy    dyz    dz2    dxz  x2-y2    tot
    1  0.122  0.078  0.078  0.135  0.145  0.115  0.001  0.145  0.003  0.823
 
band     8 # energy   32.80770560 # occ.  0.00000000
 
ion      s     py     pz     px    dxy    dyz    dz2    dxz  x2-y2    tot
    1  0.026  0.025  0.025  0.105  0.105  0.059  0.017  0.105  0.051  0.519
 
band     9 # energy   36.45337228 # occ.  0.00000000
 
ion      s     py     pz     px    dxy    dyz    dz2    dxz  x2-y2    tot
    1  0.001  0.068  0.068  0.137  0.006  0.150  0.001  0.006  0.004  0.441
 
band    10 # energy   39.36729110 # occ.  0.00000000
 
ion      s     py     pz     px    dxy    dyz    dz2    dxz  x2-y2    tot
    1  0.000  0.128  0.128  0.000  0.252  0.000  0.118  0.252  0.039  0.918
 
band    11 # energy   40.53563598 # occ.  0.00000000
 
ion      s     py     pz     px    dxy    dyz    dz2    dxz  x2-y2    tot
    1  0.000  0.106  0.106  0.000  0.003  0.000  0.464  0.003  0.155  0.835
 
band    12 # energy   41.48142679 # occ.  0.00000000
 
ion      s     py     pz     px    dxy    dyz    dz2    dxz  x2-y2    tot
    1  0.071  0.056  0.056  0.011  0.010  0.014  0.068  0.010  0.203  0.500
 

 k-point     4 :    0.43750000 0.06250000 0.06250000     weight = 0.01171875

band     1 # energy    5.49735105 # occ.  1.00000000
 
ion      s     py     pz     px    dxy    dyz    dz2    dxz  x2-y2    tot
    1  0.236  0.022  0.022  0.002  0.194  0.212  0.000  0.194  0.001  0.883
 
band     2 # energy    8.05260132 # occ.  1.00000000
 
ion      s     py     pz     px    dxy    dyz    dz2    dxz  x2-y2    tot
    1  0.000  0.003  0.003  0.000  0.045  0.287  0.145  0.045  0.435  0.963
 
band     3 # energy    8.15827734 # occ.  1.00000000
 
ion      s     py     pz     px    dxy    dyz    dz2    dxz  x2-y2    tot
    1  0.000  0.000  0.000  0.000  0.186  0.000  0.446  0.186  0.149  0.968
 
band     4 # energy    8.86355340 # occ.  1.00000000
 
ion      s     py     pz     px    dxy    dyz    dz2    dxz  x2-y2    tot
    1  0.061  0.106  0.106  0.106  0.186  0.023  0.019  0.186  0.056  0.847
 
band     5 # energy    9.92950016 # occ.  1.00000000
 
ion      s     py     pz     px    dxy    dyz    dz2    dxz  x2-y2    tot
    1  0.000  0.001  0.001  0.000  0.304  0.000  0.282  0.304  0.094  0.986
 
band     6 # energy   10.62160224 # occ.  1.00000000
 
ion      s     py     pz     px    dxy    dyz    dz2    dxz  x2-y2    tot
    1  0.041  0.050  0.050  0.030  0.011  0.425  0.080  0.011  0.240  0.938
 
band     7 # energy   19.70435145 # occ.  0.00000000
 
ion      s     py     pz     px    dxy    dyz    dz2    dxz  x2-y2    tot
    1  0.293  0.046  0.046  0.098  0.141  0.113  0.001  0.141  0.002  0.881
 
band     8 # energy   32.24651660 # occ.  0.00000000
 
ion      s     py     pz     px    dxy    dyz    dz2    dxz  x2-y2    tot
    1  0.012  0.003  0.003  0.105  0.054  0.034  0.026  0.054  0.078  0.369
 
band     9 # energy   35.24008980 # occ.  0.00000000
 
ion      s     py     pz     px    dxy    dyz    dz2    dxz  x2-y2    tot
    1  0.016  0.104  0.104  0.195  0.018  0.034  0.004  0.018  0.013  0.507
 
band    10 # energy   37.19301063 # occ.  0.00000000
 
ion      s     py     pz     px    dxy    dyz    dz2    dxz  x2-y2    tot
    1  0.000  0.253  0.253  0.000  0.001  0.000  0.150  0.001  0.050  0.709
 
band    11 # energy   39.66305259 # occ.  0.00000000
 
ion      s     py     pz     px    dxy    dyz    dz2    dxz  x2-y2    tot
    1  0.000  0.030  0.030  0.000  0.218  0.000  0.441  0.218  0.147  1.084
 
band    12 # energy   41.24588448 # occ.  0.00000000
 
ion      s     py     pz     px    dxy    dyz    dz2    dxz  x2-y2    tot
    1  0.060  0.016  0.016  0.013  0.000  0.222  0.142  0.000  0.425  0.895
 

 k-point     5 :   -0.43750000 0.06250000 0.06250000     weight = 0.01171875

band     1 # energy    5.61541054 # occ.  1.00000000
 
ion      s     py     pz     px    dxy    dyz    dz2    dxz  x2-y2    tot
    1  0.169  0.000  0.000  0.007  0.237  0.258  0.000  0.237  0.000  0.909
 
band     2 # energy    7.95081206 # occ.  1.00000000
 
ion      s     py     pz     px    dxy    dyz    dz2    dxz  x2-y2    tot
    1  0.000  0.003  0.003  0.000  0.063  0.199  0.158  0.063  0.473  0.961
 
band     3 # energy    8.10156622 # occ.  1.00000000
 
ion      s     py     pz     px    dxy    dyz    dz2    dxz  x2-y2    tot
    1  0.000  0.000  0.000  0.000  0.184  0.000  0.449  0.184  0.150  0.968
 
band     4 # energy    9.47086178 # occ.  1.00000000
 
ion      s     py     pz     px    dxy    dyz    dz2    dxz  x2-y2    tot
    1  0.003  0.082  0.082  0.081  0.060  0.348  0.044  0.060  0.131  0.892
 
band     5 # energy   10.23013398 # occ.  1.00000000
 
ion      s     py     pz     px    dxy    dyz    dz2    dxz  x2-y2    tot
    1  0.000  0.000  0.000  0.000  0.308  0.000  0.281  0.308  0.094  0.992
 
band     6 # energy   11.39644866 # occ.  0.00000000
 
ion      s     py     pz     px    dxy    dyz    dz2    dxz  x2-y2    tot
    1  0.007  0.143  0.143  0.161  0.055  0.093  0.043  0.055  0.128  0.828
 
band     7 # energy   17.53160712 # occ.  0.00000000
 
ion      s     py     pz     px    dxy    dyz    dz2    dxz  x2-y2    tot
    1  0.441  0.011  0.011  0.000  0.149  0.163  0.000  0.149  0.000  0.925
 
band     8 # energy   32.29257049 # occ.  0.00000000
 
ion      s     py     pz     px    dxy    dyz    dz2    dxz  x2-y2    tot
    1  0.000  0.002  0.002  0.045  0.009  0.042  0.027  0.009  0.081  0.216
 
band     9 # energy   35.28072515 # occ.  0.00000000
 
ion      s     py     pz     px    dxy    dyz    dz2    dxz  x2-y2    tot
    1  0.000  0.249  0.249  0.000  0.038  0.000  0.123  0.038  0.041  0.739
 
band    10 # energy   35.44954361 # occ.  0.00000000
 
ion      s     py     pz     px    dxy    dyz    dz2    dxz  x2-y2    tot
    1  0.037  0.090  0.090  0.310  0.015  0.004  0.017  0.015  0.050  0.627
 
band    11 # energy   40.50634767 # occ.  0.00000000
 
ion      s     py     pz     px    dxy    dyz    dz2    dxz  x2-y2    tot
    1  0.000  0.051  0.051  0.000  0.151  0.000  0.456  0.151  0.152  1.013
 
band    12 # energy   40.51667788 # occ.  0.00000000
 
ion      s     py     pz     px    dxy    dyz    dz2    dxz  x2-y2    tot
    1  0.013  0.004  0.004  0.029  0.029  0.286  0.152  0.029  0.455  0.999
 

 k-point     6 :   -0.31250000 0.06250000 0.06250000     weight = 0.01171875

band     1 # energy    5.28790092 # occ.  1.00000000
 
ion      s     py     pz     px    dxy    dyz    dz2    dxz  x2-y2    tot
    1  0.316  0.016  0.016  0.054  0.147  0.148  0.002  0.147  0.005  0.851
 
band     2 # energy    8.09151175 # occ.  1.00000000
 
ion      s     py     pz     px    dxy    dyz    dz2    dxz  x2-y2    tot
    1  0.002  0.007  0.007  0.005  0.117  0.081  0.154  0.117  0.463  0.956
 
band     3 # energy    8.25277755 # occ.  1.00000000
 
ion      s     py     pz     px    dxy    dyz    dz2    dxz  x2-y2    tot
    1  0.000  0.001  0.001  0.000  0.227  0.000  0.386  0.227  0.129  0.970
 
band     4 # energy    8.31550505 # occ.  1.00000000
 
ion      s     py     pz     px    dxy    dyz    dz2    dxz  x2-y2    tot
    1  0.068  0.074  0.074  0.077  0.010  0.560  0.000  0.010  0.001  0.876
 
band     5 # energy   10.01108253 # occ.  1.00000000
 
ion      s     py     pz     px    dxy    dyz    dz2    dxz  x2-y2    tot
    1  0.000  0.001  0.001  0.000  0.262  0.000  0.347  0.262  0.116  0.988
 
band     6 # energy   10.06562568 # occ.  1.00000000
 
ion      s     py     pz     px    dxy    dyz    dz2    dxz  x2-y2    tot
    1  0.031  0.016  0.016  0.036  0.185  0.144  0.086  0.185  0.259  0.958
 
band     7 # energy   21.34720945 # occ.  0.00000000
 
ion      s     py     pz     px    dxy    dyz    dz2    dxz  x2-y2    tot
    1  0.225  0.099  0.099  0.050  0.118  0.149  0.001  0.118  0.002  0.861
 
band     8 # energy   33.02788571 # occ.  0.00000000
 
ion      s     py     pz     px    dxy    dyz    dz2    dxz  x2-y2    tot
    1  0.006  0.007  0.007  0.004  0.000  0.102  0.022  0.000  0.066  0.214
 
band     9 # energy   34.73365527 # occ.  0.00000000
 
ion      s     py     pz     px    dxy    dyz    dz2    dxz  x2-y2    tot
    1  0.000  0.225  0.225  0.000  0.130  0.000  0.082  0.130  0.027  0.819
 
band    10 # energy   37.23398323 # occ.  0.00000000
 
ion      s     py     pz     px    dxy    dyz    dz2    dxz  x2-y2    tot
    1  0.049  0.043  0.043  0.380  0.000  0.090  0.030  0.000  0.090  0.725
 
band    11 # energy   40.30857391 # occ.  0.00000000
 
ion      s     py     pz     px    dxy    dyz    dz2    dxz  x2-y2    tot
    1  0.000  0.003  0.003  0.017  0.070  0.193  0.142  0.070  0.426  0.925
 
band    12 # energy   42.23957001 # occ.  0.00000000
 
ion      s     py     pz     px    dxy    dyz    dz2    dxz  x2-y2    tot
    1  0.000  0.061  0.061  0.000  0.044  0.000  0.469  0.044  0.156  0.835
 

 k-point     7 :   -0.18750000 0.06250000 0.06250000     weight = 0.01171875

band     1 # energy    3.75804392 # occ.  1.00000000
 
ion      s     py     pz     px    dxy    dyz    dz2    dxz  x2-y2    tot
    1  0.589  0.025  0.025  0.076  0.019  0.011  0.001  0.019  0.004  0.770
 
band     2 # energy    7.70181816 # occ.  1.00000000
 
ion      s     py     pz     px    dxy    dyz    dz2    dxz  x2-y2    tot
    1  0.009  0.015  0.015  0.010  0.136  0.625  0.000  0.136  0.001  0.947
 
band     3 # energy    8.36447762 # occ.  1.00000000
 
ion      s     py     pz     px    dxy    dyz    dz2    dxz  x2-y2    tot
    1  0.000  0.001  0.001  0.001  0.198  0.216  0.089  0.198  0.268  0.971
 
band     4 # energy    8.42647134 # occ.  1.00000000
 
ion      s     py     pz     px    dxy    dyz    dz2    dxz  x2-y2    tot
    1  0.000  0.002  0.002  0.000  0.358  0.000  0.191  0.358  0.064  0.974
 
band     5 # energy    9.26614840 # occ.  1.00000000
 
ion      s     py     pz     px    dxy    dyz    dz2    dxz  x2-y2    tot
    1  0.006  0.001  0.001  0.006  0.123  0.104  0.153  0.123  0.458  0.976
 
band     6 # energy    9.54491286 # occ.  1.00000000
 
ion      s     py     pz     px    dxy    dyz    dz2    dxz  x2-y2    tot
    1  0.000  0.001  0.001  0.000  0.128  0.000  0.545  0.128  0.182  0.984
 
band     7 # energy   27.16840252 # occ.  0.00000000
 
ion      s     py     pz     px    dxy    dyz    dz2    dxz  x2-y2    tot
    1  0.084  0.112  0.112  0.060  0.130  0.165  0.001  0.130  0.003  0.797
 
band     8 # energy   34.15149661 # occ.  0.00000000
 
ion      s     py     pz     px    dxy    dyz    dz2    dxz  x2-y2    tot
    1  0.025  0.001  0.001  0.011  0.001  0.176  0.014  0.001  0.043  0.272
 
band     9 # energy   35.28637964 # occ.  0.00000000
 
ion      s     py     pz     px    dxy    dyz    dz2    dxz  x2-y2    tot
    1  0.000  0.192  0.192  0.000  0.201  0.000  0.043  0.201  0.014  0.844
 
band    10 # energy   39.83881960 # occ.  0.00000000
 
ion      s     py     pz     px    dxy    dyz    dz2    dxz  x2-y2    tot
    1  0.029  0.007  0.007  0.152  0.006  0.063  0.090  0.006  0.269  0.628
 
band    11 # energy   40.13743858 # occ.  0.00000000
 
ion      s     py     pz     px    dxy    dyz    dz2    dxz  x2-y2    tot
    1  0.004  0.037  0.037  0.183  0.072  0.211  0.022  0.072  0.066  0.705
 
band    12 # energy   44.47685606 # occ.  0.00000000
 
ion      s     py     pz     px    dxy    dyz    dz2    dxz  x2-y2    tot
    1  0.000  0.038  0.035  0.000  0.017  0.000  0.353  0.016  0.123  0.581
 

 k-point     8 :   -0.06250000 0.06250000 0.06250000     weight = 0.01171875

band     1 # energy    2.25191608 # occ.  1.00000000
 
ion      s     py     pz     px    dxy    dyz    dz2    dxz  x2-y2    tot
    1  0.716  0.004  0.004  0.033  0.001  0.000  0.000  0.001  0.001  0.759
 
band     2 # energy    7.94636816 # occ.  1.00000000
 
ion      s     py     pz     px    dxy    dyz    dz2    dxz  x2-y2    tot
    1  0.000  0.001  0.001  0.000  0.058  0.851  0.000  0.058  0.000  0.969
 
band     3 # energy    8.30204541 # occ.  1.00000000
 
ion      s     py     pz     px    dxy    dyz    dz2    dxz  x2-y2    tot
    1  0.000  0.001  0.001  0.001  0.423  0.118  0.002  0.423  0.007  0.975
 
band     4 # energy    8.30663351 # occ.  1.00000000
 
ion      s     py     pz     px    dxy    dyz    dz2    dxz  x2-y2    tot
    1  0.000  0.001  0.001  0.000  0.480  0.000  0.009  0.480  0.003  0.975
 
band     5 # energy    9.13956397 # occ.  1.00000000
 
ion      s     py     pz     px    dxy    dyz    dz2    dxz  x2-y2    tot
    1  0.001  0.000  0.000  0.000  0.004  0.001  0.243  0.004  0.729  0.982
 
band     6 # energy    9.35502104 # occ.  1.00000000
 
ion      s     py     pz     px    dxy    dyz    dz2    dxz  x2-y2    tot
    1  0.000  0.000  0.000  0.000  0.006  0.000  0.731  0.006  0.244  0.986
 
band     7 # energy   33.01759096 # occ.  0.00000000
 
ion      s     py     pz     px    dxy    dyz    dz2    dxz  x2-y2    tot
    1  0.006  0.040  0.040  0.012  0.073  0.235  0.000  0.073  0.001  0.480
 
band     8 # energy   35.50925813 # occ.  0.00000000
 
ion      s     py     pz     px    dxy    dyz    dz2    dxz  x2-y2    tot
    1  0.035  0.048  0.048  0.069  0.049  0.028  0.006  0.049  0.019  0.350
 
band     9 # energy   36.67702665 # occ.  0.00000000
 
ion      s     py     pz     px    dxy    dyz    dz2    dxz  x2-y2    tot
    1  0.000  0.164  0.164  0.000  0.196  0.000  0.008  0.196  0.003  0.730
 
band    10 # energy   38.48628420 # occ.  0.00000000
 
ion      s     py     pz     px    dxy    dyz    dz2    dxz  x2-y2    tot
    1  0.009  0.079  0.079  0.048  0.034  0.004  0.026  0.034  0.077  0.389
 
band    11 # energy   42.64265851 # occ.  0.00000000
 
ion      s     py     pz     px    dxy    dyz    dz2    dxz  x2-y2    tot
    1  0.000  0.000  0.000  0.066  0.253  0.441  0.001  0.253  0.002  1.016
 
band    12 # energy   44.43636068 # occ.  0.00000000
 
ion      s     py     pz     px    dxy    dyz    dz2    dxz  x2-y2    tot
    1  0.000  0.000  0.000  0.000  0.345  0.001  0.025  0.351  0.008  0.731
 

 k-point     9 :    0.18750000 0.18750000 0.06250000     weight = 0.01171875

band     1 # energy    3.04837373 # occ.  1.00000000
 
ion      s     py     pz     px    dxy    dyz    dz2    dxz  x2-y2    tot
    1  0.653  0.003  0.087  0.003  0.000  0.002  0.011  0.002  0.000  0.761
 
band     2 # energy    7.65158227 # occ.  1.00000000
 
ion      s     py     pz     px    dxy    dyz    dz2    dxz  x2-y2    tot
    1  0.000  0.001  0.000  0.001  0.922  0.019  0.000  0.019  0.000  0.962
 
band     3 # energy    8.51030339 # occ.  1.00000000
 
ion      s     py     pz     px    dxy    dyz    dz2    dxz  x2-y2    tot
    1  0.000  0.003  0.000  0.003  0.036  0.399  0.135  0.399  0.000  0.973
 
band     4 # energy    8.54217859 # occ.  1.00000000
 
ion      s     py     pz     px    dxy    dyz    dz2    dxz  x2-y2    tot
    1  0.000  0.003  0.000  0.003  0.000  0.467  0.000  0.467  0.035  0.975
 
band     5 # energy    8.94147943 # occ.  1.00000000
 
ion      s     py     pz     px    dxy    dyz    dz2    dxz  x2-y2    tot
    1  0.008  0.001  0.004  0.001  0.005  0.064  0.828  0.064  0.000  0.973
 
band     6 # energy    9.48668388 # occ.  1.00000000
 
ion      s     py     pz     px    dxy    dyz    dz2    dxz  x2-y2    tot
    1  0.000  0.000  0.000  0.000  0.000  0.017  0.000  0.017  0.952  0.987
 
band     7 # energy   31.59072259 # occ.  0.00000000
 
ion      s     py     pz     px    dxy    dyz    dz2    dxz  x2-y2    tot
    1  0.018  0.094  0.014  0.094  0.269  0.102  0.011  0.102  0.000  0.704
 
band     8 # energy   34.03877669 # occ.  0.00000000
 
ion      s     py     pz     px    dxy    dyz    dz2    dxz  x2-y2    tot
    1  0.032  0.020  0.019  0.020  0.206  0.020  0.093  0.020  0.000  0.429
 
band     9 # energy   34.35451967 # occ.  0.00000000
 
ion      s     py     pz     px    dxy    dyz    dz2    dxz  x2-y2    tot
    1  0.000  0.199  0.000  0.199  0.000  0.198  0.000  0.198  0.007  0.802
 
band    10 # energy   36.50732261 # occ.  0.00000000
 
ion      s     py     pz     px    dxy    dyz    dz2    dxz  x2-y2    tot
    1  0.003  0.075  0.001  0.075  0.042  0.061  0.204  0.061  0.000  0.523
 
band    11 # energy   42.54545203 # occ.  0.00000000
 
ion      s     py     pz     px    dxy    dyz    dz2    dxz  x2-y2    tot
    1  0.264  0.016  0.559  0.016  0.009  0.000  0.141  0.000  0.000  1.005
 
band    12 # energy   44.97427211 # occ.  0.00000000
 
ion      s     py     pz     px    dxy    dyz    dz2    dxz  x2-y2    tot
    1  0.066  0.000  0.005  0.000  0.382  0.157  0.084  0.157  0.000  0.851
 

 k-point    10 :    0.31250000 0.18750000 0.06250000     weight = 0.02343750

band     1 # energy    4.43274589 # occ.  1.00000000
 
ion      s     py     pz     px    dxy    dyz    dz2    dxz  x2-y2    tot
    1  0.515  0.025  0.140  0.002  0.003  0.030  0.054  0.004  0.001  0.774
 
band     2 # energy    7.33075285 # occ.  1.00000000
 
ion      s     py     pz     px    dxy    dyz    dz2    dxz  x2-y2    tot
    1  0.001  0.002  0.001  0.012  0.850  0.006  0.003  0.076  0.000  0.952
 
band     3 # energy    8.28203092 # occ.  1.00000000
 
ion      s     py     pz     px    dxy    dyz    dz2    dxz  x2-y2    tot
    1  0.007  0.004  0.002  0.000  0.017  0.349  0.531  0.016  0.037  0.963
 
band     4 # energy    8.81786565 # occ.  1.00000000
 
ion      s     py     pz     px    dxy    dyz    dz2    dxz  x2-y2    tot
    1  0.002  0.002  0.002  0.005  0.044  0.121  0.049  0.568  0.181  0.974
 
band     5 # energy    9.22452335 # occ.  1.00000000
 
ion      s     py     pz     px    dxy    dyz    dz2    dxz  x2-y2    tot
    1  0.016  0.004  0.015  0.003  0.036  0.119  0.260  0.292  0.225  0.970
 
band     6 # energy    9.88702592 # occ.  1.00000000
 
ion      s     py     pz     px    dxy    dyz    dz2    dxz  x2-y2    tot
    1  0.014  0.005  0.008  0.000  0.001  0.341  0.068  0.003  0.541  0.982
 
band     7 # energy   27.72561973 # occ.  0.00000000
 
ion      s     py     pz     px    dxy    dyz    dz2    dxz  x2-y2    tot
    1  0.056  0.103  0.019  0.191  0.198  0.084  0.020  0.128  0.003  0.803
 
band     8 # energy   30.35965038 # occ.  0.00000000
 
ion      s     py     pz     px    dxy    dyz    dz2    dxz  x2-y2    tot
    1  0.039  0.139  0.009  0.131  0.119  0.118  0.061  0.079  0.020  0.715
 
band     9 # energy   34.16873481 # occ.  0.00000000
 
ion      s     py     pz     px    dxy    dyz    dz2    dxz  x2-y2    tot
    1  0.011  0.075  0.092  0.029  0.028  0.037  0.332  0.021  0.006  0.631
 
band    10 # energy   36.22602303 # occ.  0.00000000
 
ion      s     py     pz     px    dxy    dyz    dz2    dxz  x2-y2    tot
    1  0.027  0.001  0.070  0.105  0.320  0.001  0.065  0.067  0.000  0.657
 
band    11 # energy   41.34955748 # occ.  0.00000000
 
ion      s     py     pz     px    dxy    dyz    dz2    dxz  x2-y2    tot
    1  0.227  0.181  0.327  0.023  0.012  0.054  0.008  0.005  0.000  0.836
 
band    12 # energy   44.70724843 # occ.  0.00000000
 
ion      s     py     pz     px    dxy    dyz    dz2    dxz  x2-y2    tot
    1  0.061  0.022  0.022  0.001  0.064  0.010  0.193  0.029  0.158  0.560
 

 k-point    11 :    0.43750000 0.18750000 0.06250000     weight = 0.02343750

band     1 # energy    5.81269248 # occ.  1.00000000
 
ion      s     py     pz     px    dxy    dyz    dz2    dxz  x2-y2    tot
    1  0.249  0.020  0.097  0.001  0.165  0.144  0.091  0.086  0.001  0.854
 
band     2 # energy    7.45933087 # occ.  1.00000000
 
ion      s     py     pz     px    dxy    dyz    dz2    dxz  x2-y2    tot
    1  0.015  0.042  0.026  0.042  0.354  0.024  0.331  0.062  0.011  0.907
 
band     3 # energy    7.95573943 # occ.  1.00000000
 
ion      s     py     pz     px    dxy    dyz    dz2    dxz  x2-y2    tot
    1  0.027  0.001  0.023  0.007  0.313  0.278  0.254  0.006  0.042  0.951
 
band     4 # energy    8.65238729 # occ.  1.00000000
 
ion      s     py     pz     px    dxy    dyz    dz2    dxz  x2-y2    tot
    1  0.002  0.004  0.006  0.001  0.038  0.077  0.051  0.299  0.491  0.969
 
band     5 # energy    9.97490596 # occ.  1.00000000
 
ion      s     py     pz     px    dxy    dyz    dz2    dxz  x2-y2    tot
    1  0.003  0.001  0.008  0.004  0.037  0.059  0.055  0.468  0.347  0.983
 
band     6 # energy   11.13206608 # occ.  0.00000000
 
ion      s     py     pz     px    dxy    dyz    dz2    dxz  x2-y2    tot
    1  0.087  0.034  0.090  0.018  0.016  0.389  0.180  0.031  0.086  0.932
 
band     7 # energy   21.85497477 # occ.  0.00000000
 
ion      s     py     pz     px    dxy    dyz    dz2    dxz  x2-y2    tot
    1  0.185  0.103  0.019  0.175  0.169  0.078  0.015  0.099  0.004  0.848
 
band     8 # energy   29.71354317 # occ.  0.00000000
 
ion      s     py     pz     px    dxy    dyz    dz2    dxz  x2-y2    tot
    1  0.014  0.097  0.003  0.161  0.109  0.070  0.137  0.041  0.058  0.690
 
band     9 # energy   31.80095248 # occ.  0.00000000
 
ion      s     py     pz     px    dxy    dyz    dz2    dxz  x2-y2    tot
    1  0.072  0.029  0.216  0.086  0.000  0.001  0.247  0.042  0.027  0.720
 
band    10 # energy   35.90405919 # occ.  0.00000000
 
ion      s     py     pz     px    dxy    dyz    dz2    dxz  x2-y2    tot
    1  0.064  0.138  0.109  0.026  0.243  0.021  0.008  0.015  0.007  0.632
 
band    11 # energy   42.70366513 # occ.  0.00000000
 
ion      s     py     pz     px    dxy    dyz    dz2    dxz  x2-y2    tot
    1  0.022  0.105  0.002  0.002  0.203  0.018  0.115  0.045  0.220  0.733
 
band    12 # energy   45.26580059 # occ.  0.00000000
 
ion      s     py     pz     px    dxy    dyz    dz2    dxz  x2-y2    tot
    1  0.323  0.110  0.098  0.046  0.001  0.000  0.232  0.007  0.000  0.818
 

 k-point    12 :   -0.43750000 0.18750000 0.06250000     weight = 0.02343750

band     1 # energy    6.10961514 # occ.  1.00000000
 
ion      s     py     pz     px    dxy    dyz    dz2    dxz  x2-y2    tot
    1  0.123  0.000  0.026  0.010  0.338  0.238  0.010  0.169  0.000  0.915
 
band     2 # energy    7.49648364 # occ.  1.00000000
 
ion      s     py     pz     px    dxy    dyz    dz2    dxz  x2-y2    tot
    1  0.000  0.031  0.004  0.014  0.030  0.075  0.683  0.011  0.075  0.923
 
band     3 # energy    8.41571306 # occ.  1.00000000
 
ion      s     py     pz     px    dxy    dyz    dz2    dxz  x2-y2    tot
    1  0.002  0.033  0.046  0.056  0.275  0.332  0.070  0.012  0.101  0.927
 
band     4 # energy    8.49075558 # occ.  1.00000000
 
ion      s     py     pz     px    dxy    dyz    dz2    dxz  x2-y2    tot
    1  0.001  0.016  0.027  0.004  0.152  0.001  0.021  0.248  0.486  0.956
 
band     5 # energy   10.19009902 # occ.  1.00000000
 
ion      s     py     pz     px    dxy    dyz    dz2    dxz  x2-y2    tot
    1  0.000  0.000  0.000  0.000  0.037  0.171  0.030  0.464  0.287  0.990
 
band     6 # energy   13.32387121 # occ.  0.00000000
 
ion      s     py     pz     px    dxy    dyz    dz2    dxz  x2-y2    tot
    1  0.012  0.132  0.189  0.133  0.062  0.112  0.163  0.015  0.021  0.839
 
band     7 # energy   17.71240735 # occ.  0.00000000
 
ion      s     py     pz     px    dxy    dyz    dz2    dxz  x2-y2    tot
    1  0.408  0.015  0.011  0.056  0.170  0.124  0.001  0.122  0.001  0.906
 
band     8 # energy   29.09592726 # occ.  0.00000000
 
ion      s     py     pz     px    dxy    dyz    dz2    dxz  x2-y2    tot