<?xml version="1.0" encoding="ISO-8859-1"?>
<modeling>
 <generator>
  <i name="program" type="string">vasp </i>
  <i name="version" type="string">6.3.2  </i>
  <i name="subversion" type="string">27Jun22 (build Aug 12 2022 00:53:59) complex                          parallel </i>
  <i name="platform" type="string">tv2STD </i>
  <i name="date" type="string">2024 11 30 </i>
  <i name="time" type="string">17:12:08 </i>
 </generator>
 <incar>
  <i type="string" name="SYSTEM">Co-fcc</i>
  <i type="int" name="ISTART">     0</i>
  <i type="string" name="PREC">Accurate      normal | accurate</i>
  <i type="string" name="ALGO">Normal     Normal, Fast, Very_Fast</i>
  <i type="logical" name="ADDGRID"> F  </i>
  <i type="int" name="ISPIN">     2</i>
  <i type="int" name="ICHARG">     2</i>
  <i type="int" name="INIWAV">     1</i>
  <i type="int" name="NELM">   100</i>
  <i type="int" name="IBRION">     2</i>
  <i name="EDIFF">      0.00000100</i>
  <i name="EDIFFG">     -0.02000000</i>
  <i type="int" name="NSW">   100</i>
  <i type="int" name="ISIF">     2</i>
  <i type="int" name="ISYM">     1</i>
  <i name="ENCUT">    400.00000000</i>
  <v name="MAGMOM">      3.00000000</v>
  <i type="logical" name="LREAL"> F  </i>
  <i type="int" name="ISMEAR">     0</i>
  <i name="SIGMA">      0.05000000</i>
  <i type="int" name="NWRITE">     2</i>
  <i type="logical" name="LWAVE"> T  </i>
  <i type="logical" name="LCHARG"> T  </i>
  <i type="int" name="LORBIT">    11</i>
 </incar>
 <primitive_cell>
  <structure name="primitive_cell" >
   <crystal>
    <varray name="basis" >
     <v>       0.00000000       1.73455502       1.73455502 </v>
     <v>       1.73455502       0.00000000       1.73455502 </v>
     <v>       1.73455502       1.73455502       0.00000000 </v>
    </varray>
    <i name="volume">     10.43744581 </i>
    <varray name="rec_basis" >
     <v>      -0.28825837       0.28825837       0.28825837 </v>
     <v>       0.28825837      -0.28825837       0.28825837 </v>
     <v>       0.28825837       0.28825837      -0.28825837 </v>
    </varray>
   </crystal>
   <varray name="positions" >
    <v>       0.00000000       0.00000000       0.00000000 </v>
   </varray>
  </structure>
  <varray name="primitive_index" >
   <v type="int" >        1 </v>
  </varray>
 </primitive_cell>
 <kpoints>
  <generation param="Monkhorst-Pack">
   <v type="int" name="divisions">       8        8        8 </v>
   <v name="usershift">      0.00000000       0.00000000       0.00000000 </v>
   <v name="genvec1">      0.12500000       0.00000000       0.00000000 </v>
   <v name="genvec2">      0.00000000       0.12500000       0.00000000 </v>
   <v name="genvec3">      0.00000000       0.00000000       0.12500000 </v>
   <v name="shift">      0.50000000       0.50000000       0.50000000 </v>
  </generation>
  <varray name="kpointlist" >
   <v>       0.06250000       0.06250000       0.06250000 </v>
   <v>       0.18750000       0.06250000       0.06250000 </v>
   <v>       0.31250000       0.06250000       0.06250000 </v>
   <v>       0.43750000       0.06250000       0.06250000 </v>
   <v>      -0.43750000       0.06250000       0.06250000 </v>
   <v>      -0.31250000       0.06250000       0.06250000 </v>
   <v>      -0.18750000       0.06250000       0.06250000 </v>
   <v>      -0.06250000       0.06250000       0.06250000 </v>
   <v>       0.18750000       0.18750000       0.06250000 </v>
   <v>       0.31250000       0.18750000       0.06250000 </v>
   <v>       0.43750000       0.18750000       0.06250000 </v>
   <v>      -0.43750000       0.18750000       0.06250000 </v>
   <v>      -0.31250000       0.18750000       0.06250000 </v>
   <v>      -0.18750000       0.18750000       0.06250000 </v>
   <v>      -0.06250000       0.18750000       0.06250000 </v>
   <v>       0.31250000       0.31250000       0.06250000 </v>
   <v>       0.43750000       0.31250000       0.06250000 </v>
   <v>      -0.43750000       0.31250000       0.06250000 </v>
   <v>      -0.31250000       0.31250000       0.06250000 </v>
   <v>      -0.18750000       0.31250000       0.06250000 </v>
   <v>      -0.06250000       0.31250000       0.06250000 </v>
   <v>       0.43750000       0.43750000       0.06250000 </v>
   <v>      -0.43750000       0.43750000       0.06250000 </v>
   <v>      -0.31250000       0.43750000       0.06250000 </v>
   <v>      -0.18750000       0.43750000       0.06250000 </v>
   <v>      -0.06250000       0.43750000       0.06250000 </v>
   <v>      -0.43750000      -0.43750000       0.06250000 </v>
   <v>      -0.31250000      -0.43750000       0.06250000 </v>
   <v>      -0.18750000      -0.43750000       0.06250000 </v>
   <v>      -0.31250000      -0.31250000       0.06250000 </v>
   <v>      -0.18750000      -0.31250000       0.06250000 </v>
   <v>      -0.18750000      -0.18750000       0.06250000 </v>
   <v>       0.18750000       0.18750000       0.18750000 </v>
   <v>       0.31250000       0.18750000       0.18750000 </v>
   <v>       0.43750000       0.18750000       0.18750000 </v>
   <v>      -0.43750000       0.18750000       0.18750000 </v>
   <v>      -0.31250000       0.18750000       0.18750000 </v>
   <v>      -0.18750000       0.18750000       0.18750000 </v>
   <v>       0.31250000       0.31250000       0.18750000 </v>
   <v>       0.43750000       0.31250000       0.18750000 </v>
   <v>      -0.43750000       0.31250000       0.18750000 </v>
   <v>      -0.31250000       0.31250000       0.18750000 </v>
   <v>      -0.18750000       0.31250000       0.18750000 </v>
   <v>       0.43750000       0.43750000       0.18750000 </v>
   <v>      -0.43750000       0.43750000       0.18750000 </v>
   <v>      -0.31250000       0.43750000       0.18750000 </v>
   <v>      -0.18750000       0.43750000       0.18750000 </v>
   <v>      -0.43750000      -0.43750000       0.18750000 </v>
   <v>      -0.31250000      -0.43750000       0.18750000 </v>
   <v>      -0.31250000      -0.31250000       0.18750000 </v>
   <v>       0.31250000       0.31250000       0.31250000 </v>
   <v>       0.43750000       0.31250000       0.31250000 </v>
   <v>      -0.43750000       0.31250000       0.31250000 </v>
   <v>      -0.31250000       0.31250000       0.31250000 </v>
   <v>       0.43750000       0.43750000       0.31250000 </v>
   <v>      -0.43750000       0.43750000       0.31250000 </v>
   <v>      -0.31250000       0.43750000       0.31250000 </v>
   <v>      -0.43750000      -0.43750000       0.31250000 </v>
   <v>       0.43750000       0.43750000       0.43750000 </v>
   <v>      -0.43750000       0.43750000       0.43750000 </v>
  </varray>
  <varray name="weights" >
   <v>       0.00390625 </v>
   <v>       0.01171875 </v>
   <v>       0.01171875 </v>
   <v>       0.01171875 </v>
   <v>       0.01171875 </v>
   <v>       0.01171875 </v>
   <v>       0.01171875 </v>
   <v>       0.01171875 </v>
   <v>       0.01171875 </v>
   <v>       0.02343750 </v>
   <v>       0.02343750 </v>
   <v>       0.02343750 </v>
   <v>       0.02343750 </v>
   <v>       0.02343750 </v>
   <v>       0.02343750 </v>
   <v>       0.01171875 </v>
   <v>       0.02343750 </v>
   <v>       0.02343750 </v>
   <v>       0.02343750 </v>
   <v>       0.02343750 </v>
   <v>       0.02343750 </v>
   <v>       0.01171875 </v>
   <v>       0.02343750 </v>
   <v>       0.02343750 </v>
   <v>       0.02343750 </v>
   <v>       0.02343750 </v>
   <v>       0.01171875 </v>
   <v>       0.02343750 </v>
   <v>       0.02343750 </v>
   <v>       0.01171875 </v>
   <v>       0.02343750 </v>
   <v>       0.01171875 </v>
   <v>       0.00390625 </v>
   <v>       0.01171875 </v>
   <v>       0.01171875 </v>
   <v>       0.01171875 </v>
   <v>       0.01171875 </v>
   <v>       0.01171875 </v>
   <v>       0.01171875 </v>
   <v>       0.02343750 </v>
   <v>       0.02343750 </v>
   <v>       0.02343750 </v>
   <v>       0.02343750 </v>
   <v>       0.01171875 </v>
   <v>       0.02343750 </v>
   <v>       0.02343750 </v>
   <v>       0.02343750 </v>
   <v>       0.01171875 </v>
   <v>       0.02343750 </v>
   <v>       0.01171875 </v>
   <v>       0.00390625 </v>
   <v>       0.01171875 </v>
   <v>       0.01171875 </v>
   <v>       0.01171875 </v>
   <v>       0.01171875 </v>
   <v>       0.02343750 </v>
   <v>       0.02343750 </v>
   <v>       0.01171875 </v>
   <v>       0.00390625 </v>
   <v>       0.01171875 </v>
  </varray>
 </kpoints>
 <parameters>
  <separator name="general" >
   <i type="string" name="SYSTEM">Co-fcc</i>
   <i type="logical" name="LCOMPAT"> F  </i>
  </separator>
  <separator name="electronic" >
   <i type="string" name="PREC">accura</i>
   <i name="ENMAX">    400.00000000</i>
   <i name="ENAUG">    477.81800000</i>
   <i name="EDIFF">      0.00000100</i>
   <i type="int" name="IALGO">    38</i>
   <i type="int" name="IWAVPR">    11</i>
   <i type="int" name="NBANDS">    12</i>
   <i type="int" name="NBANDSLOW">    -1</i>
   <i type="int" name="NBANDSHIGH">    -1</i>
   <i name="NELECT">      9.00000000</i>
   <i type="int" name="TURBO">     0</i>
   <i type="int" name="IRESTART">     0</i>
   <i type="int" name="NREBOOT">     0</i>
   <i type="int" name="NMIN">     0</i>
   <i name="EREF">      0.00000000</i>
   <separator name="electronic smearing" >
    <i type="int" name="ISMEAR">     0</i>
    <i name="SIGMA">      0.05000000</i>
    <i name="KSPACING">      0.50000000</i>
    <i type="logical" name="KGAMMA"> T  </i>
    <i type="logical" name="KBLOWUP"> T  </i>
   </separator>
   <separator name="electronic projectors" >
    <i type="logical" name="LREAL"> F  </i>
    <v name="ROPT">      0.00000000</v>
    <i type="int" name="LMAXPAW">  -100</i>
    <i type="int" name="LMAXMIX">     2</i>
    <i type="logical" name="NLSPLINE"> F  </i>
   </separator>
   <separator name="electronic startup" >
    <i type="int" name="ISTART">     0</i>
    <i type="int" name="ICHARG">     2</i>
    <i type="int" name="INIWAV">     1</i>
   </separator>
   <separator name="electronic spin" >
    <i type="int" name="ISPIN">     2</i>
    <i type="logical" name="LNONCOLLINEAR"> F  </i>
    <v name="MAGMOM">      3.00000000</v>
    <i name="NUPDOWN">     -1.00000000</i>
    <i type="logical" name="LSORBIT"> F  </i>
    <v name="SAXIS">      0.00000000      0.00000000      1.00000000</v>
    <i type="logical" name="LSPIRAL"> F  </i>
    <v name="QSPIRAL">      0.00000000      0.00000000      0.00000000</v>
    <i type="logical" name="LZEROZ"> F  </i>
   </separator>
   <separator name="electronic exchange-correlation" >
    <i type="logical" name="LASPH"> F  </i>
    <i type="logical" name="LMETAGGA"> F  </i>
   </separator>
   <separator name="electronic convergence" >
    <i type="int" name="NELM">   100</i>
    <i type="int" name="NELMDL">    -5</i>
    <i type="int" name="NELMIN">     2</i>
    <i name="ENINI">    400.00000000</i>
    <separator name="electronic convergence detail" >
     <i type="logical" name="LDIAG"> T  </i>
     <i type="logical" name="LSUBROT"> F  </i>
     <i name="WEIMIN">      0.00100000</i>
     <i name="EBREAK">      0.00000002</i>
     <i name="DEPER">      0.30000000</i>
     <i type="int" name="NRMM">     4</i>
     <i name="TIME">      0.40000000</i>
    </separator>
   </separator>
   <separator name="electronic mixer" >
    <i name="AMIX">      0.40000000</i>
    <i name="BMIX">      1.00000000</i>
    <i name="AMIN">      0.10000000</i>
    <i name="AMIX_MAG">      1.60000000</i>
    <i name="BMIX_MAG">      1.00000000</i>
    <separator name="electronic mixer details" >
     <i type="int" name="IMIX">     4</i>
     <i type="logical" name="MIXFIRST"> F  </i>
     <i type="int" name="MAXMIX">   -45</i>
     <i name="WC">    100.00000000</i>
     <i type="int" name="INIMIX">     1</i>
     <i type="int" name="MIXPRE">     1</i>
     <i type="int" name="MREMOVE">     5</i>
    </separator>
   </separator>
   <separator name="electronic dipolcorrection" >
    <i type="logical" name="LDIPOL"> F  </i>
    <i type="logical" name="LMONO"> F  </i>
    <i type="int" name="IDIPOL">     0</i>
    <i name="EPSILON">      1.00000000</i>
    <v name="DIPOL">   -100.00000000   -100.00000000   -100.00000000</v>
    <i name="EFIELD">      0.00000000</i>
   </separator>
  </separator>
  <separator name="grids" >
   <i type="int" name="NGX">    16</i>
   <i type="int" name="NGY">    16</i>
   <i type="int" name="NGZ">    16</i>
   <i type="int" name="NGXF">    32</i>
   <i type="int" name="NGYF">    32</i>
   <i type="int" name="NGZF">    32</i>
   <i type="logical" name="ADDGRID"> F  </i>
  </separator>
  <separator name="ionic" >
   <i type="int" name="NSW">   100</i>
   <i type="int" name="IBRION">     2</i>
   <i type="int" name="MDALGO">     0</i>
   <i type="int" name="ISIF">     2</i>
   <i name="PSTRESS">      0.00000000</i>
   <i name="EDIFFG">     -0.02000000</i>
   <i type="int" name="NFREE">     1</i>
   <i name="POTIM">      0.50000000</i>
   <i name="SMASS">     -3.00000000</i>
   <i name="SCALEE">      1.00000000</i>
  </separator>
  <separator name="ionic md" >
   <i name="TEBEG">      0.00010000</i>
   <i name="TEEND">      0.00010000</i>
   <i type="int" name="NBLOCK">     1</i>
   <i type="int" name="KBLOCK">   100</i>
   <i type="int" name="NPACO">   256</i>
   <i name="APACO">     10.00000000</i>
  </separator>
  <separator name="symmetry" >
   <i type="int" name="ISYM">     1</i>
   <i name="SYMPREC">      0.00001000</i>
  </separator>
  <separator name="dos" >
   <i type="int" name="LORBIT">    11</i>
   <v name="RWIGS">     -1.00000000</v>
   <i type="int" name="NEDOS">   301</i>
   <i name="EMIN">     10.00000000</i>
   <i name="EMAX">    -10.00000000</i>
   <i name="EFERMI">      0.00000000</i>
  </separator>
  <separator name="writing" >
   <i type="int" name="NWRITE">     2</i>
   <i type="logical" name="LWAVE"> T  </i>
   <i type="logical" name="LDOWNSAMPLE"> F  </i>
   <i type="logical" name="LCHARG"> T  </i>
   <i type="logical" name="LPARD"> F  </i>
   <i type="logical" name="LVTOT"> F  </i>
   <i type="logical" name="LVHAR"> F  </i>
   <i type="logical" name="LELF"> F  </i>
   <i type="logical" name="LOPTICS"> F  </i>
   <v name="STM">      0.00000000      0.00000000      0.00000000      0.00000000      0.00000000      0.00000000      0.00000000</v>
  </separator>
  <separator name="performance" >
   <i type="int" name="NPAR">     4</i>
   <i type="int" name="NSIM">     4</i>
   <i type="int" name="NBLK">    -1</i>
   <i type="logical" name="LPLANE"> T  </i>
   <i type="logical" name="LSCALAPACK"> T  </i>
   <i type="logical" name="LSCAAWARE"> T  </i>
   <i type="logical" name="LSCALU"> F  </i>
   <i type="logical" name="LASYNC"> F  </i>
   <i type="logical" name="LORBITALREAL"> F  </i>
  </separator>
  <separator name="miscellaneous" >
   <i type="int" name="IDIOT">     3</i>
   <i type="int" name="PHON_NSTRUCT">    -1</i>
   <i type="logical" name="LMUSIC"> F  </i>
   <v name="POMASS">     58.93300000</v>
   <v name="DARWINR">      0.00000000</v>
   <v name="DARWINV">      1.00000000</v>
   <i type="logical" name="LCORR"> T  </i>
  </separator>
  <i type="logical" name="GGA_COMPAT"> T  </i>
  <i type="logical" name="LBERRY"> F  </i>
  <i type="int" name="ICORELEVEL">     0</i>
  <i type="logical" name="LDAU"> F  </i>
  <i type="int" name="I_CONSTRAINED_M">     0</i>
  <separator name="electronic exchange-correlation" >
   <i type="string" name="GGA">--</i>
   <i type="int" name="VOSKOWN">     0</i>
   <i type="logical" name="LHFCALC"> F  </i>
   <i type="string" name="PRECFOCK"></i>
   <i type="logical" name="LSYMGRAD"> F  </i>
   <i type="logical" name="LHFONE"> F  </i>
   <i type="logical" name="LRHFCALC"> F  </i>
   <i type="logical" name="LTHOMAS"> F  </i>
   <i type="logical" name="LMODELHF"> F  </i>
   <i type="logical" name="LFOCKACE"> F  </i>
   <i name="ENCUT4O">     -1.00000000</i>
   <i type="int" name="EXXOEP">     0</i>
   <i type="int" name="FOURORBIT">     0</i>
   <i name="AEXX">      0.00000000</i>
   <i name="HFALPHA">      0.00000000</i>
   <i name="MCALPHA">      0.00000000</i>
   <i name="ALDAX">      1.00000000</i>
   <i name="AGGAX">      1.00000000</i>
   <i name="ALDAC">      1.00000000</i>
   <i name="AGGAC">      1.00000000</i>
   <i type="int" name="NKREDX">     1</i>
   <i type="int" name="NKREDY">     1</i>
   <i type="int" name="NKREDZ">     1</i>
   <i type="logical" name="SHIFTRED"> F  </i>
   <i type="logical" name="ODDONLY"> F  </i>
   <i type="logical" name="EVENONLY"> F  </i>
   <i type="int" name="LMAXFOCK">     0</i>
   <i type="int" name="NMAXFOCKAE">     0</i>
   <i type="logical" name="LFOCKAEDFT"> F  </i>
   <i name="HFSCREEN">      0.00000000</i>
   <i name="HFSCREENC">      0.00000000</i>
   <i type="int" name="NBANDSGWLOW">     0</i>
  </separator>
  <separator name="vdW DFT" >
   <i type="logical" name="LUSE_VDW"> F  </i>
   <i name="Zab_VDW">     -0.84910000</i>
   <i name="PARAM1">      0.12340000</i>
   <i name="PARAM2">      1.00000000</i>
   <i name="PARAM3">      0.00000000</i>
  </separator>
  <separator name="model GW" >
   <i type="int" name="MODEL_GW">     0</i>
   <i name="MODEL_EPS0">      6.26246749</i>
   <i name="MODEL_ALPHA">      1.00000000</i>
  </separator>
  <separator name="linear response parameters" >
   <i type="logical" name="LEPSILON"> F  </i>
   <i type="logical" name="LRPA"> F  </i>
   <i type="logical" name="LNABLA"> F  </i>
   <i type="logical" name="LVEL"> F  </i>
   <i name="CSHIFT">      0.10000000</i>
   <i name="OMEGAMAX">     -1.00000000</i>
   <i name="DEG_THRESHOLD">      0.00200000</i>
   <i name="RTIME">     -0.10000000</i>
   <i name="WPLASMAI">      0.00000000</i>
   <v name="DFIELD">      0.00000000      0.00000000      0.00000000</v>
   <v name="WPLASMA">      0.00000000      0.00000000      0.00000000      0.00000000      0.00000000      0.00000000      0.00000000      0.00000000      0.00000000</v>
  </separator>
  <separator name="orbital magnetization" >
   <i type="logical" name="NUCIND"> F  </i>
   <v name="MAGPOS">      0.00000000      0.00000000      0.00000000</v>
   <i type="logical" name="LNICSALL"> T  </i>
   <i type="logical" name="ORBITALMAG"> F  </i>
   <i type="logical" name="LMAGBLOCH"> F  </i>
   <i type="logical" name="LCHIMAG"> F  </i>
   <i type="logical" name="LGAUGE"> T  </i>
   <i type="int" name="MAGATOM">     0</i>
   <v name="MAGDIPOL">      0.00000000      0.00000000      0.00000000</v>
   <v name="AVECCONST">      0.00000000      0.00000000      0.00000000</v>
  </separator>
  <separator name="response functions" >
   <i type="logical" name="LFINITE_TEMPERATURE"> F  </i>
   <i type="logical" name="LADDER"> F  </i>
   <i type="logical" name="LRPAFORCE"> F  </i>
   <i type="logical" name="LFXC"> F  </i>
   <i type="logical" name="LHARTREE"> T  </i>
   <i type="int" name="IBSE">     0</i>
   <v type="int" name="KPOINT">    -1     0     0     0</v>
   <i type="logical" name="LTCTC"> F  </i>
   <i type="logical" name="LTCTE"> F  </i>
   <i type="logical" name="LTETE"> F  </i>
   <i type="logical" name="LTRIPLET"> F  </i>
   <i type="logical" name="LFXCEPS"> F  </i>
   <i type="logical" name="LFXHEG"> F  </i>
   <i type="int" name="NATURALO">     2</i>
   <i type="logical" name="LHOLEGF"> F  </i>
   <i type="logical" name="L2ORDER"> F  </i>
   <i type="logical" name="LDMP1"> F  </i>
   <i type="logical" name="LMP2LT"> F  </i>
   <i type="logical" name="LSMP2LT"> F  </i>
   <i type="logical" name="LGWLF"> F  </i>
   <i name="ENCUTGW">     -2.00000000</i>
   <i name="ENCUTGWSOFT">     -2.00000000</i>
   <i name="ENCUTLF">     -1.00000000</i>
   <i type="logical" name="LESF_SPLINES"> F  </i>
   <i type="int" name="LMAXMP2">    -1</i>
   <i name="SCISSOR">      0.00000000</i>
   <i type="int" name="NOMEGA">     0</i>
   <i type="int" name="NOMEGAR">     0</i>
   <i type="int" name="NBANDSGW">    -1</i>
   <i type="int" name="NBANDSO">    -1</i>
   <i type="int" name="NBANDSV">    -1</i>
   <i type="int" name="NELMGW">     1</i>
   <i type="int" name="NELMHF">     1</i>
   <i type="int" name="DIM">     3</i>
   <i type="int" name="IESPILON">     4</i>
   <i type="int" name="ANTIRES">     0</i>
   <i name="OMEGAMAX">    -30.00000000</i>
   <i name="OMEGAMIN">    -30.00000000</i>
   <i name="OMEGATL">   -200.00000000</i>
   <i type="int" name="OMEGAGRID">     0</i>
   <i name="CSHIFT">     -0.10000000</i>
   <i type="logical" name="LSELFENERGY"> F  </i>
   <i type="logical" name="LSPECTRAL"> F  </i>
   <i type="logical" name="LSPECTRALGW"> F  </i>
   <i type="logical" name="LSINGLES"> F  </i>
   <i type="logical" name="LFERMIGW"> F  </i>
   <i type="logical" name="ODDONLYGW"> F  </i>
   <i type="logical" name="EVENONLYGW"> F  </i>
   <i type="int" name="NKREDLFX">     1</i>
   <i type="int" name="NKREDLFY">     1</i>
   <i type="int" name="NKREDLFZ">     1</i>
   <i type="int" name="MAXMEM">  2800</i>
   <i type="int" name="TELESCOPE">     0</i>
   <i type="int" name="NTAUPAR">    -1</i>
   <i type="int" name="NOMEGAPAR">    -1</i>
   <i name="DAMP_NEWTON">      0.80000001</i>
   <i name="LAMBDA">      1.00000000</i>
  </separator>
  <separator name="External order field" >
   <i name="OFIELD_KAPPA">      0.00000000</i>
   <v name="OFIELD_K">      0.00000000      0.00000000      0.00000000</v>
   <i name="OFIELD_Q6_NEAR">      0.00000000</i>
   <i name="OFIELD_Q6_FAR">      0.00000000</i>
   <i name="OFIELD_A">      0.00000000</i>
  </separator>
  <separator name="optional k-points parameters" >
   <i type="int" name="KPOINTS_OPT_MODE">     1</i>
   <i type="logical" name="LKPOINTS_OPT"> F  </i>
  </separator>
 </parameters>
 <atominfo>
  <atoms>       1 </atoms>
  <types>       1 </types>
  <array name="atoms" >
   <dimension dim="1">ion</dimension>
   <field type="string">element</field>
   <field type="int">atomtype</field>
   <set>
    <rc><c>Co</c><c>   1</c></rc>
   </set>
  </array>
  <array name="atomtypes" >
   <dimension dim="1">type</dimension>
   <field type="int">atomspertype</field>
   <field type="string">element</field>
   <field>mass</field>
   <field>valence</field>
   <field type="string">pseudopotential</field>
   <set>
    <rc><c>   1</c><c>Co</c><c>     58.93300000</c><c>      9.00000000</c><c>  PAW_PBE Co 02Aug2007                  </c></rc>
   </set>
  </array>
 </atominfo>
 <structure name="initialpos" >
  <crystal>
   <varray name="basis" >
    <v>       0.00000000       1.73455502       1.73455502 </v>
    <v>       1.73455502       0.00000000       1.73455502 </v>
    <v>       1.73455502       1.73455502       0.00000000 </v>
   </varray>
   <i name="volume">     10.43744581 </i>
   <varray name="rec_basis" >
    <v>      -0.28825837       0.28825837       0.28825837 </v>
    <v>       0.28825837      -0.28825837       0.28825837 </v>
    <v>       0.28825837       0.28825837      -0.28825837 </v>
   </varray>
  </crystal>
  <varray name="positions" >
   <v>       0.00000000       0.00000000       0.00000000 </v>
  </varray>
 </structure>
 <calculation>
  <scstep>
   <time name="dav">    0.27    0.27</time>
   <time name="total">    0.28    0.28</time>
   <energy>
    <i name="alphaZ">     40.58242952 </i>
    <i name="ewald">   -770.76022818 </i>
    <i name="hartreedc">   -145.86769731 </i>
    <i name="XCdc">     17.94230135 </i>
    <i name="pawpsdc">    719.99081943 </i>
    <i name="pawaedc">   -772.94345096 </i>
    <i name="eentropy">     -0.00100499 </i>
    <i name="bandstr">    120.68626731 </i>
    <i name="atom">    813.35773410 </i>
    <i name="e_fr_energy">     22.98717027 </i>
    <i name="e_wo_entrp">     22.98817526 </i>
    <i name="e_0_energy">     22.98767277 </i>
   </energy>
  </scstep>
  <scstep>
   <time name="dav">    0.27    0.27</time>
   <time name="total">    0.27    0.27</time>
   <energy>
    <i name="e_fr_energy">     -6.97006488 </i>
    <i name="e_wo_entrp">     -6.96864923 </i>
    <i name="e_0_energy">     -6.96935705 </i>
   </energy>
  </scstep>
  <scstep>
   <time name="dav">    0.28    0.28</time>
   <time name="total">    0.28    0.28</time>
   <energy>
    <i name="e_fr_energy">     -7.75374381 </i>
    <i name="e_wo_entrp">     -7.75273937 </i>
    <i name="e_0_energy">     -7.75324159 </i>
   </energy>
  </scstep>
  <scstep>
   <time name="dav">    0.28    0.29</time>
   <time name="total">    0.28    0.29</time>
   <energy>
    <i name="e_fr_energy">     -7.76158679 </i>
    <i name="e_wo_entrp">     -7.76058210 </i>
    <i name="e_0_energy">     -7.76108444 </i>
   </energy>
  </scstep>
  <scstep>
   <time name="dav">    0.31    0.31</time>
   <time name="total">    0.32    0.32</time>
   <energy>
    <i name="e_fr_energy">     -7.76179145 </i>
    <i name="e_wo_entrp">     -7.76078695 </i>
    <i name="e_0_energy">     -7.76128920 </i>
   </energy>
  </scstep>
  <scstep>
   <time name="dav">    0.30    0.30</time>
   <time name="total">    0.32    0.32</time>
   <energy>
    <i name="e_fr_energy">     -7.16575585 </i>
    <i name="e_wo_entrp">     -7.16410300 </i>
    <i name="e_0_energy">     -7.16492942 </i>
   </energy>
  </scstep>
  <scstep>
   <time name="dav">    0.29    0.29</time>
   <time name="total">    0.31    0.31</time>
   <energy>
    <i name="e_fr_energy">     -7.02738987 </i>
    <i name="e_wo_entrp">     -7.02616292 </i>
    <i name="e_0_energy">     -7.02677639 </i>
   </energy>
  </scstep>
  <scstep>
   <time name="dav">    0.31    0.31</time>
   <time name="total">    0.32    0.33</time>
   <energy>
    <i name="e_fr_energy">     -7.01531713 </i>
    <i name="e_wo_entrp">     -7.01413211 </i>
    <i name="e_0_energy">     -7.01472462 </i>
   </energy>
  </scstep>
  <scstep>
   <time name="dav">    0.36    0.36</time>
   <time name="total">    0.37    0.38</time>
   <energy>
    <i name="e_fr_energy">     -7.00956220 </i>
    <i name="e_wo_entrp">     -7.00838465 </i>
    <i name="e_0_energy">     -7.00897342 </i>
   </energy>
  </scstep>
  <scstep>
   <time name="dav">    0.32    0.33</time>
   <time name="total">    0.34    0.34</time>
   <energy>
    <i name="e_fr_energy">     -7.00900421 </i>
    <i name="e_wo_entrp">     -7.00781666 </i>
    <i name="e_0_energy">     -7.00841044 </i>
   </energy>
  </scstep>
  <scstep>
   <time name="dav">    0.28    0.28</time>
   <time name="total">    0.30    0.30</time>
   <energy>
    <i name="e_fr_energy">     -7.00900959 </i>
    <i name="e_wo_entrp">     -7.00782490 </i>
    <i name="e_0_energy">     -7.00841725 </i>
   </energy>
  </scstep>
  <scstep>
   <time name="dav">    0.29    0.29</time>
   <time name="total">    0.30    0.30</time>
   <energy>
    <i name="alphaZ">     40.58242952 </i>
    <i name="ewald">   -770.76022818 </i>
    <i name="hartreedc">   -128.25710811 </i>
    <i name="XCdc">     16.50863568 </i>
    <i name="pawpsdc">    924.99562410 </i>
    <i name="pawaedc">   -978.18138694 </i>
    <i name="eentropy">     -0.00118603 </i>
    <i name="bandstr">     74.74647594 </i>
    <i name="atom">    813.35773410 </i>
    <i name="e_fr_energy">     -7.00900992 </i>
    <i name="e_wo_entrp">     -7.00782390 </i>
    <i name="e_0_energy">     -7.00841691 </i>
   </energy>
  </scstep>
  <structure>
   <crystal>
    <varray name="basis" >
     <v>       0.00000000       1.73455502       1.73455502 </v>
     <v>       1.73455502       0.00000000       1.73455502 </v>
     <v>       1.73455502       1.73455502       0.00000000 </v>
    </varray>
    <i name="volume">     10.43744581 </i>
    <varray name="rec_basis" >
     <v>      -0.28825837       0.28825837       0.28825837 </v>
     <v>       0.28825837      -0.28825837       0.28825837 </v>
     <v>       0.28825837       0.28825837      -0.28825837 </v>
    </varray>
   </crystal>
   <varray name="positions" >
    <v>       0.00000000       0.00000000       0.00000000 </v>
   </varray>
  </structure>
  <varray name="forces" >
   <v>       0.00000000       0.00000000       0.00000000 </v>
  </varray>
  <varray name="stress" >
   <v>      80.14437026       0.00000000       0.00000000 </v>
   <v>      -0.00000000      80.14437026       0.00000000 </v>
   <v>      -0.00000000      -0.00000000      80.14437026 </v>
  </varray>
  <energy>
   <i name="e_fr_energy">     -7.00900992 </i>
   <i name="e_wo_entrp">     -7.00782390 </i>
   <i name="e_0_energy">     -7.00841691 </i>
  </energy>
  <time name="totalsc">    3.82    3.88</time>
  <eigenvalues>
   <array>
    <dimension dim="1">band</dimension>
    <dimension dim="2">kpoint</dimension>
    <dimension dim="3">spin</dimension>
    <field>eigene</field>
    <field>occ</field>
    <set>
     <set comment="spin 1">
      <set comment="kpoint 1">
       <r>    1.8332    1.0000 </r>
       <r>    8.0992    1.0000 </r>
       <r>    8.1857    1.0000 </r>
       <r>    8.1857    1.0000 </r>
       <r>    9.2844    1.0000 </r>
       <r>    9.2844    1.0000 </r>
       <r>   33.9660    0.0000 </r>
       <r>   37.1381    0.0000 </r>
       <r>   38.6805    0.0000 </r>
       <r>   38.6805    0.0000 </r>
       <r>   42.7216    0.0000 </r>
       <r>   42.7217    0.0000 </r>
      </set>
      <set comment="kpoint 2">
       <r>    2.6562    1.0000 </r>
       <r>    7.8716    1.0000 </r>
       <r>    8.3540    1.0000 </r>
       <r>    8.3587    1.0000 </r>
       <r>    9.1181    1.0000 </r>
       <r>    9.3785    1.0000 </r>
       <r>   31.2736    0.0000 </r>
       <r>   33.9362    0.0000 </r>
       <r>   37.5065    0.0000 </r>
       <r>   39.7190    0.0000 </r>
       <r>   41.4850    0.0000 </r>
       <r>   42.8273    0.0000 </r>
      </set>
      <set comment="kpoint 3">
       <r>    4.3705    1.0000 </r>
       <r>    7.7523    1.0000 </r>
       <r>    8.2968    1.0000 </r>
       <r>    8.3763    1.0000 </r>
       <r>    9.3407    1.0000 </r>
       <r>    9.8025    1.0000 </r>
       <r>   25.1331    0.0000 </r>
       <r>   32.8077    0.0000 </r>
       <r>   36.4534    0.0000 </r>
       <r>   39.3673    0.0000 </r>
       <r>   40.5356    0.0000 </r>
       <r>   41.4814    0.0000 </r>
      </set>
      <set comment="kpoint 4">
       <r>    5.4974    1.0000 </r>
       <r>    8.0526    1.0000 </r>
       <r>    8.1583    1.0000 </r>
       <r>    8.8636    1.0000 </r>
       <r>    9.9295    1.0000 </r>
       <r>   10.6216    1.0000 </r>
       <r>   19.7044    0.0000 </r>
       <r>   32.2465    0.0000 </r>
       <r>   35.2401    0.0000 </r>
       <r>   37.1930    0.0000 </r>
       <r>   39.6631    0.0000 </r>
       <r>   41.2459    0.0000 </r>
      </set>
      <set comment="kpoint 5">
       <r>    5.6154    1.0000 </r>
       <r>    7.9508    1.0000 </r>
       <r>    8.1016    1.0000 </r>
       <r>    9.4709    1.0000 </r>
       <r>   10.2301    1.0000 </r>
       <r>   11.3964    0.0000 </r>
       <r>   17.5316    0.0000 </r>
       <r>   32.2926    0.0000 </r>
       <r>   35.2807    0.0000 </r>
       <r>   35.4495    0.0000 </r>
       <r>   40.5063    0.0000 </r>
       <r>   40.5167    0.0000 </r>
      </set>
      <set comment="kpoint 6">
       <r>    5.2879    1.0000 </r>
       <r>    8.0915    1.0000 </r>
       <r>    8.2528    1.0000 </r>
       <r>    8.3155    1.0000 </r>
       <r>   10.0111    1.0000 </r>
       <r>   10.0656    1.0000 </r>
       <r>   21.3472    0.0000 </r>
       <r>   33.0279    0.0000 </r>
       <r>   34.7337    0.0000 </r>
       <r>   37.2340    0.0000 </r>
       <r>   40.3086    0.0000 </r>
       <r>   42.2396    0.0000 </r>
      </set>
      <set comment="kpoint 7">
       <r>    3.7580    1.0000 </r>
       <r>    7.7018    1.0000 </r>
       <r>    8.3645    1.0000 </r>
       <r>    8.4265    1.0000 </r>
       <r>    9.2661    1.0000 </r>
       <r>    9.5449    1.0000 </r>
       <r>   27.1684    0.0000 </r>
       <r>   34.1515    0.0000 </r>
       <r>   35.2864    0.0000 </r>
       <r>   39.8388    0.0000 </r>
       <r>   40.1374    0.0000 </r>
       <r>   44.4769    0.0000 </r>
      </set>
      <set comment="kpoint 8">
       <r>    2.2519    1.0000 </r>
       <r>    7.9464    1.0000 </r>
       <r>    8.3020    1.0000 </r>
       <r>    8.3066    1.0000 </r>
       <r>    9.1396    1.0000 </r>
       <r>    9.3550    1.0000 </r>
       <r>   33.0176    0.0000 </r>
       <r>   35.5093    0.0000 </r>
       <r>   36.6770    0.0000 </r>
       <r>   38.4863    0.0000 </r>
       <r>   42.6427    0.0000 </r>
       <r>   44.4364    0.0000 </r>
      </set>
      <set comment="kpoint 9">
       <r>    3.0484    1.0000 </r>
       <r>    7.6516    1.0000 </r>
       <r>    8.5103    1.0000 </r>
       <r>    8.5422    1.0000 </r>
       <r>    8.9415    1.0000 </r>
       <r>    9.4867    1.0000 </r>
       <r>   31.5907    0.0000 </r>
       <r>   34.0388    0.0000 </r>
       <r>   34.3545    0.0000 </r>
       <r>   36.5073    0.0000 </r>
       <r>   42.5455    0.0000 </r>
       <r>   44.9743    0.0000 </r>
      </set>
      <set comment="kpoint 10">
       <r>    4.4327    1.0000 </r>
       <r>    7.3308    1.0000 </r>
       <r>    8.2820    1.0000 </r>
       <r>    8.8179    1.0000 </r>
       <r>    9.2245    1.0000 </r>
       <r>    9.8870    1.0000 </r>
       <r>   27.7256    0.0000 </r>
       <r>   30.3597    0.0000 </r>
       <r>   34.1687    0.0000 </r>
       <r>   36.2260    0.0000 </r>
       <r>   41.3496    0.0000 </r>
       <r>   44.7072    0.0000 </r>
      </set>
      <set comment="kpoint 11">
       <r>    5.8127    1.0000 </r>
       <r>    7.4593    1.0000 </r>
       <r>    7.9557    1.0000 </r>
       <r>    8.6524    1.0000 </r>
       <r>    9.9749    1.0000 </r>
       <r>   11.1321    0.0000 </r>
       <r>   21.8550    0.0000 </r>
       <r>   29.7135    0.0000 </r>
       <r>   31.8010    0.0000 </r>
       <r>   35.9041    0.0000 </r>
       <r>   42.7037    0.0000 </r>
       <r>   45.2658    0.0000 </r>
      </set>
      <set comment="kpoint 12">
       <r>    6.1096    1.0000 </r>
       <r>    7.4965    1.0000 </r>
       <r>    8.4157    1.0000 </r>
       <r>    8.4908    1.0000 </r>
       <r>   10.1901    1.0000 </r>
       <r>   13.3239    0.0000 </r>
       <r>   17.7124    0.0000 </r>
       <r>   29.0959    0.0000 </r>
       <r>   31.1080    0.0000 </r>
       <r>   35.6546    0.0000 </r>
       <r>   41.8472    0.0000 </r>
       <r>   45.5324    0.0000 </r>
      </set>
      <set comment="kpoint 13">
       <r>    6.0487    1.0000 </r>
       <r>    7.6538    1.0000 </r>
       <r>    8.0255    1.0000 </r>
       <r>    8.5339    1.0000 </r>
       <r>    9.8483    1.0000 </r>
       <r>   12.0085    0.0000 </r>
       <r>   20.1697    0.0000 </r>
       <r>   28.3067    0.0000 </r>
       <r>   32.6536    0.0000 </r>
       <r>   36.7848    0.0000 </r>
       <r>   41.1961    0.0000 </r>
       <r>   44.9155    0.0000 </r>
      </set>
      <set comment="kpoint 14">
       <r>    5.0262    1.0000 </r>
       <r>    7.4102    1.0000 </r>
       <r>    8.0955    1.0000 </r>
       <r>    8.7487    1.0000 </r>
       <r>    9.1514    1.0000 </r>
       <r>   10.4138    1.0000 </r>
       <r>   25.7032    0.0000 </r>
       <r>   28.4710    0.0000 </r>
       <r>   35.1909    0.0000 </r>
       <r>   38.7526    0.0000 </r>
       <r>   40.6388    0.0000 </r>
       <r>   43.8109    0.0000 </r>
      </set>
      <set comment="kpoint 15">
       <r>    3.4225    1.0000 </r>
       <r>    7.6492    1.0000 </r>
       <r>    8.4019    1.0000 </r>
       <r>    8.5455    1.0000 </r>
       <r>    9.0243    1.0000 </r>
       <r>    9.5787    1.0000 </r>
       <r>   29.4387    0.0000 </r>
       <r>   32.1030    0.0000 </r>
       <r>   36.5731    0.0000 </r>
       <r>   38.3961    0.0000 </r>
       <r>   42.1249    0.0000 </r>
       <r>   43.5565    0.0000 </r>
      </set>
      <set comment="kpoint 16">
       <r>    5.1031    1.0000 </r>
       <r>    6.8870    1.0000 </r>
       <r>    8.6257    1.0000 </r>
       <r>    9.2709    1.0000 </r>
       <r>    9.6243    1.0000 </r>
       <r>    9.8602    1.0000 </r>
       <r>   28.3123    0.0000 </r>
       <r>   30.0572    0.0000 </r>
       <r>   30.0629    0.0000 </r>
       <r>   32.9540    0.0000 </r>
       <r>   37.8754    0.0000 </r>
       <r>   47.8495    0.0000 </r>
      </set>
      <set comment="kpoint 17">
       <r>    5.8318    1.0000 </r>
       <r>    6.6690    1.0000 </r>
       <r>    8.5607    1.0000 </r>
       <r>    9.5323    1.0000 </r>
       <r>   10.0261    1.0000 </r>
       <r>   11.3964    0.0000 </r>
       <r>   24.8441    0.0000 </r>
       <r>   26.8133    0.0000 </r>
       <r>   27.8792    0.0000 </r>
       <r>   34.2325    0.0000 </r>
       <r>   38.9683    0.0000 </r>
       <r>   47.6158    0.0000 </r>
      </set>
      <set comment="kpoint 18">
       <r>    6.3275    1.0000 </r>
       <r>    6.8125    1.0000 </r>
       <r>    8.2386    1.0000 </r>
       <r>    9.2346    1.0000 </r>
       <r>   10.2574    1.0000 </r>
       <r>   14.6441    0.0000 </r>
       <r>   19.6662    0.0000 </r>
       <r>   24.6321    0.0000 </r>
       <r>   28.0461    0.0000 </r>
       <r>   34.6944    0.0000 </r>
       <r>   43.8640    0.0000 </r>
       <r>   46.5085    0.0000 </r>
      </set>
      <set comment="kpoint 19">
       <r>    6.8365    1.0000 </r>
       <r>    6.9927    1.0000 </r>
       <r>    7.7566    1.0000 </r>
       <r>    9.0241    1.0000 </r>
       <r>    9.9200    1.0000 </r>
       <r>   14.9746    0.0000 </r>
       <r>   19.5053    0.0000 </r>
       <r>   23.3038    0.0000 </r>
       <r>   29.8070    0.0000 </r>
       <r>   35.5691    0.0000 </r>
       <r>   44.4234    0.0000 </r>
       <r>   47.3970    0.0000 </r>
      </set>
      <set comment="kpoint 20">
       <r>    6.3617    1.0000 </r>
       <r>    7.4273    1.0000 </r>
       <r>    7.5925    1.0000 </r>
       <r>    8.8356    1.0000 </r>
       <r>    9.5215    1.0000 </r>
       <r>   12.1189    0.0000 </r>
       <r>   22.3906    0.0000 </r>
       <r>   25.4432    0.0000 </r>
       <r>   32.4127    0.0000 </r>
       <r>   37.3576    0.0000 </r>
       <r>   41.6211    0.0000 </r>
       <r>   46.3914    0.0000 </r>
      </set>
      <set comment="kpoint 21">
       <r>    5.1257    1.0000 </r>
       <r>    7.7060    1.0000 </r>
       <r>    8.1130    1.0000 </r>
       <r>    8.4463    1.0000 </r>
       <r>    9.5853    1.0000 </r>
       <r>   10.2735    1.0000 </r>
       <r>   23.3638    0.0000 </r>
       <r>   31.2250    0.0000 </r>
       <r>   34.8270    0.0000 </r>
       <r>   37.6155    0.0000 </r>
       <r>   41.2774    0.0000 </r>
       <r>   42.8658    0.0000 </r>
      </set>
      <set comment="kpoint 22">
       <r>    5.5859    1.0000 </r>
       <r>    6.2807    1.0000 </r>
       <r>    9.8872    1.0000 </r>
       <r>    9.9451    1.0000 </r>
       <r>   10.2823    1.0000 </r>
       <r>   12.0405    0.0000 </r>
       <r>   23.5342    0.0000 </r>
       <r>   25.9388    0.0000 </r>
       <r>   27.1237    0.0000 </r>
       <r>   32.0988    0.0000 </r>
       <r>   36.3770    0.0000 </r>
       <r>   47.8823    0.0000 </r>
      </set>
      <set comment="kpoint 23">
       <r>    5.7347    1.0000 </r>
       <r>    6.3077    1.0000 </r>
       <r>    9.4432    1.0000 </r>
       <r>    9.8904    1.0000 </r>
       <r>   10.4292    1.0000 </r>
       <r>   14.6421    0.0000 </r>
       <r>   21.3670    0.0000 </r>
       <r>   23.4789    0.0000 </r>
       <r>   25.9712    0.0000 </r>
       <r>   33.5946    0.0000 </r>
       <r>   38.2840    0.0000 </r>
       <r>   47.9044    0.0000 </r>
      </set>
      <set comment="kpoint 24">
       <r>    6.2708    1.0000 </r>
       <r>    6.7143    1.0000 </r>
       <r>    8.4205    1.0000 </r>
       <r>    9.4257    1.0000 </r>
       <r>   10.2439    1.0000 </r>
       <r>   16.7191    0.0000 </r>
       <r>   18.9776    0.0000 </r>
       <r>   22.1411    0.0000 </r>
       <r>   27.5547    0.0000 </r>
       <r>   34.5319    0.0000 </r>
       <r>   43.8502    0.0000 </r>
       <r>   47.5814    0.0000 </r>
      </set>
      <set comment="kpoint 25">
       <r>    6.4984    1.0000 </r>
       <r>    7.1755    1.0000 </r>
       <r>    8.0736    1.0000 </r>
       <r>    8.7662    1.0000 </r>
       <r>   10.0838    1.0000 </r>
       <r>   14.6086    0.0000 </r>
       <r>   17.9537    0.0000 </r>
       <r>   26.0798    0.0000 </r>
       <r>   30.1855    0.0000 </r>
       <r>   35.5731    0.0000 </r>
       <r>   43.1815    0.0000 </r>
       <r>   47.3798    0.0000 </r>
      </set>
      <set comment="kpoint 26">
       <r>    5.7685    1.0000 </r>
       <r>    7.8294    1.0000 </r>
       <r>    8.2501    1.0000 </r>
       <r>    8.7714    1.0000 </r>
       <r>   10.1301    1.0000 </r>
       <r>   11.7473    0.0000 </r>
       <r>   18.4576    0.0000 </r>
       <r>   31.0493    0.0000 </r>
       <r>   33.3804    0.0000 </r>
       <r>   35.9846    0.0000 </r>
       <r>   40.7696    0.0000 </r>
       <r>   42.9368    0.0000 </r>
      </set>
      <set comment="kpoint 27">
       <r>    5.5134    1.0000 </r>
       <r>    6.1436    1.0000 </r>
       <r>   10.0723    1.0000 </r>
       <r>   10.1939    1.0000 </r>
       <r>   10.4425    1.0000 </r>
       <r>   13.5888    0.0000 </r>
       <r>   21.2954    0.0000 </r>
       <r>   25.3219    0.0000 </r>
       <r>   26.4674    0.0000 </r>
       <r>   31.9648    0.0000 </r>
       <r>   36.1935    0.0000 </r>
       <r>   47.9547    0.0000 </r>
      </set>
      <set comment="kpoint 28">
       <r>    5.8209    1.0000 </r>
       <r>    6.4325    1.0000 </r>
       <r>    9.0870    1.0000 </r>
       <r>    9.8067    1.0000 </r>
       <r>   10.2706    1.0000 </r>
       <r>   13.0169    0.0000 </r>
       <r>   23.4810    0.0000 </r>
       <r>   24.2505    0.0000 </r>
       <r>   26.5602    0.0000 </r>
       <r>   33.7954    0.0000 </r>
       <r>   38.4828    0.0000 </r>
       <r>   47.7894    0.0000 </r>
      </set>
      <set comment="kpoint 29">
       <r>    6.2288    1.0000 </r>
       <r>    7.0847    1.0000 </r>
       <r>    8.0244    1.0000 </r>
       <r>    8.9421    1.0000 </r>
       <r>   10.1948    1.0000 </r>
       <r>   12.6392    0.0000 </r>
       <r>   20.6128    0.0000 </r>
       <r>   27.6795    0.0000 </r>
       <r>   29.1519    0.0000 </r>
       <r>   35.0917    0.0000 </r>
       <r>   43.6168    0.0000 </r>
       <r>   45.6812    0.0000 </r>
      </set>
      <set comment="kpoint 30">
       <r>    5.5721    1.0000 </r>
       <r>    6.5391    1.0000 </r>
       <r>    9.2634    1.0000 </r>
       <r>    9.6615    1.0000 </r>
       <r>   10.0677    1.0000 </r>
       <r>   10.5069    1.0000 </r>
       <r>   26.4407    0.0000 </r>
       <r>   27.2399    0.0000 </r>
       <r>   28.3591    0.0000 </r>
       <r>   32.3955    0.0000 </r>
       <r>   36.8602    0.0000 </r>
       <r>   47.8525    0.0000 </r>
      </set>
      <set comment="kpoint 31">
       <r>    5.3892    1.0000 </r>
       <r>    6.9850    1.0000 </r>
       <r>    8.2159    1.0000 </r>
       <r>    9.1616    1.0000 </r>
       <r>    9.6620    1.0000 </r>
       <r>   10.3811    1.0000 </r>
       <r>   26.1807    0.0000 </r>
       <r>   28.7066    0.0000 </r>
       <r>   30.8443    0.0000 </r>
       <r>   34.9844    0.0000 </r>
       <r>   39.8805    0.0000 </r>
       <r>   46.6395    0.0000 </r>
      </set>
      <set comment="kpoint 32">
       <r>    4.1037    1.0000 </r>
       <r>    7.2774    1.0000 </r>
       <r>    8.5191    1.0000 </r>
       <r>    8.8753    1.0000 </r>
       <r>    9.0988    1.0000 </r>
       <r>    9.6619    1.0000 </r>
       <r>   29.9623    0.0000 </r>
       <r>   32.0961    0.0000 </r>
       <r>   32.6007    0.0000 </r>
       <r>   34.2467    0.0000 </r>
       <r>   39.7498    0.0000 </r>
       <r>   47.4476    0.0000 </r>
      </set>
      <set comment="kpoint 33">
       <r>    3.0390    1.0000 </r>
       <r>    7.8417    1.0000 </r>
       <r>    8.3627    1.0000 </r>
       <r>    8.3627    1.0000 </r>
       <r>    9.2853    1.0000 </r>
       <r>    9.2853    1.0000 </r>
       <r>   29.1493    0.0000 </r>
       <r>   35.1102    0.0000 </r>
       <r>   37.6543    0.0000 </r>
       <r>   37.6543    0.0000 </r>
       <r>   43.0719    0.0000 </r>
       <r>   43.5592    0.0000 </r>
      </set>
      <set comment="kpoint 34">
       <r>    4.1228    1.0000 </r>
       <r>    7.5799    1.0000 </r>
       <r>    8.3054    1.0000 </r>
       <r>    8.6107    1.0000 </r>
       <r>    8.9776    1.0000 </r>
       <r>    9.9123    1.0000 </r>
       <r>   27.4592    0.0000 </r>
       <r>   30.1783    0.0000 </r>
       <r>   37.8448    0.0000 </r>
       <r>   39.8285    0.0000 </r>
       <r>   40.0577    0.0000 </r>
       <r>   42.2058    0.0000 </r>
      </set>
      <set comment="kpoint 35">
       <r>    5.7369    1.0000 </r>
       <r>    7.4629    1.0000 </r>
       <r>    7.9102    1.0000 </r>
       <r>    8.6760    1.0000 </r>
       <r>    9.2367    1.0000 </r>
       <r>   11.1191    0.0000 </r>
       <r>   23.9256    0.0000 </r>
       <r>   26.8131    0.0000 </r>
       <r>   35.8722    0.0000 </r>
       <r>   36.5965    0.0000 </r>
       <r>   41.8051    0.0000 </r>
       <r>   43.7542    0.0000 </r>
      </set>
      <set comment="kpoint 36">
       <r>    6.2665    1.0000 </r>
       <r>    7.4885    1.0000 </r>
       <r>    8.1743    1.0000 </r>
       <r>    8.5519    1.0000 </r>
       <r>    9.9146    1.0000 </r>
       <r>   13.1698    0.0000 </r>
       <r>   18.8305    0.0000 </r>
       <r>   27.0504    0.0000 </r>
       <r>   33.4390    0.0000 </r>
       <r>   34.2305    0.0000 </r>
       <r>   43.9840    0.0000 </r>
       <r>   44.0027    0.0000 </r>
      </set>
      <set comment="kpoint 37">
       <r>    6.1587    1.0000 </r>
       <r>    7.3369    1.0000 </r>
       <r>    8.2184    1.0000 </r>
       <r>    8.6327    1.0000 </r>
       <r>   10.2654    1.0000 </r>
       <r>   12.9952    0.0000 </r>
       <r>   18.7876    0.0000 </r>
       <r>   28.3898    0.0000 </r>
       <r>   31.4867    0.0000 </r>
       <r>   33.8129    0.0000 </r>
       <r>   44.9750    0.0000 </r>
       <r>   45.1595    0.0000 </r>
      </set>
      <set comment="kpoint 38">
       <r>    5.5620    1.0000 </r>
       <r>    7.1431    1.0000 </r>
       <r>    8.1022    1.0000 </r>
       <r>    8.8327    1.0000 </r>
       <r>   10.0790    1.0000 </r>
       <r>   10.4822    1.0000 </r>
       <r>   23.8732    0.0000 </r>
       <r>   30.5051    0.0000 </r>
       <r>   31.0639    0.0000 </r>
       <r>   34.2815    0.0000 </r>
       <r>   42.2627    0.0000 </r>
       <r>   46.1899    0.0000 </r>
      </set>
      <set comment="kpoint 39">
       <r>    4.6902    1.0000 </r>
       <r>    7.4553    1.0000 </r>
       <r>    8.2114    1.0000 </r>
       <r>    8.5836    1.0000 </r>
       <r>    9.6368    1.0000 </r>
       <r>    9.8278    1.0000 </r>
       <r>   25.4079    0.0000 </r>
       <r>   32.7904    0.0000 </r>
       <r>   33.0398    0.0000 </r>
       <r>   36.4616    0.0000 </r>
       <r>   42.7701    0.0000 </r>
       <r>   44.0283    0.0000 </r>
      </set>
      <set comment="kpoint 40">
       <r>    5.8734    1.0000 </r>
       <r>    7.1755    1.0000 </r>
       <r>    7.8435    1.0000 </r>
       <r>    9.0254    1.0000 </r>
       <r>    9.5362    1.0000 </r>
       <r>   11.1739    0.0000 </r>
       <r>   24.1766    0.0000 </r>
       <r>   26.9941    0.0000 </r>
       <r>   31.5020    0.0000 </r>
       <r>   37.8007    0.0000 </r>
       <r>   41.0918    0.0000 </r>
       <r>   44.5762    0.0000 </r>
      </set>
      <set comment="kpoint 41">
       <r>    6.7192    1.0000 </r>
       <r>    7.1680    1.0000 </r>
       <r>    7.4948    1.0000 </r>
       <r>    9.0949    1.0000 </r>
       <r>    9.8825    1.0000 </r>
       <r>   13.6082    0.0000 </r>
       <r>   21.1123    0.0000 </r>
       <r>   24.3790    0.0000 </r>
       <r>   28.7353    0.0000 </r>
       <r>   38.7079    0.0000 </r>
       <r>   41.0224    0.0000 </r>
       <r>   46.3968    0.0000 </r>
      </set>
      <set comment="kpoint 42">
       <r>    6.6896    1.0000 </r>
       <r>    6.9406    1.0000 </r>
       <r>    7.8587    1.0000 </r>
       <r>    9.0415    1.0000 </r>
       <r>   10.1874    1.0000 </r>
       <r>   15.5875    0.0000 </r>
       <r>   18.2757    0.0000 </r>
       <r>   25.3258    0.0000 </r>
       <r>   26.9341    0.0000 </r>
       <r>   37.5098    0.0000 </r>
       <r>   42.4405    0.0000 </r>
       <r>   47.0801    0.0000 </r>
      </set>
      <set comment="kpoint 43">
       <r>    6.2719    1.0000 </r>
       <r>    6.9223    1.0000 </r>
       <r>    7.9047    1.0000 </r>
       <r>    9.3434    1.0000 </r>
       <r>    9.9218    1.0000 </r>
       <r>   12.4425    0.0000 </r>
       <r>   22.9018    0.0000 </r>
       <r>   25.7386    0.0000 </r>
       <r>   27.9402    0.0000 </r>
       <r>   37.0575    0.0000 </r>
       <r>   41.2620    0.0000 </r>
       <r>   45.2096    0.0000 </r>
      </set>
      <set comment="kpoint 44">
       <r>    5.9944    1.0000 </r>
       <r>    6.8166    1.0000 </r>
       <r>    8.3417    1.0000 </r>
       <r>    9.1450    1.0000 </r>
       <r>   10.2546    1.0000 </r>
       <r>   11.8438    0.0000 </r>
       <r>   22.5850    0.0000 </r>
       <r>   27.3066    0.0000 </r>
       <r>   29.4625    0.0000 </r>
       <r>   33.4320    0.0000 </r>
       <r>   41.4363    0.0000 </r>
       <r>   47.5508    0.0000 </r>
      </set>
      <set comment="kpoint 45">
       <r>    6.2173    1.0000 </r>
       <r>    6.7300    1.0000 </r>
       <r>    8.2642    1.0000 </r>
       <r>    9.5342    1.0000 </r>
       <r>   10.2310    1.0000 </r>
       <r>   14.2548    0.0000 </r>
       <r>   21.9269    0.0000 </r>
       <r>   24.1335    0.0000 </r>
       <r>   25.3881    0.0000 </r>
       <r>   36.5716    0.0000 </r>
       <r>   41.2963    0.0000 </r>
       <r>   46.2635    0.0000 </r>
      </set>
      <set comment="kpoint 46">
       <r>    6.4260    1.0000 </r>
       <r>    7.1122    1.0000 </r>
       <r>    7.7675    1.0000 </r>
       <r>    9.2708    1.0000 </r>
       <r>   10.4235    1.0000 </r>
       <r>   17.7436    0.0000 </r>
       <r>   19.5577    0.0000 </r>
       <r>   22.1431    0.0000 </r>
       <r>   23.7206    0.0000 </r>
       <r>   39.5910    0.0000 </r>
       <r>   43.1021    0.0000 </r>
       <r>   44.9567    0.0000 </r>
      </set>
      <set comment="kpoint 47">
       <r>    6.5982    1.0000 </r>
       <r>    7.1171    1.0000 </r>
       <r>    7.6095    1.0000 </r>
       <r>    9.2442    1.0000 </r>
       <r>   10.2131    1.0000 </r>
       <r>   15.5982    0.0000 </r>
       <r>   20.1478    0.0000 </r>
       <r>   23.5577    0.0000 </r>
       <r>   25.4359    0.0000 </r>
       <r>   39.5874    0.0000 </r>
       <r>   41.4248    0.0000 </r>
       <r>   45.8758    0.0000 </r>
      </set>
      <set comment="kpoint 48">
       <r>    5.9322    1.0000 </r>
       <r>    6.4507    1.0000 </r>
       <r>    9.0635    1.0000 </r>
       <r>    9.6946    1.0000 </r>
       <r>   10.3179    1.0000 </r>
       <r>   15.4660    0.0000 </r>
       <r>   20.7407    0.0000 </r>
       <r>   22.0029    0.0000 </r>
       <r>   27.7372    0.0000 </r>
       <r>   32.9549    0.0000 </r>
       <r>   40.7233    0.0000 </r>
       <r>   47.9129    0.0000 </r>
      </set>
      <set comment="kpoint 49">
       <r>    6.1013    1.0000 </r>
       <r>    6.6335    1.0000 </r>
       <r>    8.5594    1.0000 </r>
       <r>    9.5639    1.0000 </r>
       <r>   10.4249    1.0000 </r>
       <r>   16.1158    0.0000 </r>
       <r>   21.1299    0.0000 </r>
       <r>   22.0358    0.0000 </r>
       <r>   24.7310    0.0000 </r>
       <r>   36.3335    0.0000 </r>
       <r>   41.3058    0.0000 </r>
       <r>   47.3536    0.0000 </r>
      </set>
      <set comment="kpoint 50">
       <r>    6.0105    1.0000 </r>
       <r>    6.5707    1.0000 </r>
       <r>    8.7749    1.0000 </r>
       <r>    9.4642    1.0000 </r>
       <r>   10.3280    1.0000 </r>
       <r>   13.6706    0.0000 </r>
       <r>   21.5803    0.0000 </r>
       <r>   24.1623    0.0000 </r>
       <r>   28.3277    0.0000 </r>
       <r>   33.0875    0.0000 </r>
       <r>   40.9422    0.0000 </r>
       <r>   47.8062    0.0000 </r>
      </set>
      <set comment="kpoint 51">
       <r>    4.7960    1.0000 </r>
       <r>    8.0790    1.0000 </r>
       <r>    8.2491    1.0000 </r>
       <r>    8.2491    1.0000 </r>
       <r>    9.7056    1.0000 </r>
       <r>    9.7056    1.0000 </r>
       <r>   23.0858    0.0000 </r>
       <r>   33.9222    0.0000 </r>
       <r>   36.9201    0.0000 </r>
       <r>   36.9201    0.0000 </r>
       <r>   41.1996    0.0000 </r>
       <r>   41.1996    0.0000 </r>
      </set>
      <set comment="kpoint 52">
       <r>    5.6092    1.0000 </r>
       <r>    7.9629    1.0000 </r>
       <r>    7.9852    1.0000 </r>
       <r>    8.3832    1.0000 </r>
       <r>    9.5937    1.0000 </r>
       <r>   10.9575    0.0169 </r>
       <r>   21.6200    0.0000 </r>
       <r>   29.6539    0.0000 </r>
       <r>   35.4239    0.0000 </r>
       <r>   36.8631    0.0000 </r>
       <r>   41.5243    0.0000 </r>
       <r>   41.8618    0.0000 </r>
      </set>
      <set comment="kpoint 53">
       <r>    6.6734    1.0000 </r>
       <r>    7.3267    1.0000 </r>
       <r>    7.6565    1.0000 </r>
       <r>    8.8275    1.0000 </r>
       <r>    9.6601    1.0000 </r>
       <r>   13.3398    0.0000 </r>
       <r>   20.8262    0.0000 </r>
       <r>   24.2037    0.0000 </r>
       <r>   33.0654    0.0000 </r>
       <r>   34.2905    0.0000 </r>
       <r>   44.9261    0.0000 </r>
       <r>   45.7083    0.0000 </r>
      </set>
      <set comment="kpoint 54">
       <r>    6.5417    1.0000 </r>
       <r>    6.8749    1.0000 </r>
       <r>    8.1280    1.0000 </r>
       <r>    9.2023    1.0000 </r>
       <r>   10.0446    1.0000 </r>
       <r>   16.5614    0.0000 </r>
       <r>   18.1986    0.0000 </r>
       <r>   22.5713    0.0000 </r>
       <r>   30.0318    0.0000 </r>
       <r>   33.4375    0.0000 </r>
       <r>   46.6834    0.0000 </r>
       <r>   48.0466    0.0000 </r>
      </set>
      <set comment="kpoint 55">
       <r>    5.7571    1.0000 </r>
       <r>    7.7545    1.0000 </r>
       <r>    8.2951    1.0000 </r>
       <r>    8.3875    1.0000 </r>
       <r>   10.2081    1.0000 </r>
       <r>   11.2412    0.0000 </r>
       <r>   19.9112    0.0000 </r>
       <r>   31.3131    0.0000 </r>
       <r>   32.9047    0.0000 </r>
       <r>   34.8107    0.0000 </r>
       <r>   42.8466    0.0000 </r>
       <r>   43.5806    0.0000 </r>
      </set>
      <set comment="kpoint 56">
       <r>    6.4266    1.0000 </r>
       <r>    7.2398    1.0000 </r>
       <r>    7.9559    1.0000 </r>
       <r>    8.7905    1.0000 </r>
       <r>   10.0834    1.0000 </r>
       <r>   13.6058    0.0000 </r>
       <r>   19.0223    0.0000 </r>
       <r>   27.1694    0.0000 </r>
       <r>   29.1744    0.0000 </r>
       <r>   37.2714    0.0000 </r>
       <r>   41.4251    0.0000 </r>
       <r>   47.2357    0.0000 </r>
      </set>
      <set comment="kpoint 57">
       <r>    6.6197    1.0000 </r>
       <r>    7.0161    1.0000 </r>
       <r>    7.7798    1.0000 </r>
       <r>    9.1963    1.0000 </r>
       <r>   10.2150    1.0000 </r>
       <r>   16.9868    0.0000 </r>
       <r>   18.5617    0.0000 </r>
       <r>   22.7026    0.0000 </r>
       <r>   26.4217    0.0000 </r>
       <r>   37.5700    0.0000 </r>
       <r>   43.7589    0.0000 </r>
       <r>   46.8968    0.0000 </r>
      </set>
      <set comment="kpoint 58">
       <r>    6.4444    1.0000 </r>
       <r>    7.0027    1.0000 </r>
       <r>    8.1575    1.0000 </r>
       <r>    8.9395    1.0000 </r>
       <r>   10.1860    1.0000 </r>
       <r>   15.0426    0.0000 </r>
       <r>   18.0639    0.0000 </r>
       <r>   25.2111    0.0000 </r>
       <r>   30.5204    0.0000 </r>
       <r>   33.5177    0.0000 </r>
       <r>   46.5161    0.0000 </r>
       <r>   46.8394    0.0000 </r>
      </set>
      <set comment="kpoint 59">
       <r>    5.4880    1.0000 </r>
       <r>    8.0593    1.0000 </r>
       <r>    8.0593    1.0000 </r>
       <r>   10.0058    1.0000 </r>
       <r>   10.1564    1.0000 </r>
       <r>   10.1564    1.0000 </r>
       <r>   18.3050    0.0000 </r>
       <r>   32.9659    0.0000 </r>
       <r>   36.5756    0.0000 </r>
       <r>   36.5756    0.0000 </r>
       <r>   39.3968    0.0000 </r>
       <r>   39.3968    0.0000 </r>
      </set>
      <set comment="kpoint 60">
       <r>    5.8829    1.0000 </r>
       <r>    7.7348    1.0000 </r>
       <r>    8.2775    1.0000 </r>
       <r>    8.8046    1.0000 </r>
       <r>   10.1391    1.0000 </r>
       <r>   12.5596    0.0000 </r>
       <r>   17.6194    0.0000 </r>
       <r>   30.0841    0.0000 </r>
       <r>   34.1852    0.0000 </r>
       <r>   34.3462    0.0000 </r>
       <r>   42.1126    0.0000 </r>
       <r>   42.5711    0.0000 </r>
      </set>
     </set>
     <set comment="spin 2">
      <set comment="kpoint 1">
       <r>    1.8448    1.0000 </r>
       <r>    9.6315    1.0000 </r>
       <r>    9.7346    1.0000 </r>
       <r>    9.7346    1.0000 </r>
       <r>   11.1494    0.0000 </r>
       <r>   11.1494    0.0000 </r>
       <r>   33.7417    0.0000 </r>
       <r>   37.2406    0.0000 </r>
       <r>   38.8533    0.0000 </r>
       <r>   38.8533    0.0000 </r>
       <r>   42.9798    0.0000 </r>
       <r>   42.9804    0.0000 </r>
      </set>
      <set comment="kpoint 2">
       <r>    2.6754    1.0000 </r>
       <r>    9.3422    1.0000 </r>
       <r>    9.9205    1.0000 </r>
       <r>    9.9287    1.0000 </r>
       <r>   10.9498    0.0284 </r>
       <r>   11.2317    0.0000 </r>
       <r>   31.4652    0.0000 </r>
       <r>   34.0049    0.0000 </r>
       <r>   37.5684    0.0000 </r>
       <r>   39.8943    0.0000 </r>
       <r>   41.4805    0.0000 </r>
       <r>   43.0561    0.0000 </r>
      </set>
      <set comment="kpoint 3">
       <r>    4.4937    1.0000 </r>
       <r>    9.0085    1.0000 </r>
       <r>    9.9010    1.0000 </r>
       <r>   10.0090    1.0000 </r>
       <r>   11.1179    0.0000 </r>
       <r>   11.6061    0.0000 </r>
       <r>   25.5833    0.0000 </r>
       <r>   32.8597    0.0000 </r>
       <r>   36.5396    0.0000 </r>
       <r>   39.6789    0.0000 </r>
       <r>   40.7959    0.0000 </r>
       <r>   41.5486    0.0000 </r>
      </set>
      <set comment="kpoint 4">
       <r>    6.1679    1.0000 </r>
       <r>    9.4861    1.0000 </r>
       <r>    9.6955    1.0000 </r>
       <r>    9.7917    1.0000 </r>
       <r>   11.7398    0.0000 </r>
       <r>   12.2415    0.0000 </r>
       <r>   20.4324    0.0000 </r>
       <r>   32.1797    0.0000 </r>
       <r>   35.4120    0.0000 </r>
       <r>   37.5139    0.0000 </r>
       <r>   39.9422    0.0000 </r>
       <r>   41.4484    0.0000 </r>
      </set>
      <set comment="kpoint 5">
       <r>    6.5057    1.0000 </r>
       <r>    9.5197    1.0000 </r>
       <r>    9.7270    1.0000 </r>
       <r>   10.2021    1.0000 </r>
       <r>   12.0771    0.0000 </r>
       <r>   12.5259    0.0000 </r>
       <r>   18.4946    0.0000 </r>
       <r>   32.1165    0.0000 </r>
       <r>   35.5932    0.0000 </r>
       <r>   35.7255    0.0000 </r>
       <r>   40.7406    0.0000 </r>
       <r>   40.7704    0.0000 </r>
      </set>
      <set comment="kpoint 6">
       <r>    5.7466    1.0000 </r>
       <r>    9.1653    1.0000 </r>
       <r>    9.7296    1.0000 </r>
       <r>    9.8812    1.0000 </r>
       <r>   11.7374    0.0000 </r>
       <r>   11.8497    0.0000 </r>
       <r>   21.9655    0.0000 </r>
       <r>   32.8497    0.0000 </r>
       <r>   35.0713    0.0000 </r>
       <r>   37.5697    0.0000 </r>
       <r>   40.4983    0.0000 </r>
       <r>   42.4460    0.0000 </r>
      </set>
      <set comment="kpoint 7">
       <r>    3.8181    1.0000 </r>
       <r>    9.0628    1.0000 </r>
       <r>    9.9750    1.0000 </r>
       <r>   10.0312    1.0000 </r>
       <r>   11.0291    0.0000 </r>
       <r>   11.3851    0.0000 </r>
       <r>   27.5443    0.0000 </r>
       <r>   34.0194    0.0000 </r>
       <r>   35.6242    0.0000 </r>
       <r>   39.9417    0.0000 </r>
       <r>   40.4045    0.0000 </r>
       <r>   44.5766    0.0000 </r>
      </set>
      <set comment="kpoint 8">
       <r>    2.2661    1.0000 </r>
       <r>    9.4488    1.0000 </r>
       <r>    9.8593    1.0000 </r>
       <r>    9.8647    1.0000 </r>
       <r>   10.9767    0.0039 </r>
       <r>   11.2255    0.0000 </r>
       <r>   33.0118    0.0000 </r>
       <r>   35.5233    0.0000 </r>
       <r>   36.9561    0.0000 </r>
       <r>   38.5706    0.0000 </r>
       <r>   42.8332    0.0000 </r>
       <r>   44.5412    0.0000 </r>
      </set>
      <set comment="kpoint 9">
       <r>    3.0747    1.0000 </r>
       <r>    9.1031    1.0000 </r>
       <r>   10.0960    1.0000 </r>
       <r>   10.1202    1.0000 </r>
       <r>   10.7045    1.0000 </r>
       <r>   11.3668    0.0000 </r>
       <r>   31.7895    0.0000 </r>
       <r>   34.0275    0.0000 </r>
       <r>   34.6773    0.0000 </r>
       <r>   36.5831    0.0000 </r>
       <r>   43.2078    0.0000 </r>
       <r>   45.1021    0.0000 </r>
      </set>
      <set comment="kpoint 10">
       <r>    4.5308    1.0000 </r>
       <r>    8.6985    1.0000 </r>
       <r>    9.8912    1.0000 </r>
       <r>   10.4476    1.0000 </r>
       <r>   10.9004    0.3065 </r>
       <r>   11.7092    0.0000 </r>
       <r>   28.0856    0.0000 </r>
       <r>   30.6108    0.0000 </r>
       <r>   34.3109    0.0000 </r>
       <r>   36.3773    0.0000 </r>
       <r>   41.8970    0.0000 </r>
       <r>   44.7711    0.0000 </r>
      </set>
      <set comment="kpoint 11">
       <r>    6.3347    1.0000 </r>
       <r>    8.6094    1.0000 </r>
       <r>    9.4427    1.0000 </r>
       <r>   10.3117    1.0000 </r>
       <r>   11.7470    0.0000 </r>
       <r>   12.6152    0.0000 </r>
       <r>   22.4157    0.0000 </r>
       <r>   29.9359    0.0000 </r>
       <r>   32.0750    0.0000 </r>
       <r>   36.1092    0.0000 </r>
       <r>   42.8371    0.0000 </r>
       <r>   45.5584    0.0000 </r>
      </set>
      <set comment="kpoint 12">
       <r>    7.0685    1.0000 </r>
       <r>    8.8019    1.0000 </r>
       <r>    9.5678    1.0000 </r>
       <r>   10.1412    1.0000 </r>
       <r>   12.0192    0.0000 </r>
       <r>   14.2233    0.0000 </r>
       <r>   18.5900    0.0000 </r>
       <r>   29.3082    0.0000 </r>
       <r>   31.4426    0.0000 </r>
       <r>   35.7726    0.0000 </r>
       <r>   42.0643    0.0000 </r>
       <r>   45.6460    0.0000 </r>
      </set>
      <set comment="kpoint 13">
       <r>    6.7686    1.0000 </r>
       <r>    8.8617    1.0000 </r>
       <r>    9.3265    1.0000 </r>
       <r>   10.1966    1.0000 </r>
       <r>   11.6185    0.0000 </r>
       <r>   13.3389    0.0000 </r>
       <r>   20.8312    0.0000 </r>
       <r>   28.5920    0.0000 </r>
       <r>   32.8850    0.0000 </r>
       <r>   36.9150    0.0000 </r>
       <r>   41.3999    0.0000 </r>
       <r>   45.0419    0.0000 </r>
      </set>
      <set comment="kpoint 14">
       <r>    5.1806    1.0000 </r>
       <r>    8.7320    1.0000 </r>
       <r>    9.6700    1.0000 </r>
       <r>   10.4239    1.0000 </r>
       <r>   10.8537    0.7920 </r>
       <r>   12.1478    0.0000 </r>
       <r>   26.1336    0.0000 </r>
       <r>   28.7741    0.0000 </r>
       <r>   35.3227    0.0000 </r>
       <r>   38.8530    0.0000 </r>
       <r>   40.7695    0.0000 </r>
       <r>   44.1254    0.0000 </r>
      </set>
      <set comment="kpoint 15">
       <r>    3.4594    1.0000 </r>
       <r>    9.0720    1.0000 </r>
       <r>    9.9940    1.0000 </r>
       <r>   10.1382    1.0000 </r>
       <r>   10.7966    0.9925 </r>
       <r>   11.4233    0.0000 </r>
       <r>   29.7365    0.0000 </r>
       <r>   32.2739    0.0000 </r>
       <r>   36.6491    0.0000 </r>
       <r>   38.4442    0.0000 </r>
       <r>   42.3649    0.0000 </r>
       <r>   43.8050    0.0000 </r>
      </set>
      <set comment="kpoint 16">
       <r>    5.3804    1.0000 </r>
       <r>    8.2189    1.0000 </r>
       <r>   10.0442    1.0000 </r>
       <r>   10.9344    0.0709 </r>
       <r>   11.2033    0.0000 </r>
       <r>   11.7577    0.0000 </r>
       <r>   28.6231    0.0000 </r>
       <r>   30.3059    0.0000 </r>
       <r>   30.3559    0.0000 </r>
       <r>   33.1955    0.0000 </r>
       <r>   38.4024    0.0000 </r>
       <r>   50.1873    0.0000 </r>
      </set>
      <set comment="kpoint 17">
       <r>    6.5460    1.0000 </r>
       <r>    7.9400    1.0000 </r>
       <r>    9.8260    1.0000 </r>
       <r>   11.2634    0.0000 </r>
       <r>   11.8095    0.0000 </r>
       <r>   12.7279    0.0000 </r>
       <r>   25.2303    0.0000 </r>
       <r>   27.1800    0.0000 </r>
       <r>   28.2224    0.0000 </r>
       <r>   34.4688    0.0000 </r>
       <r>   39.3772    0.0000 </r>
       <r>   48.7617    0.0000 </r>
      </set>
      <set comment="kpoint 18">
       <r>    7.4409    1.0000 </r>
       <r>    7.9785    1.0000 </r>
       <r>    9.4687    1.0000 </r>
       <r>   10.9918    0.0010 </r>
       <r>   12.0707    0.0000 </r>
       <r>   15.4946    0.0000 </r>
       <r>   20.2351    0.0000 </r>
       <r>   25.1143    0.0000 </r>
       <r>   28.3630    0.0000 </r>
       <r>   34.9031    0.0000 </r>
       <r>   44.1693    0.0000 </r>
       <r>   46.9940    0.0000 </r>
      </set>
      <set comment="kpoint 19">
       <r>    7.8390    1.0000 </r>
       <r>    8.2464    1.0000 </r>
       <r>    8.9842    1.0000 </r>
       <r>   10.7899    0.9956 </r>
       <r>   11.6622    0.0000 </r>
       <r>   15.8650    0.0000 </r>
       <r>   20.1201    0.0000 </r>
       <r>   23.8108    0.0000 </r>
       <r>   30.1294    0.0000 </r>
       <r>   35.7233    0.0000 </r>
       <r>   44.4959    0.0000 </r>
       <r>   49.3657    0.0000 </r>
      </set>
      <set comment="kpoint 20">
       <r>    6.8875    1.0000 </r>
       <r>    8.6420    1.0000 </r>
       <r>    9.0687    1.0000 </r>
       <r>   10.5591    1.0000 </r>
       <r>   11.2257    0.0000 </r>
       <r>   13.5136    0.0000 </r>
       <r>   22.9310    0.0000 </r>
       <r>   25.8392    0.0000 </r>
       <r>   32.6627    0.0000 </r>
       <r>   37.5006    0.0000 </r>
       <r>   41.6894    0.0000 </r>
       <r>   46.5453    0.0000 </r>
      </set>
      <set comment="kpoint 21">
       <r>    5.3898    1.0000 </r>
       <r>    8.8649    1.0000 </r>
       <r>    9.7115    1.0000 </r>
       <r>   10.0888    1.0000 </r>
       <r>   11.3212    0.0000 </r>
       <r>   12.0122    0.0000 </r>
       <r>   23.8792    0.0000 </r>
       <r>   31.3852    0.0000 </r>
       <r>   34.9371    0.0000 </r>
       <r>   37.8935    0.0000 </r>
       <r>   41.4485    0.0000 </r>
       <r>   43.0245    0.0000 </r>
      </set>
      <set comment="kpoint 22">
       <r>    6.5752    1.0000 </r>
       <r>    7.5284    1.0000 </r>
       <r>   11.2271    0.0000 </r>
       <r>   11.7990    0.0000 </r>
       <r>   12.1206    0.0000 </r>
       <r>   12.8177    0.0000 </r>
       <r>   24.1326    0.0000 </r>
       <r>   26.2025    0.0000 </r>
       <r>   27.3292    0.0000 </r>
       <r>   32.4571    0.0000 </r>
       <r>   36.8140    0.0000 </r>
       <r>   51.4152    0.0000 </r>
      </set>
      <set comment="kpoint 23">
       <r>    6.8564    1.0000 </r>
       <r>    7.5316    1.0000 </r>
       <r>   10.7730    0.9990 </r>
       <r>   11.7839    0.0000 </r>
       <r>   12.2220    0.0000 </r>
       <r>   15.1695    0.0000 </r>
       <r>   22.1280    0.0000 </r>
       <r>   23.8149    0.0000 </r>
       <r>   26.2196    0.0000 </r>
       <r>   33.8861    0.0000 </r>
       <r>   38.6840    0.0000 </r>
       <r>   51.3441    0.0000 </r>
      </set>
      <set comment="kpoint 24">
       <r>    7.4781    1.0000 </r>
       <r>    7.8701    1.0000 </r>
       <r>    9.6516    1.0000 </r>
       <r>   11.2465    0.0000 </r>
       <r>   12.0200    0.0000 </r>
       <r>   17.3423    0.0000 </r>
       <r>   19.5374    0.0000 </r>
       <r>   22.7740    0.0000 </r>
       <r>   27.8640    0.0000 </r>
       <r>   34.7571    0.0000 </r>
       <r>   44.2403    0.0000 </r>
       <r>   47.9267    0.0000 </r>
      </set>
      <set comment="kpoint 25">
       <r>    7.5234    1.0000 </r>
       <r>    8.4045    1.0000 </r>
       <r>    9.2845    1.0000 </r>
       <r>   10.4759    1.0000 </r>
       <r>   11.8800    0.0000 </r>
       <r>   15.4368    0.0000 </r>
       <r>   18.7534    0.0000 </r>
       <r>   26.4627    0.0000 </r>
       <r>   30.5008    0.0000 </r>
       <r>   35.7047    0.0000 </r>
       <r>   43.3388    0.0000 </r>
       <r>   47.8077    0.0000 </r>
      </set>
      <set comment="kpoint 26">
       <r>    6.6099    1.0000 </r>
       <r>    9.2586    1.0000 </r>
       <r>    9.7169    1.0000 </r>
       <r>    9.8973    1.0000 </r>
       <r>   11.9514    0.0000 </r>
       <r>   12.9552    0.0000 </r>
       <r>   19.2829    0.0000 </r>
       <r>   31.1003    0.0000 </r>
       <r>   33.6597    0.0000 </r>
       <r>   36.1711    0.0000 </r>
       <r>   41.0226    0.0000 </r>
       <r>   43.1024    0.0000 </r>
      </set>
      <set comment="kpoint 27">
       <r>    6.6100    1.0000 </r>
       <r>    7.3735    1.0000 </r>
       <r>   11.7294    0.0000 </r>
       <r>   12.0073    0.0000 </r>
       <r>   12.2410    0.0000 </r>
       <r>   13.9078    0.0000 </r>
       <r>   22.1001    0.0000 </r>
       <r>   25.5475    0.0000 </r>
       <r>   26.6394    0.0000 </r>
       <r>   32.3495    0.0000 </r>
       <r>   36.6277    0.0000 </r>
       <r>   51.5006    0.0000 </r>
      </set>
      <set comment="kpoint 28">
       <r>    6.8394    1.0000 </r>
       <r>    7.6725    1.0000 </r>
       <r>   10.3434    1.0000 </r>
       <r>   11.6252    0.0000 </r>
       <r>   12.0739    0.0000 </r>
       <r>   13.9035    0.0000 </r>
       <r>   23.9659    0.0000 </r>
       <r>   24.6922    0.0000 </r>
       <r>   26.8356    0.0000 </r>
       <r>   34.0669    0.0000 </r>
       <r>   38.8813    0.0000 </r>
       <r>   50.3860    0.0000 </r>
      </set>
      <set comment="kpoint 29">
       <r>    7.0842    1.0000 </r>
       <r>    8.2674    1.0000 </r>
       <r>    9.3350    1.0000 </r>
       <r>   10.6391    1.0000 </r>
       <r>   12.0187    0.0000 </r>
       <r>   13.7766    0.0000 </r>
       <r>   21.1906    0.0000 </r>
       <r>   27.9960    0.0000 </r>
       <r>   29.4986    0.0000 </r>
       <r>   35.2820    0.0000 </r>
       <r>   43.7798    0.0000 </r>
       <r>   46.2591    0.0000 </r>
      </set>
      <set comment="kpoint 30">
       <r>    6.2599    1.0000 </r>
       <r>    7.8216    1.0000 </r>
       <r>   10.4208    1.0000 </r>
       <r>   11.4036    0.0000 </r>
       <r>   11.8698    0.0000 </r>
       <r>   11.9537    0.0000 </r>
       <r>   26.8119    0.0000 </r>
       <r>   27.5884    0.0000 </r>
       <r>   28.6136    0.0000 </r>
       <r>   32.7029    0.0000 </r>
       <r>   37.3192    0.0000 </r>
       <r>   51.3409    0.0000 </r>
      </set>
      <set comment="kpoint 31">
       <r>    5.6903    1.0000 </r>
       <r>    8.2995    1.0000 </r>
       <r>    9.6967    1.0000 </r>
       <r>   10.8333    0.9178 </r>
       <r>   11.3460    0.0000 </r>
       <r>   12.0767    0.0000 </r>
       <r>   26.5685    0.0000 </r>
       <r>   28.9964    0.0000 </r>
       <r>   31.1280    0.0000 </r>
       <r>   35.1801    0.0000 </r>
       <r>   40.3341    0.0000 </r>
       <r>   46.8713    0.0000 </r>
      </set>
      <set comment="kpoint 32">
       <r>    4.1822    1.0000 </r>
       <r>    8.6682    1.0000 </r>
       <r>   10.1478    1.0000 </r>
       <r>   10.4870    1.0000 </r>
       <r>   10.7206    1.0000 </r>
       <r>   11.5530    0.0000 </r>
       <r>   30.2546    0.0000 </r>
       <r>   32.4210    0.0000 </r>
       <r>   32.6555    0.0000 </r>
       <r>   34.4135    0.0000 </r>
       <r>   40.3854    0.0000 </r>
       <r>   47.4504    0.0000 </r>
      </set>
      <set comment="kpoint 33">
       <r>    3.0683    1.0000 </r>
       <r>    9.2654    1.0000 </r>
       <r>    9.9473    1.0000 </r>
       <r>    9.9473    1.0000 </r>
       <r>   11.1171    0.0000 </r>
       <r>   11.1171    0.0000 </r>
       <r>   29.4482    0.0000 </r>
       <r>   34.8941    0.0000 </r>
       <r>   37.9538    0.0000 </r>
       <r>   37.9538    0.0000 </r>
       <r>   42.9949    0.0000 </r>
       <r>   43.6779    0.0000 </r>
      </set>
      <set comment="kpoint 34">
       <r>    4.1915    1.0000 </r>
       <r>    8.9542    1.0000 </r>
       <r>    9.8866    1.0000 </r>
       <r>   10.2408    1.0000 </r>
       <r>   10.7435    1.0000 </r>
       <r>   11.7100    0.0000 </r>
       <r>   27.8310    0.0000 </r>
       <r>   30.4221    0.0000 </r>
       <r>   37.8208    0.0000 </r>
       <r>   39.7972    0.0000 </r>
       <r>   40.2385    0.0000 </r>
       <r>   42.5690    0.0000 </r>
      </set>
      <set comment="kpoint 35">
       <r>    6.0246    1.0000 </r>
       <r>    8.7256    1.0000 </r>
       <r>    9.4308    1.0000 </r>
       <r>   10.4005    1.0000 </r>
       <r>   10.9282    0.0980 </r>
       <r>   12.7375    0.0000 </r>
       <r>   24.4203    0.0000 </r>
       <r>   27.1668    0.0000 </r>
       <r>   35.8789    0.0000 </r>
       <r>   36.9306    0.0000 </r>
       <r>   41.7566    0.0000 </r>
       <r>   43.9921    0.0000 </r>
      </set>
      <set comment="kpoint 36">
       <r>    7.1605    1.0000 </r>
       <r>    8.7814    1.0000 </r>
       <r>    9.3310    1.0000 </r>
       <r>   10.2410    1.0000 </r>
       <r>   11.6981    0.0000 </r>
       <r>   14.2446    0.0000 </r>
       <r>   19.5813    0.0000 </r>
       <r>   27.3877    0.0000 </r>
       <r>   33.7746    0.0000 </r>
       <r>   34.2926    0.0000 </r>
       <r>   44.0784    0.0000 </r>
       <r>   44.2051    0.0000 </r>
      </set>
      <set comment="kpoint 37">
       <r>    7.0909    1.0000 </r>
       <r>    8.5348    1.0000 </r>
       <r>    9.4643    1.0000 </r>
       <r>   10.3126    1.0000 </r>
       <r>   12.1123    0.0000 </r>
       <r>   14.0044    0.0000 </r>
       <r>   19.5159    0.0000 </r>
       <r>   28.6706    0.0000 </r>
       <r>   31.7990    0.0000 </r>
       <r>   33.9869    0.0000 </r>
       <r>   45.0523    0.0000 </r>
       <r>   45.3469    0.0000 </r>
      </set>
      <set comment="kpoint 38">
       <r>    5.9324    1.0000 </r>
       <r>    8.3964    1.0000 </r>
       <r>    9.5932    1.0000 </r>
       <r>   10.5036    1.0000 </r>
       <r>   11.9427    0.0000 </r>
       <r>   11.9578    0.0000 </r>
       <r>   24.3397    0.0000 </r>
       <r>   30.6785    0.0000 </r>
       <r>   31.3775    0.0000 </r>
       <r>   34.5552    0.0000 </r>
       <r>   42.6517    0.0000 </r>
       <r>   46.2869    0.0000 </r>
      </set>
      <set comment="kpoint 39">
       <r>    4.8359    1.0000 </r>
       <r>    8.7546    1.0000 </r>
       <r>    9.8230    1.0000 </r>
       <r>   10.2157    1.0000 </r>
       <r>   11.2769    0.0000 </r>
       <r>   11.6813    0.0000 </r>
       <r>   25.8417    0.0000 </r>
       <r>   32.7623    0.0000 </r>
       <r>   33.3755    0.0000 </r>
       <r>   36.7332    0.0000 </r>
       <r>   43.0587    0.0000 </r>
       <r>   44.2139    0.0000 </r>
      </set>
      <set comment="kpoint 40">
       <r>    6.2421    1.0000 </r>
       <r>    8.4516    1.0000 </r>
       <r>    9.3492    1.0000 </r>
       <r>   10.7170    1.0000 </r>
       <r>   11.2386    0.0000 </r>
       <r>   12.7340    0.0000 </r>
       <r>   24.6433    0.0000 </r>
       <r>   27.3358    0.0000 </r>
       <r>   31.7707    0.0000 </r>
       <r>   37.9312    0.0000 </r>
       <r>   41.2660    0.0000 </r>
       <r>   45.0800    0.0000 </r>
      </set>
      <set comment="kpoint 41">
       <r>    7.5506    1.0000 </r>
       <r>    8.4409    1.0000 </r>
       <r>    8.8021    1.0000 </r>
       <r>   10.8386    0.8924 </r>
       <r>   11.6155    0.0000 </r>
       <r>   14.6919    0.0000 </r>
       <r>   21.6697    0.0000 </r>
       <r>   24.8095    0.0000 </r>
       <r>   29.0834    0.0000 </r>
       <r>   38.8175    0.0000 </r>
       <r>   41.1359    0.0000 </r>
       <r>   47.3857    0.0000 </r>
      </set>
      <set comment="kpoint 42">
       <r>    7.8186    1.0000 </r>
       <r>    8.1048    1.0000 </r>
       <r>    9.0948    1.0000 </r>
       <r>   10.7836    0.9974 </r>
       <r>   11.9750    0.0000 </r>
       <r>   16.3528    0.0000 </r>
       <r>   18.9830    0.0000 </r>
       <r>   25.7455    0.0000 </r>
       <r>   27.3154    0.0000 </r>
       <r>   37.6341    0.0000 </r>
       <r>   42.5869    0.0000 </r>
       <r>   48.4452    0.0000 </r>
      </set>
      <set comment="kpoint 43">
       <r>    7.0379    1.0000 </r>
       <r>    8.1714    1.0000 </r>
       <r>    9.2250    1.0000 </r>
       <r>   11.0787    0.0000 </r>
       <r>   11.6670    0.0000 </r>
       <r>   13.6741    0.0000 </r>
       <r>   23.3768    0.0000 </r>
       <r>   26.1026    0.0000 </r>
       <r>   28.3217    0.0000 </r>
       <r>   37.2172    0.0000 </r>
       <r>   41.5136    0.0000 </r>
       <r>   45.6806    0.0000 </r>
      </set>
      <set comment="kpoint 44">
       <r>    6.7601    1.0000 </r>
       <r>    8.0472    1.0000 </r>
       <r>    9.6192    1.0000 </r>
       <r>   10.8685    0.6536 </r>
       <r>   12.1167    0.0000 </r>
       <r>   13.0539    0.0000 </r>
       <r>   23.0542    0.0000 </r>
       <r>   27.6776    0.0000 </r>
       <r>   29.7450    0.0000 </r>
       <r>   33.6968    0.0000 </r>
       <r>   41.8051    0.0000 </r>
       <r>   48.8198    0.0000 </r>
      </set>
      <set comment="kpoint 45">
       <r>    7.2886    1.0000 </r>
       <r>    7.9566    1.0000 </r>
       <r>    9.4907    1.0000 </r>
       <r>   11.3337    0.0000 </r>
       <r>   12.0026    0.0000 </r>
       <r>   15.1335    0.0000 </r>
       <r>   22.3911    0.0000 </r>
       <r>   24.6228    0.0000 </r>
       <r>   25.7709    0.0000 </r>
       <r>   36.7554    0.0000 </r>
       <r>   41.6276    0.0000 </r>
       <r>   46.6756    0.0000 </r>
      </set>
      <set comment="kpoint 46">
       <r>    7.6264    1.0000 </r>
       <r>    8.3195    1.0000 </r>
       <r>    8.9866    1.0000 </r>
       <r>   11.0586    0.0000 </r>
       <r>   12.2114    0.0000 </r>
       <r>   18.3323    0.0000 </r>
       <r>   20.0925    0.0000 </r>
       <r>   22.7374    0.0000 </r>
       <r>   24.1679    0.0000 </r>
       <r>   39.7207    0.0000 </r>
       <r>   43.2127    0.0000 </r>
       <r>   45.3063    0.0000 </r>
      </set>
      <set comment="kpoint 47">
       <r>    7.7344    1.0000 </r>
       <r>    8.3218    1.0000 </r>
       <r>    8.8242    1.0000 </r>
       <r>   11.0203    0.0000 </r>
       <r>   11.9762    0.0000 </r>
       <r>   16.4033    0.0000 </r>
       <r>   20.6952    0.0000 </r>
       <r>   24.0259    0.0000 </r>
       <r>   25.8703    0.0000 </r>
       <r>   39.7014    0.0000 </r>
       <r>   41.5450    0.0000 </r>
       <r>   46.5630    0.0000 </r>
      </set>
      <set comment="kpoint 48">
       <r>    7.0865    1.0000 </r>
       <r>    7.6507    1.0000 </r>
       <r>   10.3255    1.0000 </r>
       <r>   11.5578    0.0000 </r>
       <r>   12.1098    0.0000 </r>
       <r>   16.0604    0.0000 </r>
       <r>   21.2701    0.0000 </r>
[...]
       </set>
       <set comment="band 5">
        <r>  0.0001  0.0000  0.0004  0.0007  0.0025  0.0310  0.0001  0.9520  0.0063 </r>
       </set>
       <set comment="band 6">
        <r>  0.0254  0.0070  0.4854  0.0010  0.0002  0.3024  0.0312  0.0150  0.0020 </r>
       </set>
       <set comment="band 7">
        <r>  0.0017  0.1382  0.0117  0.2792  0.1520  0.0083  0.2035  0.0048  0.0188 </r>
       </set>
       <set comment="band 8">
        <r>  0.3041  0.0137  0.0348  0.1061  0.0830  0.0049  0.2906  0.0004  0.0001 </r>
       </set>
       <set comment="band 9">
        <r>  0.2488  0.1820  0.0035  0.1547  0.0537  0.0013  0.0069  0.0014  0.0933 </r>
       </set>
       <set comment="band 10">
        <r>  0.0235  0.0294  0.0005  0.0690  0.6418  0.0000  0.0154  0.0010  0.0045 </r>
       </set>
       <set comment="band 11">
        <r>  0.2134  0.2537  0.0048  0.0149  0.0718  0.0000  0.1645  0.0002  0.0086 </r>
       </set>
       <set comment="band 12">
        <r>  0.0517  0.0019  0.0298  0.0002  0.0001  0.3751  0.0185  0.0022  0.0288 </r>
       </set>
      </set>
      <set comment="kpoint 50">
       <set comment="band 1">
        <r>  0.0858  0.0097  0.0492  0.0097  0.0566  0.0083  0.6286  0.0083  0.0000 </r>
       </set>
       <set comment="band 2">
        <r>  0.0005  0.0256  0.0002  0.0256  0.8108  0.0079  0.0513  0.0079  0.0000 </r>
       </set>
       <set comment="band 3">
        <r>  0.0368  0.0000  0.1767  0.0000  0.0327  0.2916  0.0869  0.2916  0.0000 </r>
       </set>
       <set comment="band 4">
        <r>  0.0000  0.0053  0.0000  0.0053  0.0000  0.1659  0.0000  0.1659  0.6338 </r>
       </set>
       <set comment="band 5">
        <r>  0.0000  0.0000  0.0000  0.0000  0.0000  0.3261  0.0000  0.3261  0.3415 </r>
       </set>
       <set comment="band 6">
        <r>  0.0747  0.0154  0.2870  0.0154  0.0047  0.1871  0.1279  0.1871  0.0000 </r>
       </set>
       <set comment="band 7">
        <r>  0.1075  0.1966  0.0014  0.1966  0.1687  0.0325  0.0668  0.0325  0.0000 </r>
       </set>
       <set comment="band 8">
        <r>  0.2249  0.0001  0.1714  0.0001  0.0193  0.0050  0.3912  0.0050  0.0000 </r>
       </set>
       <set comment="band 9">
        <r>  0.0000  0.2919  0.0000  0.2919  0.0000  0.0212  0.0000  0.0212  0.0838 </r>
       </set>
       <set comment="band 10">
        <r>  0.1373  0.0013  0.0199  0.0013  0.6182  0.0001  0.0373  0.0001  0.0000 </r>
       </set>
       <set comment="band 11">
        <r>  0.2082  0.0996  0.0302  0.0996  0.1930  0.0054  0.1119  0.0054  0.0000 </r>
       </set>
       <set comment="band 12">
        <r>  0.0001  0.0197  0.0000  0.0197  0.0000  0.1127  0.0000  0.1129  0.2124 </r>
       </set>
      </set>
      <set comment="kpoint 51">
       <set comment="band 1">
        <r>  0.4734  0.0516  0.0516  0.0516  0.0548  0.0548  0.0000  0.0548  0.0000 </r>
       </set>
       <set comment="band 2">
        <r>  0.0209  0.0550  0.0550  0.0550  0.2370  0.2370  0.0000  0.2370  0.0000 </r>
       </set>
       <set comment="band 3">
        <r>  0.0000  0.0004  0.0004  0.0002  0.2270  0.0905  0.2654  0.2277  0.1596 </r>
       </set>
       <set comment="band 4">
        <r>  0.0000  0.0003  0.0003  0.0005  0.1364  0.2729  0.1596  0.1357  0.2654 </r>
       </set>
       <set comment="band 5">
        <r>  0.0000  0.0003  0.0008  0.0008  0.1860  0.1826  0.3560  0.0627  0.1943 </r>
       </set>
       <set comment="band 6">
        <r>  0.0000  0.0010  0.0004  0.0005  0.1016  0.1049  0.1943  0.2249  0.3560 </r>
       </set>
       <set comment="band 7">
        <r>  0.1754  0.0843  0.0843  0.0843  0.1381  0.1381  0.0000  0.1381  0.0000 </r>
       </set>
       <set comment="band 8">
        <r>  0.0097  0.0032  0.0032  0.0032  0.0211  0.0211  0.0000  0.0211  0.0000 </r>
       </set>
       <set comment="band 9">
        <r>  0.0000  0.0953  0.2010  0.0844  0.2014  0.0846  0.0734  0.0955  0.0193 </r>
       </set>
       <set comment="band 10">
        <r>  0.0000  0.1585  0.0528  0.1694  0.0529  0.1697  0.0193  0.1588  0.0734 </r>
       </set>
       <set comment="band 11">
        <r>  0.0000  0.0350  0.0813  0.0170  0.0135  0.0028  0.5904  0.0058  0.0549 </r>
       </set>
       <set comment="band 12">
        <r>  0.0000  0.0539  0.0076  0.0719  0.0013  0.0119  0.0549  0.0089  0.5904 </r>
       </set>
      </set>
      <set comment="kpoint 52">
       <set comment="band 1">
        <r>  0.3486  0.0817  0.0817  0.0038  0.0693  0.1521  0.0032  0.0693  0.0097 </r>
       </set>
       <set comment="band 2">
        <r>  0.0172  0.0575  0.0575  0.0811  0.2947  0.0158  0.0166  0.2947  0.0497 </r>
       </set>
       <set comment="band 3">
        <r>  0.0011  0.0023  0.0023  0.0026  0.0619  0.3434  0.1203  0.0619  0.3610 </r>
       </set>
       <set comment="band 4">
        <r>  0.0000  0.0006  0.0006  0.0000  0.1908  0.0000  0.4392  0.1908  0.1464 </r>
       </set>
       <set comment="band 5">
        <r>  0.0000  0.0011  0.0011  0.0000  0.2989  0.0000  0.2853  0.2989  0.0951 </r>
       </set>
       <set comment="band 6">
        <r>  0.0358  0.0258  0.0258  0.0066  0.0071  0.4511  0.1027  0.0071  0.3082 </r>
       </set>
       <set comment="band 7">
        <r>  0.2030  0.0459  0.0459  0.1577  0.1495  0.0937  0.0041  0.1495  0.0122 </r>
       </set>
       <set comment="band 8">
        <r>  0.0468  0.0282  0.0282  0.1760  0.0897  0.0680  0.0326  0.0897  0.0977 </r>
       </set>
       <set comment="band 9">
        <r>  0.0356  0.0985  0.0985  0.0733  0.0022  0.0004  0.0036  0.0022  0.0109 </r>
       </set>
       <set comment="band 10">
        <r>  0.0000  0.1779  0.1779  0.0000  0.0009  0.0000  0.3630  0.0009  0.1210 </r>
       </set>
       <set comment="band 11">
        <r>  0.0000  0.0757  0.0757  0.0000  0.2706  0.0000  0.1900  0.2706  0.0633 </r>
       </set>
       <set comment="band 12">
        <r>  0.0630  0.0091  0.0091  0.0255  0.0157  0.1411  0.0630  0.0157  0.1890 </r>
       </set>
      </set>
      <set comment="kpoint 53">
       <set comment="band 1">
        <r>  0.1662  0.1004  0.1004  0.0015  0.0274  0.3949  0.0092  0.0274  0.0275 </r>
       </set>
       <set comment="band 2">
        <r>  0.0005  0.0310  0.0310  0.0265  0.0663  0.1042  0.1423  0.0663  0.4269 </r>
       </set>
       <set comment="band 3">
        <r>  0.0035  0.0008  0.0008  0.0799  0.3166  0.1169  0.0251  0.3166  0.0752 </r>
       </set>
       <set comment="band 4">
        <r>  0.0000  0.0042  0.0042  0.0000  0.0454  0.0000  0.6503  0.0454  0.2168 </r>
       </set>
       <set comment="band 5">
        <r>  0.0000  0.0003  0.0003  0.0000  0.4454  0.0000  0.0676  0.4454  0.0225 </r>
       </set>
       <set comment="band 6">
        <r>  0.1197  0.0829  0.0829  0.0052  0.0002  0.3884  0.0599  0.0002  0.1798 </r>
       </set>
       <set comment="band 7">
        <r>  0.1061  0.0102  0.0102  0.3498  0.1754  0.0259  0.0072  0.1754  0.0217 </r>
       </set>
       <set comment="band 8">
        <r>  0.2223  0.0462  0.0462  0.1138  0.0373  0.0636  0.0510  0.0373  0.1529 </r>
       </set>
       <set comment="band 9">
        <r>  0.0000  0.2234  0.2234  0.0000  0.0009  0.0000  0.2859  0.0009  0.0953 </r>
       </set>
       <set comment="band 10">
        <r>  0.1039  0.0639  0.0639  0.0048  0.0000  0.1477  0.0224  0.0000  0.0672 </r>
       </set>
       <set comment="band 11">
        <r>  0.0140  0.0001  0.0001  0.0800  0.0492  0.0324  0.0071  0.0492  0.0212 </r>
       </set>
       <set comment="band 12">
        <r>  0.0000  0.0127  0.0127  0.0000  0.3529  0.0000  0.0439  0.3529  0.0146 </r>
       </set>
      </set>
      <set comment="kpoint 54">
       <set comment="band 1">
        <r>  0.0483  0.0007  0.0007  0.0063  0.0101  0.5011  0.0851  0.0101  0.2552 </r>
       </set>
       <set comment="band 2">
        <r>  0.0058  0.0833  0.0833  0.0002  0.0032  0.2622  0.1071  0.0032  0.3214 </r>
       </set>
       <set comment="band 3">
        <r>  0.0013  0.0012  0.0012  0.1551  0.3644  0.0306  0.0014  0.3644  0.0041 </r>
       </set>
       <set comment="band 4">
        <r>  0.0000  0.0058  0.0058  0.0000  0.0365  0.0000  0.6639  0.0365  0.2213 </r>
       </set>
       <set comment="band 5">
        <r>  0.0000  0.0001  0.0001  0.0000  0.4567  0.0000  0.0550  0.4567  0.0183 </r>
       </set>
       <set comment="band 6">
        <r>  0.0736  0.1532  0.1532  0.0708  0.0149  0.2068  0.0404  0.0149  0.1211 </r>
       </set>
       <set comment="band 7">
        <r>  0.1205  0.0084  0.0084  0.3715  0.1635  0.0483  0.0002  0.1635  0.0007 </r>
       </set>
       <set comment="band 8">
        <r>  0.3285  0.0189  0.0189  0.0653  0.0105  0.0345  0.0804  0.0105  0.2412 </r>
       </set>
       <set comment="band 9">
        <r>  0.0000  0.2678  0.2678  0.0000  0.0017  0.0000  0.1656  0.0017  0.0552 </r>
       </set>
       <set comment="band 10">
        <r>  0.1417  0.0261  0.0261  0.0032  0.0000  0.3813  0.0203  0.0000  0.0609 </r>
       </set>
       <set comment="band 11">
        <r>  0.2466  0.0987  0.0987  0.0108  0.0013  0.3314  0.0180  0.0013  0.0540 </r>
       </set>
       <set comment="band 12">
        <r>  0.0000  0.0059  0.0059  0.0000  0.2601  0.0000  0.0332  0.2605  0.0110 </r>
       </set>
      </set>
      <set comment="kpoint 55">
       <set comment="band 1">
        <r>  0.2649  0.0086  0.0881  0.0086  0.1679  0.1441  0.0298  0.1441  0.0000 </r>
       </set>
       <set comment="band 2">
        <r>  0.0124  0.0846  0.0601  0.0846  0.1982  0.0470  0.3272  0.0470  0.0000 </r>
       </set>
       <set comment="band 3">
        <r>  0.0135  0.0096  0.0292  0.0096  0.4382  0.0754  0.2999  0.0754  0.0000 </r>
       </set>
       <set comment="band 4">
        <r>  0.0000  0.0028  0.0000  0.0028  0.0000  0.2238  0.0000  0.2238  0.5156 </r>
       </set>
       <set comment="band 5">
        <r>  0.0000  0.0002  0.0000  0.0002  0.0000  0.2661  0.0000  0.2661  0.4597 </r>
       </set>
       <set comment="band 6">
        <r>  0.0354  0.0316  0.0754  0.0316  0.0944  0.1825  0.3056  0.1825  0.0000 </r>
       </set>
       <set comment="band 7">
        <r>  0.2694  0.0906  0.0134  0.0906  0.1777  0.1139  0.0088  0.1139  0.0000 </r>
       </set>
       <set comment="band 8">
        <r>  0.0030  0.0001  0.0832  0.0001  0.0834  0.0074  0.2691  0.0074  0.0000 </r>
       </set>
       <set comment="band 9">
        <r>  0.0000  0.2417  0.0000  0.2417  0.0000  0.0799  0.0000  0.0799  0.1389 </r>
       </set>
       <set comment="band 10">
        <r>  0.1072  0.0400  0.2510  0.0400  0.1461  0.0060  0.0513  0.0060  0.0000 </r>
       </set>
       <set comment="band 11">
        <r>  0.0198  0.0002  0.0140  0.0002  0.2883  0.0218  0.4236  0.0218  0.0000 </r>
       </set>
       <set comment="band 12">
        <r>  0.0000  0.0539  0.0000  0.0539  0.0000  0.0778  0.0000  0.0778  0.5235 </r>
       </set>
      </set>
      <set comment="kpoint 56">
       <set comment="band 1">
        <r>  0.1402  0.0178  0.0811  0.0064  0.2352  0.2449  0.0633  0.0954  0.0018 </r>
       </set>
       <set comment="band 2">
        <r>  0.0001  0.0748  0.0245  0.0522  0.0996  0.0288  0.4542  0.0256  0.1115 </r>
       </set>
       <set comment="band 3">
        <r>  0.0107  0.0072  0.0453  0.0400  0.3965  0.3286  0.0651  0.0042  0.0390 </r>
       </set>
       <set comment="band 4">
        <r>  0.0000  0.0015  0.0119  0.0023  0.0324  0.0104  0.1480  0.2426  0.5169 </r>
       </set>
       <set comment="band 5">
        <r>  0.0006  0.0004  0.0024  0.0017  0.0868  0.0628  0.0640  0.5476  0.2203 </r>
       </set>
       <set comment="band 6">
        <r>  0.0663  0.0681  0.1556  0.0454  0.0217  0.2982  0.1616  0.0114  0.0714 </r>
       </set>
       <set comment="band 7">
        <r>  0.2685  0.0372  0.0000  0.1758  0.1971  0.0733  0.0122  0.1058  0.0118 </r>
       </set>
       <set comment="band 8">
        <r>  0.0359  0.0954  0.0038  0.1757  0.0903  0.0547  0.1450  0.0184  0.1121 </r>
       </set>
       <set comment="band 9">
        <r>  0.1587  0.0013  0.2668  0.0672  0.0008  0.0198  0.1877  0.0262  0.0294 </r>
       </set>
       <set comment="band 10">
        <r>  0.0043  0.2500  0.0392  0.0329  0.1006  0.0051  0.0010  0.0029  0.0002 </r>
       </set>
       <set comment="band 11">
        <r>  0.0554  0.0202  0.0006  0.0052  0.2634  0.1553  0.0733  0.0371  0.2283 </r>
       </set>
       <set comment="band 12">
        <r>  0.0053  0.0368  0.0191  0.0008  0.0780  0.0713  0.2420  0.0244  0.0376 </r>
       </set>
      </set>
      <set comment="kpoint 57">
       <set comment="band 1">
        <r>  0.0008  0.0726  0.0199  0.0031  0.0003  0.0000  0.4474  0.0000  0.3209 </r>
       </set>
       <set comment="band 2">
        <r>  0.0377  0.0076  0.0768  0.0063  0.0366  0.7343  0.0001  0.0126  0.0113 </r>
       </set>
       <set comment="band 3">
        <r>  0.0007  0.0010  0.0051  0.1266  0.6744  0.0514  0.0048  0.0618  0.0011 </r>
       </set>
       <set comment="band 4">
        <r>  0.0078  0.0010  0.0074  0.0015  0.0004  0.0035  0.3879  0.0276  0.5294 </r>
       </set>
       <set comment="band 5">
        <r>  0.0007  0.0000  0.0000  0.0026  0.1101  0.0060  0.0111  0.8438  0.0146 </r>
       </set>
       <set comment="band 6">
        <r>  0.0648  0.0997  0.2367  0.0578  0.0235  0.2143  0.1028  0.0006  0.0542 </r>
       </set>
       <set comment="band 7">
        <r>  0.1139  0.0000  0.0211  0.3854  0.2402  0.0429  0.0003  0.0701  0.0046 </r>
       </set>
       <set comment="band 8">
        <r>  0.2633  0.0816  0.0001  0.0740  0.0235  0.0329  0.1114  0.0038  0.2115 </r>
       </set>
       <set comment="band 9">
        <r>  0.1803  0.0758  0.2501  0.0032  0.0004  0.0659  0.1895  0.0020  0.0065 </r>
       </set>
       <set comment="band 10">
        <r>  0.0341  0.1552  0.0348  0.0022  0.0003  0.3147  0.0027  0.0004  0.0716 </r>
       </set>
       <set comment="band 11">
        <r>  0.0052  0.0188  0.0004  0.0466  0.4245  0.0345  0.0124  0.0145  0.0170 </r>
       </set>
       <set comment="band 12">
        <r>  0.1255  0.2573  0.0250  0.0005  0.0425  0.2635  0.0327  0.0001  0.0532 </r>
       </set>
      </set>
      <set comment="kpoint 58">
       <set comment="band 1">
        <r>  0.0891  0.0024  0.0394  0.0024  0.4784  0.0823  0.1350  0.0823  0.0000 </r>
       </set>
       <set comment="band 2">
        <r>  0.0001  0.0744  0.0088  0.0744  0.1138  0.0089  0.5756  0.0089  0.0000 </r>
       </set>
       <set comment="band 3">
        <r>  0.0091  0.0086  0.1185  0.0086  0.2162  0.2607  0.0459  0.2607  0.0000 </r>
       </set>
       <set comment="band 4">
        <r>  0.0000  0.0050  0.0000  0.0050  0.0000  0.1382  0.0000  0.1382  0.6824 </r>
       </set>
       <set comment="band 5">
        <r>  0.0000  0.0002  0.0000  0.0002  0.0000  0.3543  0.0000  0.3543  0.2812 </r>
       </set>
       <set comment="band 6">
        <r>  0.0081  0.0923  0.2234  0.0923  0.0671  0.0923  0.2006  0.0923  0.0000 </r>
       </set>
       <set comment="band 7">
        <r>  0.3171  0.0656  0.0410  0.0656  0.1893  0.0987  0.0070  0.0987  0.0000 </r>
       </set>
       <set comment="band 8">
        <r>  0.1573  0.0144  0.1974  0.0144  0.0242  0.0265  0.3173  0.0265  0.0000 </r>
       </set>
       <set comment="band 9">
        <r>  0.0000  0.2640  0.0000  0.2640  0.0000  0.0150  0.0000  0.0150  0.2031 </r>
       </set>
       <set comment="band 10">
        <r>  0.1368  0.0293  0.0308  0.0293  0.3419  0.0001  0.0483  0.0001  0.0000 </r>
       </set>
       <set comment="band 11">
        <r>  0.0005  0.0552  0.0322  0.0552  0.3600  0.0048  0.0220  0.0048  0.0000 </r>
       </set>
       <set comment="band 12">
        <r>  0.0000  0.0298  0.0000  0.0298  0.0000  0.1904  0.0000  0.1904  0.2424 </r>
       </set>
      </set>
      <set comment="kpoint 59">
       <set comment="band 1">
        <r>  0.2452  0.0092  0.0092  0.0092  0.2042  0.2042  0.0000  0.2042  0.0000 </r>
       </set>
       <set comment="band 2">
        <r>  0.0000  0.0000  0.0001  0.0000  0.1671  0.1462  0.3338  0.1018  0.2190 </r>
       </set>
       <set comment="band 3">
        <r>  0.0000  0.0001  0.0000  0.0000  0.1097  0.1305  0.2190  0.1749  0.3338 </r>
       </set>
       <set comment="band 4">
        <r>  0.0286  0.1977  0.1977  0.1977  0.0426  0.0426  0.0000  0.0426  0.0000 </r>
       </set>
       <set comment="band 5">
        <r>  0.0000  0.0003  0.0001  0.0001  0.0756  0.1535  0.0838  0.3403  0.3370 </r>
       </set>
       <set comment="band 6">
        <r>  0.0000  0.0000  0.0002  0.0002  0.3040  0.2261  0.3370  0.0393  0.0838 </r>
       </set>
       <set comment="band 7">
        <r>  0.3629  0.0252  0.0252  0.0252  0.1599  0.1599  0.0000  0.1599  0.0000 </r>
       </set>
       <set comment="band 8">
        <r>  0.0009  0.0096  0.0096  0.0096  0.0027  0.0027  0.0000  0.0027  0.0000 </r>
       </set>
       <set comment="band 9">
        <r>  0.0000  0.3475  0.1644  0.0404  0.0228  0.0056  0.0084  0.0481  0.0104 </r>
       </set>
       <set comment="band 10">
        <r>  0.0000  0.0207  0.2038  0.3278  0.0282  0.0454  0.0104  0.0029  0.0084 </r>
       </set>
       <set comment="band 11">
        <r>  0.0000  0.0192  0.0064  0.0036  0.0652  0.0372  0.2467  0.1965  0.5077 </r>
       </set>
       <set comment="band 12">
        <r>  0.0000  0.0003  0.0131  0.0159  0.1341  0.1621  0.5077  0.0027  0.2467 </r>
       </set>
      </set>
      <set comment="kpoint 60">
       <set comment="band 1">
        <r>  0.1801  0.0105  0.0105  0.0103  0.2046  0.2811  0.0000  0.2046  0.0000 </r>
       </set>
       <set comment="band 2">
        <r>  0.0002  0.0565  0.0565  0.0266  0.0078  0.0567  0.1686  0.0078  0.5057 </r>
       </set>
       <set comment="band 3">
        <r>  0.0009  0.0789  0.0789  0.1087  0.1477  0.3187  0.0012  0.1477  0.0037 </r>
       </set>
       <set comment="band 4">
        <r>  0.0000  0.0016  0.0016  0.0000  0.1824  0.0000  0.4492  0.1824  0.1497 </r>
       </set>
       <set comment="band 5">
        <r>  0.0000  0.0002  0.0002  0.0000  0.3100  0.0000  0.2768  0.3100  0.0923 </r>
       </set>
       <set comment="band 6">
        <r>  0.0075  0.0927  0.0927  0.0905  0.0331  0.2526  0.0739  0.0331  0.2216 </r>
       </set>
       <set comment="band 7">
        <r>  0.3951  0.0000  0.0000  0.0440  0.1678  0.1499  0.0005  0.1678  0.0016 </r>
       </set>
       <set comment="band 8">
        <r>  0.0269  0.0076  0.0076  0.1668  0.0421  0.0497  0.0555  0.0421  0.1666 </r>
       </set>
       <set comment="band 9">
        <r>  0.0715  0.0835  0.0835  0.1421  0.0068  0.0418  0.0000  0.0068  0.0001 </r>
       </set>
       <set comment="band 10">
        <r>  0.0000  0.2329  0.2329  0.0000  0.0209  0.0000  0.2027  0.0209  0.0676 </r>
       </set>
       <set comment="band 11">
        <r>  0.0000  0.0579  0.0579  0.0000  0.1847  0.0000  0.3243  0.1847  0.1081 </r>
       </set>
       <set comment="band 12">
        <r>  0.0571  0.0003  0.0003  0.0009  0.0000  0.3067  0.1069  0.0000  0.3206 </r>
       </set>
      </set>
     </set>
    </set>
   </array>
  </projected>
 </calculation>
 <structure name="finalpos" >
  <crystal>
   <varray name="basis" >
    <v>       0.00000000       1.73455502       1.73455502 </v>
    <v>       1.73455502       0.00000000       1.73455502 </v>
    <v>       1.73455502       1.73455502       0.00000000 </v>
   </varray>
   <i name="volume">     10.43744581 </i>
   <varray name="rec_basis" >
    <v>      -0.28825837       0.28825837       0.28825837 </v>
    <v>       0.28825837      -0.28825837       0.28825837 </v>
    <v>       0.28825837       0.28825837      -0.28825837 </v>
   </varray>
  </crystal>
  <varray name="positions" >
   <v>       0.00000000       0.00000000       0.00000000 </v>
  </varray>
 </structure>
</modeling>
