Co-fcc                                  
   1.00000000000000     
     0.000000    1.783031    1.783031
     1.783031    0.000000    1.783031
     1.783031    1.783031    0.000000
   Co
     1
Direct
  0.000000  0.000000  0.000000
 
   32   32   32
  107.60      105.14      98.108      87.454      74.491      60.600      47.009      34.674      24.261      16.144    
  10.413      6.8625      5.0193      4.2243      3.8142      3.5710      3.4911      3.5710      3.8142      4.2243    
  5.0193      6.8625      10.413      16.144      24.261      34.674      47.009      60.600      74.491      87.454    
  98.108      105.14      105.14      100.40      91.564      79.790      66.427      52.778      39.928      28.679    
  19.546      12.760      8.2605      5.7025      4.5074      3.9803      3.6576      3.4988      3.4988      3.6576    
  3.9803      4.5074      5.7025      8.2605      12.760      19.546      28.679      39.928      52.778      66.427    
  79.790      91.564      100.40      105.14      98.108      91.564      81.640      69.543      56.558      43.837    
  32.294      22.569      15.024      9.7407      6.5084      4.8575      4.1440      3.7522      3.5204      3.4445    
  3.5204      3.7521      4.1440      4.8575      6.5084      9.7407      15.024      22.569      32.294      43.837    
  56.558      69.543      81.640      91.564      98.108      100.40      87.454      79.790      69.543      57.875    
  45.925      34.667      24.836      16.913      11.104      7.3343      5.2550      4.3061      3.8461      3.5517    
  3.4082      3.4081      3.5517      3.8461      4.3061      5.2550      7.3343      11.104      16.913      24.836    
  34.667      45.925      57.875      69.543      79.790      87.454      91.564      91.564      74.491      66.427    
  56.558      45.925      35.493      26.051      18.165      12.150      8.0523      5.6450      4.4696      3.9309    
  3.5870      3.3872      3.3223      3.3872      3.5870      3.9309      4.4696      5.6450      8.0523      12.150    
  18.165      26.051      35.493      45.925      56.558      66.427      74.491      79.790      81.640      79.790    
  60.600      52.778      43.837      34.667      26.051      18.604      12.718      8.5409      5.9580      4.6168    
  3.9995      3.6205      3.3774      3.2608      3.2608      3.3774      3.6205      3.9995      4.6168      5.9580    
  8.5409      12.718      18.604      26.051      34.667      43.837      52.778      60.600      66.427      69.543    
  69.543      66.427      47.009      39.928      32.294      24.836      18.165      12.718      8.7140      6.1324    
  4.7205      4.0479      3.6475      3.3743      3.2196      3.1699      3.2196      3.3743      3.6475      4.0479    
  4.7205      6.1324      8.7140      12.718      18.165      24.836      32.294      39.928      47.009      52.778    
  56.558      57.875      56.558      52.778      34.674      28.679      22.569      16.913      12.150      8.5409    
  6.1324      4.7579      4.0736      3.6647      3.3743      3.1941      3.1093      3.1093      3.1941      3.3743    
  3.6647      4.0736      4.7579      6.1324      8.5409      12.150      16.913      22.569      28.679      34.674    
  39.928      43.837      45.925      45.925      43.837      39.928      24.261      19.546      15.024      11.104    
  8.0523      5.9580      4.7205      4.0736      3.6706      3.3749      3.1805      3.0730      3.0389      3.0730    
  3.1805      3.3749      3.6706      4.0736      4.7205      5.9580      8.0523      11.104      15.024      19.546    
  24.261      28.679      32.294      34.667      35.493      34.667      32.294      28.679      16.144      12.760    
  9.7407      7.3343      5.6450      4.6168      4.0479      3.6647      3.3749      3.1763      3.0562      3.0005    
  3.0005      3.0562      3.1763      3.3749      3.6647      4.0479      4.6168      5.6449      7.3343      9.7407    
  12.760      16.144      19.546      22.569      24.836      26.051      26.051      24.836      22.569      19.546    
  10.413      8.2605      6.5084      5.2550      4.4696      3.9995      3.6475      3.3743      3.1805      3.0562    
  2.9884      2.9671      2.9884      3.0562      3.1805      3.3743      3.6475      3.9995      4.4696      5.2550    
  6.5084      8.2604      10.413      12.760      15.024      16.913      18.165      18.604      18.165      16.913    
  15.024      12.760      6.8625      5.7025      4.8575      4.3061      3.9309      3.6205      3.3743      3.1941    
  3.0730      3.0005      2.9671      2.9671      3.0005      3.0730      3.1941      3.3744      3.6205      3.9309    
  4.3061      4.8575      5.7025      6.8625      8.2604      9.7407      11.104      12.150      12.718      12.718    
  12.150      11.104      9.7407      8.2605      5.0193      4.5074      4.1440      3.8461      3.5870      3.3774    
  3.2196      3.1093      3.0389      3.0005      2.9884      3.0005      3.0389      3.1093      3.2196      3.3774    
  3.5870      3.8461      4.1440      4.5074      5.0193      5.7025      6.5084      7.3343      8.0523      8.5409    
  8.7140      8.5409      8.0523      7.3343      6.5084      5.7025      4.2243      3.9803      3.7522      3.5517    
  3.3872      3.2608      3.1699      3.1093      3.0730      3.0562      3.0562      3.0730      3.1093      3.1699    
  3.2608      3.3872      3.5517      3.7522      3.9803      4.2243      4.5074      4.8575      5.2550      5.6449    
  5.9580      6.1324      6.1324      5.9580      5.6450      5.2550      4.8575      4.5074      3.8142      3.6576    
  3.5204      3.4082      3.3223      3.2608      3.2196      3.1941      3.1805      3.1763      3.1805      3.1941    
  3.2196      3.2608      3.3223      3.4081      3.5204      3.6576      3.8142      3.9803      4.1440      4.3061    
  4.4696      4.6168      4.7205      4.7579      4.7205      4.6168      4.4696      4.3061      4.1440      3.9803    
  3.5710      3.4988      3.4445      3.4081      3.3872      3.3774      3.3743      3.3743      3.3749      3.3749    
  3.3743      3.3744      3.3774      3.3872      3.4081      3.4444      3.4988      3.5710      3.6576      3.7522    
  3.8461      3.9309      3.9995      4.0479      4.0736      4.0736      4.0479      3.9995      3.9309      3.8461    
  3.7521      3.6576      3.4911      3.4988      3.5204      3.5517      3.5870      3.6205      3.6475      3.6647    
  3.6706      3.6647      3.6475      3.6205      3.5870      3.5517      3.5204      3.4988      3.4910      3.4988    
  3.5204      3.5517      3.5870      3.6205      3.6475      3.6647      3.6706      3.6647      3.6475      3.6205    
  3.5870      3.5517      3.5204      3.4988      3.5710      3.6576      3.7521      3.8461      3.9309      3.9995    
  4.0479      4.0736      4.0736      4.0479      3.9995      3.9309      3.8461      3.7522      3.6576      3.5710    
  3.4988      3.4444      3.4081      3.3872      3.3774      3.3744      3.3743      3.3749      3.3749      3.3743    
  3.3743      3.3774      3.3872      3.4081      3.4445      3.4988      3.8142      3.9803      4.1440      4.3061    
  4.4696      4.6168      4.7205      4.7579      4.7205      4.6168      4.4696      4.3061      4.1440      3.9803    
  3.8142      3.6576      3.5204      3.4081      3.3223      3.2608      3.2196      3.1941      3.1805      3.1763    
  3.1805      3.1941      3.2196      3.2608      3.3223      3.4082      3.5204      3.6576      4.2243      4.5074    
  4.8575      5.2550      5.6450      5.9580      6.1324      6.1324      5.9580      5.6449      5.2550      4.8575    
  4.5074      4.2243      3.9803      3.7522      3.5517      3.3872      3.2608      3.1699      3.1093      3.0730    
  3.0562      3.0562      3.0730      3.1093      3.1699      3.2608      3.3872      3.5517      3.7522      3.9803    
  5.0193      5.7025      6.5084      7.3343      8.0523      8.5409      8.7140      8.5409      8.0523      7.3343    
  6.5084      5.7025      5.0193      4.5074      4.1440      3.8461      3.5870      3.3774      3.2196      3.1093    
  3.0389      3.0005      2.9884      3.0005      3.0389      3.1093      3.2196      3.3774      3.5870      3.8461    
  4.1440      4.5074      6.8625      8.2605      9.7407      11.104      12.150      12.718      12.718      12.150    
  11.104      9.7407      8.2604      6.8625      5.7025      4.8575      4.3061      3.9309      3.6205      3.3744    
  3.1941      3.0730      3.0005      2.9671      2.9671      3.0005      3.0730      3.1941      3.3743      3.6205    
  3.9309      4.3061      4.8575      5.7025      10.413      12.760      15.024      16.913      18.165      18.604    
  18.165      16.913      15.024      12.760      10.413      8.2604      6.5084      5.2550      4.4696      3.9995    
  3.6475      3.3743      3.1805      3.0562      2.9884      2.9671      2.9884      3.0562      3.1805      3.3743    
  3.6475      3.9995      4.4696      5.2550      6.5084      8.2605      16.144      19.546      22.569      24.836    
  26.051      26.051      24.836      22.569      19.546      16.144      12.760      9.7407      7.3343      5.6449    
  4.6168      4.0479      3.6647      3.3749      3.1763      3.0562      3.0005      3.0005      3.0562      3.1763    
  3.3749      3.6647      4.0479      4.6168      5.6450      7.3343      9.7407      12.760      24.261      28.679    
  32.294      34.667      35.493      34.667      32.294      28.679      24.261      19.546      15.024      11.104    
  8.0523      5.9580      4.7205      4.0736      3.6706      3.3749      3.1805      3.0730      3.0389      3.0730    
  3.1805      3.3749      3.6706      4.0736      4.7205      5.9580      8.0523      11.104      15.024      19.546    
  34.674      39.928      43.837      45.925      45.925      43.837      39.928      34.674      28.679      22.569    
  16.913      12.150      8.5409      6.1324      4.7579      4.0736      3.6647      3.3743      3.1941      3.1093    
  3.1093      3.1941      3.3743      3.6647      4.0736      4.7579      6.1324      8.5409      12.150      16.913    
  22.569      28.679      47.009      52.778      56.558      57.875      56.558      52.778      47.009      39.928    
  32.294      24.836      18.165      12.718      8.7140      6.1324      4.7205      4.0479      3.6475      3.3743    
  3.2196      3.1699      3.2196      3.3743      3.6475      4.0479      4.7205      6.1324      8.7140      12.718    
  18.165      24.836      32.294      39.928      60.600      66.427      69.543      69.543      66.427      60.600    
  52.778      43.837      34.667      26.051      18.604      12.718      8.5409      5.9580      4.6168      3.9995    
  3.6205      3.3774      3.2608      3.2608      3.3774      3.6205      3.9995      4.6168      5.9580      8.5409    
  12.718      18.604      26.051      34.667      43.837      52.778      74.491      79.790      81.640      79.790    
  74.491      66.427      56.558      45.925      35.493      26.051      18.165      12.150      8.0523      5.6450    
  4.4696      3.9309      3.5870      3.3872      3.3223      3.3872      3.5870      3.9309      4.4696      5.6450    
  8.0523      12.150      18.165      26.051      35.493      45.925      56.558      66.427      87.454      91.564    
  91.564      87.454      79.790      69.543      57.875      45.925      34.667      24.836      16.913      11.104    
  7.3343      5.2550      4.3061      3.8461      3.5517      3.4081      3.4082      3.5517      3.8461      4.3061    
  5.2550      7.3343      11.104      16.913      24.836      34.667      45.925      57.875      69.543      79.790    
  98.108      100.40      98.108      91.564      81.640      69.543      56.558      43.837      32.294      22.569    
  15.024      9.7407      6.5084      4.8575      4.1440      3.7521      3.5204      3.4445      3.5204      3.7522    
  4.1440      4.8575      6.5084      9.7407      15.024      22.569      32.294      43.837      56.558      69.543    
  81.640      91.564      105.14      105.14      100.40      91.564      79.790      66.427      52.778      39.928    
  28.679      19.546      12.760      8.2605      5.7025      4.5074      3.9803      3.6576      3.4988      3.4988    
  3.6576      3.9803      4.5074      5.7025      8.2605      12.760      19.546      28.679      39.928      52.778    
  66.427      79.790      91.564      100.40      105.14      100.40      91.564      79.790      66.427      52.778    
  39.928      28.679      19.546      12.760      8.2605      5.7025      4.5074      3.9803      3.6576      3.4988    
  3.4988      3.6576      3.9803      4.5074      5.7025      8.2605      12.760      19.546      28.679      39.928    
  52.778      66.427      79.790      91.564      100.40      105.14      100.40      93.703      83.555      71.189    
  57.917      44.913      33.108      23.150      15.410      9.9729      6.6324      4.9169      4.1766      3.7783    
  3.5424      3.4651      3.5424      3.7783      4.1766      4.9169      6.6324      9.9729      15.410      23.150    
  33.108      44.913      57.917      71.189      83.555      93.703      100.40      102.74      91.564      83.555    
  72.851      60.665      48.184      36.415      26.119      17.793      11.658      7.6452      5.4090      4.3818    
  3.9009      3.5965      3.4475      3.4475      3.5965      3.9009      4.3818      5.4090      7.6452      11.658    
  17.793      26.119      36.415      48.184      60.665      72.851      83.555      91.564      95.861      95.861    
  79.790      71.189      60.665      49.323      38.183      28.075      19.595      13.081      8.5980      5.9267    
  4.6040      4.0154      3.6547      3.4438      3.3752      3.4438      3.6547      4.0154      4.6040      5.9267    
  8.5980      13.081      19.595      28.075      38.183      49.323      60.665      71.189      79.790      85.444    
  87.418      85.444      66.427      57.917      48.184      38.183      28.758      20.564      14.033      9.3397    
  6.3865      4.8226      4.1134      3.7101      3.4496      3.3241      3.3241      3.4496      3.7101      4.1134    
  4.8226      6.3865      9.3397      14.033      20.564      28.758      38.183      48.184      57.917      66.427    
  72.767      76.157      76.157      72.767      52.778      44.913      36.415      28.075      20.564      14.368    
  9.7456      6.7040      5.0002      4.1922      3.7567      3.4600      3.2906      3.2361      3.2906      3.4600    
  3.7567      4.1922      5.0002      6.7040      9.7456      14.368      20.564      28.075      36.415      44.913    
  52.778      59.178      63.370      64.830      63.370      59.178      39.928      33.108      26.119      19.595    
  14.033      9.7456      6.8173      5.1002      4.2453      3.7900      3.4706      3.2705      3.1758      3.1758    
  3.2705      3.4706      3.7900      4.2453      5.1002      6.8173      9.7456      14.033      19.595      26.119    
  33.108      39.928      45.883      50.307      52.667      52.667      50.307      45.883      28.679      23.150    
  17.793      13.081      9.3397      6.7040      5.1002      4.2643      3.8071      3.4782      3.2596      3.1378    
  3.0991      3.1378      3.2596      3.4782      3.8071      4.2643      5.1002      6.7040      9.3397      13.081    
  17.793      23.150      28.679      33.823      38.015      40.758      41.712      40.758      38.015      33.823    
  19.546      15.410      11.658      8.5980      6.3865      5.0002      4.2453      3.8071      3.4809      3.2549    
  3.1173      3.0534      3.0534      3.1173      3.2549      3.4809      3.8071      4.2454      5.0002      6.3865    
  8.5980      11.658      15.410      19.546      23.652      27.271      29.970      31.412      31.412      29.970    
  27.271      23.652      12.760      9.9729      7.6452      5.9267      4.8226      4.1922      3.7900      3.4782    
  3.2549      3.1109      3.0323      3.0075      3.0323      3.1109      3.2549      3.4782      3.7900      4.1922    
  4.8226      5.9267      7.6451      9.9728      12.760      15.739      18.573      20.914      22.457      22.995    
  22.457      20.914      18.573      15.739      8.2605      6.6324      5.4090      4.6040      4.1134      3.7567    
  3.4706      3.2596      3.1173      3.0323      2.9931      2.9931      3.0323      3.1173      3.2596      3.4706    
  3.7568      4.1134      4.6040      5.4090      6.6323      8.2604      10.167      12.142      13.931      15.290    
  16.022      16.022      15.290      13.931      12.142      10.167      5.7025      4.9169      4.3818      4.0154    
  3.7101      3.4600      3.2705      3.1378      3.0534      3.0075      2.9931      3.0075      3.0534      3.1378    
  3.2705      3.4601      3.7102      4.0154      4.3818      4.9169      5.7025      6.7301      7.9079      9.0861    
  10.092      10.769      11.008      10.769      10.092      9.0861      7.9079      6.7301      4.5074      4.1766    
  3.9009      3.6547      3.4496      3.2906      3.1758      3.0991      3.0534      3.0323      3.0323      3.0534    
  3.0991      3.1758      3.2906      3.4496      3.6547      3.9009      4.1766      4.5074      4.9555      5.5250    
  6.1615      6.7724      7.2543      7.5200      7.5200      7.2543      6.7724      6.1615      5.5250      4.9555    
  3.9803      3.7783      3.5965      3.4438      3.3241      3.2361      3.1758      3.1378      3.1173      3.1109    
  3.1173      3.1378      3.1758      3.2361      3.3241      3.4438      3.5965      3.7783      3.9803      4.1903    
  4.4217      4.6914      4.9788      5.2388      5.4208      5.4862      5.4208      5.2388      4.9788      4.6914    
  4.4217      4.1902      3.6576      3.5424      3.4475      3.3752      3.3241      3.2906      3.2705      3.2596    
  3.2549      3.2549      3.2596      3.2705      3.2906      3.3241      3.3752      3.4475      3.5424      3.6576    
  3.7871      3.9215      4.0499      4.1669      4.2734      4.3584      4.4062      4.4062      4.3584      4.2734    
  4.1669      4.0499      3.9215      3.7871      3.4988      3.4651      3.4475      3.4438      3.4496      3.4600    
  3.4706      3.4782      3.4809      3.4782      3.4706      3.4601      3.4496      3.4438      3.4475      3.4651    
  3.4988      3.5481      3.6093      3.6762      3.7416      3.7985      3.8420      3.8689      3.8780      3.8689    
  3.8420      3.7985      3.7416      3.6762      3.6093      3.5481      3.4988      3.5424      3.5965      3.6547    
  3.7101      3.7567      3.7900      3.8071      3.8071      3.7900      3.7568      3.7102      3.6547      3.5965    
  3.5424      3.4988      3.4696      3.4561      3.4564      3.4664      3.4813      3.4962      3.5079      3.5141    
  3.5141      3.5079      3.4962      3.4812      3.4664      3.4564      3.4561      3.4696      3.6576      3.7783    
  3.9009      4.0154      4.1134      4.1922      4.2453      4.2643      4.2454      4.1922      4.1134      4.0154    
  3.9009      3.7783      3.6576      3.5481      3.4561      3.3846      3.3330      3.2985      3.2771      3.2648    
  3.2586      3.2567      3.2586      3.2648      3.2771      3.2985      3.3330      3.3846      3.4561      3.5481    
  3.9803      4.1766      4.3818      4.6040      4.8226      5.0002      5.1002      5.1002      5.0002      4.8226    
  4.6040      4.3818      4.1766      3.9803      3.7871      3.6093      3.4564      3.3330      3.2394      3.1727    
  3.1283      3.1016      3.0893      3.0893      3.1016      3.1283      3.1727      3.2394      3.3330      3.4564    
  3.6093      3.7871      4.5074      4.9169      5.4090      5.9267      6.3865      6.7040      6.8173      6.7040    
  6.3865      5.9267      5.4090      4.9169      4.5074      4.1903      3.9215      3.6762      3.4664      3.2985    
  3.1727      3.0847      3.0282      2.9973      2.9875      2.9973      3.0282      3.0847      3.1727      3.2985    
  3.4664      3.6762      3.9215      4.1902      5.7025      6.6324      7.6452      8.5980      9.3397      9.7456    
  9.7456      9.3397      8.5980      7.6451      6.6323      5.7025      4.9555      4.4217      4.0499      3.7416    
  3.4813      3.2771      3.1283      3.0282      2.9682      2.9404      2.9404      2.9682      3.0282      3.1283    
  3.2771      3.4813      3.7416      4.0499      4.4217      4.9555      8.2605      9.9729      11.658      13.081    
  14.033      14.368      14.033      13.081      11.658      9.9728      8.2604      6.7301      5.5250      4.6914    
  4.1669      3.7985      3.4962      3.2648      3.1016      2.9973      2.9404      2.9225      2.9404      2.9973    
  3.1016      3.2648      3.4962      3.7985      4.1669      4.6914      5.5250      6.7301      12.760      15.410    
  17.793      19.595      20.564      20.564      19.595      17.793      15.410      12.760      10.167      7.9079    
  6.1615      4.9788      4.2734      3.8420      3.5079      3.2586      3.0893      2.9875      2.9404      2.9404    
  2.9875      3.0893      3.2586      3.5079      3.8420      4.2734      4.9788      6.1615      7.9079      10.167    
  19.546      23.150      26.119      28.075      28.758      28.075      26.119      23.150      19.546      15.739    
  12.142      9.0861      6.7724      5.2388      4.3584      3.8689      3.5141      3.2567      3.0893      2.9973    
  2.9682      2.9973      3.0893      3.2567      3.5141      3.8689      4.3584      5.2388      6.7724      9.0861    
  12.142      15.739      28.679      33.108      36.415      38.183      38.183      36.415      33.108      28.679    
  23.652      18.573      13.931      10.092      7.2543      5.4208      4.4062      3.8780      3.5141      3.2586    
  3.1016      3.0282      3.0282      3.1016      3.2586      3.5141      3.8780      4.4062      5.4208      7.2543    
  10.092      13.931      18.573      23.652      39.928      44.913      48.184      49.323      48.184      44.913    
  39.928      33.823      27.271      20.914      15.290      10.769      7.5200      5.4862      4.4062      3.8689    
  3.5079      3.2648      3.1283      3.0847      3.1283      3.2648      3.5079      3.8689      4.4062      5.4862    
  7.5200      10.769      15.290      20.914      27.271      33.823      52.778      57.917      60.665      60.665    
  57.917      52.778      45.883      38.015      29.970      22.457      16.022      11.008      7.5200      5.4208    
  4.3584      3.8420      3.4962      3.2771      3.1727      3.1727      3.2771      3.4962      3.8420      4.3584    
  5.4208      7.5200      11.008      16.022      22.457      29.970      38.015      45.883      66.427      71.189    
  72.851      71.189      66.427      59.178      50.307      40.758      31.412      22.995      16.022      10.769    
  7.2543      5.2388      4.2734      3.7985      3.4812      3.2985      3.2394      3.2985      3.4813      3.7985    
  4.2734      5.2388      7.2543      10.769      16.022      22.995      31.412      40.758      50.307      59.178    
  79.790      83.555      83.555      79.790      72.767      63.370      52.667      41.712      31.412      22.457    
  15.290      10.092      6.7724      4.9788      4.1669      3.7416      3.4664      3.3330      3.3330      3.4664    
  3.7416      4.1669      4.9788      6.7724      10.092      15.290      22.457      31.412      41.712      52.667    
  63.370      72.767      91.564      93.703      91.564      85.444      76.157      64.830      52.667      40.758    
  29.970      20.914      13.931      9.0861      6.1615      4.6914      4.0499      3.6762      3.4564      3.3846    
  3.4564      3.6762      4.0499      4.6914      6.1615      9.0861      13.931      20.914      29.970      40.758    
  52.667      64.830      76.157      85.444      100.40      100.40      95.861      87.418      76.157      63.370    
  50.307      38.015      27.271      18.573      12.142      7.9079      5.5250      4.4217      3.9215      3.6093    
  3.4561      3.4561      3.6093      3.9215      4.4217      5.5250      7.9079      12.142      18.573      27.271    
  38.015      50.307      63.370      76.157      87.418      95.861      105.14      102.74      95.861      85.444    
  72.767      59.178      45.883      33.823      23.652      15.739      10.167      6.7301      4.9555      4.1902    
  3.7871      3.5481      3.4696      3.5481      3.7871      4.1902      4.9555      6.7301      10.167      15.739    
  23.652      33.823      45.883      59.178      72.767      85.444      95.861      102.74      98.108      91.564    
  81.640      69.543      56.558      43.837      32.294      22.569      15.024      9.7407      6.5084      4.8575    
  4.1440      3.7522      3.5204      3.4445      3.5204      3.7521      4.1440      4.8575      6.5084      9.7407    
  15.024      22.569      32.294      43.837      56.558      69.543      81.640      91.564      98.108      100.40    
  91.564      83.555      72.851      60.665      48.184      36.415      26.119      17.793      11.658      7.6452    
  5.4090      4.3818      3.9009      3.5965      3.4475      3.4475      3.5965      3.9009      4.3818      5.4090    
  7.6452      11.658      17.793      26.119      36.415      48.184      60.665      72.851      83.555      91.564    
  95.861      95.861      81.640      72.851      62.097      50.509      39.123      28.784      20.097      13.410    
  8.7920      6.0276      4.6520      4.0444      3.6779      3.4633      3.3934      3.4633      3.6779      4.0444    
  4.6520      6.0276      8.7920      13.410      20.097      28.784      39.123      50.509      62.097      72.851    
  81.640      87.418      89.435      87.418      69.543      60.665      50.509      40.068      30.213      21.624    
  14.749      9.7785      6.6247      4.9373      4.1738      3.7571      3.4875      3.3572      3.3572      3.4875    
  3.7571      4.1738      4.9373      6.6247      9.7785      14.749      21.624      30.213      40.068      50.509    
  60.665      69.543      76.157      79.695      79.695      76.157      56.558      48.184      39.123      30.213    
  22.158      15.474      10.446      7.0980      5.1950      4.2882      3.8264      3.5147      3.3358      3.2781    
  3.3358      3.5147      3.8264      4.2882      5.1950      7.0980      10.446      15.474      22.158      30.213    
  39.123      48.184      56.558      63.370      67.830      69.384      67.830      63.370      43.837      36.415    
  28.784      21.624      15.474      10.682      7.3598      5.3755      4.3778      3.8798      3.5397      3.3251    
  3.2231      3.2231      3.3251      3.5397      3.8798      4.3778      5.3755      7.3598      10.682      15.474    
  21.624      28.784      36.415      43.837      50.307      55.108      57.668      57.668      55.108      50.307    
  32.294      26.119      20.097      14.749      10.446      7.3598      5.4405      4.4278      3.9132      3.5585    
  3.3208      3.1876      3.1452      3.1876      3.3208      3.5585      3.9132      4.4278      5.4404      7.3598    
  10.446      14.749      20.097      26.119      32.294      38.015      42.663      45.700      46.756      45.700    
  42.663      38.015      22.569      17.793      13.410      9.7785      7.0980      5.3755      4.4278      3.9245    
  3.5685      3.3195      3.1670      3.0958      3.0958      3.1670      3.3195      3.5685      3.9245      4.4278    
  5.3755      7.0980      9.7785      13.410      17.793      22.569      27.271      31.391      34.453      36.086    
  36.086      34.453      31.391      27.271      15.024      11.658      8.7920      6.6247      5.1950      4.3778    
  3.9132      3.5685      3.3193      3.1577      3.0691      3.0412      3.0691      3.1577      3.3193      3.5685    
  3.9132      4.3778      5.1950      6.6247      8.7920      11.658      15.024      18.573      21.916      24.657    
  26.457      27.083      26.457      24.657      21.916      18.573      9.7407      7.6452      6.0276      4.9373    
  4.2882      3.8798      3.5585      3.3195      3.1577      3.0607      3.0160      3.0160      3.0607      3.1577    
  3.3195      3.5585      3.8798      4.2882      4.9373      6.0276      7.6451      9.7407      12.142      14.587    
  16.778      18.427      19.313      19.313      18.427      16.778      14.587      12.142      6.5084      5.4090    
  4.6520      4.1738      3.8264      3.5397      3.3208      3.1670      3.0691      3.0160      2.9994      3.0160    
  3.0691      3.1670      3.3208      3.5397      3.8264      4.1738      4.6520      5.4090      6.5084      7.9079    
  9.4732      11.010      12.304      13.168      13.471      13.168      12.304      11.010      9.4732      7.9079    
  4.8575      4.3818      4.0444      3.7571      3.5147      3.3251      3.1876      3.0958      3.0412      3.0160    
  3.0160      3.0412      3.0958      3.1876      3.3251      3.5147      3.7571      4.0444      4.3818      4.8575    
  5.5250      6.3592      7.2690      8.1247      8.7898      9.1534      9.1534      8.7898      8.1247      7.2690    
  6.3592      5.5250      4.1440      3.9009      3.6779      3.4875      3.3358      3.2231      3.1452      3.0958    
  3.0691      3.0607      3.0691      3.0958      3.1452      3.2231      3.3358      3.4875      3.6779      3.9009    