   1   1   1   0
  0.1133723E+02  0.2521587E-09  0.2521587E-09  0.2521587E-09  0.5000000E-15
  1.000000000000000E-004
  CAR 
 Co-fcc                                  
     52.87552334     -1.32996873  301      9.73606703      1.00000000
     -1.330  0.0000E+00  0.0000E+00  0.0000E+00  0.0000E+00
     -1.149  0.0000E+00  0.0000E+00  0.0000E+00  0.0000E+00
     -0.969  0.0000E+00  0.0000E+00  0.0000E+00  0.0000E+00
     -0.788  0.0000E+00  0.0000E+00  0.0000E+00  0.0000E+00
     -0.607  0.0000E+00  0.0000E+00  0.0000E+00  0.0000E+00
     -0.427  0.0000E+00  0.0000E+00  0.0000E+00  0.0000E+00
     -0.246  0.0000E+00  0.0000E+00  0.0000E+00  0.0000E+00
     -0.065  0.0000E+00  0.0000E+00  0.0000E+00  0.0000E+00
      0.116  0.0000E+00  0.0000E+00  0.0000E+00  0.0000E+00
      0.296  0.0000E+00  0.0000E+00  0.0000E+00  0.0000E+00
      0.477  0.0000E+00  0.0000E+00  0.0000E+00  0.0000E+00
      0.658  0.0000E+00  0.0000E+00  0.0000E+00  0.0000E+00
      0.838  0.0000E+00  0.1200E-19  0.0000E+00  0.2168E-20
      1.019  0.3626E-07  0.1238E-06  0.6552E-08  0.2237E-07
      1.200  0.2024E-03  0.2092E-03  0.3657E-04  0.3783E-04
      1.380  0.1378E-04  0.6830E-05  0.3906E-04  0.3906E-04
      1.561  0.4725E-03  0.5254E-03  0.1244E-03  0.1340E-03
      1.742  0.1761E-03  0.1232E-03  0.1563E-03  0.1563E-03
      1.922  0.3359E-03  0.3723E-03  0.2169E-03  0.2235E-03
      2.103  0.3126E-03  0.2763E-03  0.2734E-03  0.2734E-03
      2.284  0.3735E-03  0.3508E-03  0.3409E-03  0.3368E-03
      2.464  0.4912E-03  0.5140E-03  0.4297E-03  0.4297E-03
      2.645  0.6266E-03  0.4590E-03  0.5429E-03  0.5126E-03
      2.826  0.6706E-03  0.8381E-03  0.6641E-03  0.6641E-03
      3.006  0.5571E-03  0.3579E-03  0.7647E-03  0.7287E-03
      3.187  0.9200E-04  0.2906E-03  0.7814E-03  0.7813E-03
      3.368  0.1239E-02  0.8507E-03  0.1005E-02  0.9350E-03
      3.549  0.3485E-03  0.4475E-03  0.1068E-02  0.1016E-02
      3.729  0.1654E-02  0.1804E-02  0.1367E-02  0.1342E-02
      3.910  0.5874E-03  0.1545E-03  0.1473E-02  0.1370E-02
      4.091  0.2848E-03  0.6342E-03  0.1525E-02  0.1484E-02
      4.271  0.1868E-02  0.4018E-03  0.1862E-02  0.1557E-02
      4.452  0.1542E-02  0.1143E-02  0.2141E-02  0.1763E-02
      4.633  0.1800E-02  0.1912E-02  0.2466E-02  0.2109E-02
      4.813  0.3792E-02  0.5040E-03  0.3151E-02  0.2200E-02
      4.994  0.6397E-02  0.1457E-02  0.4307E-02  0.2463E-02
      5.175  0.5650E-02  0.1288E-02  0.5328E-02  0.2696E-02
      5.355  0.6049E-02  0.1649E-02  0.6421E-02  0.2994E-02
      5.536  0.1044E-01  0.2991E-02  0.8308E-02  0.3534E-02
      5.717  0.8274E-02  0.1484E-02  0.9803E-02  0.3802E-02
      5.897  0.1121E-01  0.3799E-02  0.1183E-01  0.4489E-02
      6.078  0.8267E-02  0.4401E-02  0.1332E-01  0.5284E-02
      6.259  0.1013E-01  0.5255E-02  0.1515E-01  0.6233E-02
      6.439  0.6577E-02  0.3406E-02  0.1634E-01  0.6849E-02
      6.620  0.9961E-02  0.5312E-02  0.1814E-01  0.7809E-02
      6.801  0.1276E-01  0.7563E-02  0.2045E-01  0.9175E-02
      6.982  0.1270E-01  0.7285E-02  0.2274E-01  0.1049E-01
      7.162  0.1489E-01  0.9585E-02  0.2543E-01  0.1222E-01
      7.343  0.1854E-01  0.5637E-02  0.2878E-01  0.1324E-01
      7.524  0.1438E-01  0.8472E-02  0.3138E-01  0.1477E-01
      7.704  0.1064E-01  0.6358E-02  0.3330E-01  0.1592E-01
      7.885  0.1100E-01  0.9197E-02  0.3529E-01  0.1758E-01
      8.066  0.1595E-01  0.1054E-01  0.3817E-01  0.1949E-01
      8.246  0.9635E-02  0.9340E-02  0.3991E-01  0.2118E-01
      8.427  0.1542E-01  0.1084E-01  0.4270E-01  0.2313E-01
      8.608  0.8864E-02  0.1038E-01  0.4430E-01  0.2501E-01
      8.788  0.1457E-01  0.1266E-01  0.4693E-01  0.2730E-01
      8.969  0.2021E-01  0.1291E-01  0.5058E-01  0.2963E-01
      9.150  0.1045E-01  0.1089E-01  0.5247E-01  0.3160E-01
      9.330  0.1952E-02  0.7791E-02  0.5282E-01  0.3301E-01
      9.511  0.1608E-03  0.8104E-02  0.5285E-01  0.3447E-01
      9.692  0.7728E-03  0.9792E-02  0.5299E-01  0.3624E-01
      9.872  0.3271E-02  0.1192E-01  0.5358E-01  0.3839E-01
     10.053  0.1576E-02  0.9493E-02  0.5387E-01  0.4011E-01
     10.234  0.8568E-03  0.1401E-01  0.5402E-01  0.4264E-01
     10.415  0.1058E-02  0.6790E-02  0.5421E-01  0.4387E-01
     10.595  0.1716E-02  0.1465E-01  0.5452E-01  0.4651E-01
     10.776  0.2406E-02  0.1873E-01  0.5496E-01  0.4990E-01
     10.957  0.3019E-03  0.1486E-01  0.5501E-01  0.5258E-01
     11.137  0.1150E-02  0.1496E-02  0.5522E-01  0.5285E-01
     11.318  0.1801E-02  0.3047E-02  0.5555E-01  0.5340E-01
     11.499  0.5669E-04  0.3945E-02  0.5556E-01  0.5412E-01
     11.679  0.2056E-02  0.1732E-02  0.5593E-01  0.5443E-01
     11.860  0.1173E-02  0.3652E-03  0.5614E-01  0.5450E-01
     12.041  0.1456E-02  0.1396E-02  0.5640E-01  0.5475E-01
     12.221  0.3260E-02  0.2250E-02  0.5699E-01  0.5515E-01
     12.402  0.4299E-03  0.2194E-02  0.5707E-01  0.5555E-01
     12.583  0.7963E-07  0.2362E-02  0.5707E-01  0.5598E-01
     12.763  0.1165E-02  0.7961E-03  0.5728E-01  0.5612E-01
     12.944  0.1325E-03  0.1443E-02  0.5730E-01  0.5638E-01
     13.125  0.2179E-02  0.2130E-02  0.5770E-01  0.5677E-01
     13.306  0.1725E-02  0.1681E-02  0.5801E-01  0.5707E-01
     13.486  0.1456E-02  0.2158E-05  0.5827E-01  0.5707E-01
     13.667  0.4772E-03  0.1986E-02  0.5836E-01  0.5743E-01
     13.848  0.1104E-04  0.6758E-03  0.5836E-01  0.5755E-01
     14.028  0.2632E-02  0.2518E-02  0.5884E-01  0.5801E-01
     14.209  0.5996E-03  0.8692E-04  0.5895E-01  0.5802E-01
     14.390  0.7019E-07  0.1866E-02  0.5895E-01  0.5836E-01
     14.570  0.1157E-02  0.6418E-03  0.5915E-01  0.5848E-01
     14.751  0.1397E-03  0.8400E-03  0.5918E-01  0.5863E-01
     14.932  0.3401E-03  0.1760E-02  0.5924E-01  0.5895E-01
     15.112  0.1279E-02  0.9629E-03  0.5947E-01  0.5912E-01
     15.293  0.5397E-03  0.3342E-03  0.5957E-01  0.5918E-01
     15.474  0.1084E-02  0.5871E-07  0.5977E-01  0.5918E-01
     15.654  0.4534E-03  0.8651E-03  0.5985E-01  0.5934E-01
     15.835  0.1427E-02  0.1081E-02  0.6011E-01  0.5953E-01
     16.016  0.9222E-03  0.9862E-03  0.6027E-01  0.5971E-01
     16.196  0.2489E-02  0.3109E-03  0.6072E-01  0.5977E-01
     16.377  0.6713E-03  0.3957E-11  0.6084E-01  0.5977E-01
     16.558  0.2558E-02  0.1491E-03  0.6131E-01  0.5979E-01
     16.739  0.9129E-03  0.3437E-02  0.6147E-01  0.6041E-01
     16.919  0.1600E-02  0.1438E-02  0.6176E-01  0.6067E-01
     17.100  0.9378E-03  0.1630E-02  0.6193E-01  0.6097E-01
     17.281  0.2477E-02  0.1294E-02  0.6238E-01  0.6120E-01
     17.461  0.3666E-04  0.2629E-02  0.6238E-01  0.6168E-01
     17.642  0.2508E-03  0.5104E-03  0.6243E-01  0.6177E-01
     17.823  0.3478E-02  0.2543E-02  0.6306E-01  0.6223E-01
     18.003  0.1199E-02  0.8535E-03  0.6327E-01  0.6238E-01
     18.184  0.2958E-03  0.2843E-04  0.6333E-01  0.6239E-01
     18.365  0.2510E-02  0.3142E-02  0.6378E-01  0.6296E-01
     18.545  0.4915E-04  0.1334E-02  0.6379E-01  0.6320E-01
     18.726  0.9129E-03  0.6698E-03  0.6395E-01  0.6332E-01
     18.907  0.7512E-03  0.2179E-02  0.6409E-01  0.6371E-01
     19.087  0.9308E-03  0.4299E-03  0.6426E-01  0.6379E-01
     19.268  0.1813E-02  0.7611E-03  0.6459E-01  0.6393E-01
     19.449  0.3310E-02  0.1036E-02  0.6518E-01  0.6411E-01
     19.629  0.2713E-03  0.7989E-03  0.6523E-01  0.6426E-01
     19.810  0.1110E-02  0.1921E-02  0.6543E-01  0.6461E-01
     19.991  0.2579E-02  0.1122E-02  0.6590E-01  0.6481E-01
     20.172  0.3292E-02  0.2591E-02  0.6649E-01  0.6528E-01
     20.352  0.1289E-02  0.8813E-03  0.6673E-01  0.6544E-01
     20.533  0.1603E-02  0.3041E-02  0.6702E-01  0.6598E-01
     20.714  0.1948E-02  0.2126E-02  0.6737E-01  0.6637E-01
     20.894  0.5175E-03  0.2143E-02  0.6746E-01  0.6676E-01
     21.075  0.1212E-02  0.1661E-02  0.6768E-01  0.6706E-01
     21.256  0.5961E-03  0.1808E-02  0.6779E-01  0.6738E-01
     21.436  0.2170E-02  0.1457E-02  0.6818E-01  0.6765E-01
     21.617  0.5420E-02  0.2475E-03  0.6916E-01  0.6769E-01
     21.798  0.3902E-03  0.2019E-02  0.6923E-01  0.6806E-01
     21.978  0.1230E-02  0.2683E-02  0.6945E-01  0.6854E-01
     22.159  0.3499E-02  0.3746E-02  0.7009E-01  0.6922E-01
     22.340  0.2383E-02  0.8285E-03  0.7052E-01  0.6937E-01
     22.520  0.7614E-03  0.7039E-03  0.7065E-01  0.6949E-01
     22.701  0.2386E-02  0.5085E-02  0.7108E-01  0.7041E-01
     22.882  0.1302E-02  0.1180E-02  0.7132E-01  0.7063E-01
     23.063  0.4920E-03  0.2406E-02  0.7141E-01  0.7106E-01
     23.243  0.2710E-02  0.1434E-02  0.7190E-01  0.7132E-01
     23.424  0.4584E-02  0.9495E-04  0.7273E-01  0.7134E-01
     23.605  0.6986E-03  0.3075E-02  0.7285E-01  0.7189E-01
     23.785  0.1940E-02  0.4515E-02  0.7320E-01  0.7271E-01
     23.966  0.2221E-02  0.3189E-03  0.7360E-01  0.7277E-01
     24.147  0.2286E-02  0.3822E-02  0.7402E-01  0.7346E-01
     24.327  0.1323E-02  0.8464E-03  0.7426E-01  0.7361E-01
     24.508  0.2554E-02  0.2262E-02  0.7472E-01  0.7402E-01
     24.689  0.9686E-03  0.2531E-02  0.7489E-01  0.7448E-01
     24.869  0.2919E-02  0.1386E-02  0.7542E-01  0.7473E-01
     25.050  0.2724E-02  0.1215E-02  0.7591E-01  0.7495E-01
     25.231  0.2485E-02  0.3685E-02  0.7636E-01  0.7561E-01
     25.411  0.1742E-02  0.2902E-02  0.7668E-01  0.7614E-01
     25.592  0.2341E-02  0.1300E-02  0.7710E-01  0.7637E-01
     25.773  0.3779E-02  0.2005E-02  0.7778E-01  0.7673E-01
     25.953  0.1250E-02  0.3765E-02  0.7801E-01  0.7741E-01
     26.134  0.6944E-03  0.2713E-02  0.7813E-01  0.7790E-01
     26.315  0.4027E-02  0.5964E-03  0.7886E-01  0.7801E-01
     26.496  0.1474E-02  0.3219E-02  0.7913E-01  0.7859E-01
     26.676  0.1588E-02  0.1943E-02  0.7941E-01  0.7894E-01
     26.857  0.1552E-02  0.2332E-02  0.7969E-01  0.7937E-01
     27.038  0.2329E-02  0.2697E-03  0.8012E-01  0.7941E-01
     27.218  0.9374E-03  0.3134E-02  0.8028E-01  0.7998E-01
     27.399  0.1243E-02  0.9860E-03  0.8051E-01  0.8016E-01
     27.580  0.2769E-02  0.1873E-02  0.8101E-01  0.8050E-01
     27.760  0.1687E-02  0.1171E-02  0.8131E-01  0.8071E-01
     27.941  0.2829E-02  0.2159E-02  0.8183E-01  0.8110E-01
     28.122  0.1624E-02  0.2674E-02  0.8212E-01  0.8158E-01
     28.302  0.1461E-02  0.2515E-02  0.8238E-01  0.8204E-01
     28.483  0.6763E-03  0.1609E-02  0.8251E-01  0.8233E-01
     28.664  0.1502E-02  0.9586E-03  0.8278E-01  0.8250E-01
     28.844  0.1711E-02  0.1038E-02  0.8309E-01  0.8269E-01
     29.025  0.1901E-02  0.2090E-02  0.8343E-01  0.8307E-01
     29.206  0.3075E-02  0.2349E-02  0.8399E-01  0.8349E-01
     29.386  0.1390E-02  0.2061E-02  0.8424E-01  0.8386E-01
     29.567  0.1431E-02  0.1956E-02  0.8449E-01  0.8422E-01
     29.748  0.1355E-02  0.1436E-02  0.8474E-01  0.8447E-01
     29.929  0.1861E-02  0.1495E-03  0.8508E-01  0.8450E-01
     30.109  0.1704E-02  0.3014E-02  0.8538E-01  0.8505E-01
     30.290  0.1640E-02  0.2264E-02  0.8568E-01  0.8546E-01
     30.471  0.1781E-02  0.1448E-02  0.8600E-01  0.8572E-01
     30.651  0.3570E-02  0.1855E-02  0.8665E-01  0.8605E-01
     30.832  0.1712E-02  0.2416E-02  0.8696E-01  0.8649E-01
     31.013  0.2857E-02  0.4055E-02  0.8747E-01  0.8722E-01
     31.193  0.2704E-02  0.1028E-02  0.8796E-01  0.8741E-01
     31.374  0.1269E-02  0.2855E-02  0.8819E-01  0.8792E-01
     31.555  0.1802E-02  0.1465E-02  0.8852E-01  0.8819E-01
     31.735  0.1316E-02  0.2199E-02  0.8875E-01  0.8859E-01
     31.916  0.4555E-02  0.1553E-02  0.8958E-01  0.8887E-01
     32.097  0.3728E-02  0.6398E-02  0.9025E-01  0.9002E-01
     32.277  0.2949E-02  0.1450E-02  0.9078E-01  0.9028E-01
     32.458  0.9373E-03  0.1903E-02  0.9095E-01  0.9063E-01
     32.639  0.2881E-02  0.2972E-02  0.9147E-01  0.9116E-01
     32.819  0.3346E-02  0.1967E-02  0.9208E-01  0.9152E-01
     33.000  0.1473E-02  0.3288E-02  0.9234E-01  0.9211E-01
     33.181  0.2892E-02  0.2145E-02  0.9287E-01  0.9250E-01
     33.362  0.3290E-02  0.4246E-02  0.9346E-01  0.9327E-01
     33.542  0.3229E-02  0.9148E-03  0.9404E-01  0.9343E-01
     33.723  0.5629E-03  0.3020E-02  0.9415E-01  0.9398E-01
     33.904  0.3290E-02  0.1011E-02  0.9474E-01  0.9416E-01
     34.084  0.2219E-02  0.2505E-02  0.9514E-01  0.9462E-01
     34.265  0.4840E-02  0.3735E-02  0.9602E-01  0.9529E-01
     34.446  0.1673E-02  0.4226E-02  0.9632E-01  0.9605E-01
     34.626  0.2191E-02  0.1277E-02  0.9671E-01  0.9628E-01
     34.807  0.1465E-02  0.2069E-02  0.9698E-01  0.9666E-01
     34.988  0.3837E-02  0.3073E-02  0.9767E-01  0.9721E-01
     35.168  0.3221E-02  0.2532E-02  0.9825E-01  0.9767E-01
     35.349  0.1538E-02  0.3286E-02  0.9853E-01  0.9826E-01
     35.530  0.1946E-02  0.2037E-02  0.9888E-01  0.9863E-01
     35.710  0.1208E-02  0.3176E-03  0.9910E-01  0.9869E-01
     35.891  0.7734E-05  0.1180E-02  0.9910E-01  0.9890E-01
     36.072  0.2970E-02  0.2470E-02  0.9964E-01  0.9935E-01
     36.253  0.2904E-02  0.1404E-02  0.1002E+00  0.9960E-01
     36.433  0.3935E-03  0.3317E-02  0.1002E+00  0.1002E+00
     36.614  0.1053E-02  0.1775E-03  0.1004E+00  0.1002E+00
     36.795  0.6613E-03  0.7254E-07  0.1005E+00  0.1002E+00
     36.975  0.1617E-02  0.7094E-03  0.1008E+00  0.1004E+00
     37.156  0.3827E-02  0.2862E-02  0.1015E+00  0.1009E+00
     37.337  0.4207E-03  0.3725E-02  0.1016E+00  0.1016E+00
     37.517  0.1413E-02  0.9195E-03  0.1019E+00  0.1017E+00
     37.698  0.7601E-03  0.1161E-02  0.1020E+00  0.1019E+00
     37.879  0.2782E-02  0.5893E-03  0.1025E+00  0.1020E+00
     38.059  0.2743E-02  0.1729E-02  0.1030E+00  0.1023E+00
     38.240  0.1954E-02  0.2530E-02  0.1033E+00  0.1028E+00
     38.421  0.5414E-02  0.1811E-02  0.1043E+00  0.1031E+00
     38.601  0.4333E-02  0.3156E-02  0.1051E+00  0.1037E+00
     38.782  0.3659E-02  0.7965E-02  0.1058E+00  0.1051E+00
     38.963  0.1952E-02  0.4875E-02  0.1061E+00  0.1060E+00
     39.143  0.2422E-02  0.1847E-02  0.1066E+00  0.1064E+00
     39.324  0.4652E-02  0.2126E-02  0.1074E+00  0.1067E+00
     39.505  0.1176E-02  0.8594E-03  0.1076E+00  0.1069E+00
     39.686  0.2943E-03  0.3274E-02  0.1077E+00  0.1075E+00
     39.866  0.2296E-02  0.1473E-02  0.1081E+00  0.1078E+00
     40.047  0.2913E-02  0.2077E-02  0.1086E+00  0.1081E+00
     40.228  0.3172E-02  0.3265E-02  0.1092E+00  0.1087E+00
     40.408  0.1754E-02  0.3260E-02  0.1095E+00  0.1093E+00
     40.589  0.1503E-02  0.2055E-02  0.1098E+00  0.1097E+00
     40.770  0.2214E-02  0.4867E-03  0.1102E+00  0.1098E+00
     40.950  0.5480E-02  0.2737E-02  0.1112E+00  0.1103E+00
     41.131  0.1699E-02  0.2451E-02  0.1115E+00  0.1107E+00
     41.312  0.1325E-02  0.4597E-02  0.1117E+00  0.1115E+00
     41.492  0.4974E-03  0.1451E-02  0.1118E+00  0.1118E+00
     41.673  0.1231E-02  0.3914E-05  0.1120E+00  0.1118E+00
     41.854  0.2657E-02  0.2318E-02  0.1125E+00  0.1122E+00
     42.034  0.1879E-02  0.1812E-02  0.1128E+00  0.1125E+00
     42.215  0.2501E-02  0.2168E-02  0.1133E+00  0.1129E+00
     42.396  0.3817E-02  0.3435E-02  0.1140E+00  0.1136E+00
     42.576  0.8871E-03  0.1300E-02  0.1141E+00  0.1138E+00
     42.757  0.8621E-03  0.1911E-02  0.1143E+00  0.1141E+00
     42.938  0.2418E-02  0.1325E-02  0.1147E+00  0.1144E+00
     43.119  0.1260E-02  0.6487E-03  0.1150E+00  0.1145E+00
     43.299  0.1243E-06  0.1288E-02  0.1150E+00  0.1147E+00
     43.480  0.4723E-03  0.1481E-02  0.1150E+00  0.1150E+00
     43.661  0.4418E-02  0.1376E-02  0.1158E+00  0.1152E+00
     43.841  0.8514E-03  0.2287E-02  0.1160E+00  0.1157E+00
     44.022  0.3293E-02  0.6947E-03  0.1166E+00  0.1158E+00
     44.203  0.1315E-02  0.3756E-02  0.1168E+00  0.1165E+00
     44.383  0.2769E-04  0.1150E-02  0.1168E+00  0.1167E+00
     44.564  0.2950E-07  0.9357E-03  0.1168E+00  0.1168E+00
     44.745  0.1671E-02  0.8187E-03  0.1171E+00  0.1170E+00
     44.925  0.2852E-02  0.1883E-02  0.1177E+00  0.1173E+00
     45.106  0.1312E-02  0.1613E-02  0.1179E+00  0.1176E+00
     45.287  0.7273E-03  0.9189E-03  0.1180E+00  0.1178E+00
     45.467  0.1220E-02  0.1173E-02  0.1182E+00  0.1180E+00
     45.648  0.1166E-02  0.1356E-02  0.1185E+00  0.1182E+00
     45.829  0.7703E-03  0.5231E-03  0.1186E+00  0.1183E+00
     46.009  0.2000E-03  0.1441E-02  0.1186E+00  0.1186E+00
     46.190  0.1107E-02  0.8799E-08  0.1188E+00  0.1186E+00
     46.371  0.5608E-07  0.6888E-05  0.1188E+00  0.1186E+00
     46.552  0.1403E-02  0.1283E-02  0.1191E+00  0.1188E+00
     46.732  0.4059E-02  0.6876E-05  0.1198E+00  0.1188E+00
     46.913  0.1024E-02  0.0000E+00  0.1200E+00  0.1188E+00
     47.094  0.4987E-09  0.2208E-13  0.1200E+00  0.1188E+00
     47.274  0.0000E+00  0.5831E-04  0.1200E+00  0.1188E+00
     47.455  0.0000E+00  0.1297E-02  0.1200E+00  0.1191E+00
     47.636  0.0000E+00  0.1239E-02  0.1200E+00  0.1193E+00
     47.816  0.0000E+00  0.3967E-06  0.1200E+00  0.1193E+00
     47.997  0.0000E+00  0.0000E+00  0.1200E+00  0.1193E+00
     48.178  0.0000E+00  0.1977E-16  0.1200E+00  0.1193E+00
     48.358  0.0000E+00  0.5384E-05  0.1200E+00  0.1193E+00
     48.539  0.0000E+00  0.6410E-03  0.1200E+00  0.1194E+00
     48.720  0.0000E+00  0.4996E-03  0.1200E+00  0.1195E+00
     48.900  0.0000E+00  0.7997E-03  0.1200E+00  0.1196E+00
     49.081  0.0000E+00  0.9588E-09  0.1200E+00  0.1196E+00
     49.262  0.0000E+00  0.0000E+00  0.1200E+00  0.1196E+00
     49.443  0.0000E+00  0.1446E-14  0.1200E+00  0.1196E+00
     49.623  0.0000E+00  0.2273E-04  0.1200E+00  0.1197E+00
     49.804  0.0000E+00  0.6255E-03  0.1200E+00  0.1198E+00
     49.985  0.0000E+00  0.3144E-06  0.1200E+00  0.1198E+00
     50.165  0.0000E+00  0.4556E-10  0.1200E+00  0.1198E+00
     50.346  0.0000E+00  0.3051E-03  0.1200E+00  0.1198E+00
     50.527  0.0000E+00  0.9917E-03  0.1200E+00  0.1200E+00
     50.707  0.0000E+00  0.3716E-06  0.1200E+00  0.1200E+00
     50.888  0.0000E+00  0.0000E+00  0.1200E+00  0.1200E+00
     51.069  0.0000E+00  0.0000E+00  0.1200E+00  0.1200E+00
     51.249  0.0000E+00  0.0000E+00  0.1200E+00  0.1200E+00
     51.430  0.0000E+00  0.0000E+00  0.1200E+00  0.1200E+00
     51.611  0.0000E+00  0.0000E+00  0.1200E+00  0.1200E+00
     51.791  0.0000E+00  0.0000E+00  0.1200E+00  0.1200E+00
     51.972  0.0000E+00  0.0000E+00  0.1200E+00  0.1200E+00
     52.153  0.0000E+00  0.0000E+00  0.1200E+00  0.1200E+00
     52.333  0.0000E+00  0.0000E+00  0.1200E+00  0.1200E+00
     52.514  0.0000E+00  0.0000E+00  0.1200E+00  0.1200E+00
     52.695  0.0000E+00  0.0000E+00  0.1200E+00  0.1200E+00
     52.876  0.0000E+00  0.0000E+00  0.1200E+00  0.1200E+00
     52.87552334     -1.32996873  301      9.73606703      1.00000000
     -1.330  0.0000E+00  0.0000E+00  0.0000E+00  0.0000E+00  0.0000E+00  0.0000E+00  0.0000E+00  0.0000E+00  0.0000E+00  0.0000E+00  0.0000E+00  0.0000E+00  0.0000E+00  0.0000E+00  0.0000E+00  0.0000E+00  0.0000E+00  0.0000E+00
     -1.149  0.0000E+00  0.0000E+00  0.0000E+00  0.0000E+00  0.0000E+00  0.0000E+00  0.0000E+00  0.0000E+00  0.0000E+00  0.0000E+00  0.0000E+00  0.0000E+00  0.0000E+00  0.0000E+00  0.0000E+00  0.0000E+00  0.0000E+00  0.0000E+00
     -0.969  0.0000E+00  0.0000E+00  0.0000E+00  0.0000E+00  0.0000E+00  0.0000E+00  0.0000E+00  0.0000E+00  0.0000E+00  0.0000E+00  0.0000E+00  0.0000E+00  0.0000E+00  0.0000E+00  0.0000E+00  0.0000E+00  0.0000E+00  0.0000E+00
     -0.788  0.0000E+00  0.0000E+00  0.0000E+00  0.0000E+00  0.0000E+00  0.0000E+00  0.0000E+00  0.0000E+00  0.0000E+00  0.0000E+00  0.0000E+00  0.0000E+00  0.0000E+00  0.0000E+00  0.0000E+00  0.0000E+00  0.0000E+00  0.0000E+00
     -0.607  0.0000E+00  0.0000E+00  0.0000E+00  0.0000E+00  0.0000E+00  0.0000E+00  0.0000E+00  0.0000E+00  0.0000E+00  0.0000E+00  0.0000E+00  0.0000E+00  0.0000E+00  0.0000E+00  0.0000E+00  0.0000E+00  0.0000E+00  0.0000E+00
     -0.427  0.0000E+00  0.0000E+00  0.0000E+00  0.0000E+00  0.0000E+00  0.0000E+00  0.0000E+00  0.0000E+00  0.0000E+00  0.0000E+00  0.0000E+00  0.0000E+00  0.0000E+00  0.0000E+00  0.0000E+00  0.0000E+00  0.0000E+00  0.0000E+00
     -0.246  0.0000E+00  0.0000E+00  0.0000E+00  0.0000E+00  0.0000E+00  0.0000E+00  0.0000E+00  0.0000E+00  0.0000E+00  0.0000E+00  0.0000E+00  0.0000E+00  0.0000E+00  0.0000E+00  0.0000E+00  0.0000E+00  0.0000E+00  0.0000E+00
     -0.065  0.0000E+00  0.0000E+00  0.0000E+00  0.0000E+00  0.0000E+00  0.0000E+00  0.0000E+00  0.0000E+00  0.0000E+00  0.0000E+00  0.0000E+00  0.0000E+00  0.0000E+00  0.0000E+00  0.0000E+00  0.0000E+00  0.0000E+00  0.0000E+00
      0.116  0.0000E+00  0.0000E+00  0.0000E+00  0.0000E+00  0.0000E+00  0.0000E+00  0.0000E+00  0.0000E+00  0.0000E+00  0.0000E+00  0.0000E+00  0.0000E+00  0.0000E+00  0.0000E+00  0.0000E+00  0.0000E+00  0.0000E+00  0.0000E+00
      0.296  0.0000E+00  0.0000E+00  0.0000E+00  0.0000E+00  0.0000E+00  0.0000E+00  0.0000E+00  0.0000E+00  0.0000E+00  0.0000E+00  0.0000E+00  0.0000E+00  0.0000E+00  0.0000E+00  0.0000E+00  0.0000E+00  0.0000E+00  0.0000E+00
      0.477  0.0000E+00  0.0000E+00  0.0000E+00  0.0000E+00  0.0000E+00  0.0000E+00  0.0000E+00  0.0000E+00  0.0000E+00  0.0000E+00  0.0000E+00  0.0000E+00  0.0000E+00  0.0000E+00  0.0000E+00  0.0000E+00  0.0000E+00  0.0000E+00
      0.658  0.0000E+00  0.0000E+00  0.0000E+00  0.0000E+00  0.0000E+00  0.0000E+00  0.0000E+00  0.0000E+00  0.0000E+00  0.0000E+00  0.0000E+00  0.0000E+00  0.0000E+00  0.0000E+00  0.0000E+00  0.0000E+00  0.0000E+00  0.0000E+00
      0.838  0.0000E+00  0.8137E-18  0.0000E+00  0.3926E-20  0.0000E+00  0.3926E-20  0.0000E+00  0.3926E-20  0.0000E+00  0.4543E-22  0.0000E+00  0.4543E-22  0.0000E+00  0.4720E-35  0.0000E+00  0.4543E-22  0.0000E+00  0.4720E-35
      1.019  0.2465E-05  0.8395E-05  0.1181E-07  0.4050E-07  0.1181E-07  0.4050E-07  0.1181E-07  0.4050E-07  0.1884E-09  0.4687E-09  0.1884E-09  0.4687E-09  0.1267E-22  0.4869E-22  0.1884E-09  0.4687E-09  0.1267E-22  0.4869E-22
      1.200  0.1376E-01  0.1419E-01  0.6593E-04  0.6844E-04  0.6593E-04  0.6844E-04  0.6593E-04  0.6844E-04  0.1051E-05  0.7922E-06  0.1051E-05  0.7922E-06  0.7073E-19  0.8230E-19  0.1051E-05  0.7922E-06  0.7073E-19  0.8230E-19
      1.380  0.9365E-03  0.4631E-03  0.4490E-05  0.2240E-05  0.4490E-05  0.2240E-05  0.4490E-05  0.2240E-05  0.7163E-07  0.2601E-07  0.7163E-07  0.2601E-07  0.1006E-09  0.2504E-09  0.7163E-07  0.2601E-07  0.1006E-09  0.2504E-09
      1.561  0.3088E-01  0.3425E-01  0.5503E-03  0.6154E-03  0.5503E-03  0.6154E-03  0.5503E-03  0.6154E-03  0.1629E-04  0.1290E-04  0.1629E-04  0.1290E-04  0.2179E-04  0.1754E-04  0.1629E-04  0.1290E-04  0.2179E-04  0.1754E-04
      1.742  0.1151E-01  0.8029E-02  0.2051E-03  0.1443E-03  0.2051E-03  0.1443E-03  0.2051E-03  0.1443E-03  0.6069E-05  0.3025E-05  0.6069E-05  0.3025E-05  0.8121E-05  0.4112E-05  0.6069E-05  0.3025E-05  0.8121E-05  0.4112E-05
      1.922  0.2108E-01  0.2331E-01  0.6491E-03  0.7275E-03  0.6491E-03  0.7275E-03  0.6491E-03  0.7275E-03  0.6475E-04  0.4978E-04  0.6475E-04  0.4978E-04  0.1470E-04  0.1184E-04  0.6475E-04  0.4978E-04  0.1470E-04  0.1184E-04
      2.103  0.1961E-01  0.1730E-01  0.6040E-03  0.5399E-03  0.6040E-03  0.5399E-03  0.6040E-03  0.5399E-03  0.6026E-04  0.3694E-04  0.6026E-04  0.3694E-04  0.1368E-04  0.8787E-05  0.6026E-04  0.3694E-04  0.1368E-04  0.8787E-05
      2.284  0.2238E-01  0.2102E-01  0.9959E-03  0.9501E-03  0.9959E-03  0.9501E-03  0.9959E-03  0.9501E-03  0.8912E-04  0.5442E-04  0.8912E-04  0.5442E-04  0.1361E-03  0.8780E-04  0.8912E-04  0.5442E-04  0.1361E-03  0.8780E-04
      2.464  0.2943E-01  0.3079E-01  0.1314E-02  0.1394E-02  0.1314E-02  0.1394E-02  0.1314E-02  0.1394E-02  0.1006E-03  0.7202E-04  0.1006E-03  0.7202E-04  0.1967E-03  0.1372E-03  0.1006E-03  0.7202E-04  0.1967E-03  0.1372E-03
      2.645  0.3585E-01  0.2633E-01  0.2084E-02  0.1560E-02  0.2084E-02  0.1560E-02  0.2084E-02  0.1560E-02  0.3463E-03  0.1687E-03  0.3463E-03  0.1687E-03  0.2419E-03  0.1197E-03  0.3463E-03  0.1687E-03  0.2419E-03  0.1197E-03
      2.826  0.3837E-01  0.4807E-01  0.2230E-02  0.2849E-02  0.2230E-02  0.2849E-02  0.2230E-02  0.2849E-02  0.3707E-03  0.3080E-03  0.3707E-03  0.3080E-03  0.2588E-03  0.2185E-03  0.3707E-03  0.3080E-03  0.2588E-03  0.2185E-03
      3.006  0.3024E-01  0.1962E-01  0.2059E-02  0.1392E-02  0.2059E-02  0.1392E-02  0.2059E-02  0.1392E-02  0.8335E-03  0.3304E-03  0.8335E-03  0.3304E-03  0.1279E-03  0.5488E-04  0.8335E-03  0.3304E-03  0.1279E-03  0.5488E-04
      3.187  0.4991E-02  0.1593E-01  0.3404E-03  0.1130E-02  0.3404E-03  0.1130E-02  0.3404E-03  0.1130E-02  0.1371E-03  0.2682E-03  0.1371E-03  0.2682E-03  0.2237E-04  0.4456E-04  0.1371E-03  0.2682E-03  0.2237E-04  0.4456E-04
      3.368  0.6317E-01  0.4409E-01  0.5495E-02  0.3939E-02  0.5495E-02  0.3939E-02  0.5495E-02  0.3939E-02  0.1115E-02  0.4810E-03  0.1115E-02  0.4810E-03  0.2096E-02  0.8983E-03  0.1115E-02  0.4810E-03  0.2096E-02  0.8983E-03
      3.549  0.1687E-01  0.2321E-01  0.1505E-02  0.2071E-02  0.1505E-02  0.2071E-02  0.1505E-02  0.2071E-02  0.1042E-02  0.2755E-03  0.1042E-02  0.2755E-03  0.2236E-03  0.4374E-03  0.1042E-02  0.2755E-03  0.2236E-03  0.4374E-03
      3.729  0.7908E-01  0.8884E-01  0.7805E-02  0.9030E-02  0.7805E-02  0.9030E-02  0.7805E-02  0.9030E-02  0.2951E-02  0.2249E-02  0.2951E-02  0.2249E-02  0.3187E-02  0.1824E-02  0.2951E-02  0.2249E-02  0.3187E-02  0.1824E-02
      3.910  0.2608E-01  0.7554E-02  0.2807E-02  0.7965E-03  0.2807E-02  0.7965E-03  0.2807E-02  0.7965E-03  0.1905E-02  0.1443E-03  0.1905E-02  0.1443E-03  0.1127E-02  0.2124E-03  0.1905E-02  0.1443E-03  0.1127E-02  0.2124E-03
      4.091  0.1174E-01  0.2952E-01  0.1114E-02  0.3393E-02  0.1114E-02  0.3393E-02  0.1114E-02  0.3393E-02  0.1965E-02  0.1174E-02  0.1965E-02  0.1174E-02  0.1393E-03  0.7516E-03  0.1965E-02  0.1174E-02  0.1393E-03  0.7516E-03
      4.271  0.7488E-01  0.1770E-01  0.9692E-02  0.2144E-02  0.9692E-02  0.2144E-02  0.9692E-02  0.2144E-02  0.7217E-02  0.1400E-02  0.7217E-02  0.1400E-02  0.5607E-02  0.2135E-03  0.7217E-02  0.1400E-02  0.5607E-02  0.2135E-03
      4.452  0.5494E-01  0.5015E-01  0.6598E-02  0.6862E-02  0.6598E-02  0.6862E-02  0.6598E-02  0.6862E-02  0.9976E-02  0.2488E-02  0.9976E-02  0.2488E-02  0.6009E-02  0.1318E-02  0.9976E-02  0.2488E-02  0.6009E-02  0.1318E-02
      4.633  0.5605E-01  0.7747E-01  0.7970E-02  0.1077E-01  0.7970E-02  0.1077E-01  0.7970E-02  0.1077E-01  0.9529E-02  0.5700E-02  0.9529E-02  0.5700E-02  0.1449E-01  0.5303E-02  0.9529E-02  0.5700E-02  0.1449E-01  0.5303E-02
      4.813  0.7135E-01  0.1858E-01  0.8063E-02  0.3187E-02  0.8063E-02  0.3187E-02  0.8063E-02  0.3187E-02  0.3520E-01  0.6022E-03  0.3520E-01  0.6022E-03  0.5594E-01  0.3067E-02  0.3520E-01  0.6022E-03  0.5594E-01  0.3067E-02
      4.994  0.1084E+00  0.5291E-01  0.1439E-01  0.7930E-02  0.1439E-01  0.7930E-02  0.1439E-01  0.7930E-02  0.6855E-01  0.6625E-02  0.6855E-01  0.6625E-02  0.8799E-01  0.5178E-02  0.6855E-01  0.6625E-02  0.8799E-01  0.5178E-02
      5.175  0.7566E-01  0.4515E-01  0.1268E-01  0.8255E-02  0.1268E-01  0.8255E-02  0.1268E-01  0.8255E-02  0.3934E-01  0.5312E-02  0.3934E-01  0.5312E-02  0.1206E+00  0.3988E-02  0.3934E-01  0.5312E-02  0.1206E+00  0.3988E-02
      5.355  0.5211E-01  0.5242E-01  0.8253E-02  0.8999E-02  0.8253E-02  0.8999E-02  0.8253E-02  0.8999E-02  0.8715E-01  0.1246E-01  0.8715E-01  0.1246E-01  0.9490E-01  0.3713E-02  0.8715E-01  0.1246E-01  0.9490E-01  0.3713E-02
      5.536  0.7433E-01  0.8448E-01  0.1927E-01  0.1528E-01  0.1927E-01  0.1528E-01  0.1927E-01  0.1528E-01  0.1427E+00  0.1925E-01  0.1427E+00  0.1925E-01  0.1754E+00  0.1959E-01  0.1427E+00  0.1925E-01  0.1754E+00  0.1959E-01
      5.717  0.2718E-01  0.3401E-01  0.9537E-02  0.5172E-02  0.9537E-02  0.5172E-02  0.9537E-02  0.5172E-02  0.1623E+00  0.1569E-01  0.1623E+00  0.1569E-01  0.1014E+00  0.1080E-01  0.1623E+00  0.1569E-01  0.1014E+00  0.1080E-01
      5.897  0.2592E-01  0.7006E-01  0.1996E-01  0.9517E-02  0.1996E-01  0.9517E-02  0.1996E-01  0.9517E-02  0.2126E+00  0.4121E-01  0.2126E+00  0.4121E-01  0.1417E+00  0.4378E-01  0.2126E+00  0.4121E-01  0.1417E+00  0.4378E-01
      6.078  0.9480E-02  0.8213E-01  0.1492E-01  0.1739E-01  0.1492E-01  0.1739E-01  0.1492E-01  0.1739E-01  0.1713E+00  0.3950E-01  0.1713E+00  0.3950E-01  0.9081E-01  0.4960E-01  0.1713E+00  0.3950E-01  0.9081E-01  0.4960E-01
      6.259  0.5647E-02  0.6568E-01  0.1991E-01  0.1543E-01  0.1991E-01  0.1543E-01  0.1991E-01  0.1543E-01  0.1943E+00  0.3419E-01  0.1943E+00  0.3419E-01  0.1357E+00  0.1072E+00  0.1943E+00  0.3419E-01  0.1357E+00  0.1072E+00
      6.439  0.1174E-02  0.4105E-01  0.9001E-02  0.7576E-02  0.9001E-02  0.7576E-02  0.9001E-02  0.7576E-02  0.1120E+00  0.4090E-01  0.1120E+00  0.4090E-01  0.1193E+00  0.4974E-01  0.1120E+00  0.4090E-01  0.1193E+00  0.4974E-01
      6.620  0.8419E-02  0.4304E-01  0.1692E-01  0.1495E-01  0.1692E-01  0.1495E-01  0.1692E-01  0.1495E-01  0.1933E+00  0.5025E-01  0.1933E+00  0.5025E-01  0.1380E+00  0.1033E+00  0.1933E+00  0.5025E-01  0.1380E+00  0.1033E+00
      6.801  0.9126E-02  0.4399E-01  0.2311E-01  0.1579E-01  0.2311E-01  0.1579E-01  0.2311E-01  0.1579E-01  0.2818E+00  0.1279E+00  0.2818E+00  0.1279E+00  0.1281E+00  0.9053E-01  0.2818E+00  0.1279E+00  0.1281E+00  0.9053E-01
      6.982  0.1792E-01  0.1829E-01  0.2060E-01  0.1701E-01  0.2060E-01  0.1701E-01  0.2060E-01  0.1701E-01  0.2601E+00  0.1212E+00  0.2601E+00  0.1212E+00  0.1614E+00  0.1017E+00  0.2601E+00  0.1212E+00  0.1614E+00  0.1017E+00
      7.162  0.1561E-01  0.9402E-02  0.2346E-01  0.2076E-01  0.2346E-01  0.2076E-01  0.2346E-01  0.2076E-01  0.2770E+00  0.2011E+00  0.2770E+00  0.2011E+00  0.2391E+00  0.8865E-01  0.2770E+00  0.2011E+00  0.2391E+00  0.8865E-01
      7.343  0.1910E-01  0.5106E-02  0.2262E-01  0.1539E-01  0.2262E-01  0.1539E-01  0.2262E-01  0.1539E-01  0.3781E+00  0.1070E+00  0.3781E+00  0.1070E+00  0.2660E+00  0.6281E-01  0.3781E+00  0.1070E+00  0.2660E+00  0.6281E-01
      7.524  0.1298E-01  0.3065E-02  0.1703E-01  0.1868E-01  0.1703E-01  0.1868E-01  0.1703E-01  0.1868E-01  0.2733E+00  0.1770E+00  0.2733E+00  0.1770E+00  0.2407E+00  0.8444E-01  0.2733E+00  0.1770E+00  0.2407E+00  0.8444E-01
      7.704  0.6121E-02  0.8675E-03  0.1335E-01  0.2175E-01  0.1335E-01  0.2175E-01  0.1335E-01  0.2175E-01  0.1385E+00  0.9984E-01  0.1385E+00  0.9984E-01  0.2748E+00  0.9544E-01  0.1385E+00  0.9984E-01  0.2748E+00  0.9544E-01