    1    1  100    2
  0.1133723E+02  0.2521587E-09  0.2521587E-09  0.2521587E-09  0.5000000E-15
  1.000000000000000E-004
  CAR 
 Co-fcc                                  
      9     60     12
 
  0.6250000E-01  0.6250000E-01  0.6250000E-01  0.3906250E-02
      1          1.145729        1.133917   1.000000   1.000000
      2          7.053154        8.634039   1.000000   1.000000
      3          7.128432        8.725587   1.000000   1.000000
      4          7.128432        8.725587   1.000000   1.000000
      5          8.071793        9.999135   1.000000   0.000000
      6          8.071793        9.999135   1.000000   0.000000
      7         32.025870       31.774383   0.000000   0.000000
      8         34.723456       34.812530   0.000000   0.000000
      9         36.140022       36.317801   0.000000   0.000000
     10         36.140022       36.317801   0.000000   0.000000
     11         39.905507       40.131079   0.000000   0.000000
     12         39.905518       40.131191   0.000000   0.000000
 
  0.1875000E+00  0.6250000E-01  0.6250000E-01  0.1171875E-01
      1          1.920768        1.915762   1.000000   1.000000
      2          6.856005        8.376387   1.000000   1.000000
      3          7.275514        8.891707   1.000000   1.000000
      4          7.280639        8.899109   1.000000   1.000000
      5          7.928786        9.823486   1.000000   0.006707
      6          8.156956       10.071453   1.000000   0.000000
      7         29.069740       29.251729   0.000000   0.000000
      8         31.673583       31.749237   0.000000   0.000000
      9         35.142675       35.153416   0.000000   0.000000
     10         37.136259       37.315911   0.000000   0.000000
     11         38.916631       38.859043   0.000000   0.000000
     12         40.052313       40.238127   0.000000   0.000000
 
  0.3125000E+00  0.6250000E-01  0.6250000E-01  0.1171875E-01
      1          3.559264        3.653021   1.000000   1.000000
      2          6.756160        8.066768   1.000000   1.000000
      3          7.221559        8.881095   1.000000   1.000000
      4          7.289950        8.977752   1.000000   1.000000
      5          8.133847        9.967978   1.000000   0.000000
      6          8.538552       10.398401   1.000000   0.000000
      7         23.048420       23.475175   0.000000   0.000000
      8         30.612993       30.682133   0.000000   0.000000
      9         34.101753       34.113484   0.000000   0.000000
     10         36.601634       36.925045   0.000000   0.000000
     11         37.823458       38.041156   0.000000   0.000000
     12         38.872830       38.912890   0.000000   0.000000
 
  0.4375000E+00  0.6250000E-01  0.6250000E-01  0.1171875E-01
      1          4.692212        5.354260   1.000000   1.000000
      2          7.005578        8.456678   1.000000   1.000000
      3          7.096408        8.691761   1.000000   1.000000
      4          7.775779        8.788436   1.000000   1.000000
      5          8.652139       10.515013   1.000000   0.000000
      6          9.304969       10.958625   1.000000   0.000000
      7         17.781439       18.489113   0.000000   0.000000
      8         30.193133       30.142662   0.000000   0.000000
      9         32.833173       32.934147   0.000000   0.000000
     10         34.483769       34.796720   0.000000   0.000000
     11         36.994789       37.245871   0.000000   0.000000
     12         38.556882       38.731341   0.000000   0.000000
 
 -0.4375000E+00  0.6250000E-01  0.6250000E-01  0.1171875E-01
      1          4.820697        5.733517   1.000000   1.000000
      2          6.915813        8.543895   1.000000   1.000000
      3          7.046793        8.731075   1.000000   1.000000
      4          8.306149        9.098845   1.000000   1.000000
      5          8.914044       10.812418   1.000000   0.000000
      6         10.133039       11.222833   0.000000   0.000000
      7         15.637119       16.601393   0.000000   0.000000
      8         30.379224       30.182424   0.000000   0.000000
      9         32.691532       32.989786   0.000000   0.000000
     10         32.871130       33.121474   0.000000   0.000000
     11         37.792765       38.034103   0.000000   0.000000
     12         37.855604       38.044294   0.000000   0.000000
 
 -0.3125000E+00  0.6250000E-01  0.6250000E-01  0.1171875E-01
      1          4.474312        4.906076   1.000000   1.000000
      2          7.041272        8.176076   1.000000   1.000000
      3          7.180410        8.731813   1.000000   1.000000
      4          7.267729        8.865833   1.000000   1.000000
      5          8.721159       10.511337   1.000000   0.000000
      6          8.790242       10.613346   1.000000   0.000000
      7         19.379531       19.973836   0.000000   0.000000
      8         31.095316       30.883000   0.000000   0.000000
      9         32.170354       32.490520   0.000000   0.000000
     10         34.489783       34.819151   0.000000   0.000000
     11         37.709527       37.860224   0.000000   0.000000
     12         39.491802       39.679666   0.000000   0.000000
 
 -0.1875000E+00  0.6250000E-01  0.6250000E-01  0.1171875E-01
      1          2.968428        3.001859   1.000000   1.000000
      2          6.709948        8.123044   1.000000   1.000000
      3          7.281208        8.945678   1.000000   1.000000
      4          7.336464        8.993409   1.000000   1.000000
      5          8.067479        9.889234   1.000000   0.000007
      6          8.307409       10.206311   1.000000   0.000000
      7         25.025449       25.380112   0.000000   0.000000
      8         32.110840       31.953591   0.000000   0.000000
      9         32.716552       33.038966   0.000000   0.000000
     10         37.140331       37.340889   0.000000   0.000000
     11         37.540070       37.665662   0.000000   0.000000
     12         41.761549       41.836428   0.000000   0.000000
 
 -0.6250000E-01  0.6250000E-01  0.6250000E-01  0.1171875E-01
      1          1.539483        1.529941   1.000000   1.000000
      2          6.920373        8.472093   1.000000   1.000000
      3          7.230754        8.836248   1.000000   1.000000
      4          7.234677        8.841062   1.000000   1.000000
      5          7.946551        9.846708   1.000000   0.000876
      6          8.133910       10.066453   1.000000   0.000000
      7         30.900314       30.896584   0.000000   0.000000
      8         33.261388       33.242180   0.000000   0.000000
      9         34.108039       34.380911   0.000000   0.000000
     10         36.043850       36.109118   0.000000   0.000000
     11         39.856981       40.017261   0.000000   0.000000
     12         41.738388       41.806043   0.000000   0.000000
 
  0.1875000E+00  0.1875000E+00  0.6250000E-01  0.1171875E-01
      1          2.291878        2.293589   1.000000   1.000000
      2          6.663737        8.165548   1.000000   1.000000
      3          7.412623        9.048402   1.000000   1.000000
      4          7.441934        9.068552   1.000000   1.000000
      5          7.778337        9.604620   1.000000   0.999900
      6          8.249980       10.191705   1.000000   0.000000
      7         29.364906       29.554694   0.000000   0.000000
      8         31.849098       31.858825   0.000000   0.000000
      9         31.894663       32.157392   0.000000   0.000000
     10         34.175285       34.208306   0.000000   0.000000
     11         39.212505       39.846474   0.000000   0.000000
     12         42.214590       42.283189   0.000000   0.000000
 
  0.3125000E+00  0.1875000E+00  0.6250000E-01  0.2343750E-01
      1          3.613110        3.684035   1.000000   1.000000
      2          6.383457        7.801986   1.000000   1.000000
      3          7.207643        8.877098   1.000000   1.000000
      4          7.681439        9.362905   1.000000   1.000000
      5          8.035117        9.768832   1.000000   0.177035
      6          8.611262       10.490305   1.000000   0.000000
      7         25.565669       25.903717   0.000000   0.000000
      8         28.133584       28.374361   0.000000   0.000000
      9         31.872710       31.977711   0.000000   0.000000
     10         33.794043       33.929559   0.000000   0.000000
     11         38.184582       38.686199   0.000000   0.000000
     12         42.028543       42.046001   0.000000   0.000000
 
  0.4375000E+00  0.1875000E+00  0.6250000E-01  0.2343750E-01
      1          4.967748        5.468951   1.000000   1.000000
      2          6.497995        7.700797   1.000000   1.000000
      3          6.923801        8.473171   1.000000   1.000000
      4          7.531916        9.248954   1.000000   1.000000
      5          8.693805       10.520609   1.000000   0.000000
      6          9.763725       11.286492   0.217023   0.000000
      7         19.887256       20.422715   0.000000   0.000000
      8         27.563673       27.776514   0.000000   0.000000
      9         29.446799       29.696680   0.000000   0.000000
     10         33.401444       33.580042   0.000000   0.000000
     11         39.981287       40.085675   0.000000   0.000000
     12         42.327901       42.575655   0.000000   0.000000
 
 -0.4375000E+00  0.1875000E+00  0.6250000E-01  0.2343750E-01
      1          5.272312        6.258551   1.000000   1.000000
      2          6.526043        7.885107   1.000000   1.000000
      3          7.342744        8.553626   1.000000   1.000000
      4          7.399068        9.100560   1.000000   1.000000
      5          8.880815       10.760742   1.000000   0.000000
      6         11.904906       12.784619   0.000000   0.000000
      7         15.839502       16.712423   0.000000   0.000000
      8         27.004105       27.203975   0.000000   0.000000
      9         28.701564       29.015480   0.000000   0.000000
     10         33.245561       33.333372   0.000000   0.000000
     11         39.113687       39.300457   0.000000   0.000000
     12         42.742263       42.817690   0.000000   0.000000
 
 -0.3125000E+00  0.1875000E+00  0.6250000E-01  0.2343750E-01
      1          5.200341        5.916991   1.000000   1.000000
      2          6.664841        7.919979   1.000000   1.000000
      3          6.999388        8.363704   1.000000   1.000000
      4          7.427477        9.149860   1.000000   1.000000
      5          8.584129       10.406340   1.000000   0.000000
      6         10.585511       11.939155   0.000000   0.000000
      7         18.252353       18.890515   0.000000   0.000000
      8         26.165120       26.436637   0.000000   0.000000
      9         30.283935       30.499287   0.000000   0.000000
     10         34.315183       34.410967   0.000000   0.000000
     11         38.504315       38.682066   0.000000   0.000000
     12         42.133881       42.225621   0.000000   0.000000
 
 -0.1875000E+00  0.1875000E+00  0.6250000E-01  0.2343750E-01
      1          4.180532        4.308406   1.000000   1.000000
      2          6.453398        7.826152   1.000000   1.000000
      3          7.046533        8.680887   1.000000   1.000000
      4          7.615539        9.347626   1.000000   1.000000
      5          7.972817        9.730566   1.000000   0.561826
      6          9.085136       10.872317   1.000000   0.000000
      7         23.604790       24.010476   0.000000   0.000000
      8         26.298742       26.586422   0.000000   0.000000
      9         32.805425       32.915876   0.000000   0.000000
     10         36.233497       36.322680   0.000000   0.000000
     11         38.005042       38.106339   0.000000   0.000000
     12         40.856372       41.152652   0.000000   0.000000
 
 -0.6250000E-01  0.1875000E+00  0.6250000E-01  0.2343750E-01
      1          2.646604        2.658354   1.000000   1.000000
      2          6.662281        8.135560   1.000000   1.000000
      3          7.315577        8.960771   1.000000   1.000000
      4          7.444043        9.086123   1.000000   1.000000
      5          7.851457        9.685832   1.000000   0.922320
      6          8.335674       10.239704   1.000000   0.000000
      7         27.240538       27.520190   0.000000   0.000000
      8         29.846547       30.018075   0.000000   0.000000
      9         34.227230       34.260360   0.000000   0.000000
     10         35.980221       35.995631   0.000000   0.000000
     11         39.219499       39.532964   0.000000   0.000000
     12         40.660640       40.863618   0.000000   0.000000
 
  0.3125000E+00  0.3125000E+00  0.6250000E-01  0.1171875E-01
      1          4.281983        4.528865   1.000000   1.000000
      2          5.993469        7.376158   1.000000   1.000000
      3          7.509228        8.996513   1.000000   1.000000
      4          8.080326        9.794133   1.000000   0.050260
      5          8.397392       10.028477   1.000000   0.000000
      6          8.580889       10.537491   1.000000   0.000000
      7         26.151744       26.442392   0.000000   0.000000
      8         27.771355       28.048762   0.000000   0.000000
      9         27.917630       28.135101   0.000000   0.000000
     10         30.656663       30.869142   0.000000   0.000000
     11         34.821355       35.307879   0.000000   0.000000
     12         46.584178       47.324303   0.000000   0.000000
 
  0.4375000E+00  0.3125000E+00  0.6250000E-01  0.2343750E-01
      1          5.014021        5.725823   1.000000   1.000000
      2          5.800261        7.121107   1.000000   1.000000
      3          7.460815        8.783027   1.000000   1.000000
      4          8.303983       10.091638   1.000000   0.000000
      5          8.738067       10.576030   1.000000   0.000000
      6         10.019108       11.383118   0.000000   0.000000
      7         22.818649       23.178320   0.000000   0.000000
      8         24.743686       25.086585   0.000000   0.000000
      9         25.621326       25.946208   0.000000   0.000000
     10         31.855048       32.063136   0.000000   0.000000
     11         36.028254       36.394311   0.000000   0.000000
     12         45.603236       45.849288   0.000000   0.000000
 
 -0.4375000E+00  0.3125000E+00  0.6250000E-01  0.2343750E-01
      1          5.486700        6.642577   1.000000   1.000000
      2          5.924909        7.139733   1.000000   1.000000
      3          7.183112        8.461893   1.000000   1.000000
      4          8.039571        9.857571   1.000000   0.000294
      5          8.942290       10.804391   1.000000   0.000000
      6         13.094507       13.935783   0.000000   0.000000
      7         17.823973       18.369168   0.000000   0.000000
      8         22.562037       23.023486   0.000000   0.000000
      9         25.834297       26.128649   0.000000   0.000000
     10         32.269578       32.453421   0.000000   0.000000
     11         40.911106       41.163308   0.000000   0.000000
     12         43.848199       44.072254   0.000000   0.000000
 
 -0.3125000E+00  0.3125000E+00  0.6250000E-01  0.2343750E-01
      1          5.932619        6.957389   1.000000   1.000000
      2          6.084618        7.408033   1.000000   1.000000
      3          6.760280        8.035232   1.000000   1.000000
      4          7.852898        9.682838   1.000000   0.933909
      5          8.650991       10.440129   1.000000   0.000000
      6         13.388527       14.269635   0.000000   0.000000
      7         17.672593       18.260460   0.000000   0.000000
      8         21.265755       21.753246   0.000000   0.000000
      9         27.513968       27.815578   0.000000   0.000000
     10         33.137893       33.267245   0.000000   0.000000
     11         41.729357       41.770580   0.000000   0.000000
     12         46.046643       46.461196   0.000000   0.000000
 
 -0.1875000E+00  0.3125000E+00  0.6250000E-01  0.2343750E-01
      1          5.471115        5.987217   1.000000   1.000000
      2          6.469314        7.735350   1.000000   1.000000
      3          6.608180        8.146800   1.000000   1.000000
      4          7.689001        9.475724   1.000000   1.000000
      5          8.301528       10.055076   1.000000   0.000000
      6         10.662818       12.087916   0.000000   0.000000
      7         20.416582       20.928883   0.000000   0.000000
      8         23.359273       23.735264   0.000000   0.000000
      9         30.045015       30.280518   0.000000   0.000000
     10         34.848194       34.960754   0.000000   0.000000
     11         39.042314       39.085093   0.000000   0.000000
     12         43.513133       43.656021   0.000000   0.000000
 
 -0.6250000E-01  0.3125000E+00  0.6250000E-01  0.2343750E-01
      1          4.293990        4.527435   1.000000   1.000000
      2          6.716536        7.930868   1.000000   1.000000
      3          7.059651        8.717148   1.000000   1.000000
      4          7.350989        9.050169   1.000000   1.000000
      5          8.353037       10.144216   1.000000   0.000000
      6          8.963350       10.754356   1.000000   0.000000
      7         21.336883       21.827372   0.000000   0.000000
      8         29.026099       29.190362   0.000000   0.000000
      9         32.511998       32.572939   0.000000   0.000000
     10         34.935755       35.206724   0.000000   0.000000
     11         38.632272       38.767059   0.000000   0.000000
     12         40.107438       40.238844   0.000000   0.000000
 
  0.4375000E+00  0.4375000E+00  0.6250000E-01  0.1171875E-01
      1          4.819760        5.846609   1.000000   1.000000
      2          5.457428        6.754895   1.000000   1.000000
      3          8.636808       10.030746   1.000000   0.000000
      4          8.657177       10.568400   1.000000   0.000000
      5          8.964068       10.852332   1.000000   0.000000
      6         10.699084       11.469792   0.000000   0.000000
      7         21.501170       22.078741   0.000000   0.000000
      8         23.872947       24.113336   0.000000   0.000000
      9         25.036640       25.219888   0.000000   0.000000
     10         29.781355       30.104765   0.000000   0.000000
     11         33.478867       33.882697   0.000000   0.000000
     12         46.721438       50.351380   0.000000   0.000000
 
 -0.4375000E+00  0.4375000E+00  0.6250000E-01  0.2343750E-01
      1          4.964117        6.142868   1.000000   1.000000
      2          5.480091        6.752612   1.000000   1.000000
      3          8.250319        9.632239   1.000000   0.998341
      4          8.607881       10.563372   1.000000   0.000000
      5          9.096374       10.934078   1.000000   0.000000
      6         13.169829       13.662601   0.000000   0.000000
      7         19.385883       20.135742   0.000000   0.000000
      8         21.492745       21.802907   0.000000   0.000000
      9         23.903413       24.130969   0.000000   0.000000
     10         31.218756       31.478924   0.000000   0.000000
     11         35.374172       35.735070   0.000000   0.000000
     12         46.707295       48.730248   0.000000   0.000000
 
 -0.3125000E+00  0.4375000E+00  0.6250000E-01  0.2343750E-01
      1          5.443798        6.711746   1.000000   1.000000
      2          5.836456        7.037121   1.000000   1.000000
      3          7.348241        8.625530   1.000000   1.000000
      4          8.203065       10.087646   1.000000   0.000000
      5          8.934195       10.756047   1.000000   0.000000
      6         15.088725       15.682938   0.000000   0.000000
      7         17.213064       17.746845   0.000000   0.000000
      8         20.093159       20.713547   0.000000   0.000000
      9         25.379160       25.665822   0.000000   0.000000
     10         32.105750       32.305856   0.000000   0.000000
     11         40.867431       41.172600   0.000000   0.000000
     12         45.000509       45.072718   0.000000   0.000000
 
 -0.1875000E+00  0.4375000E+00  0.6250000E-01  0.2343750E-01
      1          5.626604        6.681995   1.000000   1.000000
      2          6.246435        7.532748   1.000000   1.000000
      3          7.043921        8.304199   1.000000   1.000000
      4          7.629260        9.400197   1.000000   1.000000
      5          8.790368       10.636176   1.000000   0.000000
      6         13.098277       13.906538   0.000000   0.000000
      7         16.101699       16.890759   0.000000   0.000000
      8         23.989634       24.352765   0.000000   0.000000
      9         27.870593       28.165018   0.000000   0.000000
     10         33.159570       33.265622   0.000000   0.000000
     11         40.451958       40.577317   0.000000   0.000000
     12         44.858760       44.917895   0.000000   0.000000
 
 -0.6250000E-01  0.4375000E+00  0.6250000E-01  0.2343750E-01
      1          4.955101        5.809731   1.000000   1.000000
      2          6.813163        8.291178   1.000000   1.000000
      3          7.177494        8.682047   1.000000   1.000000
      4          7.679491        8.881997   1.000000   1.000000
      5          8.828217       10.701591   1.000000   0.000000
      6         10.396197       11.605825   0.000000   0.000000
      7         16.566601       17.378527   0.000000   0.000000
      8         28.975121       29.029381   0.000000   0.000000
      9         30.920133       31.173057   0.000000   0.000000
     10         33.494975       33.642836   0.000000   0.000000
     11         38.054644       38.279845   0.000000   0.000000
     12         40.207530       40.340019   0.000000   0.000000
 
 -0.4375000E+00 -0.4375000E+00  0.6250000E-01  0.1171875E-01
      1          4.765165        5.916999   1.000000   1.000000
      2          5.335873        6.615087   1.000000   1.000000
      3          8.763856       10.493931   1.000000   0.000000
      4          8.901343       10.759780   1.000000   0.000000
      5          9.107757       10.951390   1.000000   0.000000
      6         12.225186       12.503716   0.000000   0.000000
      7         19.279722       20.072387   0.000000   0.000000
      8         23.308069       23.512507   0.000000   0.000000
      9         24.429765       24.580002   0.000000   0.000000
     10         29.637721       29.986817   0.000000   0.000000
     11         33.305805       33.709321   0.000000   0.000000
     12         46.742648       50.411637   0.000000   0.000000
 
 -0.3125000E+00 -0.4375000E+00  0.6250000E-01  0.2343750E-01
      1          5.032310        6.090480   1.000000   1.000000
      2          5.590916        6.880003   1.000000   1.000000
      3          7.933299        9.238812   1.000000   1.000000
      4          8.539906       10.418063   1.000000   0.000000
      5          8.955544       10.807554   1.000000   0.000000
      6         11.576297       12.459464   0.000000   0.000000
      7         21.541372       22.008440   0.000000   0.000000
      8         22.156965       22.570272   0.000000   0.000000
      9         24.441768       24.695319   0.000000   0.000000
     10         31.420870       31.662022   0.000000   0.000000
     11         35.569465       35.927590   0.000000   0.000000
     12         46.546606       47.514517   0.000000   0.000000
 
 -0.1875000E+00 -0.4375000E+00  0.6250000E-01  0.2343750E-01
      1          5.379419        6.243157   1.000000   1.000000
      2          6.166798        7.400026   1.000000   1.000000
      3          6.988480        8.357438   1.000000   1.000000
      4          7.785646        9.541603   1.000000   1.000000
      5          8.885225       10.760949   1.000000   0.000000
      6         11.185892       12.339504   0.000000   0.000000
      7         18.707134       19.260368   0.000000   0.000000
      8         25.596736       25.892408   0.000000   0.000000
      9         26.832232       27.159169   0.000000   0.000000
     10         32.654616       32.819527   0.000000   0.000000
     11         40.767909       40.913033   0.000000   0.000000
     12         42.864120       43.208228   0.000000   0.000000
 
 -0.3125000E+00 -0.3125000E+00  0.6250000E-01  0.1171875E-01
      1          4.775924        5.458696   1.000000   1.000000
      2          5.686349        7.019245   1.000000   1.000000
      3          8.088764        9.301071   1.000000   1.000000
      4          8.417919       10.213124   1.000000   0.000000
      5          8.767884       10.616727   1.000000   0.000000
      6          9.214031       10.709334   1.000000   0.000000
      7         24.404777       24.751548   0.000000   0.000000
      8         25.055435       25.383328   0.000000   0.000000
      9         26.183895       26.415990   0.000000   0.000000
     10         30.093769       30.368071   0.000000   0.000000
     11         33.918435       34.339829   0.000000   0.000000
     12         46.680378       49.687233   0.000000   0.000000
 
 -0.1875000E+00 -0.3125000E+00  0.6250000E-01  0.2343750E-01
      1          4.550504        4.823742   1.000000   1.000000
      2          6.079220        7.444242   1.000000   1.000000
      3          7.149380        8.695283   1.000000   1.000000
      4          7.981299        9.707146   1.000000   0.793328
      5          8.420164       10.161145   1.000000   0.000000
      6          9.063570       10.810167   1.000000   0.000000
      7         24.079081       24.442692   0.000000   0.000000
      8         26.549188       26.818530   0.000000   0.000000
      9         28.551885       28.814682   0.000000   0.000000
     10         32.589883       32.761392   0.000000   0.000000
     11         36.862906       37.270174   0.000000   0.000000
     12         43.943470       44.029759   0.000000   0.000000
 
 -0.1875000E+00 -0.1875000E+00  0.6250000E-01  0.1171875E-01
      1          3.299998        3.351361   1.000000   1.000000
      2          6.336430        7.778180   1.000000   1.000000
      3          7.412727        9.104503   1.000000   1.000000
      4          7.734469        9.395257   1.000000   1.000000
      5          7.929037        9.604979   1.000000   0.999895
      6          8.404754       10.356561   1.000000   0.000000
      7         27.733760       28.008828   0.000000   0.000000
      8         29.694042       29.999969   0.000000   0.000000
      9         30.512824       30.532904   0.000000   0.000000
     10         31.929300       32.066865   0.000000   0.000000
     11         36.518063       37.118620   0.000000   0.000000
     12         44.706362       44.663138   0.000000   0.000000
 
  0.1875000E+00  0.1875000E+00  0.1875000E+00  0.3906250E-02
      1          2.283630        2.287989   1.000000   1.000000
      2          6.831470        8.306054   1.000000   1.000000
      3          7.282120        8.917016   1.000000   1.000000
      4          7.282120        8.917016   1.000000   1.000000
      5          8.077606        9.970416   1.000000   0.000000
      6          8.077606        9.970416   1.000000   0.000000
      7         26.961710       27.243187   0.000000   0.000000
      8         33.103048       32.850220   0.000000   0.000000
      9         35.015335       35.307841   0.000000   0.000000
     10         35.015335       35.307841   0.000000   0.000000
     11         40.443621       40.322080   0.000000   0.000000
     12         40.877969       40.960088   0.000000   0.000000
 
  0.3125000E+00  0.1875000E+00  0.1875000E+00  0.1171875E-01
      1          3.313283        3.355900   1.000000   1.000000
      2          6.602348        8.027404   1.000000   1.000000
      3          7.231035        8.868170   1.000000   1.000000
      4          7.498201        9.180315   1.000000   1.000000
      5          7.813360        9.639753   1.000000   0.996777
      6          8.634600       10.488900   1.000000   0.000000
      7         25.307846       25.657684   0.000000   0.000000
      8         27.962114       28.196779   0.000000   0.000000
      9         35.488938       35.419704   0.000000   0.000000
     10         37.404071       37.338800   0.000000   0.000000
     11         37.459730       37.631045   0.000000   0.000000
     12         39.240552       39.598161   0.000000   0.000000
 
  0.4375000E+00  0.1875000E+00  0.1875000E+00  0.1171875E-01
      1          4.865580        5.129943   1.000000   1.000000
      2          6.499838        7.813835   1.000000   1.000000
      3          6.887010        8.469013   1.000000   1.000000
      4          7.547948        9.334166   1.000000   1.000000
      5          8.050982        9.793287   1.000000   0.052786
      6          9.727675       11.392492   0.593811   0.000000
      7         21.887924       22.355608   0.000000   0.000000
      8         24.686822       25.022284   0.000000   0.000000
      9         33.551639       33.525592   0.000000   0.000000
     10         33.958274       34.279084   0.000000   0.000000
     11         39.325925       39.246355   0.000000   0.000000
     12         40.910066       41.125655   0.000000   0.000000
 
 -0.4375000E+00  0.1875000E+00  0.1875000E+00  0.1171875E-01
      1          5.409465        6.320607   1.000000   1.000000
      2          6.519960        7.866549   1.000000   1.000000
      3          7.136791        8.347016   1.000000   1.000000
      4          7.441342        9.191252   1.000000   1.000000
      5          8.641881       10.476003   1.000000   0.000000
      6         11.702082       12.777134   0.000000   0.000000
      7         16.953910       17.686263   0.000000   0.000000
      8         24.933261       25.253347   0.000000   0.000000
      9         30.947515       31.264396   0.000000   0.000000
     10         31.938615       31.971967   0.000000   0.000000