 vasp.6.3.2 27Jun22 (build Aug 12 2022 00:53:59) complex                        
  
 executed on               tv2STD date 2024.11.30  17:12:43
 running   24 mpi-ranks, with    1 threads/rank
 distrk:  each k-point on   24 cores,    1 groups
 distr:  one band on NCORE=   6 cores,    4 groups


--------------------------------------------------------------------------------------------------------


 INCAR:
   SYSTEM = Co-fcc
   NWRITE = 2    write-flag
   ISTART = 0    job   : 0-new, 1-cont, 2-samecut
   ICHARG = 2    charge: 0-wave, 1-file, 2-atom, >10-const
   INIWAV = 1    electr: 0-lowe 1-rand  2-diag
   ENCUT = 400.0     energy cutoff in eV
   PREC = Accurate      normal | accurate
   ADDGRID = .FALSE.  (use fine grid)
   NELM = 100     number of ELM steps
   EDIFF = 1E-06    energy stopping-criterion for ELM
   LREAL = .FALSE.      real-space projection (.FALSE., .TRUE., On, Auto)
   ALGO = Normal     Normal, Fast, Very_Fast
   LWAVE = .TRUE.
   LCHARG = .TRUE.
   NSW = 100       max number of geometry steps
   IBRION = 2     ionic relax: 0-MD, 1-quasi-Newton, 2-CG, 3-Damped MD
   EDIFFG = -0.02  force (eV/A) stopping-criterion for geometry steps
   ISIF = 2     (1:force\=y stress\=trace only ions\=y shape\=n volume\=n)
   ISYM = 1     (1-use symmetry, 0-no symmetry)
   ISMEAR = 0     (-1-Fermi, 1-Methfessel/Paxton)
   SIGMA = 0.05   broadening in eV
   LORBIT = 11
   NPAR = 4
   ISPIN = 2
   MAGMOM = 1*3

 POTCAR:    PAW_PBE Co 02Aug2007                  
 POTCAR:    PAW_PBE Co 02Aug2007                  
   SHA256 =  0e690c60710354995174544f52f9f2c30879afabeffe3b3fbd4001cb294e56d4 Co/POTCAR             
   COPYR  = (c) Copyright 02Aug2007 Georg Kresse                                                    
   COPYR  = This file is part of the software VASP. Any use, copying, and all other rights are regul
   COPYR  = If you do not have a valid VASP license, you may not use, copy or distribute this file. 
   VRHFIN =Co: d8 s1                                                                                
   LEXCH  = PE                                                                                      
   EATOM  =   813.3670 eV,   59.7808 Ry                                                             
                                                                                                    
   TITEL  = PAW_PBE Co 02Aug2007                                                                    
   LULTRA =        F    use ultrasoft PP ?                                                          
   IUNSCR =        1    unscreen: 0-lin 1-nonlin 2-no                                               
   RPACOR =    2.000    partial core radius                                                         
   POMASS =   58.933; ZVAL   =    9.000    mass and valenz                                          
   RCORE  =    2.300    outmost cutoff radius                                                       
   RWIGS  =    2.460; RWIGS  =    1.302    wigner-seitz radius (au A)                               
   ENMAX  =  267.968; ENMIN  =  200.976 eV                                                          
   RCLOC  =    1.203    cutoff for local pot                                                        
   LCOR   =        T    correct aug charges                                                         
   LPAW   =        T    paw PP                                                                      
   EAUG   =  477.818                                                                                
   DEXC   =    0.000                                                                                
   RMAX   =    2.360    core radius for proj-oper                                                   
   RAUG   =    1.300    factor for augmentation sphere                                              
   RDEP   =    2.393    radius for radial grids                                                     
   RDEPT  =    1.864    core radius for aug-charge                                                  
                                                                                                    
   Atomic configuration                                                                             
    9 entries                                                                                       
     n  l   j            E        occ.                                                              
     1  0  0.50     -7587.6674   2.0000                                                             
     2  0  0.50      -893.6084   2.0000                                                             
     2  1  1.50      -764.5805   6.0000                                                             
     3  0  0.50       -97.5973   2.0000                                                             
     3  1  1.50       -60.9648   6.0000                                                             
     3  2  2.50        -4.2382   8.0000                                                             
     4  0  0.50        -4.3746   1.0000                                                             
     4  1  1.50        -4.0817   0.0000                                                             
     4  3  2.50        -1.3606   0.0000                                                             
   Description                                                                                      
     l       E           TYP  RCUT    TYP  RCUT                                                     
     2     -4.2382362     23  2.300                                                                 
     2     -5.5988188     23  2.300                                                                 
     0     -4.3745797     23  2.300                                                                 
     0      5.7660125     23  2.300                                                                 
     1     -2.7211652     23  2.300                                                                 
     1     16.9860234     23  2.300                                                                 
  local pseudopotential read in
  partial core-charges read in
  partial kinetic energy density read in
  atomic valenz-charges read in
  non local Contribution for L=           2  read in
    real space projection operators read in
  non local Contribution for L=           2  read in
    real space projection operators read in
  non local Contribution for L=           0  read in
    real space projection operators read in
  non local Contribution for L=           0  read in
    real space projection operators read in
  non local Contribution for L=           1  read in
    real space projection operators read in
  non local Contribution for L=           1  read in
    real space projection operators read in
    PAW grid and wavefunctions read in
 
   number of l-projection  operators is LMAX  =           6
   number of lm-projection operators is LMMAX =          18
 
  PAW_PBE Co 02Aug2007                  :
 energy of atom  1       EATOM= -813.3670
 kinetic energy error for atom=    0.0093 (will be added to EATOM!!)
 
 
 POSCAR: Co
  positions in cartesian coordinates
  No initial velocities read in
 exchange correlation table for  LEXCH =        8
   RHO(1)=    0.500       N(1)  =     2000
   RHO(2)=  100.500       N(2)  =     4000
 


--------------------------------------------------------------------------------------------------------


 ion  position               nearest neighbor table
   1  0.000  0.000  0.000-
 
  LATTYP: Found a face centered cubic cell.
 ALAT       =     3.5660623070
  
  Lattice vectors:
  
 A1 = (   0.0000000000,   1.7830311535,   1.7830311535)
 A2 = (   1.7830311535,   0.0000000000,   1.7830311535)
 A3 = (   1.7830311535,   1.7830311535,   0.0000000000)


Analysis of symmetry for initial positions (statically):
=====================================================================
 Subroutine PRICEL returns:
 Original cell was already a primitive cell.
 

 Routine SETGRP: Setting up the symmetry group for a 
 face centered cubic supercell.


 Subroutine GETGRP returns: Found 48 space group operations
 (whereof 48 operations were pure point group operations)
 out of a pool of 48 trial point group operations.


The static configuration has the point symmetry O_h .


Analysis of symmetry for dynamics (positions and initial velocities):
=====================================================================
 Subroutine PRICEL returns:
 Original cell was already a primitive cell.
 

 Routine SETGRP: Setting up the symmetry group for a 
 face centered cubic supercell.


 Subroutine GETGRP returns: Found 48 space group operations
 (whereof 48 operations were pure point group operations)
 out of a pool of 48 trial point group operations.


The dynamic configuration has the point symmetry O_h .


Analysis of structural, dynamic, and magnetic symmetry:
=====================================================================
 Subroutine PRICEL returns:
 Original cell was already a primitive cell.
 

 Routine SETGRP: Setting up the symmetry group for a 
 face centered cubic supercell.


 Subroutine GETGRP returns: Found 48 space group operations
 (whereof 48 operations were pure point group operations)
 out of a pool of 48 trial point group operations.


The overall configuration has the point symmetry O_h .


 Subroutine INISYM returns: Found 48 space group operations
 (whereof 48 operations are pure point group operations),
 and found     1 'primitive' translations


----------------------------------------------------------------------------------------

                                     Primitive cell                                     

  volume of cell :      11.3372

  direct lattice vectors                    reciprocal lattice vectors
     0.000000000  1.783031154  1.783031154    -0.280421348  0.280421348  0.280421348
     1.783031154  0.000000000  1.783031154     0.280421348 -0.280421348  0.280421348
     1.783031154  1.783031154  0.000000000     0.280421348  0.280421348 -0.280421348

  length of vectors
     2.521586839  2.521586839  2.521586839     0.485704023  0.485704023  0.485704023

  position of ions in fractional coordinates (direct lattice)
     0.000000000  0.000000000  0.000000000

  ion indices of the primitive-cell ions
   primitive index   ion index
                 1           1

----------------------------------------------------------------------------------------

 
 
 KPOINTS: Automatic mesh                          

Automatic generation of k-mesh.
 Grid dimensions read from file:
 generate k-points for:    8    8    8

 Generating k-lattice:

  Cartesian coordinates                     Fractional coordinates (reciprocal lattice)
    -0.035052669  0.035052669  0.035052669     0.125000000  0.000000000  0.000000000
     0.035052669 -0.035052669  0.035052669     0.000000000  0.125000000  0.000000000
     0.035052669  0.035052669 -0.035052669     0.000000000  0.000000000  0.125000000

  Length of vectors
     0.060713003  0.060713003  0.060713003

  Shift w.r.t. Gamma in fractional coordinates (k-lattice)
     0.500000000  0.500000000  0.500000000

 
 Subroutine IBZKPT returns following result:
 ===========================================
 
 Found     60 irreducible k-points:
 
 Following reciprocal coordinates:
            Coordinates               Weight
  0.062500  0.062500  0.062500      8.000000
  0.187500  0.062500  0.062500     24.000000
  0.312500  0.062500  0.062500     24.000000
  0.437500  0.062500  0.062500     24.000000
 -0.437500  0.062500  0.062500     24.000000
 -0.312500  0.062500  0.062500     24.000000
 -0.187500  0.062500  0.062500     24.000000
 -0.062500  0.062500  0.062500     24.000000
  0.187500  0.187500  0.062500     24.000000
  0.312500  0.187500  0.062500     48.000000
  0.437500  0.187500  0.062500     48.000000
 -0.437500  0.187500  0.062500     48.000000
 -0.312500  0.187500  0.062500     48.000000
 -0.187500  0.187500  0.062500     48.000000
 -0.062500  0.187500  0.062500     48.000000
  0.312500  0.312500  0.062500     24.000000
  0.437500  0.312500  0.062500     48.000000
 -0.437500  0.312500  0.062500     48.000000
 -0.312500  0.312500  0.062500     48.000000
 -0.187500  0.312500  0.062500     48.000000
 -0.062500  0.312500  0.062500     48.000000
  0.437500  0.437500  0.062500     24.000000
 -0.437500  0.437500  0.062500     48.000000
 -0.312500  0.437500  0.062500     48.000000
 -0.187500  0.437500  0.062500     48.000000
 -0.062500  0.437500  0.062500     48.000000
 -0.437500 -0.437500  0.062500     24.000000
 -0.312500 -0.437500  0.062500     48.000000
 -0.187500 -0.437500  0.062500     48.000000
 -0.312500 -0.312500  0.062500     24.000000
 -0.187500 -0.312500  0.062500     48.000000
 -0.187500 -0.187500  0.062500     24.000000
  0.187500  0.187500  0.187500      8.000000
  0.312500  0.187500  0.187500     24.000000
  0.437500  0.187500  0.187500     24.000000
 -0.437500  0.187500  0.187500     24.000000
 -0.312500  0.187500  0.187500     24.000000
 -0.187500  0.187500  0.187500     24.000000
  0.312500  0.312500  0.187500     24.000000
  0.437500  0.312500  0.187500     48.000000
 -0.437500  0.312500  0.187500     48.000000
 -0.312500  0.312500  0.187500     48.000000
 -0.187500  0.312500  0.187500     48.000000
  0.437500  0.437500  0.187500     24.000000
 -0.437500  0.437500  0.187500     48.000000
 -0.312500  0.437500  0.187500     48.000000
 -0.187500  0.437500  0.187500     48.000000
 -0.437500 -0.437500  0.187500     24.000000
 -0.312500 -0.437500  0.187500     48.000000
 -0.312500 -0.312500  0.187500     24.000000
  0.312500  0.312500  0.312500      8.000000
  0.437500  0.312500  0.312500     24.000000
 -0.437500  0.312500  0.312500     24.000000
 -0.312500  0.312500  0.312500     24.000000
  0.437500  0.437500  0.312500     24.000000
 -0.437500  0.437500  0.312500     48.000000
 -0.312500  0.437500  0.312500     48.000000
 -0.437500 -0.437500  0.312500     24.000000
  0.437500  0.437500  0.437500      8.000000
 -0.437500  0.437500  0.437500     24.000000
 
 Following cartesian coordinates:
            Coordinates               Weight
  0.017526  0.017526  0.017526      8.000000
 -0.017526  0.052579  0.052579     24.000000
 -0.052579  0.087632  0.087632     24.000000
 -0.087632  0.122684  0.122684     24.000000
  0.157737 -0.122684 -0.122684     24.000000
  0.122684 -0.087632 -0.087632     24.000000
  0.087632 -0.052579 -0.052579     24.000000
  0.052579 -0.017526 -0.017526     24.000000
  0.017526  0.017526  0.087632     24.000000
 -0.017526  0.052579  0.122684     48.000000
 -0.052579  0.087632  0.157737     48.000000
  0.192790 -0.157737 -0.087632     48.000000
  0.157737 -0.122684 -0.052579     48.000000
  0.122684 -0.087632 -0.017526     48.000000
  0.087632 -0.052579  0.017526     48.000000
  0.017526  0.017526  0.157737     24.000000
 -0.017526  0.052579  0.192790     48.000000
  0.227842 -0.192790 -0.052579     48.000000
  0.192790 -0.157737 -0.017526     48.000000
  0.157737 -0.122684  0.017526     48.000000
  0.122684 -0.087632  0.052579     48.000000
  0.017526  0.017526  0.227842     24.000000
  0.262895 -0.227842 -0.017526     48.000000
  0.227842 -0.192790  0.017526     48.000000
  0.192790 -0.157737  0.052579     48.000000
  0.157737 -0.122684  0.087632     48.000000
  0.017526  0.017526 -0.262895     24.000000
 -0.017526  0.052579 -0.227842     48.000000
 -0.052579  0.087632 -0.192790     48.000000
  0.017526  0.017526 -0.192790     24.000000
 -0.017526  0.052579 -0.157737     48.000000
  0.017526  0.017526 -0.122684     24.000000
  0.052579  0.052579  0.052579      8.000000
  0.017526  0.087632  0.087632     24.000000
 -0.017526  0.122684  0.122684     24.000000
  0.227842 -0.122684 -0.122684     24.000000
  0.192790 -0.087632 -0.087632     24.000000
  0.157737 -0.052579 -0.052579     24.000000
  0.052579  0.052579  0.122684     24.000000
  0.017526  0.087632  0.157737     48.000000
  0.262895 -0.157737 -0.087632     48.000000
  0.227842 -0.122684 -0.052579     48.000000
  0.192790 -0.087632 -0.017526     48.000000
  0.052579  0.052579  0.192790     24.000000
  0.297948 -0.192790 -0.052579     48.000000
  0.262895 -0.157737 -0.017526     48.000000
  0.227842 -0.122684  0.017526     48.000000
  0.052579  0.052579 -0.297948     24.000000
  0.017526  0.087632 -0.262895     48.000000
  0.052579  0.052579 -0.227842     24.000000
  0.087632  0.087632  0.087632      8.000000
  0.052579  0.122684  0.122684     24.000000
  0.297948 -0.122684 -0.122684     24.000000
  0.262895 -0.087632 -0.087632     24.000000
  0.087632  0.087632  0.157737     24.000000
  0.333000 -0.157737 -0.087632     48.000000
  0.297948 -0.122684 -0.052579     48.000000
  0.087632  0.087632 -0.333000     24.000000
  0.122684  0.122684  0.122684      8.000000
  0.368053 -0.122684 -0.122684     24.000000
 


--------------------------------------------------------------------------------------------------------




 Dimension of arrays:
   k-points           NKPTS =     60   k-points in BZ     NKDIM =     60   number of bands    NBANDS=     12
   number of dos      NEDOS =    301   number of ions     NIONS =      1
   non local maximal  LDIM  =      6   non local SUM 2l+1 LMDIM =     18
   total plane-waves  NPLWV =   4096
   max r-space proj   IRMAX =      1   max aug-charges    IRDMAX=  14447
   dimension x,y,z NGX =    16 NGY =   16 NGZ =   16
   dimension x,y,z NGXF=    32 NGYF=   32 NGZF=   32
   support grid    NGXF=    32 NGYF=   32 NGZF=   32
   ions per type =               1
   NGX,Y,Z   is equivalent  to a cutoff of  10.55, 10.55, 10.55 a.u.
   NGXF,Y,Z  is equivalent  to a cutoff of  21.10, 21.10, 21.10 a.u.

 SYSTEM =  Co-fcc                                  
 POSCAR =  Co                                      

 Startparameter for this run:
   NWRITE =      2    write-flag & timer
   PREC   = accura    normal or accurate (medium, high low for compatibility)
   ISTART =      0    job   : 0-new  1-cont  2-samecut
   ICHARG =      2    charge: 1-file 2-atom 10-const
   ISPIN  =      2    spin polarized calculation?
   LNONCOLLINEAR =      F non collinear calculations
   LSORBIT =      F    spin-orbit coupling
   INIWAV =      1    electr: 0-lowe 1-rand  2-diag
   LASPH  =      F    aspherical Exc in radial PAW
 Electronic Relaxation 1
   ENCUT  =  400.0 eV  29.40 Ry    5.42 a.u.   4.11  4.11  4.11*2*pi/ulx,y,z
   ENINI  =  400.0     initial cutoff
   ENAUG  =  477.8 eV  augmentation charge cutoff
   NELM   =    100;   NELMIN=  2; NELMDL= -5     # of ELM steps 
   EDIFF  = 0.1E-05   stopping-criterion for ELM
   LREAL  =      F    real-space projection
   NLSPLINE    = F    spline interpolate recip. space projectors
   LCOMPAT=      F    compatible to vasp.4.4
   GGA_COMPAT  = T    GGA compatible to vasp.4.4-vasp.4.6
   LMAXPAW     = -100 max onsite density
   LMAXMIX     =    2 max onsite mixed and CHGCAR
   VOSKOWN=      0    Vosko Wilk Nusair interpolation
   ROPT   =    0.00000
 Ionic relaxation
   EDIFFG = -.2E-01   stopping-criterion for IOM
   NSW    =    100    number of steps for IOM
   NBLOCK =      1;   KBLOCK =    100    inner block; outer block 
   IBRION =      2    ionic relax: 0-MD 1-quasi-New 2-CG
   NFREE  =      1    steps in history (QN), initial steepest desc. (CG)
   ISIF   =      2    stress and relaxation
   IWAVPR =     11    prediction:  0-non 1-charg 2-wave 3-comb
   ISYM   =      1    0-nonsym 1-usesym 2-fastsym
   LCORR  =      T    Harris-Foulkes like correction to forces

   POTIM  = 0.5000    time-step for ionic-motion
   TEIN   =    0.0    initial temperature
   TEBEG  =    0.0;   TEEND  =   0.0 temperature during run
   SMASS  =  -3.00    Nose mass-parameter (am)
   estimated Nose-frequenzy (Omega)   =  0.10E-29 period in steps = 0.13E+47 mass=  -0.145E-27a.u.
   SCALEE = 1.0000    scale energy and forces
   NPACO  =    256;   APACO  = 10.0  distance and # of slots for P.C.
   PSTRESS=    0.0 pullay stress

  Mass of Ions in am
   POMASS =  58.93
  Ionic Valenz
   ZVAL   =   9.00
  Atomic Wigner-Seitz radii
   RWIGS  =  -1.00
  virtual crystal weights 
   VCA    =   1.00
   NELECT =       9.0000    total number of electrons
   NUPDOWN=      -1.0000    fix difference up-down

 DOS related values:
   EMIN   =  10.00;   EMAX   =-10.00  energy-range for DOS
   EFERMI =   0.00
   ISMEAR =     0;   SIGMA  =   0.05  broadening in eV -4-tet -1-fermi 0-gaus

 Electronic relaxation 2 (details)
   IALGO  =     38    algorithm
   LDIAG  =      T    sub-space diagonalisation (order eigenvalues)
   LSUBROT=      F    optimize rotation matrix (better conditioning)
   TURBO    =      0    0=normal 1=particle mesh
   IRESTART =      0    0=no restart 2=restart with 2 vectors
   NREBOOT  =      0    no. of reboots
   NMIN     =      0    reboot dimension
   EREF     =   0.00    reference energy to select bands
   IMIX   =      4    mixing-type and parameters
     AMIX     =   0.40;   BMIX     =  1.00
     AMIX_MAG =   1.60;   BMIX_MAG =  1.00
     AMIN     =   0.10
     WC   =   100.;   INIMIX=   1;  MIXPRE=   1;  MAXMIX= -45

 Intra band minimization:
   WEIMIN = 0.0010     energy-eigenvalue tresh-hold
   EBREAK =  0.21E-07  absolut break condition
   DEPER  =   0.30     relativ break condition  

   TIME   =   0.40     timestep for ELM

  volume/ion in A,a.u.               =      11.34        76.51
  Fermi-wavevector in a.u.,A,eV,Ry     =   1.515840  2.864523 31.263077  2.297771
  Thomas-Fermi vector in A             =   2.625310
 
 Write flags
   LWAVE        =      T    write WAVECAR
   LDOWNSAMPLE  =      F    k-point downsampling of WAVECAR
   LCHARG       =      T    write CHGCAR
   LVTOT        =      F    write LOCPOT, total local potential
   LVHAR        =      F    write LOCPOT, Hartree potential only
   LELF         =      F    write electronic localiz. function (ELF)
   LORBIT       =     11    0 simple, 1 ext, 2 COOP (PROOUT), +10 PAW based schemes


 Dipole corrections
   LMONO  =      F    monopole corrections only (constant potential shift)
   LDIPOL =      F    correct potential (dipole corrections)
   IDIPOL =      0    1-x, 2-y, 3-z, 4-all directions 
   EPSILON=  1.0000000 bulk dielectric constant

 Exchange correlation treatment:
   GGA     =    --    GGA type
   LEXCH   =     8    internal setting for exchange type
   LIBXC   =     F    Libxc                    
   VOSKOWN =     0    Vosko Wilk Nusair interpolation
   LHFCALC =     F    Hartree Fock is set to
   LHFONE  =     F    Hartree Fock one center treatment
   AEXX    =    0.0000 exact exchange contribution

 Linear response parameters
   LEPSILON=     F    determine dielectric tensor
   LRPA    =     F    only Hartree local field effects (RPA)
   LNABLA  =     F    use nabla operator in PAW spheres
   LVEL    =     F    velocity operator in full k-point grid
   CSHIFT  =0.1000    complex shift for real part using Kramers Kronig
   OMEGAMAX=  -1.0    maximum frequency
   DEG_THRESHOLD= 0.2000000E-02 threshold for treating states as degnerate
   RTIME   =   -0.100 relaxation time in fs
  (WPLASMAI=    0.000 imaginary part of plasma frequency in eV, 0.658/RTIME)
   DFIELD  = 0.0000000 0.0000000 0.0000000 field for delta impulse in time
 
  Optional k-point grid parameters
   LKPOINTS_OPT  =     F    use optional k-point grid
   KPOINTS_OPT_MODE=     1    mode for optional k-point grid
 
 Orbital magnetization related:
   ORBITALMAG=     F  switch on orbital magnetization
   LCHIMAG   =     F  perturbation theory with respect to B field
   DQ        =  0.001000  dq finite difference perturbation B field
   LLRAUG    =     F  two centre corrections for induced B field



--------------------------------------------------------------------------------------------------------


 conjugate gradient relaxation of ions
 charge density and potential will be updated during run
 spin polarized calculation
 Variant of blocked Davidson
 Davidson routine will perform the subspace rotation
 perform sub-space diagonalisation
    after iterative eigenvector-optimisation
 modified Broyden-mixing scheme, WC =      100.0
 initial mixing is a Kerker type mixing with AMIX =  0.4000 and BMIX =      1.0000
 Hartree-type preconditioning will be used
 using additional bands            7
 reciprocal scheme for non local part
 use partial core corrections
 calculate Harris-corrections to forces 
   (improved forces if not selfconsistent)
 use gradient corrections 
 use of overlap-Matrix (Vanderbilt PP)
 Gauss-broadening in eV      SIGMA  =   0.05


--------------------------------------------------------------------------------------------------------


  energy-cutoff  :      400.00
  volume of cell :       11.34
      direct lattice vectors                 reciprocal lattice vectors
     0.000000000  1.783031154  1.783031154    -0.280421348  0.280421348  0.280421348
     1.783031154  0.000000000  1.783031154     0.280421348 -0.280421348  0.280421348
     1.783031154  1.783031154  0.000000000     0.280421348  0.280421348 -0.280421348

  length of vectors
     2.521586839  2.521586839  2.521586839     0.485704023  0.485704023  0.485704023


 
 k-points in units of 2pi/SCALE and weight: Automatic mesh                          
   0.01752633  0.01752633  0.01752633       0.004
  -0.01752633  0.05257900  0.05257900       0.012
  -0.05257900  0.08763167  0.08763167       0.012
  -0.08763167  0.12268434  0.12268434       0.012
   0.15773701 -0.12268434 -0.12268434       0.012
   0.12268434 -0.08763167 -0.08763167       0.012
   0.08763167 -0.05257900 -0.05257900       0.012
   0.05257900 -0.01752633 -0.01752633       0.012
   0.01752633  0.01752633  0.08763167       0.012
  -0.01752633  0.05257900  0.12268434       0.023
  -0.05257900  0.08763167  0.15773701       0.023
   0.19278968 -0.15773701 -0.08763167       0.023
   0.15773701 -0.12268434 -0.05257900       0.023
   0.12268434 -0.08763167 -0.01752633       0.023
   0.08763167 -0.05257900  0.01752633       0.023
   0.01752633  0.01752633  0.15773701       0.012
  -0.01752633  0.05257900  0.19278968       0.023
   0.22784235 -0.19278968 -0.05257900       0.023
   0.19278968 -0.15773701 -0.01752633       0.023
   0.15773701 -0.12268434  0.01752633       0.023
   0.12268434 -0.08763167  0.05257900       0.023
   0.01752633  0.01752633  0.22784235       0.012
   0.26289501 -0.22784235 -0.01752633       0.023
   0.22784235 -0.19278968  0.01752633       0.023
   0.19278968 -0.15773701  0.05257900       0.023
   0.15773701 -0.12268434  0.08763167       0.023
   0.01752633  0.01752633 -0.26289501       0.012
  -0.01752633  0.05257900 -0.22784235       0.023
  -0.05257900  0.08763167 -0.19278968       0.023
   0.01752633  0.01752633 -0.19278968       0.012
  -0.01752633  0.05257900 -0.15773701       0.023
   0.01752633  0.01752633 -0.12268434       0.012
   0.05257900  0.05257900  0.05257900       0.004
   0.01752633  0.08763167  0.08763167       0.012
  -0.01752633  0.12268434  0.12268434       0.012
   0.22784235 -0.12268434 -0.12268434       0.012
   0.19278968 -0.08763167 -0.08763167       0.012
   0.15773701 -0.05257900 -0.05257900       0.012
   0.05257900  0.05257900  0.12268434       0.012
   0.01752633  0.08763167  0.15773701       0.023
   0.26289501 -0.15773701 -0.08763167       0.023
   0.22784235 -0.12268434 -0.05257900       0.023
   0.19278968 -0.08763167 -0.01752633       0.023
   0.05257900  0.05257900  0.19278968       0.012
   0.29794768 -0.19278968 -0.05257900       0.023
   0.26289501 -0.15773701 -0.01752633       0.023
   0.22784235 -0.12268434  0.01752633       0.023
   0.05257900  0.05257900 -0.29794768       0.012
   0.01752633  0.08763167 -0.26289501       0.023
   0.05257900  0.05257900 -0.22784235       0.012
   0.08763167  0.08763167  0.08763167       0.004
   0.05257900  0.12268434  0.12268434       0.012
   0.29794768 -0.12268434 -0.12268434       0.012
   0.26289501 -0.08763167 -0.08763167       0.012
   0.08763167  0.08763167  0.15773701       0.012
   0.33300035 -0.15773701 -0.08763167       0.023
   0.29794768 -0.12268434 -0.05257900       0.023
   0.08763167  0.08763167 -0.33300035       0.012
   0.12268434  0.12268434  0.12268434       0.004
   0.36805302 -0.12268434 -0.12268434       0.012
 
 k-points in reciprocal lattice and weights: Automatic mesh                          
   0.06250000  0.06250000  0.06250000       0.004
   0.18750000  0.06250000  0.06250000       0.012
   0.31250000  0.06250000  0.06250000       0.012
   0.43750000  0.06250000  0.06250000       0.012
  -0.43750000  0.06250000  0.06250000       0.012
  -0.31250000  0.06250000  0.06250000       0.012
  -0.18750000  0.06250000  0.06250000       0.012
  -0.06250000  0.06250000  0.06250000       0.012
   0.18750000  0.18750000  0.06250000       0.012
   0.31250000  0.18750000  0.06250000       0.023
   0.43750000  0.18750000  0.06250000       0.023
  -0.43750000  0.18750000  0.06250000       0.023
  -0.31250000  0.18750000  0.06250000       0.023
  -0.18750000  0.18750000  0.06250000       0.023
  -0.06250000  0.18750000  0.06250000       0.023
   0.31250000  0.31250000  0.06250000       0.012
   0.43750000  0.31250000  0.06250000       0.023
  -0.43750000  0.31250000  0.06250000       0.023
  -0.31250000  0.31250000  0.06250000       0.023
  -0.18750000  0.31250000  0.06250000       0.023
  -0.06250000  0.31250000  0.06250000       0.023
   0.43750000  0.43750000  0.06250000       0.012
  -0.43750000  0.43750000  0.06250000       0.023
  -0.31250000  0.43750000  0.06250000       0.023
  -0.18750000  0.43750000  0.06250000       0.023
  -0.06250000  0.43750000  0.06250000       0.023
  -0.43750000 -0.43750000  0.06250000       0.012
  -0.31250000 -0.43750000  0.06250000       0.023
  -0.18750000 -0.43750000  0.06250000       0.023
  -0.31250000 -0.31250000  0.06250000       0.012
  -0.18750000 -0.31250000  0.06250000       0.023
  -0.18750000 -0.18750000  0.06250000       0.012
   0.18750000  0.18750000  0.18750000       0.004
   0.31250000  0.18750000  0.18750000       0.012
   0.43750000  0.18750000  0.18750000       0.012
  -0.43750000  0.18750000  0.18750000       0.012
  -0.31250000  0.18750000  0.18750000       0.012
  -0.18750000  0.18750000  0.18750000       0.012
   0.31250000  0.31250000  0.18750000       0.012
   0.43750000  0.31250000  0.18750000       0.023
  -0.43750000  0.31250000  0.18750000       0.023
  -0.31250000  0.31250000  0.18750000       0.023
  -0.18750000  0.31250000  0.18750000       0.023
   0.43750000  0.43750000  0.18750000       0.012
  -0.43750000  0.43750000  0.18750000       0.023
  -0.31250000  0.43750000  0.18750000       0.023
  -0.18750000  0.43750000  0.18750000       0.023
  -0.43750000 -0.43750000  0.18750000       0.012
  -0.31250000 -0.43750000  0.18750000       0.023
  -0.31250000 -0.31250000  0.18750000       0.012
   0.31250000  0.31250000  0.31250000       0.004
   0.43750000  0.31250000  0.31250000       0.012
  -0.43750000  0.31250000  0.31250000       0.012
  -0.31250000  0.31250000  0.31250000       0.012
   0.43750000  0.43750000  0.31250000       0.012
  -0.43750000  0.43750000  0.31250000       0.023
  -0.31250000  0.43750000  0.31250000       0.023
  -0.43750000 -0.43750000  0.31250000       0.012
   0.43750000  0.43750000  0.43750000       0.004
  -0.43750000  0.43750000  0.43750000       0.012
 
 position of ions in fractional coordinates (direct lattice) 
   0.00000000  0.00000000  0.00000000
 
 position of ions in cartesian coordinates  (Angst):
   0.00000000  0.00000000  0.00000000
 


--------------------------------------------------------------------------------------------------------


 k-point   1 :   0.0625 0.0625 0.0625  plane waves:     181
 k-point   2 :   0.1875 0.0625 0.0625  plane waves:     196
 k-point   3 :   0.3125 0.0625 0.0625  plane waves:     202
 k-point   4 :   0.4375 0.0625 0.0625  plane waves:     206
 k-point   5 :  -0.4375 0.0625 0.0625  plane waves:     210
 k-point   6 :  -0.3125 0.0625 0.0625  plane waves:     205
 k-point   7 :  -0.1875 0.0625 0.0625  plane waves:     202
 k-point   8 :  -0.0625 0.0625 0.0625  plane waves:     196
 k-point   9 :   0.1875 0.1875 0.0625  plane waves:     198
 k-point  10 :   0.3125 0.1875 0.0625  plane waves:     201
 k-point  11 :   0.4375 0.1875 0.0625  plane waves:     204
 k-point  12 :  -0.4375 0.1875 0.0625  plane waves:     207
 k-point  13 :  -0.3125 0.1875 0.0625  plane waves:     207
 k-point  14 :  -0.1875 0.1875 0.0625  plane waves:     206
 k-point  15 :  -0.0625 0.1875 0.0625  plane waves:     200
 k-point  16 :   0.3125 0.3125 0.0625  plane waves:     207
 k-point  17 :   0.4375 0.3125 0.0625  plane waves:     207
 k-point  18 :  -0.4375 0.3125 0.0625  plane waves:     210
 k-point  19 :  -0.3125 0.3125 0.0625  plane waves:     207
 k-point  20 :  -0.1875 0.3125 0.0625  plane waves:     206
 k-point  21 :  -0.0625 0.3125 0.0625  plane waves:     203
 k-point  22 :   0.4375 0.4375 0.0625  plane waves:     209
 k-point  23 :  -0.4375 0.4375 0.0625  plane waves:     208
 k-point  24 :  -0.3125 0.4375 0.0625  plane waves:     207
 k-point  25 :  -0.1875 0.4375 0.0625  plane waves:     206
 k-point  26 :  -0.0625 0.4375 0.0625  plane waves:     207
 k-point  27 :  -0.4375-0.4375 0.0625  plane waves:     211
 k-point  28 :  -0.3125-0.4375 0.0625  plane waves:     206
 k-point  29 :  -0.1875-0.4375 0.0625  plane waves:     205
 k-point  30 :  -0.3125-0.3125 0.0625  plane waves:     207
 k-point  31 :  -0.1875-0.3125 0.0625  plane waves:     208
 k-point  32 :  -0.1875-0.1875 0.0625  plane waves:     205
 k-point  33 :   0.1875 0.1875 0.1875  plane waves:     193
 k-point  34 :   0.3125 0.1875 0.1875  plane waves:     202
 k-point  35 :   0.4375 0.1875 0.1875  plane waves:     208
 k-point  36 :  -0.4375 0.1875 0.1875  plane waves:     209
 k-point  37 :  -0.3125 0.1875 0.1875  plane waves:     205
 k-point  38 :  -0.1875 0.1875 0.1875  plane waves:     206
 k-point  39 :   0.3125 0.3125 0.1875  plane waves:     202
 k-point  40 :   0.4375 0.3125 0.1875  plane waves:     207
 k-point  41 :  -0.4375 0.3125 0.1875  plane waves:     207
 k-point  42 :  -0.3125 0.3125 0.1875  plane waves:     206
 k-point  43 :  -0.1875 0.3125 0.1875  plane waves:     205
 k-point  44 :   0.4375 0.4375 0.1875  plane waves:     208
 k-point  45 :  -0.4375 0.4375 0.1875  plane waves:     206
 k-point  46 :  -0.3125 0.4375 0.1875  plane waves:     206
 k-point  47 :  -0.1875 0.4375 0.1875  plane waves:     208
 k-point  48 :  -0.4375-0.4375 0.1875  plane waves:     210
 k-point  49 :  -0.3125-0.4375 0.1875  plane waves:     209
 k-point  50 :  -0.3125-0.3125 0.1875  plane waves:     209
 k-point  51 :   0.3125 0.3125 0.3125  plane waves:     205
 k-point  52 :   0.4375 0.3125 0.3125  plane waves:     208
 k-point  53 :  -0.4375 0.3125 0.3125  plane waves:     204
 k-point  54 :  -0.3125 0.3125 0.3125  plane waves:     214
 k-point  55 :   0.4375 0.4375 0.3125  plane waves:     205
 k-point  56 :  -0.4375 0.4375 0.3125  plane waves:     203
 k-point  57 :  -0.3125 0.4375 0.3125  plane waves:     207
 k-point  58 :  -0.4375-0.4375 0.3125  plane waves:     208
 k-point  59 :   0.4375 0.4375 0.4375  plane waves:     210
 k-point  60 :  -0.4375 0.4375 0.4375  plane waves:     206

 maximum and minimum number of plane-waves per node :        41       28

 maximum number of plane-waves:       214
 maximum index in each direction: 
   IXMAX=    4   IYMAX=    4   IZMAX=    4
   IXMIN=   -4   IYMIN=   -4   IZMIN=   -4


 parallel 3D FFT for wavefunctions:
    minimum data exchange during FFTs selected (reduces bandwidth)
 parallel 3D FFT for charge:
    minimum data exchange during FFTs selected (reduces bandwidth)


 total amount of memory used by VASP MPI-rank0    30973. kBytes
=======================================================================

   base      :      30000. kBytes
   nonl-proj :        311. kBytes
   fftplans  :         92. kBytes
   grid      :        217. kBytes
   one-center:         31. kBytes
   wavefun   :        322. kBytes
 
     INWAV:  cpu time      0.0000: real time      0.0001
 Broyden mixing: mesh for mixing (old mesh)
   NGX =  9   NGY =  9   NGZ =  9
  (NGX  = 32   NGY  = 32   NGZ  = 32)
  gives a total of    729 points

 initial charge density was supplied:
 charge density of overlapping atoms calculated
 number of electron       9.0000000 magnetization       3.0000000
 keeping initial charge density in first step


--------------------------------------------------------------------------------------------------------


 Maximum index for augmentation-charges         1126 (set IRDMAX)


--------------------------------------------------------------------------------------------------------


 First call to EWALD:  gamma=   0.789
 Maximum number of real-space cells 3x 3x 3
 Maximum number of reciprocal cells 3x 3x 3

    FEWALD:  cpu time      0.0014: real time      0.0015


--------------------------------------- Iteration      1(   1)  ---------------------------------------


    POTLOK:  cpu time      0.0047: real time      0.0048
    SETDIJ:  cpu time      0.0053: real time      0.0053
     EDDAV:  cpu time      0.2642: real time      0.2658
       DOS:  cpu time      0.0009: real time      0.0009
    --------------------------------------------
      LOOP:  cpu time      0.2751: real time      0.2768

 eigenvalue-minimisations  :  2932
 total energy-change (2. order) : 0.2192593E+02  (-0.3518874E+03)
 number of electron       9.0000000 magnetization       3.0000000
 augmentation part        9.0000000 magnetization       3.0000000

 Free energy of the ion-electron system (eV)
  ---------------------------------------------------
  alpha Z        PSCENC =        37.36160178
  Ewald energy   TEWEN  =      -749.80519427
  -Hartree energ DENC   =      -154.66646876
  -exchange      EXHF   =         0.00000000
  -V(xc)+E(xc)   XCENC  =        17.67465460
  PAW double counting   =       719.99081943     -772.94345096
  entropy T*S    EENTRO =        -0.00115218
  eigenvalues    EBANDS =       110.95738546
  atomic energy  EATOM  =       813.35773410
  Solvation  Ediel_sol  =         0.00000000
  ---------------------------------------------------
  free energy    TOTEN  =        21.92592920 eV

  energy without entropy =       21.92708138  energy(sigma->0) =       21.92650529


--------------------------------------------------------------------------------------------------------




--------------------------------------- Iteration      1(   2)  ---------------------------------------


     EDDAV:  cpu time      0.2641: real time      0.2663
       DOS:  cpu time      0.0008: real time      0.0008
    --------------------------------------------
      LOOP:  cpu time      0.2649: real time      0.2671

 eigenvalue-minimisations  :  3084
 total energy-change (2. order) :-0.2899083E+02  (-0.2689602E+02)
 number of electron       9.0000000 magnetization       3.0000000
 augmentation part        9.0000000 magnetization       3.0000000

 Free energy of the ion-electron system (eV)
  ---------------------------------------------------
  alpha Z        PSCENC =        37.36160178
  Ewald energy   TEWEN  =      -749.80519427
  -Hartree energ DENC   =      -154.66646876
  -exchange      EXHF   =         0.00000000
  -V(xc)+E(xc)   XCENC  =        17.67465460
  PAW double counting   =       719.99081943     -772.94345096
  entropy T*S    EENTRO =        -0.00138032
  eigenvalues    EBANDS =        81.96678268
  atomic energy  EATOM  =       813.35773410
  Solvation  Ediel_sol  =         0.00000000
  ---------------------------------------------------
  free energy    TOTEN  =        -7.06490173 eV

  energy without entropy =       -7.06352141  energy(sigma->0) =       -7.06421157


--------------------------------------------------------------------------------------------------------




--------------------------------------- Iteration      1(   3)  ---------------------------------------


     EDDAV:  cpu time      0.2724: real time      0.2746
       DOS:  cpu time      0.0009: real time      0.0009
    --------------------------------------------
      LOOP:  cpu time      0.2733: real time      0.2754

 eigenvalue-minimisations  :  3324
 total energy-change (2. order) :-0.7629338E+00  (-0.7577768E+00)
 number of electron       9.0000000 magnetization       3.0000000
 augmentation part        9.0000000 magnetization       3.0000000

 Free energy of the ion-electron system (eV)
  ---------------------------------------------------
  alpha Z        PSCENC =        37.36160178
  Ewald energy   TEWEN  =      -749.80519427
  -Hartree energ DENC   =      -154.66646876
  -exchange      EXHF   =         0.00000000
  -V(xc)+E(xc)   XCENC  =        17.67465460
  PAW double counting   =       719.99081943     -772.94345096
  entropy T*S    EENTRO =        -0.00108707
  eigenvalues    EBANDS =        81.20355563
  atomic energy  EATOM  =       813.35773410
  Solvation  Ediel_sol  =         0.00000000
  ---------------------------------------------------
  free energy    TOTEN  =        -7.82783553 eV

  energy without entropy =       -7.82674846  energy(sigma->0) =       -7.82729200


--------------------------------------------------------------------------------------------------------




--------------------------------------- Iteration      1(   4)  ---------------------------------------


     EDDAV:  cpu time      0.2842: real time      0.2859
       DOS:  cpu time      0.0008: real time      0.0008
    --------------------------------------------
      LOOP:  cpu time      0.2850: real time      0.2867

 eigenvalue-minimisations  :  3516
 total energy-change (2. order) :-0.8166614E-02  (-0.8165333E-02)
 number of electron       9.0000000 magnetization       3.0000000
 augmentation part        9.0000000 magnetization       3.0000000

 Free energy of the ion-electron system (eV)
  ---------------------------------------------------
  alpha Z        PSCENC =        37.36160178
  Ewald energy   TEWEN  =      -749.80519427
  -Hartree energ DENC   =      -154.66646876
  -exchange      EXHF   =         0.00000000
  -V(xc)+E(xc)   XCENC  =        17.67465460
  PAW double counting   =       719.99081943     -772.94345096
  entropy T*S    EENTRO =        -0.00109216
  eigenvalues    EBANDS =        81.19539410
  atomic energy  EATOM  =       813.35773410
  Solvation  Ediel_sol  =         0.00000000
  ---------------------------------------------------
  free energy    TOTEN  =        -7.83600215 eV

  energy without entropy =       -7.83490998  energy(sigma->0) =       -7.83545606


--------------------------------------------------------------------------------------------------------




--------------------------------------- Iteration      1(   5)  ---------------------------------------


     EDDAV:  cpu time      0.3077: real time      0.3094
       DOS:  cpu time      0.0009: real time      0.0009
    CHARGE:  cpu time      0.0104: real time      0.0105
    MIXING:  cpu time      0.0002: real time      0.0002
    --------------------------------------------
      LOOP:  cpu time      0.3192: real time      0.3210

 eigenvalue-minimisations  :  3716
 total energy-change (2. order) :-0.1947415E-03  (-0.1947375E-03)
 number of electron       9.0000009 magnetization       1.4719755
 augmentation part        4.5784523 magnetization       1.0630198

 Broyden mixing:
  rms(total) = 0.10833E+01    rms(broyden)= 0.10833E+01
  rms(prec ) = 0.32139E+01
  weight for this iteration     100.00

 Free energy of the ion-electron system (eV)
  ---------------------------------------------------
  alpha Z        PSCENC =        37.36160178
  Ewald energy   TEWEN  =      -749.80519427
  -Hartree energ DENC   =      -154.66646876
  -exchange      EXHF   =         0.00000000
  -V(xc)+E(xc)   XCENC  =        17.67465460
  PAW double counting   =       719.99081943     -772.94345096
  entropy T*S    EENTRO =        -0.00109217
  eigenvalues    EBANDS =        81.19519937
  atomic energy  EATOM  =       813.35773410
  Solvation  Ediel_sol  =         0.00000000
  ---------------------------------------------------
  free energy    TOTEN  =        -7.83619689 eV

  energy without entropy =       -7.83510472  energy(sigma->0) =       -7.83565080


--------------------------------------------------------------------------------------------------------




--------------------------------------- Iteration      1(   6)  ---------------------------------------


    POTLOK:  cpu time      0.0031: real time      0.0033
    SETDIJ:  cpu time      0.0050: real time      0.0050
     EDDAV:  cpu time      0.2974: real time      0.2989
       DOS:  cpu time      0.0009: real time      0.0009
    CHARGE:  cpu time      0.0097: real time      0.0097
    MIXING:  cpu time      0.0002: real time      0.0002
    --------------------------------------------
      LOOP:  cpu time      0.3163: real time      0.3181

 eigenvalue-minimisations  :  3708
 total energy-change (2. order) : 0.6049581E+00  (-0.1285295E+01)
 number of electron       9.0000011 magnetization       1.5926135
 augmentation part        5.3691725 magnetization       1.4586581

 Broyden mixing:
  rms(total) = 0.47506E+00    rms(broyden)= 0.47504E+00
  rms(prec ) = 0.10407E+01
  weight for this iteration     100.00

 eigenvalues of (default mixing * dielectric matrix)
  average eigenvalue GAMMA=   0.8370
  0.8370

 Free energy of the ion-electron system (eV)
  ---------------------------------------------------
  alpha Z        PSCENC =        37.36160178
  Ewald energy   TEWEN  =      -749.80519427
  -Hartree energ DENC   =      -135.65358739
  -exchange      EXHF   =         0.00000000
  -V(xc)+E(xc)   XCENC  =        16.15669599
  PAW double counting   =       781.19502205     -828.85745762
  entropy T*S    EENTRO =        -0.00208908
  eigenvalues    EBANDS =        59.01603564
  atomic energy  EATOM  =       813.35773410
  Solvation  Ediel_sol  =         0.00000000
  ---------------------------------------------------
  free energy    TOTEN  =        -7.23123878 eV

  energy without entropy =       -7.22914971  energy(sigma->0) =       -7.23019425


--------------------------------------------------------------------------------------------------------




--------------------------------------- Iteration      1(   7)  ---------------------------------------


    POTLOK:  cpu time      0.0028: real time      0.0030
    SETDIJ:  cpu time      0.0046: real time      0.0046
     EDDAV:  cpu time      0.2868: real time      0.2883
       DOS:  cpu time      0.0009: real time      0.0009
    CHARGE:  cpu time      0.0095: real time      0.0096
    MIXING:  cpu time      0.0002: real time      0.0002
    --------------------------------------------
      LOOP:  cpu time      0.3049: real time      0.3067

 eigenvalue-minimisations  :  3568
 total energy-change (2. order) : 0.2104332E+00  (-0.1651947E+00)
 number of electron       9.0000010 magnetization       1.6328903
 augmentation part        5.0994910 magnetization       1.4718232

 Broyden mixing:
  rms(total) = 0.24402E+00    rms(broyden)= 0.24402E+00
  rms(prec ) = 0.39518E+00
  weight for this iteration     100.00

 eigenvalues of (default mixing * dielectric matrix)
  average eigenvalue GAMMA=   0.7286
  0.9656  0.4915

 Free energy of the ion-electron system (eV)
  ---------------------------------------------------
  alpha Z        PSCENC =        37.36160178
  Ewald energy   TEWEN  =      -749.80519427
  -Hartree energ DENC   =      -140.00954467
  -exchange      EXHF   =         0.00000000
  -V(xc)+E(xc)   XCENC  =        16.41857046
  PAW double counting   =       812.23677208     -863.33385700
  entropy T*S    EENTRO =        -0.00208735
  eigenvalues    EBANDS =        66.75519930
  atomic energy  EATOM  =       813.35773410
  Solvation  Ediel_sol  =         0.00000000
  ---------------------------------------------------
  free energy    TOTEN  =        -7.02080558 eV

  energy without entropy =       -7.01871822  energy(sigma->0) =       -7.01976190


--------------------------------------------------------------------------------------------------------




--------------------------------------- Iteration      1(   8)  ---------------------------------------


    POTLOK:  cpu time      0.0028: real time      0.0030
    SETDIJ:  cpu time      0.0045: real time      0.0045
     EDDAV:  cpu time      0.3053: real time      0.3069
       DOS:  cpu time      0.0009: real time      0.0009
    CHARGE:  cpu time      0.0095: real time      0.0096
    MIXING:  cpu time      0.0002: real time      0.0002
    --------------------------------------------
      LOOP:  cpu time      0.3233: real time      0.3251

 eigenvalue-minimisations  :  3868
 total energy-change (2. order) : 0.9871756E-02  (-0.1434476E-02)
 number of electron       9.0000010 magnetization       1.6479165
 augmentation part        5.1154044 magnetization       1.4817629

 Broyden mixing:
  rms(total) = 0.10969E+00    rms(broyden)= 0.10969E+00
  rms(prec ) = 0.21181E+00
  weight for this iteration     100.00

 eigenvalues of (default mixing * dielectric matrix)
  average eigenvalue GAMMA=   1.0113
  1.7096  0.7625  0.5618

 Free energy of the ion-electron system (eV)
  ---------------------------------------------------
  alpha Z        PSCENC =        37.36160178
  Ewald energy   TEWEN  =      -749.80519427
  -Hartree energ DENC   =      -138.78992191
  -exchange      EXHF   =         0.00000000
  -V(xc)+E(xc)   XCENC  =        16.37370312
  PAW double counting   =       835.85108125     -887.59273392
  entropy T*S    EENTRO =        -0.00228567
  eigenvalues    EBANDS =        66.23508170
  atomic energy  EATOM  =       813.35773410
  Solvation  Ediel_sol  =         0.00000000
  ---------------------------------------------------
  free energy    TOTEN  =        -7.01093382 eV

  energy without entropy =       -7.00864815  energy(sigma->0) =       -7.00979099


--------------------------------------------------------------------------------------------------------




--------------------------------------- Iteration      1(   9)  ---------------------------------------


    POTLOK:  cpu time      0.0028: real time      0.0030
    SETDIJ:  cpu time      0.0045: real time      0.0045
     EDDAV:  cpu time      0.3447: real time      0.3465
       DOS:  cpu time      0.0009: real time      0.0009
    CHARGE:  cpu time      0.0097: real time      0.0097
    MIXING:  cpu time      0.0003: real time      0.0003
    --------------------------------------------
      LOOP:  cpu time      0.3629: real time      0.3649

 eigenvalue-minimisations  :  4460
 total energy-change (2. order) : 0.5931387E-02  (-0.6183678E-03)
 number of electron       9.0000010 magnetization       1.6349589
 augmentation part        5.1305397 magnetization       1.4685878

 Broyden mixing:
  rms(total) = 0.28579E-01    rms(broyden)= 0.28578E-01
  rms(prec ) = 0.57699E-01
  weight for this iteration     100.00

 eigenvalues of (default mixing * dielectric matrix)
  average eigenvalue GAMMA=   1.1236
  2.2717  0.8960  0.7050  0.6216

 Free energy of the ion-electron system (eV)
  ---------------------------------------------------
  alpha Z        PSCENC =        37.36160178
  Ewald energy   TEWEN  =      -749.80519427
  -Hartree energ DENC   =      -137.53738688
  -exchange      EXHF   =         0.00000000
  -V(xc)+E(xc)   XCENC  =        16.32793348
  PAW double counting   =       863.21027090     -915.66869176
  entropy T*S    EENTRO =        -0.00237196
  eigenvalues    EBANDS =        65.75110218
  atomic energy  EATOM  =       813.35773410
  Solvation  Ediel_sol  =         0.00000000
  ---------------------------------------------------
  free energy    TOTEN  =        -7.00500243 eV

  energy without entropy =       -7.00263048  energy(sigma->0) =       -7.00381646


--------------------------------------------------------------------------------------------------------




--------------------------------------- Iteration      1(  10)  ---------------------------------------


    POTLOK:  cpu time      0.0029: real time      0.0031
    SETDIJ:  cpu time      0.0046: real time      0.0049
     EDDAV:  cpu time      0.3384: real time      0.3402
       DOS:  cpu time      0.0009: real time      0.0009
    CHARGE:  cpu time      0.0095: real time      0.0096
    MIXING:  cpu time      0.0002: real time      0.0002
    --------------------------------------------
      LOOP:  cpu time      0.3565: real time      0.3589

 eigenvalue-minimisations  :  4400
 total energy-change (2. order) : 0.6656695E-03  (-0.5247304E-04)
 number of electron       9.0000010 magnetization       1.6290621
 augmentation part        5.1344910 magnetization       1.4655410

 Broyden mixing:
  rms(total) = 0.48233E-02    rms(broyden)= 0.48231E-02
  rms(prec ) = 0.76703E-02
  weight for this iteration     100.00

 eigenvalues of (default mixing * dielectric matrix)
  average eigenvalue GAMMA=   0.9946
  2.2738  0.7986  0.7852  0.5886  0.5270

 Free energy of the ion-electron system (eV)
  ---------------------------------------------------
  alpha Z        PSCENC =        37.36160178
  Ewald energy   TEWEN  =      -749.80519427
  -Hartree energ DENC   =      -137.05768849
  -exchange      EXHF   =         0.00000000
  -V(xc)+E(xc)   XCENC  =        16.30511611
  PAW double counting   =       876.43153397     -929.23653498
  entropy T*S    EENTRO =        -0.00232697
  eigenvalues    EBANDS =        65.64142199
  atomic energy  EATOM  =       813.35773410
  Solvation  Ediel_sol  =         0.00000000
  ---------------------------------------------------
  free energy    TOTEN  =        -7.00433676 eV

  energy without entropy =       -7.00200979  energy(sigma->0) =       -7.00317328


--------------------------------------------------------------------------------------------------------




--------------------------------------- Iteration      1(  11)  ---------------------------------------


    POTLOK:  cpu time      0.0029: real time      0.0030
    SETDIJ:  cpu time      0.0045: real time      0.0046
     EDDAV:  cpu time      0.2851: real time      0.2866
       DOS:  cpu time      0.0009: real time      0.0009
    CHARGE:  cpu time      0.0095: real time      0.0095
    MIXING:  cpu time      0.0002: real time      0.0002
    --------------------------------------------
      LOOP:  cpu time      0.3031: real time      0.3048

 eigenvalue-minimisations  :  3556
 total energy-change (2. order) :-0.8681041E-05  (-0.4438368E-05)
 number of electron       9.0000010 magnetization       1.6203995
 augmentation part        5.1347712 magnetization       1.4574301

 Broyden mixing:
  rms(total) = 0.32524E-02    rms(broyden)= 0.32523E-02
  rms(prec ) = 0.40028E-02
  weight for this iteration     100.00

 eigenvalues of (default mixing * dielectric matrix)
  average eigenvalue GAMMA=   1.3377
  2.5063  2.5063  0.9592  0.6262  0.7141  0.7141

 Free energy of the ion-electron system (eV)
  ---------------------------------------------------
  alpha Z        PSCENC =        37.36160178
  Ewald energy   TEWEN  =      -749.80519427
  -Hartree energ DENC   =      -137.02939896
  -exchange      EXHF   =         0.00000000
  -V(xc)+E(xc)   XCENC  =        16.29832699
  PAW double counting   =       878.36901045     -931.20232366
  entropy T*S    EENTRO =        -0.00225647
  eigenvalues    EBANDS =        65.64815460
  atomic energy  EATOM  =       813.35773410
  Solvation  Ediel_sol  =         0.00000000
  ---------------------------------------------------
  free energy    TOTEN  =        -7.00434545 eV

  energy without entropy =       -7.00208898  energy(sigma->0) =       -7.00321721


--------------------------------------------------------------------------------------------------------




--------------------------------------- Iteration      1(  12)  ---------------------------------------


    POTLOK:  cpu time      0.0028: real time      0.0030
    SETDIJ:  cpu time      0.0045: real time      0.0045
     EDDAV:  cpu time      0.3057: real time      0.3072
       DOS:  cpu time      0.0009: real time      0.0009
    CHARGE:  cpu time      0.0099: real time      0.0100
    MIXING:  cpu time      0.0003: real time      0.0003
    --------------------------------------------
      LOOP:  cpu time      0.3241: real time      0.3260

 eigenvalue-minimisations  :  3764
 total energy-change (2. order) :-0.3970545E-05  (-0.2178699E-05)
 number of electron       9.0000010 magnetization       1.6213198
 augmentation part        5.1350207 magnetization       1.4592431

 Broyden mixing:
  rms(total) = 0.13445E-02    rms(broyden)= 0.13444E-02
  rms(prec ) = 0.16038E-02
  weight for this iteration     100.00

 eigenvalues of (default mixing * dielectric matrix)
  average eigenvalue GAMMA=   1.2321
  2.4701  2.4701  0.9149  0.7537  0.7537  0.6311  0.6311

 Free energy of the ion-electron system (eV)
  ---------------------------------------------------
  alpha Z        PSCENC =        37.36160178
  Ewald energy   TEWEN  =      -749.80519427
  -Hartree energ DENC   =      -137.02783160
  -exchange      EXHF   =         0.00000000
  -V(xc)+E(xc)   XCENC  =        16.29317374
  PAW double counting   =       879.58588372     -932.42273079
  entropy T*S    EENTRO =        -0.00218465
  eigenvalues    EBANDS =        65.65519856
  atomic energy  EATOM  =       813.35773410
  Solvation  Ediel_sol  =         0.00000000
  ---------------------------------------------------
  free energy    TOTEN  =        -7.00434942 eV

  energy without entropy =       -7.00216477  energy(sigma->0) =       -7.00325709


--------------------------------------------------------------------------------------------------------




--------------------------------------- Iteration      1(  13)  ---------------------------------------


    POTLOK:  cpu time      0.0030: real time      0.0032
    SETDIJ:  cpu time      0.0047: real time      0.0047
     EDDAV:  cpu time      0.2150: real time      0.2162
       DOS:  cpu time      0.0008: real time      0.0008
    --------------------------------------------
      LOOP:  cpu time      0.2236: real time      0.2250

 eigenvalue-minimisations  :  2188
 total energy-change (2. order) :-0.4991582E-06  (-0.1041286E-06)
 number of electron       9.0000010 magnetization       1.6213198
 augmentation part        5.1350207 magnetization       1.4592431

 Free energy of the ion-electron system (eV)
  ---------------------------------------------------
  alpha Z        PSCENC =        37.36160178
  Ewald energy   TEWEN  =      -749.80519427
  -Hartree energ DENC   =      -137.02518113
  -exchange      EXHF   =         0.00000000
  -V(xc)+E(xc)   XCENC  =        16.29378539
  PAW double counting   =       879.66947879     -932.50558866
  entropy T*S    EENTRO =        -0.00219218
  eigenvalues    EBANDS =        65.65120627
  atomic energy  EATOM  =       813.35773410
  Solvation  Ediel_sol  =         0.00000000
  ---------------------------------------------------
  free energy    TOTEN  =        -7.00434992 eV

  energy without entropy =       -7.00215774  energy(sigma->0) =       -7.00325383


--------------------------------------------------------------------------------------------------------




 average (electrostatic) potential at core
  the test charge radii are     1.0452
  (the norm of the test charge is              1.0000)
       1 -78.8785
 
 
 
 E-fermi :   9.7361     XC(G=0): -13.1489     alpha+bet :-16.9657

 Fermi energy:         9.7360670293

 spin component 1

 k-point     1 :       0.0625    0.0625    0.0625
  band No.  band energies     occupation 
      1       1.1457      1.00000
      2       7.0532      1.00000
      3       7.1284      1.00000
      4       7.1284      1.00000
      5       8.0718      1.00000
      6       8.0718      1.00000
      7      32.0259      0.00000
      8      34.7235      0.00000
      9      36.1400      0.00000
     10      36.1400      0.00000
     11      39.9055      0.00000
     12      39.9055      0.00000

 k-point     2 :       0.1875    0.0625    0.0625
  band No.  band energies     occupation 
      1       1.9208      1.00000
      2       6.8560      1.00000
      3       7.2755      1.00000
      4       7.2806      1.00000
      5       7.9288      1.00000
      6       8.1570      1.00000
      7      29.0697      0.00000
      8      31.6736      0.00000
      9      35.1427      0.00000
     10      37.1363      0.00000
     11      38.9166      0.00000
     12      40.0523      0.00000

 k-point     3 :       0.3125    0.0625    0.0625
  band No.  band energies     occupation 
      1       3.5593      1.00000
      2       6.7562      1.00000
      3       7.2216      1.00000
      4       7.2899      1.00000
      5       8.1338      1.00000
      6       8.5386      1.00000
      7      23.0484      0.00000
      8      30.6130      0.00000
      9      34.1018      0.00000
     10      36.6016      0.00000
     11      37.8235      0.00000
     12      38.8728      0.00000

 k-point     4 :       0.4375    0.0625    0.0625
  band No.  band energies     occupation 
      1       4.6922      1.00000
      2       7.0056      1.00000
      3       7.0964      1.00000
      4       7.7758      1.00000
      5       8.6521      1.00000
      6       9.3050      1.00000
      7      17.7814      0.00000
      8      30.1931      0.00000
      9      32.8332      0.00000
     10      34.4838      0.00000
     11      36.9948      0.00000
     12      38.5569      0.00000

 k-point     5 :      -0.4375    0.0625    0.0625
  band No.  band energies     occupation 
      1       4.8207      1.00000
      2       6.9158      1.00000
      3       7.0468      1.00000
      4       8.3061      1.00000
      5       8.9140      1.00000
      6      10.1330      0.00000
      7      15.6371      0.00000
      8      30.3792      0.00000
      9      32.6915      0.00000
     10      32.8711      0.00000
     11      37.7928      0.00000
     12      37.8556      0.00000

 k-point     6 :      -0.3125    0.0625    0.0625
  band No.  band energies     occupation 
      1       4.4743      1.00000
      2       7.0413      1.00000
      3       7.1804      1.00000
      4       7.2677      1.00000
      5       8.7212      1.00000
      6       8.7902      1.00000
      7      19.3795      0.00000
      8      31.0953      0.00000
      9      32.1704      0.00000
     10      34.4898      0.00000
     11      37.7095      0.00000
     12      39.4918      0.00000

 k-point     7 :      -0.1875    0.0625    0.0625
  band No.  band energies     occupation 
      1       2.9684      1.00000
      2       6.7099      1.00000
      3       7.2812      1.00000
      4       7.3365      1.00000
      5       8.0675      1.00000
      6       8.3074      1.00000
      7      25.0254      0.00000
      8      32.1108      0.00000
      9      32.7166      0.00000
     10      37.1403      0.00000
     11      37.5401      0.00000
     12      41.7615      0.00000

 k-point     8 :      -0.0625    0.0625    0.0625
  band No.  band energies     occupation 
      1       1.5395      1.00000
      2       6.9204      1.00000
      3       7.2308      1.00000
      4       7.2347      1.00000
      5       7.9466      1.00000
      6       8.1339      1.00000
      7      30.9003      0.00000
      8      33.2614      0.00000
      9      34.1080      0.00000
     10      36.0439      0.00000
     11      39.8570      0.00000
     12      41.7384      0.00000

 k-point     9 :       0.1875    0.1875    0.0625
  band No.  band energies     occupation 
      1       2.2919      1.00000
      2       6.6637      1.00000
      3       7.4126      1.00000
      4       7.4419      1.00000
      5       7.7783      1.00000
      6       8.2500      1.00000
      7      29.3649      0.00000
      8      31.8491      0.00000
      9      31.8947      0.00000
     10      34.1753      0.00000
     11      39.2125      0.00000
     12      42.2146      0.00000

 k-point    10 :       0.3125    0.1875    0.0625
  band No.  band energies     occupation 
      1       3.6131      1.00000
      2       6.3835      1.00000
      3       7.2076      1.00000
      4       7.6814      1.00000
      5       8.0351      1.00000
      6       8.6113      1.00000
      7      25.5657      0.00000
      8      28.1336      0.00000
      9      31.8727      0.00000
     10      33.7940      0.00000
     11      38.1846      0.00000
     12      42.0285      0.00000

 k-point    11 :       0.4375    0.1875    0.0625
  band No.  band energies     occupation 
      1       4.9677      1.00000
      2       6.4980      1.00000
      3       6.9238      1.00000
      4       7.5319      1.00000
      5       8.6938      1.00000
      6       9.7637      0.21702
      7      19.8873      0.00000
      8      27.5637      0.00000
      9      29.4468      0.00000
     10      33.4014      0.00000
     11      39.9813      0.00000
     12      42.3279      0.00000

 k-point    12 :      -0.4375    0.1875    0.0625
  band No.  band energies     occupation 
      1       5.2723      1.00000
      2       6.5260      1.00000
      3       7.3427      1.00000
      4       7.3991      1.00000
      5       8.8808      1.00000
      6      11.9049      0.00000
      7      15.8395      0.00000
      8      27.0041      0.00000
      9      28.7016      0.00000
     10      33.2456      0.00000
     11      39.1137      0.00000
     12      42.7423      0.00000

 k-point    13 :      -0.3125    0.1875    0.0625
  band No.  band energies     occupation 
      1       5.2003      1.00000
      2       6.6648      1.00000
      3       6.9994      1.00000
      4       7.4275      1.00000
      5       8.5841      1.00000
      6      10.5855      0.00000
      7      18.2524      0.00000
      8      26.1651      0.00000
      9      30.2839      0.00000
     10      34.3152      0.00000
     11      38.5043      0.00000
     12      42.1339      0.00000

 k-point    14 :      -0.1875    0.1875    0.0625
  band No.  band energies     occupation 
      1       4.1805      1.00000
      2       6.4534      1.00000
      3       7.0465      1.00000
      4       7.6155      1.00000
      5       7.9728      1.00000
      6       9.0851      1.00000
      7      23.6048      0.00000
      8      26.2987      0.00000
      9      32.8054      0.00000
     10      36.2335      0.00000
     11      38.0050      0.00000
     12      40.8564      0.00000

 k-point    15 :      -0.0625    0.1875    0.0625
  band No.  band energies     occupation 
      1       2.6466      1.00000
      2       6.6623      1.00000
      3       7.3156      1.00000
      4       7.4440      1.00000
      5       7.8515      1.00000
      6       8.3357      1.00000
      7      27.2405      0.00000
      8      29.8465      0.00000
      9      34.2272      0.00000
     10      35.9802      0.00000
     11      39.2195      0.00000
     12      40.6606      0.00000

 k-point    16 :       0.3125    0.3125    0.0625
  band No.  band energies     occupation 
      1       4.2820      1.00000
      2       5.9935      1.00000
      3       7.5092      1.00000
      4       8.0803      1.00000
      5       8.3974      1.00000
      6       8.5809      1.00000
      7      26.1517      0.00000
      8      27.7714      0.00000
      9      27.9176      0.00000
     10      30.6567      0.00000
     11      34.8214      0.00000
     12      46.5842      0.00000

 k-point    17 :       0.4375    0.3125    0.0625
  band No.  band energies     occupation 
      1       5.0140      1.00000
      2       5.8003      1.00000
      3       7.4608      1.00000
      4       8.3040      1.00000
      5       8.7381      1.00000
      6      10.0191      0.00000
      7      22.8186      0.00000
      8      24.7437      0.00000
      9      25.6213      0.00000
     10      31.8550      0.00000
     11      36.0283      0.00000
     12      45.6032      0.00000

 k-point    18 :      -0.4375    0.3125    0.0625
  band No.  band energies     occupation 
      1       5.4867      1.00000
      2       5.9249      1.00000
      3       7.1831      1.00000
      4       8.0396      1.00000
      5       8.9423      1.00000
      6      13.0945      0.00000
      7      17.8240      0.00000
      8      22.5620      0.00000
      9      25.8343      0.00000
     10      32.2696      0.00000
     11      40.9111      0.00000
     12      43.8482      0.00000

 k-point    19 :      -0.3125    0.3125    0.0625
  band No.  band energies     occupation 
      1       5.9326      1.00000
      2       6.0846      1.00000
      3       6.7603      1.00000
      4       7.8529      1.00000
      5       8.6510      1.00000
      6      13.3885      0.00000
      7      17.6726      0.00000
      8      21.2658      0.00000
      9      27.5140      0.00000
     10      33.1379      0.00000
     11      41.7294      0.00000
     12      46.0466      0.00000

 k-point    20 :      -0.1875    0.3125    0.0625
  band No.  band energies     occupation 
      1       5.4711      1.00000
      2       6.4693      1.00000
      3       6.6082      1.00000
      4       7.6890      1.00000
      5       8.3015      1.00000
      6      10.6628      0.00000
      7      20.4166      0.00000
      8      23.3593      0.00000
      9      30.0450      0.00000
     10      34.8482      0.00000
     11      39.0423      0.00000
     12      43.5131      0.00000

 k-point    21 :      -0.0625    0.3125    0.0625
  band No.  band energies     occupation 
      1       4.2940      1.00000
      2       6.7165      1.00000
      3       7.0597      1.00000
      4       7.3510      1.00000
      5       8.3530      1.00000
      6       8.9634      1.00000
      7      21.3369      0.00000
      8      29.0261      0.00000
      9      32.5120      0.00000
     10      34.9358      0.00000
     11      38.6323      0.00000
     12      40.1074      0.00000

 k-point    22 :       0.4375    0.4375    0.0625
  band No.  band energies     occupation 
      1       4.8198      1.00000
      2       5.4574      1.00000
      3       8.6368      1.00000
      4       8.6572      1.00000
      5       8.9641      1.00000
      6      10.6991      0.00000
      7      21.5012      0.00000
      8      23.8729      0.00000
      9      25.0366      0.00000
     10      29.7814      0.00000
     11      33.4789      0.00000
     12      46.7214      0.00000

 k-point    23 :      -0.4375    0.4375    0.0625
  band No.  band energies     occupation 
      1       4.9641      1.00000
      2       5.4801      1.00000
      3       8.2503      1.00000
      4       8.6079      1.00000
      5       9.0964      1.00000
      6      13.1698      0.00000
      7      19.3859      0.00000
      8      21.4927      0.00000
      9      23.9034      0.00000
     10      31.2188      0.00000
     11      35.3742      0.00000
     12      46.7073      0.00000

 k-point    24 :      -0.3125    0.4375    0.0625
  band No.  band energies     occupation 
      1       5.4438      1.00000
      2       5.8365      1.00000
      3       7.3482      1.00000
      4       8.2031      1.00000
      5       8.9342      1.00000
      6      15.0887      0.00000
      7      17.2131      0.00000
      8      20.0932      0.00000
      9      25.3792      0.00000
     10      32.1058      0.00000
     11      40.8674      0.00000
     12      45.0005      0.00000

 k-point    25 :      -0.1875    0.4375    0.0625
  band No.  band energies     occupation 
      1       5.6266      1.00000
      2       6.2464      1.00000
      3       7.0439      1.00000
      4       7.6293      1.00000
      5       8.7904      1.00000
      6      13.0983      0.00000
      7      16.1017      0.00000
      8      23.9896      0.00000
      9      27.8706      0.00000
     10      33.1596      0.00000
     11      40.4520      0.00000
     12      44.8588      0.00000

 k-point    26 :      -0.0625    0.4375    0.0625
  band No.  band energies     occupation 
      1       4.9551      1.00000
      2       6.8132      1.00000
      3       7.1775      1.00000
      4       7.6795      1.00000
      5       8.8282      1.00000
      6      10.3962      0.00000
      7      16.5666      0.00000
      8      28.9751      0.00000
      9      30.9201      0.00000
     10      33.4950      0.00000
     11      38.0546      0.00000
     12      40.2075      0.00000

 k-point    27 :      -0.4375   -0.4375    0.0625
  band No.  band energies     occupation 
      1       4.7652      1.00000
      2       5.3359      1.00000
      3       8.7639      1.00000
      4       8.9013      1.00000
      5       9.1078      1.00000
      6      12.2252      0.00000
      7      19.2797      0.00000
      8      23.3081      0.00000
      9      24.4298      0.00000
     10      29.6377      0.00000
     11      33.3058      0.00000
     12      46.7426      0.00000

 k-point    28 :      -0.3125   -0.4375    0.0625
  band No.  band energies     occupation 
      1       5.0323      1.00000
      2       5.5909      1.00000
      3       7.9333      1.00000
      4       8.5399      1.00000
      5       8.9555      1.00000
      6      11.5763      0.00000
      7      21.5414      0.00000
      8      22.1570      0.00000
      9      24.4418      0.00000
     10      31.4209      0.00000
     11      35.5695      0.00000
     12      46.5466      0.00000

 k-point    29 :      -0.1875   -0.4375    0.0625
  band No.  band energies     occupation 
      1       5.3794      1.00000
      2       6.1668      1.00000
      3       6.9885      1.00000
      4       7.7856      1.00000
      5       8.8852      1.00000
      6      11.1859      0.00000
      7      18.7071      0.00000
      8      25.5967      0.00000
      9      26.8322      0.00000
     10      32.6546      0.00000
     11      40.7679      0.00000
     12      42.8641      0.00000

 k-point    30 :      -0.3125   -0.3125    0.0625
  band No.  band energies     occupation 
      1       4.7759      1.00000
      2       5.6863      1.00000
      3       8.0888      1.00000
      4       8.4179      1.00000
      5       8.7679      1.00000
      6       9.2140      1.00000
      7      24.4048      0.00000
      8      25.0554      0.00000
      9      26.1839      0.00000
     10      30.0938      0.00000
     11      33.9184      0.00000
     12      46.6804      0.00000

 k-point    31 :      -0.1875   -0.3125    0.0625
  band No.  band energies     occupation 
      1       4.5505      1.00000
      2       6.0792      1.00000
      3       7.1494      1.00000
      4       7.9813      1.00000
      5       8.4202      1.00000
      6       9.0636      1.00000
      7      24.0791      0.00000
      8      26.5492      0.00000
      9      28.5519      0.00000
     10      32.5899      0.00000
     11      36.8629      0.00000
     12      43.9435      0.00000

 k-point    32 :      -0.1875   -0.1875    0.0625
  band No.  band energies     occupation 
      1       3.3000      1.00000
      2       6.3364      1.00000
      3       7.4127      1.00000
      4       7.7345      1.00000
      5       7.9290      1.00000
      6       8.4048      1.00000
      7      27.7338      0.00000
      8      29.6940      0.00000
      9      30.5128      0.00000
     10      31.9293      0.00000
     11      36.5181      0.00000
     12      44.7064      0.00000

 k-point    33 :       0.1875    0.1875    0.1875
  band No.  band energies     occupation 
      1       2.2836      1.00000
      2       6.8315      1.00000
      3       7.2821      1.00000
      4       7.2821      1.00000
      5       8.0776      1.00000
      6       8.0776      1.00000
      7      26.9617      0.00000
      8      33.1030      0.00000
      9      35.0153      0.00000
     10      35.0153      0.00000
     11      40.4436      0.00000
     12      40.8780      0.00000

 k-point    34 :       0.3125    0.1875    0.1875
  band No.  band energies     occupation 
      1       3.3133      1.00000
      2       6.6023      1.00000
      3       7.2310      1.00000
      4       7.4982      1.00000
      5       7.8134      1.00000
      6       8.6346      1.00000
      7      25.3078      0.00000
      8      27.9621      0.00000
      9      35.4889      0.00000
     10      37.4041      0.00000
     11      37.4597      0.00000
     12      39.2406      0.00000

 k-point    35 :       0.4375    0.1875    0.1875
  band No.  band energies     occupation 
      1       4.8656      1.00000
      2       6.4998      1.00000
      3       6.8870      1.00000
      4       7.5479      1.00000
      5       8.0510      1.00000
      6       9.7277      0.59381
      7      21.8879      0.00000
      8      24.6868      0.00000
      9      33.5516      0.00000
     10      33.9583      0.00000
     11      39.3259      0.00000
     12      40.9101      0.00000

 k-point    36 :      -0.4375    0.1875    0.1875
  band No.  band energies     occupation 
      1       5.4095      1.00000
      2       6.5200      1.00000
      3       7.1368      1.00000
      4       7.4413      1.00000
      5       8.6419      1.00000
      6      11.7021      0.00000
      7      16.9539      0.00000
      8      24.9333      0.00000
      9      30.9475      0.00000
     10      31.9386      0.00000
     11      41.1480      0.00000
     12      41.3371      0.00000

 k-point    37 :      -0.3125    0.1875    0.1875
  band No.  band energies     occupation 
      1       5.3168      1.00000
      2       6.3884      1.00000
      3       7.1688      1.00000
      4       7.5134      1.00000
      5       8.9456      1.00000
      6      11.5540      0.00000
      7      16.9179      0.00000
      8      26.2633      0.00000
      9      29.1099      0.00000
     10      31.4366      0.00000
     11      42.2392      0.00000
     12      42.3071      0.00000

 k-point    38 :      -0.1875    0.1875    0.1875
  band No.  band energies     occupation 
      1       4.7198      1.00000
      2       6.2181      1.00000
      3       7.0501      1.00000
      4       7.6910      1.00000
      5       8.7786      1.00000
      6       9.1726      1.00000
      7      21.8438      0.00000
      8      28.3923      0.00000
      9      28.7135      0.00000
     10      31.7842      0.00000
     11      39.2605      0.00000
     12      43.4913      0.00000

 k-point    39 :       0.3125    0.3125    0.1875
  band No.  band energies     occupation 
      1       3.8648      1.00000
      2       6.4934      1.00000
      3       7.1453      1.00000
      4       7.4734      1.00000
      5       8.4042      1.00000
      6       8.5569      1.00000
      7      23.3177      0.00000
      8      30.5771      0.00000
      9      30.7540      0.00000
     10      33.8345      0.00000
     11      39.8533      0.00000
     12      41.2158      0.00000

 k-point    40 :       0.4375    0.3125    0.1875
  band No.  band energies     occupation 
      1       5.0067      1.00000
      2       6.2466      1.00000
      3       6.8248      1.00000
      4       7.8582      1.00000
      5       8.3126      1.00000
      6       9.7850      0.08303
      7      22.1376      0.00000
      8      24.8746      0.00000
      9      29.1733      0.00000
     10      35.3154      0.00000
     11      38.3314      0.00000
     12      41.6326      0.00000

 k-point    41 :      -0.4375    0.3125    0.1875
  band No.  band energies     occupation 
      1       5.8238      1.00000
      2       6.2382      1.00000
      3       6.5226      1.00000
      4       7.9169      1.00000
[...]
      5      10.8359      0.00000
      6      14.4856      0.00000
      7      19.4366      0.00000
      8      20.5257      0.00000
      9      25.8135      0.00000
     10      30.8344      0.00000
     11      38.1151      0.00000
     12      48.4431      0.00000

 k-point    49 :      -0.3125   -0.4375    0.1875
  band No.  band energies     occupation 
      1       6.5175      1.00000
      2       7.0283      1.00000
      3       8.7642      1.00000
      4      10.2249      0.00000
      5      10.9264      0.00000
      6      15.0894      0.00000
      7      19.8103      0.00000
      8      20.5793      0.00000
      9      22.9708      0.00000
     10      34.0554      0.00000
     11      38.6534      0.00000
     12      44.7833      0.00000

 k-point    50 :      -0.3125   -0.3125    0.1875
  band No.  band energies     occupation 
      1       6.3003      1.00000
      2       6.9715      1.00000
      3       8.9223      1.00000
      4      10.0893      0.00000
      5      10.8910      0.00000
      6      13.0605      0.00000
      7      20.1220      0.00000
      8      22.5861      0.00000
      9      26.3827      0.00000
     10      30.9503      0.00000
     11      38.3276      0.00000
     12      47.3549      0.00000

 k-point    51 :       0.3125    0.3125    0.3125
  band No.  band energies     occupation 
      1       4.2015      1.00000
      2       8.1415      1.00000
      3       8.8589      1.00000
      4       8.8589      1.00000
      5      10.3185      0.00000
      6      10.3185      0.00000
      7      21.5740      0.00000
      8      31.7153      0.00000
      9      34.5732      0.00000
     10      34.5732      0.00000
     11      38.6895      0.00000
     12      38.6895      0.00000

 k-point    52 :       0.4375    0.3125    0.3125
  band No.  band energies     occupation 
      1       5.2185      1.00000
      2       8.0092      1.00000
      3       8.5725      1.00000
      4       9.0172      1.00000
      5      10.1749      0.00000
      6      11.2412      0.00000
      7      20.2201      0.00000
      8      27.7029      0.00000
      9      33.1018      0.00000
     10      34.5198      0.00000
     11      38.9913      0.00000
     12      39.3059      0.00000

 k-point    53 :      -0.4375    0.3125    0.3125
  band No.  band energies     occupation 
      1       6.5497      1.00000
      2       7.7555      1.00000
      3       7.9781      1.00000
      4       9.4932      1.00000
      5      10.1918      0.00000
      6      12.9851      0.00000
      7      19.4876      0.00000
      8      22.5790      0.00000
      9      30.9152      0.00000
     10      32.0360      0.00000
     11      42.2270      0.00000
     12      43.0225      0.00000

 k-point    54 :      -0.3125    0.3125    0.3125
  band No.  band energies     occupation 
      1       6.9876      1.00000
      2       7.0965      1.00000
      3       8.3587      1.00000
      4       9.8648      0.00014
      5      10.5669      0.00000
      6      15.6061      0.00000
      7      17.0443      0.00000
      8      21.0940      0.00000
      9      28.0200      0.00000
     10      31.2507      0.00000
     11      44.2732      0.00000
     12      45.4264      0.00000

 k-point    55 :       0.4375    0.4375    0.3125
  band No.  band energies     occupation 
      1       5.6348      1.00000
      2       8.0010      1.00000
      3       8.5689      1.00000
      4       9.0025      1.00000
      5      10.7997      0.00000
      6      11.2502      0.00000
      7      18.6590      0.00000
      8      29.2893      0.00000
      9      30.7502      0.00000
     10      32.5107      0.00000
     11      40.2494      0.00000
     12      40.9589      0.00000

 k-point    56 :      -0.4375    0.4375    0.3125
  band No.  band energies     occupation 
      1       6.5178      1.00000
      2       7.5894      1.00000
      3       8.2364      1.00000
      4       9.4049      1.00000
      5      10.6349      0.00000
      6      13.1140      0.00000
      7      17.8355      0.00000
      8      25.3914      0.00000
      9      27.1926      0.00000
     10      34.8768      0.00000
     11      38.8980      0.00000
     12      45.5708      0.00000

 k-point    57 :      -0.3125    0.4375    0.3125
  band No.  band energies     occupation 
      1       7.0380      1.00000
      2       7.2754      1.00000
      3       8.0527      1.00000
      4       9.8514      0.00055
      5      10.7205      0.00000
      6      15.9908      0.00000
      7      17.3621      0.00000
      8      21.2214      0.00000
      9      24.6092      0.00000
     10      35.1838      0.00000
     11      41.1321      0.00000
     12      44.4039      0.00000

 k-point    58 :      -0.4375   -0.4375    0.3125
  band No.  band energies     occupation 
      1       6.7362      1.00000
      2       7.2937      1.00000
      3       8.3980      1.00000
      4       9.5723      1.00000
      5      10.7430      0.00000
      6      14.2715      0.00000
      7      16.9534      0.00000
      8      23.5461      0.00000
      9      28.4840      0.00000
     10      31.3182      0.00000
     11      43.6796      0.00000
     12      44.0974      0.00000

 k-point    59 :       0.4375    0.4375    0.4375
  band No.  band energies     occupation 
      1       5.5192      1.00000
      2       8.6886      1.00000
      3       8.6886      1.00000
      4       9.0495      1.00000
      5      10.7418      0.00000
      6      10.7418      0.00000
      7      17.2636      0.00000
      8      30.8002      0.00000
      9      34.1986      0.00000
     10      34.1986      0.00000
     11      36.9983      0.00000
     12      36.9983      0.00000

 k-point    60 :      -0.4375    0.4375    0.4375
  band No.  band energies     occupation 
      1       6.0112      1.00000
      2       8.2106      1.00000
      3       8.7423      1.00000
      4       8.9087      1.00000
      5      10.7146      0.00000
      6      12.1556      0.00000
      7      16.6563      0.00000
      8      28.1131      0.00000
      9      31.9632      0.00000
     10      32.0705      0.00000
     11      39.5571      0.00000
     12      39.9900      0.00000


--------------------------------------------------------------------------------------------------------


 soft charge-density along one line, spin component           1
         0         1         2         3         4         5         6         7         8         9
 total charge-density along one line
 
 soft charge-density along one line, spin component           2
         0         1         2         3         4         5         6         7         8         9
 total charge-density along one line
 
 pseudopotential strength for first ion, spin component:           1
 -1.002  -0.000  -0.000  -0.000   0.000  -1.622  -0.000  -0.000
 -0.000  -1.002   0.000  -0.000  -0.000  -0.000  -1.622   0.000
 -0.000   0.000  -1.067   0.000   0.000  -0.000   0.000  -1.685
 -0.000  -0.000   0.000  -1.002   0.000  -0.000  -0.000   0.000
  0.000  -0.000   0.000   0.000  -1.067   0.000  -0.000   0.000
 -1.622  -0.000  -0.000  -0.000   0.000  -2.184  -0.000  -0.000
 -0.000  -1.622   0.000  -0.000  -0.000  -0.000  -2.184   0.000
 -0.000   0.000  -1.685   0.000   0.000  -0.000   0.000  -2.244
 -0.000  -0.000   0.000  -1.622   0.000  -0.000  -0.000   0.000
  0.000  -0.000   0.000   0.000  -1.685   0.000  -0.000   0.000
 -0.000  -0.000   0.000  -0.000   0.000  -0.000  -0.000   0.000
 -0.000  -0.000   0.000  -0.000   0.000  -0.000  -0.000   0.000
 -0.000  -0.000   0.000  -0.000   0.000  -0.000  -0.000   0.000
  0.000  -0.000  -0.000  -0.000   0.000   0.000  -0.000  -0.000
 -0.000  -0.000   0.000  -0.000  -0.000  -0.000  -0.000   0.000
 -0.000  -0.000   0.000   0.000   0.000  -0.000  -0.000   0.000
  0.000  -0.000  -0.000  -0.000   0.000   0.000  -0.000  -0.000
 -0.000   0.000   0.000  -0.000  -0.000  -0.000   0.000   0.000
 pseudopotential strength for first ion, spin component:           2
  0.290   0.000  -0.000   0.000   0.000  -0.384   0.000  -0.000
  0.000   0.290   0.000   0.000  -0.000   0.000  -0.384   0.000
 -0.000   0.000   0.354   0.000   0.000  -0.000   0.000  -0.323
  0.000   0.000   0.000   0.290   0.000   0.000   0.000   0.000
  0.000  -0.000   0.000   0.000   0.354   0.000  -0.000   0.000
 -0.384   0.000  -0.000   0.000   0.000  -0.998   0.000  -0.000
  0.000  -0.384   0.000   0.000  -0.000   0.000  -0.998   0.000
 -0.000   0.000  -0.323   0.000   0.000  -0.000   0.000  -0.938
  0.000   0.000   0.000  -0.384   0.000   0.000   0.000   0.000
  0.000  -0.000   0.000   0.000  -0.323   0.000  -0.000   0.000
 -0.000  -0.000   0.000  -0.000   0.000  -0.000  -0.000   0.000
 -0.000  -0.000   0.000  -0.000   0.000  -0.000  -0.000   0.000
 -0.000  -0.000   0.000  -0.000   0.000  -0.000  -0.000   0.000
  0.000  -0.000  -0.000  -0.000  -0.000   0.000  -0.000  -0.000
 -0.000  -0.000   0.000  -0.000  -0.000  -0.000   0.000   0.000
 -0.000  -0.000   0.000   0.000   0.000  -0.000  -0.000   0.000
  0.000  -0.000  -0.000  -0.000  -0.000  -0.000  -0.000  -0.000
 -0.000   0.000   0.000  -0.000  -0.000  -0.000   0.000   0.000
 total augmentation occupancy for first ion, spin component:           1
  2.723   0.000  -0.000  -0.000   0.000  -1.373  -0.000   0.000   0.000  -0.000  -0.000   0.000   0.000   0.000   0.000   0.000
  0.000   2.723  -0.000  -0.000   0.000   0.000  -1.373   0.000   0.000   0.000   0.000   0.000   0.000   0.000   0.000   0.000
 -0.000   0.000   3.069   0.000   0.000   0.000   0.000  -1.563  -0.000   0.000   0.000  -0.000   0.000   0.000   0.000   0.000
 -0.000  -0.000  -0.000   2.723  -0.000   0.000  -0.000   0.000  -1.373   0.000   0.000  -0.000   0.000   0.000   0.000   0.000
  0.000   0.000  -0.000   0.000   3.069   0.000   0.000   0.000   0.000  -1.563   0.000   0.000   0.000   0.000   0.000   0.000
 -1.373   0.000   0.000   0.000  -0.000   1.596   0.000   0.000   0.000   0.000   0.000   0.000   0.000   0.000   0.000   0.000
 -0.000  -1.373  -0.000   0.000   0.000   0.000   1.596  -0.000   0.000   0.000   0.000   0.000   0.000   0.000   0.000   0.000
  0.000   0.000  -1.563  -0.000   0.000   0.000   0.000   1.564   0.000   0.000  -0.000   0.000   0.000   0.000   0.000   0.000
 -0.000  -0.000   0.000  -1.373   0.000   0.000   0.000  -0.000   1.596  -0.000  -0.000  -0.000   0.000   0.000   0.000   0.000
  0.000   0.000   0.000  -0.000  -1.563  -0.000  -0.000   0.000   0.000   1.564   0.000   0.000   0.000   0.000   0.000   0.000
  0.000   0.000   0.000   0.000   0.000   0.000   0.000   0.000   0.000   0.000   2.183  -0.249   0.000   0.000   0.000   0.000
  0.000   0.000  -0.000  -0.000   0.000   0.000   0.000   0.000  -0.000  -0.000  -0.249   0.036   0.000   0.000   0.000   0.000
  0.000   0.000   0.000   0.000   0.000   0.000   0.000   0.000   0.000   0.000   0.000   0.000   0.292   0.000   0.000  -0.028
  0.000   0.000   0.000   0.000   0.000   0.000   0.000   0.000   0.000   0.000   0.000   0.000   0.000   0.292  -0.000  -0.000
  0.000   0.000   0.000   0.000   0.000   0.000   0.000   0.000   0.000   0.000   0.000   0.000   0.000   0.000   0.292   0.000
  0.000   0.000   0.000   0.000   0.000   0.000   0.000   0.000   0.000   0.000   0.000   0.000  -0.028  -0.000  -0.000   0.003
  0.000   0.000   0.000   0.000   0.000   0.000   0.000   0.000   0.000   0.000   0.000   0.000  -0.000  -0.028  -0.000   0.000
  0.000   0.000   0.000   0.000   0.000   0.000   0.000   0.000   0.000   0.000   0.000   0.000   0.000  -0.000  -0.028   0.000
 total augmentation occupancy for first ion, spin component:           2
  1.963  -0.000   0.000   0.000   0.000  -0.941  -0.000  -0.000   0.000   0.000   0.000   0.000   0.000   0.000   0.000   0.000
 -0.000   1.963  -0.000   0.000   0.000  -0.000  -0.941   0.000   0.000   0.000  -0.000   0.000   0.000   0.000   0.000   0.000
  0.000  -0.000   2.117   0.000   0.000   0.000   0.000  -0.975  -0.000  -0.000  -0.000   0.000   0.000   0.000   0.000   0.000
 -0.000   0.000  -0.000   1.963  -0.000   0.000  -0.000   0.000  -0.941  -0.000   0.000  -0.000   0.000   0.000   0.000   0.000
  0.000   0.000   0.000   0.000   2.117   0.000  -0.000   0.000  -0.000  -0.975  -0.000  -0.000   0.000   0.000   0.000   0.000
 -0.941  -0.000   0.000   0.000  -0.000   0.255   0.000   0.000   0.000   0.000   0.000   0.000   0.000   0.000   0.000   0.000
  0.000  -0.941   0.000  -0.000   0.000   0.000   0.255   0.000   0.000   0.000  -0.000   0.000   0.000   0.000   0.000   0.000
  0.000   0.000  -0.975  -0.000  -0.000  -0.000   0.000   0.277  -0.000   0.000  -0.000  -0.000   0.000   0.000   0.000   0.000
  0.000   0.000   0.000  -0.941  -0.000   0.000  -0.000   0.000   0.255  -0.000   0.000   0.000   0.000   0.000   0.000   0.000
 -0.000  -0.000  -0.000  -0.000  -0.975   0.000   0.000   0.000  -0.000   0.277   0.000   0.000   0.000   0.000   0.000   0.000
 -0.000  -0.000  -0.000   0.000   0.000   0.000   0.000   0.000  -0.000   0.000  -0.289   0.087   0.000   0.000   0.000   0.000
  0.000  -0.000   0.000  -0.000  -0.000   0.000   0.000  -0.000   0.000   0.000   0.087  -0.015   0.000   0.000   0.000   0.000
  0.000   0.000   0.000   0.000   0.000   0.000   0.000   0.000   0.000   0.000   0.000   0.000  -0.035   0.000   0.000   0.005
  0.000   0.000   0.000   0.000   0.000   0.000   0.000   0.000   0.000   0.000   0.000   0.000   0.000  -0.035  -0.000   0.000
  0.000   0.000   0.000   0.000   0.000   0.000   0.000   0.000   0.000   0.000   0.000   0.000  -0.000   0.000  -0.035   0.000
  0.000   0.000   0.000   0.000   0.000   0.000   0.000   0.000   0.000   0.000   0.000   0.000   0.005  -0.000   0.000  -0.001
  0.000   0.000   0.000   0.000   0.000   0.000   0.000   0.000   0.000   0.000   0.000   0.000   0.000   0.005   0.000   0.000
  0.000   0.000   0.000   0.000   0.000   0.000   0.000   0.000   0.000   0.000   0.000   0.000   0.000   0.000   0.005   0.000


------------------------ aborting loop because EDIFF is reached ----------------------------------------





 total charge

# of ion       s       p       d       tot
------------------------------------------
    1        0.471   0.485   7.231   8.187



 magnetization (x)

# of ion       s       p       d       tot
------------------------------------------
    1       -0.014  -0.052   1.716   1.650
 
    CHARGE:  cpu time      0.0095: real time      0.0095
    FORLOC:  cpu time      0.0001: real time      0.0001
    FORNL :  cpu time      0.0063: real time      0.0063
    STRESS:  cpu time      0.0244: real time      0.0244
    FORCOR:  cpu time      0.0026: real time      0.0026
    FORHAR:  cpu time      0.0003: real time      0.0003
    MIXING:  cpu time      0.0002: real time      0.0002
    OFIELD:  cpu time      0.0000: real time      0.0000

  FORCE on cell =-STRESS in cart. coord.  units (eV):
  Direction    XX          YY          ZZ          XY          YZ          ZX
  --------------------------------------------------------------------------------------
  Alpha Z    37.36160    37.36160    37.36160
  Ewald    -249.93507  -249.93507  -249.93507    -0.00000     0.00000    -0.00000
  Hartree    45.67291    45.67291    45.67291     0.00000     0.00000     0.00000
  E(xc)     -46.09737   -46.09737   -46.09737    -0.00000    -0.00000    -0.00000
  Local     -13.26870   -13.26870   -13.26870     0.00006     0.00006     0.00006
  n-local    -5.21808    -4.27265    -7.27577     1.78929    -1.86297    -0.05062
  augment   155.73140   155.73140   155.73140    -0.00005    -0.00005    -0.00005
  Kinetic    74.68387    74.10782    77.61403    -0.72121     0.83360    -0.10766
  Fock        0.00000     0.00000     0.00000     0.00000     0.00000     0.00000
  -------------------------------------------------------------------------------------
  Total      -0.65551    -0.65551    -0.65551     0.00000     0.00000    -0.00000
  in kB     -92.63648   -92.63648   -92.63648     0.00000     0.00000    -0.00000
  external pressure =      -92.64 kB  Pullay stress =        0.00 kB


 VOLUME and BASIS-vectors are now :
 -----------------------------------------------------------------------------
  energy-cutoff  :      400.00
  volume of cell :       11.34
      direct lattice vectors                 reciprocal lattice vectors
     0.000000000  1.783031154  1.783031154    -0.280421348  0.280421348  0.280421348
     1.783031154  0.000000000  1.783031154     0.280421348 -0.280421348  0.280421348
     1.783031154  1.783031154  0.000000000     0.280421348  0.280421348 -0.280421348

  length of vectors
     2.521586839  2.521586839  2.521586839     0.485704023  0.485704023  0.485704023


 FORCES acting on ions
    electron-ion (+dipol)            ewald-force                    non-local-force                 convergence-correction
 -----------------------------------------------------------------------------------------------
   -.816E-15 -.936E-16 -.132E-15   0.339E-15 -.547E-15 -.148E-14   0.165E-23 0.331E-23 0.165E-23   0.126E-13 0.147E-13 0.817E-14
 -----------------------------------------------------------------------------------------------
   -.816E-15 -.936E-16 -.132E-15   0.339E-15 -.547E-15 -.148E-14   0.165E-23 0.331E-23 0.165E-23   0.126E-13 0.147E-13 0.817E-14
 
 
 POSITION                                       TOTAL-FORCE (eV/Angst)
 -----------------------------------------------------------------------------------
      0.00000      0.00000      0.00000         0.000000      0.000000      0.000000
 -----------------------------------------------------------------------------------
    total drift:                                0.000000      0.000000      0.000000


--------------------------------------------------------------------------------------------------------



  FREE ENERGIE OF THE ION-ELECTRON SYSTEM (eV)
  ---------------------------------------------------
  free  energy   TOTEN  =        -7.00434992 eV

  energy  without entropy=       -7.00215774  energy(sigma->0) =       -7.00325383
 


--------------------------------------------------------------------------------------------------------


    POTLOK:  cpu time      0.0077: real time      0.0077


--------------------------------------------------------------------------------------------------------




--------------------------------------------------------------------------------------------------------


  
 reached required accuracy - stopping structural energy minimisation
 writing wavefunctions
     LOOP+:  cpu time      4.0559: real time      4.1269
    4ORBIT:  cpu time      0.0000: real time      0.0000



 total charge

# of ion       s       p       d       tot
------------------------------------------
    1        0.471   0.485   7.231   8.187



 magnetization (x)

# of ion       s       p       d       tot
------------------------------------------
    1       -0.014  -0.052   1.716   1.650
 

 total amount of memory used by VASP MPI-rank0    30973. kBytes
=======================================================================

   base      :      30000. kBytes
   nonl-proj :        311. kBytes
   fftplans  :         92. kBytes
   grid      :        217. kBytes
   one-center:         31. kBytes
   wavefun   :        322. kBytes
 
  
  
 General timing and accounting informations for this job:
 ========================================================
  
                  Total CPU time used (sec):        4.931
                            User time (sec):        4.429
                          System time (sec):        0.502
                         Elapsed time (sec):        6.393
  
                   Maximum memory used (kb):      218056.
                   Average memory used (kb):          N/A
  
                          Minor page faults:        18722
                          Major page faults:           97
                 Voluntary context switches:         2163
