PROCAR lm decomposed
# of k-points:   60         # of bands:   12         # of ions:    1

 k-point     1 :    0.06250000 0.06250000 0.06250000     weight = 0.00390625

band     1 # energy    1.14572897 # occ.  1.00000000
 
ion      s     py     pz     px    dxy    dyz    dz2    dxz  x2-y2    tot
    1  0.680  0.003  0.003  0.003  0.000  0.000  0.000  0.000  0.000  0.690
 
band     2 # energy    7.05315449 # occ.  1.00000000
 
ion      s     py     pz     px    dxy    dyz    dz2    dxz  x2-y2    tot
    1  0.000  0.000  0.000  0.000  0.322  0.322  0.000  0.322  0.000  0.966
 
band     3 # energy    7.12843158 # occ.  1.00000000
 
ion      s     py     pz     px    dxy    dyz    dz2    dxz  x2-y2    tot
    1  0.000  0.000  0.000  0.000  0.514  0.087  0.001  0.366  0.000  0.969
 
band     4 # energy    7.12843158 # occ.  1.00000000
 
ion      s     py     pz     px    dxy    dyz    dz2    dxz  x2-y2    tot
    1  0.000  0.000  0.000  0.000  0.131  0.558  0.000  0.278  0.001  0.969
 
band     5 # energy    8.07179323 # occ.  1.00000000
 
ion      s     py     pz     px    dxy    dyz    dz2    dxz  x2-y2    tot
    1  0.000  0.000  0.000  0.000  0.000  0.001  0.145  0.001  0.837  0.983
 
band     6 # energy    8.07179323 # occ.  1.00000000
 
ion      s     py     pz     px    dxy    dyz    dz2    dxz  x2-y2    tot
    1  0.000  0.000  0.000  0.000  0.001  0.000  0.837  0.000  0.145  0.983
 
band     7 # energy   32.02586956 # occ.  0.00000000
 
ion      s     py     pz     px    dxy    dyz    dz2    dxz  x2-y2    tot
    1  0.001  0.008  0.008  0.008  0.050  0.050  0.000  0.050  0.000  0.174
 
band     8 # energy   34.72345634 # occ.  0.00000000
 
ion      s     py     pz     px    dxy    dyz    dz2    dxz  x2-y2    tot
    1  0.020  0.088  0.088  0.088  0.036  0.036  0.000  0.036  0.000  0.392
 
band     9 # energy   36.14002211 # occ.  0.00000000
 
ion      s     py     pz     px    dxy    dyz    dz2    dxz  x2-y2    tot
    1  0.000  0.088  0.036  0.185  0.017  0.087  0.003  0.041  0.012  0.469
 
band    10 # energy   36.14002211 # occ.  0.00000000
 
ion      s     py     pz     px    dxy    dyz    dz2    dxz  x2-y2    tot
    1  0.000  0.118  0.170  0.021  0.080  0.010  0.012  0.056  0.003  0.469
 
band    11 # energy   39.90550695 # occ.  0.00000000
 
ion      s     py     pz     px    dxy    dyz    dz2    dxz  x2-y2    tot
    1  0.000  0.003  0.001  0.006  0.138  0.622  0.001  0.311  0.005  1.087
 
band    12 # energy   39.90551832 # occ.  0.00000000
 
ion      s     py     pz     px    dxy    dyz    dz2    dxz  x2-y2    tot
    1  0.000  0.004  0.005  0.001  0.577  0.093  0.005  0.401  0.001  1.087
 

 k-point     2 :    0.18750000 0.06250000 0.06250000     weight = 0.01171875

band     1 # energy    1.92076754 # occ.  1.00000000
 
ion      s     py     pz     px    dxy    dyz    dz2    dxz  x2-y2    tot
    1  0.627  0.028  0.028  0.003  0.001  0.005  0.000  0.001  0.001  0.692
 
band     2 # energy    6.85600548 # occ.  1.00000000
 
ion      s     py     pz     px    dxy    dyz    dz2    dxz  x2-y2    tot
    1  0.001  0.001  0.001  0.006  0.457  0.034  0.000  0.457  0.000  0.956
 
band     3 # energy    7.27551370 # occ.  1.00000000
 
ion      s     py     pz     px    dxy    dyz    dz2    dxz  x2-y2    tot
    1  0.000  0.002  0.002  0.000  0.016  0.839  0.023  0.016  0.068  0.967
 
band     4 # energy    7.28063893 # occ.  1.00000000
 
ion      s     py     pz     px    dxy    dyz    dz2    dxz  x2-y2    tot
    1  0.000  0.000  0.000  0.000  0.473  0.000  0.017  0.473  0.006  0.969
 
band     5 # energy    7.92878562 # occ.  1.00000000
 
ion      s     py     pz     px    dxy    dyz    dz2    dxz  x2-y2    tot
    1  0.000  0.000  0.000  0.000  0.011  0.000  0.716  0.011  0.239  0.978
 
band     6 # energy    8.15695590 # occ.  1.00000000
 
ion      s     py     pz     px    dxy    dyz    dz2    dxz  x2-y2    tot
    1  0.001  0.000  0.000  0.000  0.002  0.086  0.223  0.002  0.668  0.982
 
band     7 # energy   29.06973963 # occ.  0.00000000
 
ion      s     py     pz     px    dxy    dyz    dz2    dxz  x2-y2    tot
    1  0.027  0.048  0.048  0.119  0.162  0.080  0.001  0.162  0.002  0.649
 
band     8 # energy   31.67358267 # occ.  0.00000000
 
ion      s     py     pz     px    dxy    dyz    dz2    dxz  x2-y2    tot
    1  0.038  0.081  0.081  0.037  0.060  0.129  0.006  0.060  0.017  0.508
 
band     9 # energy   35.14267471 # occ.  0.00000000
 
ion      s     py     pz     px    dxy    dyz    dz2    dxz  x2-y2    tot
    1  0.001  0.006  0.006  0.218  0.008  0.061  0.001  0.008  0.002  0.311
 
band    10 # energy   37.13625899 # occ.  0.00000000
 
ion      s     py     pz     px    dxy    dyz    dz2    dxz  x2-y2    tot
    1  0.000  0.114  0.114  0.000  0.095  0.000  0.108  0.095  0.036  0.563
 
band    11 # energy   38.91663106 # occ.  0.00000000
 
ion      s     py     pz     px    dxy    dyz    dz2    dxz  x2-y2    tot
    1  0.000  0.059  0.059  0.011  0.000  0.248  0.013  0.000  0.038  0.428
 
band    12 # energy   40.05231333 # occ.  0.00000000
 
ion      s     py     pz     px    dxy    dyz    dz2    dxz  x2-y2    tot
    1  0.000  0.001  0.001  0.000  0.428  0.000  0.088  0.428  0.029  0.976
 

 k-point     3 :    0.31250000 0.06250000 0.06250000     weight = 0.01171875

band     1 # energy    3.55926428 # occ.  1.00000000
 
ion      s     py     pz     px    dxy    dyz    dz2    dxz  x2-y2    tot
    1  0.479  0.055  0.055  0.016  0.029  0.053  0.001  0.029  0.003  0.720
 
band     2 # energy    6.75616040 # occ.  1.00000000
 
ion      s     py     pz     px    dxy    dyz    dz2    dxz  x2-y2    tot
    1  0.021  0.020  0.020  0.029  0.382  0.057  0.001  0.382  0.002  0.914
 
band     3 # energy    7.22155884 # occ.  1.00000000
 
ion      s     py     pz     px    dxy    dyz    dz2    dxz  x2-y2    tot
    1  0.000  0.003  0.003  0.000  0.033  0.471  0.105  0.033  0.316  0.962
 
band     4 # energy    7.28994983 # occ.  1.00000000
 
ion      s     py     pz     px    dxy    dyz    dz2    dxz  x2-y2    tot
    1  0.000  0.000  0.000  0.000  0.265  0.000  0.328  0.265  0.109  0.967
 
band     5 # energy    8.13384745 # occ.  1.00000000
 
ion      s     py     pz     px    dxy    dyz    dz2    dxz  x2-y2    tot
    1  0.000  0.001  0.001  0.000  0.221  0.000  0.400  0.221  0.133  0.977
 
band     6 # energy    8.53855160 # occ.  1.00000000
 
ion      s     py     pz     px    dxy    dyz    dz2    dxz  x2-y2    tot
    1  0.009  0.005  0.005  0.000  0.017  0.377  0.137  0.017  0.412  0.978
 
band     7 # energy   23.04841969 # occ.  0.00000000
 
ion      s     py     pz     px    dxy    dyz    dz2    dxz  x2-y2    tot
    1  0.121  0.078  0.078  0.132  0.127  0.099  0.001  0.127  0.003  0.766
 
band     8 # energy   30.61299268 # occ.  0.00000000
 
ion      s     py     pz     px    dxy    dyz    dz2    dxz  x2-y2    tot
    1  0.028  0.034  0.034  0.124  0.096  0.064  0.015  0.096  0.045  0.536
 
band     9 # energy   34.10175325 # occ.  0.00000000
 
ion      s     py     pz     px    dxy    dyz    dz2    dxz  x2-y2    tot
    1  0.000  0.062  0.062  0.122  0.002  0.112  0.000  0.002  0.001  0.362
 
band    10 # energy   36.60163407 # occ.  0.00000000
 
ion      s     py     pz     px    dxy    dyz    dz2    dxz  x2-y2    tot
    1  0.000  0.168  0.168  0.000  0.216  0.000  0.053  0.216  0.018  0.838
 
band    11 # energy   37.82345838 # occ.  0.00000000
 
ion      s     py     pz     px    dxy    dyz    dz2    dxz  x2-y2    tot
    1  0.000  0.080  0.080  0.000  0.002  0.000  0.469  0.002  0.156  0.788
 
band    12 # energy   38.87283019 # occ.  0.00000000
 
ion      s     py     pz     px    dxy    dyz    dz2    dxz  x2-y2    tot
    1  0.059  0.055  0.055  0.011  0.010  0.022  0.063  0.010  0.189  0.475
 

 k-point     4 :    0.43750000 0.06250000 0.06250000     weight = 0.01171875

band     1 # energy    4.69221164 # occ.  1.00000000
 
ion      s     py     pz     px    dxy    dyz    dz2    dxz  x2-y2    tot
    1  0.219  0.020  0.020  0.002  0.187  0.207  0.000  0.187  0.001  0.844
 
band     2 # energy    7.00557759 # occ.  1.00000000
 
ion      s     py     pz     px    dxy    dyz    dz2    dxz  x2-y2    tot
    1  0.000  0.002  0.002  0.000  0.046  0.283  0.145  0.046  0.434  0.957
 
band     3 # energy    7.09640794 # occ.  1.00000000
 
ion      s     py     pz     px    dxy    dyz    dz2    dxz  x2-y2    tot
    1  0.000  0.000  0.000  0.000  0.183  0.000  0.447  0.183  0.149  0.962
 
band     4 # energy    7.77577930 # occ.  1.00000000
 
ion      s     py     pz     px    dxy    dyz    dz2    dxz  x2-y2    tot
    1  0.056  0.088  0.088  0.088  0.193  0.027  0.022  0.193  0.066  0.820
 
band     5 # energy    8.65213949 # occ.  1.00000000
 
ion      s     py     pz     px    dxy    dyz    dz2    dxz  x2-y2    tot
    1  0.000  0.000  0.000  0.000  0.306  0.000  0.279  0.306  0.093  0.985
 
band     6 # energy    9.30496870 # occ.  1.00000000
 
ion      s     py     pz     px    dxy    dyz    dz2    dxz  x2-y2    tot
    1  0.044  0.049  0.049  0.030  0.007  0.426  0.076  0.007  0.227  0.915
 
band     7 # energy   17.78143853 # occ.  0.00000000
 
ion      s     py     pz     px    dxy    dyz    dz2    dxz  x2-y2    tot
    1  0.283  0.046  0.046  0.095  0.127  0.100  0.001  0.127  0.002  0.827
 
band     8 # energy   30.19313288 # occ.  0.00000000
 
ion      s     py     pz     px    dxy    dyz    dz2    dxz  x2-y2    tot
    1  0.015  0.009  0.009  0.132  0.053  0.036  0.025  0.053  0.076  0.409
 
band     9 # energy   32.83317250 # occ.  0.00000000
 
ion      s     py     pz     px    dxy    dyz    dz2    dxz  x2-y2    tot
    1  0.013  0.100  0.100  0.170  0.010  0.020  0.001  0.010  0.004  0.427
 
band    10 # energy   34.48376875 # occ.  0.00000000
 
ion      s     py     pz     px    dxy    dyz    dz2    dxz  x2-y2    tot
    1  0.000  0.264  0.264  0.000  0.001  0.000  0.118  0.001  0.039  0.687
 
band    11 # energy   36.99478933 # occ.  0.00000000
 
ion      s     py     pz     px    dxy    dyz    dz2    dxz  x2-y2    tot
    1  0.000  0.026  0.026  0.000  0.192  0.000  0.407  0.192  0.136  0.979
 
band    12 # energy   38.55688236 # occ.  0.00000000
 
ion      s     py     pz     px    dxy    dyz    dz2    dxz  x2-y2    tot
    1  0.050  0.015  0.015  0.013  0.000  0.212  0.127  0.000  0.381  0.813
 

 k-point     5 :   -0.43750000 0.06250000 0.06250000     weight = 0.01171875

band     1 # energy    4.82069684 # occ.  1.00000000
 
ion      s     py     pz     px    dxy    dyz    dz2    dxz  x2-y2    tot
    1  0.155  0.000  0.000  0.006  0.233  0.253  0.000  0.233  0.000  0.879
 
band     2 # energy    6.91581307 # occ.  1.00000000
 
ion      s     py     pz     px    dxy    dyz    dz2    dxz  x2-y2    tot
    1  0.000  0.002  0.002  0.000  0.062  0.197  0.157  0.062  0.472  0.955
 
band     3 # energy    7.04679266 # occ.  1.00000000
 
ion      s     py     pz     px    dxy    dyz    dz2    dxz  x2-y2    tot
    1  0.000  0.000  0.000  0.000  0.181  0.000  0.450  0.181  0.150  0.961
 
band     4 # energy    8.30614851 # occ.  1.00000000
 
ion      s     py     pz     px    dxy    dyz    dz2    dxz  x2-y2    tot
    1  0.002  0.062  0.062  0.060  0.066  0.369  0.049  0.066  0.147  0.885
 
band     5 # energy    8.91404367 # occ.  1.00000000
 
ion      s     py     pz     px    dxy    dyz    dz2    dxz  x2-y2    tot
    1  0.000  0.000  0.000  0.000  0.310  0.000  0.278  0.310  0.093  0.991
 
band     6 # energy   10.13303921 # occ.  0.00000000
 
ion      s     py     pz     px    dxy    dyz    dz2    dxz  x2-y2    tot
    1  0.008  0.141  0.141  0.158  0.050  0.073  0.036  0.050  0.108  0.765
 
band     7 # energy   15.63711931 # occ.  0.00000000
 
ion      s     py     pz     px    dxy    dyz    dz2    dxz  x2-y2    tot
    1  0.430  0.011  0.011  0.000  0.138  0.152  0.000  0.138  0.000  0.881
 
band     8 # energy   30.37922416 # occ.  0.00000000
 
ion      s     py     pz     px    dxy    dyz    dz2    dxz  x2-y2    tot
    1  0.001  0.000  0.000  0.057  0.010  0.039  0.028  0.010  0.084  0.229
 
band     9 # energy   32.69153196 # occ.  0.00000000
 
ion      s     py     pz     px    dxy    dyz    dz2    dxz  x2-y2    tot
    1  0.000  0.253  0.253  0.000  0.032  0.000  0.103  0.032  0.034  0.707
 
band    10 # energy   32.87113024 # occ.  0.00000000
 
ion      s     py     pz     px    dxy    dyz    dz2    dxz  x2-y2    tot
    1  0.037  0.092  0.092  0.301  0.012  0.006  0.011  0.012  0.032  0.595
 
band    11 # energy   37.79276548 # occ.  0.00000000
 
ion      s     py     pz     px    dxy    dyz    dz2    dxz  x2-y2    tot
    1  0.000  0.051  0.051  0.000  0.137  0.000  0.412  0.137  0.137  0.926
 
band    12 # energy   37.85560400 # occ.  0.00000000
 
ion      s     py     pz     px    dxy    dyz    dz2    dxz  x2-y2    tot
    1  0.011  0.003  0.003  0.027  0.025  0.253  0.135  0.025  0.404  0.887
 

 k-point     6 :   -0.31250000 0.06250000 0.06250000     weight = 0.01171875

band     1 # energy    4.47431170 # occ.  1.00000000
 
ion      s     py     pz     px    dxy    dyz    dz2    dxz  x2-y2    tot
    1  0.296  0.015  0.015  0.049  0.141  0.139  0.002  0.141  0.005  0.802
 
band     2 # energy    7.04127192 # occ.  1.00000000
 
ion      s     py     pz     px    dxy    dyz    dz2    dxz  x2-y2    tot
    1  0.001  0.005  0.005  0.003  0.112  0.095  0.155  0.112  0.464  0.951
 
band     3 # energy    7.18040977 # occ.  1.00000000
 
ion      s     py     pz     px    dxy    dyz    dz2    dxz  x2-y2    tot
    1  0.000  0.001  0.001  0.000  0.223  0.000  0.388  0.223  0.129  0.964
 
band     4 # energy    7.26772904 # occ.  1.00000000
 
ion      s     py     pz     px    dxy    dyz    dz2    dxz  x2-y2    tot
    1  0.063  0.064  0.064  0.066  0.013  0.557  0.002  0.013  0.005  0.847
 
band     5 # energy    8.72115927 # occ.  1.00000000
 
ion      s     py     pz     px    dxy    dyz    dz2    dxz  x2-y2    tot
    1  0.000  0.000  0.000  0.000  0.265  0.000  0.343  0.265  0.114  0.987
 
band     6 # energy    8.79024223 # occ.  1.00000000
 
ion      s     py     pz     px    dxy    dyz    dz2    dxz  x2-y2    tot
    1  0.031  0.015  0.015  0.032  0.191  0.136  0.084  0.191  0.252  0.947
 
band     7 # energy   19.37953114 # occ.  0.00000000
 
ion      s     py     pz     px    dxy    dyz    dz2    dxz  x2-y2    tot
    1  0.219  0.097  0.097  0.050  0.104  0.132  0.001  0.104  0.002  0.804
 
band     8 # energy   31.09531566 # occ.  0.00000000
 
ion      s     py     pz     px    dxy    dyz    dz2    dxz  x2-y2    tot
    1  0.007  0.006  0.006  0.003  0.000  0.098  0.022  0.000  0.066  0.208
 
band     9 # energy   32.17035440 # occ.  0.00000000
 
ion      s     py     pz     px    dxy    dyz    dz2    dxz  x2-y2    tot
    1  0.000  0.228  0.228  0.000  0.110  0.000  0.068  0.110  0.023  0.767
 
band    10 # energy   34.48978337 # occ.  0.00000000
 
ion      s     py     pz     px    dxy    dyz    dz2    dxz  x2-y2    tot
    1  0.046  0.046  0.046  0.391  0.000  0.078  0.024  0.000  0.072  0.705
 
band    11 # energy   37.70952692 # occ.  0.00000000
 
ion      s     py     pz     px    dxy    dyz    dz2    dxz  x2-y2    tot
    1  0.000  0.003  0.003  0.015  0.064  0.161  0.127  0.064  0.380  0.816
 
band    12 # energy   39.49180247 # occ.  0.00000000
 
ion      s     py     pz     px    dxy    dyz    dz2    dxz  x2-y2    tot
    1  0.000  0.062  0.062  0.000  0.045  0.000  0.429  0.045  0.143  0.785
 

 k-point     7 :   -0.18750000 0.06250000 0.06250000     weight = 0.01171875

band     1 # energy    2.96842848 # occ.  1.00000000
 
ion      s     py     pz     px    dxy    dyz    dz2    dxz  x2-y2    tot
    1  0.543  0.022  0.022  0.067  0.018  0.010  0.001  0.018  0.003  0.703
 
band     2 # energy    6.70994754 # occ.  1.00000000
 
ion      s     py     pz     px    dxy    dyz    dz2    dxz  x2-y2    tot
    1  0.008  0.012  0.012  0.008  0.135  0.624  0.000  0.135  0.001  0.936
 
band     3 # energy    7.28120780 # occ.  1.00000000
 
ion      s     py     pz     px    dxy    dyz    dz2    dxz  x2-y2    tot
    1  0.000  0.001  0.001  0.001  0.194  0.210  0.091  0.194  0.274  0.965
 
band     4 # energy    7.33646370 # occ.  1.00000000
 
ion      s     py     pz     px    dxy    dyz    dz2    dxz  x2-y2    tot
    1  0.000  0.002  0.002  0.000  0.352  0.000  0.196  0.352  0.065  0.968
 
band     5 # energy    8.06747900 # occ.  1.00000000
 
ion      s     py     pz     px    dxy    dyz    dz2    dxz  x2-y2    tot
    1  0.006  0.001  0.001  0.005  0.127  0.107  0.150  0.127  0.450  0.973
 
band     6 # energy    8.30740940 # occ.  1.00000000
 
ion      s     py     pz     px    dxy    dyz    dz2    dxz  x2-y2    tot
    1  0.000  0.001  0.001  0.000  0.131  0.000  0.539  0.131  0.180  0.982
 
band     7 # energy   25.02544893 # occ.  0.00000000
 
ion      s     py     pz     px    dxy    dyz    dz2    dxz  x2-y2    tot
    1  0.085  0.111  0.111  0.062  0.113  0.144  0.001  0.113  0.002  0.742
 
band     8 # energy   32.11083953 # occ.  0.00000000
 
ion      s     py     pz     px    dxy    dyz    dz2    dxz  x2-y2    tot
    1  0.027  0.001  0.001  0.016  0.001  0.172  0.013  0.001  0.040  0.271
 
band     9 # energy   32.71655167 # occ.  0.00000000
 
ion      s     py     pz     px    dxy    dyz    dz2    dxz  x2-y2    tot
    1  0.000  0.197  0.197  0.000  0.174  0.000  0.035  0.174  0.012  0.787
 
band    10 # energy   37.14033059 # occ.  0.00000000
 
ion      s     py     pz     px    dxy    dyz    dz2    dxz  x2-y2    tot
    1  0.028  0.002  0.002  0.324  0.029  0.157  0.034  0.029  0.103  0.709
 
band    11 # energy   37.54007031 # occ.  0.00000000
 
ion      s     py     pz     px    dxy    dyz    dz2    dxz  x2-y2    tot
    1  0.001  0.046  0.046  0.031  0.035  0.054  0.068  0.035  0.203  0.519
 
band    12 # energy   41.76154920 # occ.  0.00000000
 
ion      s     py     pz     px    dxy    dyz    dz2    dxz  x2-y2    tot
    1  0.000  0.015  0.067  0.002  0.004  0.002  0.385  0.015  0.066  0.555
 

 k-point     8 :   -0.06250000 0.06250000 0.06250000     weight = 0.01171875

band     1 # energy    1.53948297 # occ.  1.00000000
 
ion      s     py     pz     px    dxy    dyz    dz2    dxz  x2-y2    tot
    1  0.654  0.003  0.003  0.029  0.000  0.000  0.000  0.000  0.001  0.690
 
band     2 # energy    6.92037281 # occ.  1.00000000
 
ion      s     py     pz     px    dxy    dyz    dz2    dxz  x2-y2    tot
    1  0.000  0.001  0.001  0.000  0.058  0.844  0.000  0.058  0.000  0.962
 
band     3 # energy    7.23075419 # occ.  1.00000000
 
ion      s     py     pz     px    dxy    dyz    dz2    dxz  x2-y2    tot
    1  0.000  0.001  0.001  0.001  0.420  0.117  0.002  0.420  0.007  0.969
 
band     4 # energy    7.23467705 # occ.  1.00000000
 
ion      s     py     pz     px    dxy    dyz    dz2    dxz  x2-y2    tot
    1  0.000  0.001  0.001  0.000  0.477  0.000  0.009  0.477  0.003  0.969
 
band     5 # energy    7.94655108 # occ.  1.00000000
 
ion      s     py     pz     px    dxy    dyz    dz2    dxz  x2-y2    tot
    1  0.001  0.000  0.000  0.000  0.004  0.001  0.242  0.004  0.726  0.979
 
band     6 # energy    8.13390977 # occ.  1.00000000
 
ion      s     py     pz     px    dxy    dyz    dz2    dxz  x2-y2    tot
    1  0.000  0.000  0.000  0.000  0.006  0.000  0.729  0.006  0.243  0.984
 
band     7 # energy   30.90031431 # occ.  0.00000000
 
ion      s     py     pz     px    dxy    dyz    dz2    dxz  x2-y2    tot
    1  0.008  0.051  0.051  0.016  0.075  0.209  0.000  0.075  0.001  0.487
 
band     8 # energy   33.26138817 # occ.  0.00000000
 
ion      s     py     pz     px    dxy    dyz    dz2    dxz  x2-y2    tot
    1  0.033  0.044  0.044  0.072  0.038  0.044  0.005  0.038  0.015  0.333
 
band     9 # energy   34.10803944 # occ.  0.00000000
 
ion      s     py     pz     px    dxy    dyz    dz2    dxz  x2-y2    tot
    1  0.000  0.171  0.171  0.000  0.177  0.000  0.006  0.177  0.002  0.703
 
band    10 # energy   36.04385003 # occ.  0.00000000
 
ion      s     py     pz     px    dxy    dyz    dz2    dxz  x2-y2    tot
    1  0.010  0.079  0.079  0.063  0.026  0.002  0.022  0.026  0.066  0.374
 
band    11 # energy   39.85698110 # occ.  0.00000000
 
ion      s     py     pz     px    dxy    dyz    dz2    dxz  x2-y2    tot
    1  0.000  0.001  0.001  0.069  0.213  0.404  0.001  0.213  0.004  0.907
 
band    12 # energy   41.73838827 # occ.  0.00000000
 
ion      s     py     pz     px    dxy    dyz    dz2    dxz  x2-y2    tot
    1  0.000  0.002  0.001  0.023  0.223  0.103  0.017  0.282  0.007  0.658
 

 k-point     9 :    0.18750000 0.18750000 0.06250000     weight = 0.01171875

band     1 # energy    2.29187765 # occ.  1.00000000
 
ion      s     py     pz     px    dxy    dyz    dz2    dxz  x2-y2    tot
    1  0.599  0.003  0.075  0.003  0.000  0.001  0.010  0.001  0.000  0.693
 
band     2 # energy    6.66373661 # occ.  1.00000000
 
ion      s     py     pz     px    dxy    dyz    dz2    dxz  x2-y2    tot
    1  0.000  0.001  0.000  0.001  0.914  0.019  0.000  0.019  0.000  0.954
 
band     3 # energy    7.41262349 # occ.  1.00000000
 
ion      s     py     pz     px    dxy    dyz    dz2    dxz  x2-y2    tot
    1  0.000  0.002  0.000  0.002  0.035  0.392  0.145  0.392  0.000  0.968
 
band     4 # energy    7.44193382 # occ.  1.00000000
 
ion      s     py     pz     px    dxy    dyz    dz2    dxz  x2-y2    tot
    1  0.000  0.003  0.000  0.003  0.000  0.464  0.000  0.464  0.036  0.969
 
band     5 # energy    7.77833654 # occ.  1.00000000
 
ion      s     py     pz     px    dxy    dyz    dz2    dxz  x2-y2    tot
    1  0.007  0.000  0.003  0.000  0.005  0.069  0.815  0.069  0.000  0.970
 
band     6 # energy    8.24997953 # occ.  1.00000000
 
ion      s     py     pz     px    dxy    dyz    dz2    dxz  x2-y2    tot
    1  0.000  0.000  0.000  0.000  0.000  0.018  0.000  0.018  0.948  0.985
 
band     7 # energy   29.36490589 # occ.  0.00000000
 
ion      s     py     pz     px    dxy    dyz    dz2    dxz  x2-y2    tot
    1  0.019  0.104  0.016  0.104  0.222  0.096  0.009  0.096  0.000  0.666
 
band     8 # energy   31.84909767 # occ.  0.00000000
 
ion      s     py     pz     px    dxy    dyz    dz2    dxz  x2-y2    tot
    1  0.000  0.202  0.000  0.202  0.000  0.173  0.000  0.173  0.006  0.755
 
band     9 # energy   31.89466296 # occ.  0.00000000
 
ion      s     py     pz     px    dxy    dyz    dz2    dxz  x2-y2    tot
    1  0.031  0.019  0.022  0.019  0.218  0.016  0.073  0.016  0.000  0.414
 
band    10 # energy   34.17528529 # occ.  0.00000000
 
ion      s     py     pz     px    dxy    dyz    dz2    dxz  x2-y2    tot
    1  0.004  0.069  0.000  0.069  0.042  0.047  0.194  0.047  0.000  0.473
 
band    11 # energy   39.21250501 # occ.  0.00000000
 
ion      s     py     pz     px    dxy    dyz    dz2    dxz  x2-y2    tot
    1  0.164  0.018  0.572  0.018  0.003  0.000  0.135  0.000  0.000  0.909
 
band    12 # energy   42.21459021 # occ.  0.00000000
 
ion      s     py     pz     px    dxy    dyz    dz2    dxz  x2-y2    tot
    1  0.022  0.000  0.002  0.000  0.363  0.138  0.063  0.138  0.000  0.726
 

 k-point    10 :    0.31250000 0.18750000 0.06250000     weight = 0.02343750

band     1 # energy    3.61310989 # occ.  1.00000000
 
ion      s     py     pz     px    dxy    dyz    dz2    dxz  x2-y2    tot
    1  0.478  0.022  0.123  0.002  0.002  0.028  0.049  0.004  0.000  0.709
 
band     2 # energy    6.38345684 # occ.  1.00000000
 
ion      s     py     pz     px    dxy    dyz    dz2    dxz  x2-y2    tot
    1  0.001  0.002  0.001  0.010  0.843  0.006  0.003  0.075  0.000  0.941
 
band     3 # energy    7.20764296 # occ.  1.00000000
 
ion      s     py     pz     px    dxy    dyz    dz2    dxz  x2-y2    tot
    1  0.006  0.003  0.002  0.000  0.017  0.339  0.539  0.015  0.036  0.957
 
band     4 # energy    7.68143920 # occ.  1.00000000
 
ion      s     py     pz     px    dxy    dyz    dz2    dxz  x2-y2    tot
    1  0.002  0.002  0.002  0.004  0.042  0.123  0.051  0.552  0.192  0.969
 
band     5 # energy    8.03511740 # occ.  1.00000000
 
ion      s     py     pz     px    dxy    dyz    dz2    dxz  x2-y2    tot
    1  0.014  0.003  0.012  0.003  0.036  0.114  0.249  0.307  0.227  0.965
 
band     6 # energy    8.61126227 # occ.  1.00000000
 
ion      s     py     pz     px    dxy    dyz    dz2    dxz  x2-y2    tot
    1  0.013  0.004  0.007  0.000  0.001  0.353  0.070  0.003  0.526  0.978
 
band     7 # energy   25.56566914 # occ.  0.00000000
 
ion      s     py     pz     px    dxy    dyz    dz2    dxz  x2-y2    tot
    1  0.057  0.102  0.021  0.190  0.172  0.073  0.016  0.113  0.003  0.746
 
band     8 # energy   28.13358390 # occ.  0.00000000
 
ion      s     py     pz     px    dxy    dyz    dz2    dxz  x2-y2    tot
    1  0.041  0.149  0.013  0.135  0.098  0.108  0.045  0.071  0.017  0.677
 
band     9 # energy   31.87271049 # occ.  0.00000000
 
ion      s     py     pz     px    dxy    dyz    dz2    dxz  x2-y2    tot
    1  0.011  0.057  0.100  0.024  0.026  0.023  0.320  0.015  0.004  0.579
 
band    10 # energy   33.79404274 # occ.  0.00000000
 
ion      s     py     pz     px    dxy    dyz    dz2    dxz  x2-y2    tot
    1  0.030  0.004  0.079  0.099  0.305  0.002  0.049  0.056  0.001  0.625
 
band    11 # energy   38.18458199 # occ.  0.00000000
 
ion      s     py     pz     px    dxy    dyz    dz2    dxz  x2-y2    tot
    1  0.158  0.185  0.313  0.027  0.018  0.048  0.002  0.006  0.000  0.755
 
band    12 # energy   42.02854305 # occ.  0.00000000
 
ion      s     py     pz     px    dxy    dyz    dz2    dxz  x2-y2    tot
    1  0.026  0.023  0.020  0.002  0.056  0.007  0.174  0.028  0.153  0.488
 

 k-point    11 :    0.43750000 0.18750000 0.06250000     weight = 0.02343750

band     1 # energy    4.96774817 # occ.  1.00000000
 
ion      s     py     pz     px    dxy    dyz    dz2    dxz  x2-y2    tot
    1  0.233  0.018  0.087  0.001  0.153  0.143  0.090  0.084  0.001  0.809
 
band     2 # energy    6.49799469 # occ.  1.00000000
 
ion      s     py     pz     px    dxy    dyz    dz2    dxz  x2-y2    tot
    1  0.013  0.035  0.021  0.035  0.354  0.025  0.335  0.062  0.011  0.892
 
band     3 # energy    6.92380089 # occ.  1.00000000
 
ion      s     py     pz     px    dxy    dyz    dz2    dxz  x2-y2    tot
    1  0.024  0.001  0.020  0.007  0.319  0.272  0.251  0.006  0.042  0.941
 
band     4 # energy    7.53191555 # occ.  1.00000000
 
ion      s     py     pz     px    dxy    dyz    dz2    dxz  x2-y2    tot
    1  0.002  0.003  0.005  0.001  0.039  0.074  0.051  0.293  0.496  0.964
 
band     5 # energy    8.69380518 # occ.  1.00000000
 
ion      s     py     pz     px    dxy    dyz    dz2    dxz  x2-y2    tot
    1  0.003  0.001  0.006  0.004  0.036  0.064  0.051  0.470  0.346  0.981
 
band     6 # energy    9.76372502 # occ.  0.21702323
 
ion      s     py     pz     px    dxy    dyz    dz2    dxz  x2-y2    tot
    1  0.087  0.031  0.081  0.016  0.015  0.388  0.179  0.035  0.078  0.910
 
band     7 # energy   19.88725617 # occ.  0.00000000
 
ion      s     py     pz     px    dxy    dyz    dz2    dxz  x2-y2    tot
    1  0.182  0.100  0.021  0.168  0.151  0.067  0.013  0.086  0.003  0.791
 
band     8 # energy   27.56367313 # occ.  0.00000000
 
ion      s     py     pz     px    dxy    dyz    dz2    dxz  x2-y2    tot
    1  0.019  0.109  0.001  0.174  0.092  0.063  0.103  0.040  0.055  0.655
 
band     9 # energy   29.44679874 # occ.  0.00000000
 
ion      s     py     pz     px    dxy    dyz    dz2    dxz  x2-y2    tot
    1  0.072  0.015  0.229  0.069  0.000  0.000  0.242  0.032  0.017  0.677
 
band    10 # energy   33.40144405 # occ.  0.00000000
 
ion      s     py     pz     px    dxy    dyz    dz2    dxz  x2-y2    tot
    1  0.061  0.144  0.103  0.025  0.223  0.018  0.002  0.013  0.006  0.595
 
band    11 # energy   39.98128743 # occ.  0.00000000
 
ion      s     py     pz     px    dxy    dyz    dz2    dxz  x2-y2    tot
    1  0.014  0.113  0.003  0.003  0.185  0.020  0.087  0.040  0.203  0.667
 
band    12 # energy   42.32790087 # occ.  0.00000000
 
ion      s     py     pz     px    dxy    dyz    dz2    dxz  x2-y2    tot
    1  0.118  0.102  0.101  0.057  0.006  0.001  0.230  0.007  0.005  0.627
 

 k-point    12 :   -0.43750000 0.18750000 0.06250000     weight = 0.02343750

band     1 # energy    5.27231214 # occ.  1.00000000
 
ion      s     py     pz     px    dxy    dyz    dz2    dxz  x2-y2    tot
    1  0.112  0.000  0.022  0.008  0.332  0.236  0.010  0.167  0.000  0.888
 
band     2 # energy    6.52604265 # occ.  1.00000000
 
ion      s     py     pz     px    dxy    dyz    dz2    dxz  x2-y2    tot
    1  0.000  0.025  0.003  0.011  0.031  0.076  0.682  0.012  0.075  0.914
 
band     3 # energy    7.34274389 # occ.  1.00000000
 
ion      s     py     pz     px    dxy    dyz    dz2    dxz  x2-y2    tot
    1  0.002  0.018  0.024  0.038  0.176  0.305  0.093  0.049  0.223  0.927
 
band     4 # energy    7.39906848 # occ.  1.00000000
 
ion      s     py     pz     px    dxy    dyz    dz2    dxz  x2-y2    tot
    1  0.001  0.023  0.037  0.011  0.255  0.027  0.005  0.207  0.367  0.933
 
band     5 # energy    8.88081504 # occ.  1.00000000
 
ion      s     py     pz     px    dxy    dyz    dz2    dxz  x2-y2    tot
    1  0.000  0.000  0.000  0.000  0.037  0.172  0.030  0.467  0.283  0.989
 
band     6 # energy   11.90490582 # occ.  0.00000000
 
ion      s     py     pz     px    dxy    dyz    dz2    dxz  x2-y2    tot
    1  0.013  0.124  0.177  0.124  0.054  0.107  0.152  0.016  0.019  0.786
 
band     7 # energy   15.83950168 # occ.  0.00000000
 
ion      s     py     pz     px    dxy    dyz    dz2    dxz  x2-y2    tot
    1  0.399  0.015  0.009  0.054  0.159  0.112  0.001  0.111  0.001  0.860
 
band     8 # energy   27.00410476 # occ.  0.00000000
 
ion      s     py     pz     px    dxy    dyz    dz2    dxz  x2-y2    tot