<?xml version="1.0" encoding="ISO-8859-1"?>
<modeling>
 <generator>
  <i name="program" type="string">vasp </i>
  <i name="version" type="string">6.3.2  </i>
  <i name="subversion" type="string">27Jun22 (build Aug 12 2022 00:53:59) complex                          parallel </i>
  <i name="platform" type="string">tv2STD </i>
  <i name="date" type="string">2024 11 30 </i>
  <i name="time" type="string">17:12:43 </i>
 </generator>
 <incar>
  <i type="string" name="SYSTEM">Co-fcc</i>
  <i type="int" name="ISTART">     0</i>
  <i type="string" name="PREC">Accurate      normal | accurate</i>
  <i type="string" name="ALGO">Normal     Normal, Fast, Very_Fast</i>
  <i type="logical" name="ADDGRID"> F  </i>
  <i type="int" name="ISPIN">     2</i>
  <i type="int" name="ICHARG">     2</i>
  <i type="int" name="INIWAV">     1</i>
  <i type="int" name="NELM">   100</i>
  <i type="int" name="IBRION">     2</i>
  <i name="EDIFF">      0.00000100</i>
  <i name="EDIFFG">     -0.02000000</i>
  <i type="int" name="NSW">   100</i>
  <i type="int" name="ISIF">     2</i>
  <i type="int" name="ISYM">     1</i>
  <i name="ENCUT">    400.00000000</i>
  <v name="MAGMOM">      3.00000000</v>
  <i type="logical" name="LREAL"> F  </i>
  <i type="int" name="ISMEAR">     0</i>
  <i name="SIGMA">      0.05000000</i>
  <i type="int" name="NWRITE">     2</i>
  <i type="logical" name="LWAVE"> T  </i>
  <i type="logical" name="LCHARG"> T  </i>
  <i type="int" name="LORBIT">    11</i>
 </incar>
 <primitive_cell>
  <structure name="primitive_cell" >
   <crystal>
    <varray name="basis" >
     <v>       0.00000000       1.78303115       1.78303115 </v>
     <v>       1.78303115       0.00000000       1.78303115 </v>
     <v>       1.78303115       1.78303115       0.00000000 </v>
    </varray>
    <i name="volume">     11.33722562 </i>
    <varray name="rec_basis" >
     <v>      -0.28042135       0.28042135       0.28042135 </v>
     <v>       0.28042135      -0.28042135       0.28042135 </v>
     <v>       0.28042135       0.28042135      -0.28042135 </v>
    </varray>
   </crystal>
   <varray name="positions" >
    <v>       0.00000000       0.00000000       0.00000000 </v>
   </varray>
  </structure>
  <varray name="primitive_index" >
   <v type="int" >        1 </v>
  </varray>
 </primitive_cell>
 <kpoints>
  <generation param="Monkhorst-Pack">
   <v type="int" name="divisions">       8        8        8 </v>
   <v name="usershift">      0.00000000       0.00000000       0.00000000 </v>
   <v name="genvec1">      0.12500000       0.00000000       0.00000000 </v>
   <v name="genvec2">      0.00000000       0.12500000       0.00000000 </v>
   <v name="genvec3">      0.00000000       0.00000000       0.12500000 </v>
   <v name="shift">      0.50000000       0.50000000       0.50000000 </v>
  </generation>
  <varray name="kpointlist" >
   <v>       0.06250000       0.06250000       0.06250000 </v>
   <v>       0.18750000       0.06250000       0.06250000 </v>
   <v>       0.31250000       0.06250000       0.06250000 </v>
   <v>       0.43750000       0.06250000       0.06250000 </v>
   <v>      -0.43750000       0.06250000       0.06250000 </v>
   <v>      -0.31250000       0.06250000       0.06250000 </v>
   <v>      -0.18750000       0.06250000       0.06250000 </v>
   <v>      -0.06250000       0.06250000       0.06250000 </v>
   <v>       0.18750000       0.18750000       0.06250000 </v>
   <v>       0.31250000       0.18750000       0.06250000 </v>
   <v>       0.43750000       0.18750000       0.06250000 </v>
   <v>      -0.43750000       0.18750000       0.06250000 </v>
   <v>      -0.31250000       0.18750000       0.06250000 </v>
   <v>      -0.18750000       0.18750000       0.06250000 </v>
   <v>      -0.06250000       0.18750000       0.06250000 </v>
   <v>       0.31250000       0.31250000       0.06250000 </v>
   <v>       0.43750000       0.31250000       0.06250000 </v>
   <v>      -0.43750000       0.31250000       0.06250000 </v>
   <v>      -0.31250000       0.31250000       0.06250000 </v>
   <v>      -0.18750000       0.31250000       0.06250000 </v>
   <v>      -0.06250000       0.31250000       0.06250000 </v>
   <v>       0.43750000       0.43750000       0.06250000 </v>
   <v>      -0.43750000       0.43750000       0.06250000 </v>
   <v>      -0.31250000       0.43750000       0.06250000 </v>
   <v>      -0.18750000       0.43750000       0.06250000 </v>
   <v>      -0.06250000       0.43750000       0.06250000 </v>
   <v>      -0.43750000      -0.43750000       0.06250000 </v>
   <v>      -0.31250000      -0.43750000       0.06250000 </v>
   <v>      -0.18750000      -0.43750000       0.06250000 </v>
   <v>      -0.31250000      -0.31250000       0.06250000 </v>
   <v>      -0.18750000      -0.31250000       0.06250000 </v>
   <v>      -0.18750000      -0.18750000       0.06250000 </v>
   <v>       0.18750000       0.18750000       0.18750000 </v>
   <v>       0.31250000       0.18750000       0.18750000 </v>
   <v>       0.43750000       0.18750000       0.18750000 </v>
   <v>      -0.43750000       0.18750000       0.18750000 </v>
   <v>      -0.31250000       0.18750000       0.18750000 </v>
   <v>      -0.18750000       0.18750000       0.18750000 </v>
   <v>       0.31250000       0.31250000       0.18750000 </v>
   <v>       0.43750000       0.31250000       0.18750000 </v>
   <v>      -0.43750000       0.31250000       0.18750000 </v>
   <v>      -0.31250000       0.31250000       0.18750000 </v>
   <v>      -0.18750000       0.31250000       0.18750000 </v>
   <v>       0.43750000       0.43750000       0.18750000 </v>
   <v>      -0.43750000       0.43750000       0.18750000 </v>
   <v>      -0.31250000       0.43750000       0.18750000 </v>
   <v>      -0.18750000       0.43750000       0.18750000 </v>
   <v>      -0.43750000      -0.43750000       0.18750000 </v>
   <v>      -0.31250000      -0.43750000       0.18750000 </v>
   <v>      -0.31250000      -0.31250000       0.18750000 </v>
   <v>       0.31250000       0.31250000       0.31250000 </v>
   <v>       0.43750000       0.31250000       0.31250000 </v>
   <v>      -0.43750000       0.31250000       0.31250000 </v>
   <v>      -0.31250000       0.31250000       0.31250000 </v>
   <v>       0.43750000       0.43750000       0.31250000 </v>
   <v>      -0.43750000       0.43750000       0.31250000 </v>
   <v>      -0.31250000       0.43750000       0.31250000 </v>
   <v>      -0.43750000      -0.43750000       0.31250000 </v>
   <v>       0.43750000       0.43750000       0.43750000 </v>
   <v>      -0.43750000       0.43750000       0.43750000 </v>
  </varray>
  <varray name="weights" >
   <v>       0.00390625 </v>
   <v>       0.01171875 </v>
   <v>       0.01171875 </v>
   <v>       0.01171875 </v>
   <v>       0.01171875 </v>
   <v>       0.01171875 </v>
   <v>       0.01171875 </v>
   <v>       0.01171875 </v>
   <v>       0.01171875 </v>
   <v>       0.02343750 </v>
   <v>       0.02343750 </v>
   <v>       0.02343750 </v>
   <v>       0.02343750 </v>
   <v>       0.02343750 </v>
   <v>       0.02343750 </v>
   <v>       0.01171875 </v>
   <v>       0.02343750 </v>
   <v>       0.02343750 </v>
   <v>       0.02343750 </v>
   <v>       0.02343750 </v>
   <v>       0.02343750 </v>
   <v>       0.01171875 </v>
   <v>       0.02343750 </v>
   <v>       0.02343750 </v>
   <v>       0.02343750 </v>
   <v>       0.02343750 </v>
   <v>       0.01171875 </v>
   <v>       0.02343750 </v>
   <v>       0.02343750 </v>
   <v>       0.01171875 </v>
   <v>       0.02343750 </v>
   <v>       0.01171875 </v>
   <v>       0.00390625 </v>
   <v>       0.01171875 </v>
   <v>       0.01171875 </v>
   <v>       0.01171875 </v>
   <v>       0.01171875 </v>
   <v>       0.01171875 </v>
   <v>       0.01171875 </v>
   <v>       0.02343750 </v>
   <v>       0.02343750 </v>
   <v>       0.02343750 </v>
   <v>       0.02343750 </v>
   <v>       0.01171875 </v>
   <v>       0.02343750 </v>
   <v>       0.02343750 </v>
   <v>       0.02343750 </v>
   <v>       0.01171875 </v>
   <v>       0.02343750 </v>
   <v>       0.01171875 </v>
   <v>       0.00390625 </v>
   <v>       0.01171875 </v>
   <v>       0.01171875 </v>
   <v>       0.01171875 </v>
   <v>       0.01171875 </v>
   <v>       0.02343750 </v>
   <v>       0.02343750 </v>
   <v>       0.01171875 </v>
   <v>       0.00390625 </v>
   <v>       0.01171875 </v>
  </varray>
 </kpoints>
 <parameters>
  <separator name="general" >
   <i type="string" name="SYSTEM">Co-fcc</i>
   <i type="logical" name="LCOMPAT"> F  </i>
  </separator>
  <separator name="electronic" >
   <i type="string" name="PREC">accura</i>
   <i name="ENMAX">    400.00000000</i>
   <i name="ENAUG">    477.81800000</i>
   <i name="EDIFF">      0.00000100</i>
   <i type="int" name="IALGO">    38</i>
   <i type="int" name="IWAVPR">    11</i>
   <i type="int" name="NBANDS">    12</i>
   <i type="int" name="NBANDSLOW">    -1</i>
   <i type="int" name="NBANDSHIGH">    -1</i>
   <i name="NELECT">      9.00000000</i>
   <i type="int" name="TURBO">     0</i>
   <i type="int" name="IRESTART">     0</i>
   <i type="int" name="NREBOOT">     0</i>
   <i type="int" name="NMIN">     0</i>
   <i name="EREF">      0.00000000</i>
   <separator name="electronic smearing" >
    <i type="int" name="ISMEAR">     0</i>
    <i name="SIGMA">      0.05000000</i>
    <i name="KSPACING">      0.50000000</i>
    <i type="logical" name="KGAMMA"> T  </i>
    <i type="logical" name="KBLOWUP"> T  </i>
   </separator>
   <separator name="electronic projectors" >
    <i type="logical" name="LREAL"> F  </i>
    <v name="ROPT">      0.00000000</v>
    <i type="int" name="LMAXPAW">  -100</i>
    <i type="int" name="LMAXMIX">     2</i>
    <i type="logical" name="NLSPLINE"> F  </i>
   </separator>
   <separator name="electronic startup" >
    <i type="int" name="ISTART">     0</i>
    <i type="int" name="ICHARG">     2</i>
    <i type="int" name="INIWAV">     1</i>
   </separator>
   <separator name="electronic spin" >
    <i type="int" name="ISPIN">     2</i>
    <i type="logical" name="LNONCOLLINEAR"> F  </i>
    <v name="MAGMOM">      3.00000000</v>
    <i name="NUPDOWN">     -1.00000000</i>
    <i type="logical" name="LSORBIT"> F  </i>
    <v name="SAXIS">      0.00000000      0.00000000      1.00000000</v>
    <i type="logical" name="LSPIRAL"> F  </i>
    <v name="QSPIRAL">      0.00000000      0.00000000      0.00000000</v>
    <i type="logical" name="LZEROZ"> F  </i>
   </separator>
   <separator name="electronic exchange-correlation" >
    <i type="logical" name="LASPH"> F  </i>
    <i type="logical" name="LMETAGGA"> F  </i>
   </separator>
   <separator name="electronic convergence" >
    <i type="int" name="NELM">   100</i>
    <i type="int" name="NELMDL">    -5</i>
    <i type="int" name="NELMIN">     2</i>
    <i name="ENINI">    400.00000000</i>
    <separator name="electronic convergence detail" >
     <i type="logical" name="LDIAG"> T  </i>
     <i type="logical" name="LSUBROT"> F  </i>
     <i name="WEIMIN">      0.00100000</i>
     <i name="EBREAK">      0.00000002</i>
     <i name="DEPER">      0.30000000</i>
     <i type="int" name="NRMM">     4</i>
     <i name="TIME">      0.40000000</i>
    </separator>
   </separator>
   <separator name="electronic mixer" >
    <i name="AMIX">      0.40000000</i>
    <i name="BMIX">      1.00000000</i>
    <i name="AMIN">      0.10000000</i>
    <i name="AMIX_MAG">      1.60000000</i>
    <i name="BMIX_MAG">      1.00000000</i>
    <separator name="electronic mixer details" >
     <i type="int" name="IMIX">     4</i>
     <i type="logical" name="MIXFIRST"> F  </i>
     <i type="int" name="MAXMIX">   -45</i>
     <i name="WC">    100.00000000</i>
     <i type="int" name="INIMIX">     1</i>
     <i type="int" name="MIXPRE">     1</i>
     <i type="int" name="MREMOVE">     5</i>
    </separator>
   </separator>
   <separator name="electronic dipolcorrection" >
    <i type="logical" name="LDIPOL"> F  </i>
    <i type="logical" name="LMONO"> F  </i>
    <i type="int" name="IDIPOL">     0</i>
    <i name="EPSILON">      1.00000000</i>
    <v name="DIPOL">   -100.00000000   -100.00000000   -100.00000000</v>
    <i name="EFIELD">      0.00000000</i>
   </separator>
  </separator>
  <separator name="grids" >
   <i type="int" name="NGX">    16</i>
   <i type="int" name="NGY">    16</i>
   <i type="int" name="NGZ">    16</i>
   <i type="int" name="NGXF">    32</i>
   <i type="int" name="NGYF">    32</i>
   <i type="int" name="NGZF">    32</i>
   <i type="logical" name="ADDGRID"> F  </i>
  </separator>
  <separator name="ionic" >
   <i type="int" name="NSW">   100</i>
   <i type="int" name="IBRION">     2</i>
   <i type="int" name="MDALGO">     0</i>
   <i type="int" name="ISIF">     2</i>
   <i name="PSTRESS">      0.00000000</i>
   <i name="EDIFFG">     -0.02000000</i>
   <i type="int" name="NFREE">     1</i>
   <i name="POTIM">      0.50000000</i>
   <i name="SMASS">     -3.00000000</i>
   <i name="SCALEE">      1.00000000</i>
  </separator>
  <separator name="ionic md" >
   <i name="TEBEG">      0.00010000</i>
   <i name="TEEND">      0.00010000</i>
   <i type="int" name="NBLOCK">     1</i>
   <i type="int" name="KBLOCK">   100</i>
   <i type="int" name="NPACO">   256</i>
   <i name="APACO">     10.00000000</i>
  </separator>
  <separator name="symmetry" >
   <i type="int" name="ISYM">     1</i>
   <i name="SYMPREC">      0.00001000</i>
  </separator>
  <separator name="dos" >
   <i type="int" name="LORBIT">    11</i>
   <v name="RWIGS">     -1.00000000</v>
   <i type="int" name="NEDOS">   301</i>
   <i name="EMIN">     10.00000000</i>
   <i name="EMAX">    -10.00000000</i>
   <i name="EFERMI">      0.00000000</i>
  </separator>
  <separator name="writing" >
   <i type="int" name="NWRITE">     2</i>
   <i type="logical" name="LWAVE"> T  </i>
   <i type="logical" name="LDOWNSAMPLE"> F  </i>
   <i type="logical" name="LCHARG"> T  </i>
   <i type="logical" name="LPARD"> F  </i>
   <i type="logical" name="LVTOT"> F  </i>
   <i type="logical" name="LVHAR"> F  </i>
   <i type="logical" name="LELF"> F  </i>
   <i type="logical" name="LOPTICS"> F  </i>
   <v name="STM">      0.00000000      0.00000000      0.00000000      0.00000000      0.00000000      0.00000000      0.00000000</v>
  </separator>
  <separator name="performance" >
   <i type="int" name="NPAR">     4</i>
   <i type="int" name="NSIM">     4</i>
   <i type="int" name="NBLK">    -1</i>
   <i type="logical" name="LPLANE"> T  </i>
   <i type="logical" name="LSCALAPACK"> T  </i>
   <i type="logical" name="LSCAAWARE"> T  </i>
   <i type="logical" name="LSCALU"> F  </i>
   <i type="logical" name="LASYNC"> F  </i>
   <i type="logical" name="LORBITALREAL"> F  </i>
  </separator>
  <separator name="miscellaneous" >
   <i type="int" name="IDIOT">     3</i>
   <i type="int" name="PHON_NSTRUCT">    -1</i>
   <i type="logical" name="LMUSIC"> F  </i>
   <v name="POMASS">     58.93300000</v>
   <v name="DARWINR">      0.00000000</v>
   <v name="DARWINV">      1.00000000</v>
   <i type="logical" name="LCORR"> T  </i>
  </separator>
  <i type="logical" name="GGA_COMPAT"> T  </i>
  <i type="logical" name="LBERRY"> F  </i>
  <i type="int" name="ICORELEVEL">     0</i>
  <i type="logical" name="LDAU"> F  </i>
  <i type="int" name="I_CONSTRAINED_M">     0</i>
  <separator name="electronic exchange-correlation" >
   <i type="string" name="GGA">--</i>
   <i type="int" name="VOSKOWN">     0</i>
   <i type="logical" name="LHFCALC"> F  </i>
   <i type="string" name="PRECFOCK"></i>
   <i type="logical" name="LSYMGRAD"> F  </i>
   <i type="logical" name="LHFONE"> F  </i>
   <i type="logical" name="LRHFCALC"> F  </i>
   <i type="logical" name="LTHOMAS"> F  </i>
   <i type="logical" name="LMODELHF"> F  </i>
   <i type="logical" name="LFOCKACE"> F  </i>
   <i name="ENCUT4O">     -1.00000000</i>
   <i type="int" name="EXXOEP">     0</i>
   <i type="int" name="FOURORBIT">     0</i>
   <i name="AEXX">      0.00000000</i>
   <i name="HFALPHA">      0.00000000</i>
   <i name="MCALPHA">      0.00000000</i>
   <i name="ALDAX">      1.00000000</i>
   <i name="AGGAX">      1.00000000</i>
   <i name="ALDAC">      1.00000000</i>
   <i name="AGGAC">      1.00000000</i>
   <i type="int" name="NKREDX">     1</i>
   <i type="int" name="NKREDY">     1</i>
   <i type="int" name="NKREDZ">     1</i>
   <i type="logical" name="SHIFTRED"> F  </i>
   <i type="logical" name="ODDONLY"> F  </i>
   <i type="logical" name="EVENONLY"> F  </i>
   <i type="int" name="LMAXFOCK">     0</i>
   <i type="int" name="NMAXFOCKAE">     0</i>
   <i type="logical" name="LFOCKAEDFT"> F  </i>
   <i name="HFSCREEN">      0.00000000</i>
   <i name="HFSCREENC">      0.00000000</i>
   <i type="int" name="NBANDSGWLOW">     0</i>
  </separator>
  <separator name="vdW DFT" >
   <i type="logical" name="LUSE_VDW"> F  </i>
   <i name="Zab_VDW">     -0.84910000</i>
   <i name="PARAM1">      0.12340000</i>
   <i name="PARAM2">      1.00000000</i>
   <i name="PARAM3">      0.00000000</i>
  </separator>
  <separator name="model GW" >
   <i type="int" name="MODEL_GW">     0</i>
   <i name="MODEL_EPS0">      6.80233537</i>
   <i name="MODEL_ALPHA">      1.00000000</i>
  </separator>
  <separator name="linear response parameters" >
   <i type="logical" name="LEPSILON"> F  </i>
   <i type="logical" name="LRPA"> F  </i>
   <i type="logical" name="LNABLA"> F  </i>
   <i type="logical" name="LVEL"> F  </i>
   <i name="CSHIFT">      0.10000000</i>
   <i name="OMEGAMAX">     -1.00000000</i>
   <i name="DEG_THRESHOLD">      0.00200000</i>
   <i name="RTIME">     -0.10000000</i>
   <i name="WPLASMAI">      0.00000000</i>
   <v name="DFIELD">      0.00000000      0.00000000      0.00000000</v>
   <v name="WPLASMA">      0.00000000      0.00000000      0.00000000      0.00000000      0.00000000      0.00000000      0.00000000      0.00000000      0.00000000</v>
  </separator>
  <separator name="orbital magnetization" >
   <i type="logical" name="NUCIND"> F  </i>
   <v name="MAGPOS">      0.00000000      0.00000000      0.00000000</v>
   <i type="logical" name="LNICSALL"> T  </i>
   <i type="logical" name="ORBITALMAG"> F  </i>
   <i type="logical" name="LMAGBLOCH"> F  </i>
   <i type="logical" name="LCHIMAG"> F  </i>
   <i type="logical" name="LGAUGE"> T  </i>
   <i type="int" name="MAGATOM">     0</i>
   <v name="MAGDIPOL">      0.00000000      0.00000000      0.00000000</v>
   <v name="AVECCONST">      0.00000000      0.00000000      0.00000000</v>
  </separator>
  <separator name="response functions" >
   <i type="logical" name="LFINITE_TEMPERATURE"> F  </i>
   <i type="logical" name="LADDER"> F  </i>
   <i type="logical" name="LRPAFORCE"> F  </i>
   <i type="logical" name="LFXC"> F  </i>
   <i type="logical" name="LHARTREE"> T  </i>
   <i type="int" name="IBSE">     0</i>
   <v type="int" name="KPOINT">    -1     0     0     0</v>
   <i type="logical" name="LTCTC"> F  </i>
   <i type="logical" name="LTCTE"> F  </i>
   <i type="logical" name="LTETE"> F  </i>
   <i type="logical" name="LTRIPLET"> F  </i>
   <i type="logical" name="LFXCEPS"> F  </i>
   <i type="logical" name="LFXHEG"> F  </i>
   <i type="int" name="NATURALO">     2</i>
   <i type="logical" name="LHOLEGF"> F  </i>
   <i type="logical" name="L2ORDER"> F  </i>
   <i type="logical" name="LDMP1"> F  </i>
   <i type="logical" name="LMP2LT"> F  </i>
   <i type="logical" name="LSMP2LT"> F  </i>
   <i type="logical" name="LGWLF"> F  </i>
   <i name="ENCUTGW">     -2.00000000</i>
   <i name="ENCUTGWSOFT">     -2.00000000</i>
   <i name="ENCUTLF">     -1.00000000</i>
   <i type="logical" name="LESF_SPLINES"> F  </i>
   <i type="int" name="LMAXMP2">    -1</i>
   <i name="SCISSOR">      0.00000000</i>
   <i type="int" name="NOMEGA">     0</i>
   <i type="int" name="NOMEGAR">     0</i>
   <i type="int" name="NBANDSGW">    -1</i>
   <i type="int" name="NBANDSO">    -1</i>
   <i type="int" name="NBANDSV">    -1</i>
   <i type="int" name="NELMGW">     1</i>
   <i type="int" name="NELMHF">     1</i>
   <i type="int" name="DIM">     3</i>
   <i type="int" name="IESPILON">     4</i>
   <i type="int" name="ANTIRES">     0</i>
   <i name="OMEGAMAX">    -30.00000000</i>
   <i name="OMEGAMIN">    -30.00000000</i>
   <i name="OMEGATL">   -200.00000000</i>
   <i type="int" name="OMEGAGRID">     0</i>
   <i name="CSHIFT">     -0.10000000</i>
   <i type="logical" name="LSELFENERGY"> F  </i>
   <i type="logical" name="LSPECTRAL"> F  </i>
   <i type="logical" name="LSPECTRALGW"> F  </i>
   <i type="logical" name="LSINGLES"> F  </i>
   <i type="logical" name="LFERMIGW"> F  </i>
   <i type="logical" name="ODDONLYGW"> F  </i>
   <i type="logical" name="EVENONLYGW"> F  </i>
   <i type="int" name="NKREDLFX">     1</i>
   <i type="int" name="NKREDLFY">     1</i>
   <i type="int" name="NKREDLFZ">     1</i>
   <i type="int" name="MAXMEM">  2800</i>
   <i type="int" name="TELESCOPE">     0</i>
   <i type="int" name="NTAUPAR">    -1</i>
   <i type="int" name="NOMEGAPAR">    -1</i>
   <i name="DAMP_NEWTON">      0.80000001</i>
   <i name="LAMBDA">      1.00000000</i>
  </separator>
  <separator name="External order field" >
   <i name="OFIELD_KAPPA">      0.00000000</i>
   <v name="OFIELD_K">      0.00000000      0.00000000      0.00000000</v>
   <i name="OFIELD_Q6_NEAR">      0.00000000</i>
   <i name="OFIELD_Q6_FAR">      0.00000000</i>
   <i name="OFIELD_A">      0.00000000</i>
  </separator>
  <separator name="optional k-points parameters" >
   <i type="int" name="KPOINTS_OPT_MODE">     1</i>
   <i type="logical" name="LKPOINTS_OPT"> F  </i>
  </separator>
 </parameters>
 <atominfo>
  <atoms>       1 </atoms>
  <types>       1 </types>
  <array name="atoms" >
   <dimension dim="1">ion</dimension>
   <field type="string">element</field>
   <field type="int">atomtype</field>
   <set>
    <rc><c>Co</c><c>   1</c></rc>
   </set>
  </array>
  <array name="atomtypes" >
   <dimension dim="1">type</dimension>
   <field type="int">atomspertype</field>
   <field type="string">element</field>
   <field>mass</field>
   <field>valence</field>
   <field type="string">pseudopotential</field>
   <set>
    <rc><c>   1</c><c>Co</c><c>     58.93300000</c><c>      9.00000000</c><c>  PAW_PBE Co 02Aug2007                  </c></rc>
   </set>
  </array>
 </atominfo>
 <structure name="initialpos" >
  <crystal>
   <varray name="basis" >
    <v>       0.00000000       1.78303115       1.78303115 </v>
    <v>       1.78303115       0.00000000       1.78303115 </v>
    <v>       1.78303115       1.78303115       0.00000000 </v>
   </varray>
   <i name="volume">     11.33722562 </i>
   <varray name="rec_basis" >
    <v>      -0.28042135       0.28042135       0.28042135 </v>
    <v>       0.28042135      -0.28042135       0.28042135 </v>
    <v>       0.28042135       0.28042135      -0.28042135 </v>
   </varray>
  </crystal>
  <varray name="positions" >
   <v>       0.00000000       0.00000000       0.00000000 </v>
  </varray>
 </structure>
 <calculation>
  <scstep>
   <time name="dav">    0.26    0.27</time>
   <time name="total">    0.28    0.28</time>
   <energy>
    <i name="alphaZ">     37.36160178 </i>
    <i name="ewald">   -749.80519427 </i>
    <i name="hartreedc">   -154.66646876 </i>
    <i name="XCdc">     17.67465460 </i>
    <i name="pawpsdc">    719.99081943 </i>
    <i name="pawaedc">   -772.94345096 </i>
    <i name="eentropy">     -0.00115218 </i>
    <i name="bandstr">    110.95738546 </i>
    <i name="atom">    813.35773410 </i>
    <i name="e_fr_energy">     21.92592920 </i>
    <i name="e_wo_entrp">     21.92708138 </i>
    <i name="e_0_energy">     21.92650529 </i>
   </energy>
  </scstep>
  <scstep>
   <time name="dav">    0.26    0.27</time>
   <time name="total">    0.26    0.27</time>
   <energy>
    <i name="e_fr_energy">     -7.06490173 </i>
    <i name="e_wo_entrp">     -7.06352141 </i>
    <i name="e_0_energy">     -7.06421157 </i>
   </energy>
  </scstep>
  <scstep>
   <time name="dav">    0.27    0.27</time>
   <time name="total">    0.27    0.28</time>
   <energy>
    <i name="e_fr_energy">     -7.82783553 </i>
    <i name="e_wo_entrp">     -7.82674846 </i>
    <i name="e_0_energy">     -7.82729200 </i>
   </energy>
  </scstep>
  <scstep>
   <time name="dav">    0.28    0.29</time>
   <time name="total">    0.29    0.29</time>
   <energy>
    <i name="e_fr_energy">     -7.83600215 </i>
    <i name="e_wo_entrp">     -7.83490998 </i>
    <i name="e_0_energy">     -7.83545606 </i>
   </energy>
  </scstep>
  <scstep>
   <time name="dav">    0.31    0.31</time>
   <time name="total">    0.32    0.32</time>
   <energy>
    <i name="e_fr_energy">     -7.83619689 </i>
    <i name="e_wo_entrp">     -7.83510472 </i>
    <i name="e_0_energy">     -7.83565080 </i>
   </energy>
  </scstep>
  <scstep>
   <time name="dav">    0.30    0.30</time>
   <time name="total">    0.32    0.32</time>
   <energy>
    <i name="e_fr_energy">     -7.23123878 </i>
    <i name="e_wo_entrp">     -7.22914971 </i>
    <i name="e_0_energy">     -7.23019425 </i>
   </energy>
  </scstep>
  <scstep>
   <time name="dav">    0.29    0.29</time>
   <time name="total">    0.30    0.31</time>
   <energy>
    <i name="e_fr_energy">     -7.02080558 </i>
    <i name="e_wo_entrp">     -7.01871822 </i>
    <i name="e_0_energy">     -7.01976190 </i>
   </energy>
  </scstep>
  <scstep>
   <time name="dav">    0.31    0.31</time>
   <time name="total">    0.32    0.33</time>
   <energy>
    <i name="e_fr_energy">     -7.01093382 </i>
    <i name="e_wo_entrp">     -7.00864815 </i>
    <i name="e_0_energy">     -7.00979099 </i>
   </energy>
  </scstep>
  <scstep>
   <time name="dav">    0.34    0.35</time>
   <time name="total">    0.36    0.36</time>
   <energy>
    <i name="e_fr_energy">     -7.00500243 </i>
    <i name="e_wo_entrp">     -7.00263048 </i>
    <i name="e_0_energy">     -7.00381646 </i>
   </energy>
  </scstep>
  <scstep>
   <time name="dav">    0.34    0.34</time>
   <time name="total">    0.36    0.36</time>
   <energy>
    <i name="e_fr_energy">     -7.00433676 </i>
    <i name="e_wo_entrp">     -7.00200979 </i>
    <i name="e_0_energy">     -7.00317328 </i>
   </energy>
  </scstep>
  <scstep>
   <time name="dav">    0.29    0.29</time>
   <time name="total">    0.30    0.30</time>
   <energy>
    <i name="e_fr_energy">     -7.00434545 </i>
    <i name="e_wo_entrp">     -7.00208898 </i>
    <i name="e_0_energy">     -7.00321721 </i>
   </energy>
  </scstep>
  <scstep>
   <time name="dav">    0.31    0.31</time>
   <time name="total">    0.32    0.33</time>
   <energy>
    <i name="e_fr_energy">     -7.00434942 </i>
    <i name="e_wo_entrp">     -7.00216477 </i>
    <i name="e_0_energy">     -7.00325709 </i>
   </energy>
  </scstep>
  <scstep>
   <time name="dav">    0.22    0.22</time>
   <time name="total">    0.22    0.22</time>
   <energy>
    <i name="alphaZ">     37.36160178 </i>
    <i name="ewald">   -749.80519427 </i>
    <i name="hartreedc">   -137.02518113 </i>
    <i name="XCdc">     16.29378539 </i>
    <i name="pawpsdc">    879.66947879 </i>
    <i name="pawaedc">   -932.50558866 </i>
    <i name="eentropy">     -0.00219218 </i>
    <i name="bandstr">     65.65120627 </i>
    <i name="atom">    813.35773410 </i>
    <i name="e_fr_energy">     -7.00434992 </i>
    <i name="e_wo_entrp">     -7.00215774 </i>
    <i name="e_0_energy">     -7.00325383 </i>
   </energy>
  </scstep>
  <structure>
   <crystal>
    <varray name="basis" >
     <v>       0.00000000       1.78303115       1.78303115 </v>
     <v>       1.78303115       0.00000000       1.78303115 </v>
     <v>       1.78303115       1.78303115       0.00000000 </v>
    </varray>
    <i name="volume">     11.33722562 </i>
    <varray name="rec_basis" >
     <v>      -0.28042135       0.28042135       0.28042135 </v>
     <v>       0.28042135      -0.28042135       0.28042135 </v>
     <v>       0.28042135       0.28042135      -0.28042135 </v>
    </varray>
   </crystal>
   <varray name="positions" >
    <v>       0.00000000       0.00000000       0.00000000 </v>
   </varray>
  </structure>
  <varray name="forces" >
   <v>       0.00000000       0.00000000       0.00000000 </v>
  </varray>
  <varray name="stress" >
   <v>     -92.63647937      -0.00000000      -0.00000000 </v>
   <v>       0.00000000     -92.63647937      -0.00000000 </v>
   <v>       0.00000000       0.00000000     -92.63647937 </v>
  </varray>
  <energy>
   <i name="e_fr_energy">     -7.00434992 </i>
   <i name="e_wo_entrp">     -7.00215774 </i>
   <i name="e_0_energy">     -7.00325383 </i>
  </energy>
  <time name="totalsc">    4.06    4.13</time>
  <eigenvalues>
   <array>
    <dimension dim="1">band</dimension>
    <dimension dim="2">kpoint</dimension>
    <dimension dim="3">spin</dimension>
    <field>eigene</field>
    <field>occ</field>
    <set>
     <set comment="spin 1">
      <set comment="kpoint 1">
       <r>    1.1457    1.0000 </r>
       <r>    7.0532    1.0000 </r>
       <r>    7.1284    1.0000 </r>
       <r>    7.1284    1.0000 </r>
       <r>    8.0718    1.0000 </r>
       <r>    8.0718    1.0000 </r>
       <r>   32.0259    0.0000 </r>
       <r>   34.7235    0.0000 </r>
       <r>   36.1400    0.0000 </r>
       <r>   36.1400    0.0000 </r>
       <r>   39.9055    0.0000 </r>
       <r>   39.9055    0.0000 </r>
      </set>
      <set comment="kpoint 2">
       <r>    1.9208    1.0000 </r>
       <r>    6.8560    1.0000 </r>
       <r>    7.2755    1.0000 </r>
       <r>    7.2806    1.0000 </r>
       <r>    7.9288    1.0000 </r>
       <r>    8.1570    1.0000 </r>
       <r>   29.0697    0.0000 </r>
       <r>   31.6736    0.0000 </r>
       <r>   35.1427    0.0000 </r>
       <r>   37.1363    0.0000 </r>
       <r>   38.9166    0.0000 </r>
       <r>   40.0523    0.0000 </r>
      </set>
      <set comment="kpoint 3">
       <r>    3.5593    1.0000 </r>
       <r>    6.7562    1.0000 </r>
       <r>    7.2216    1.0000 </r>
       <r>    7.2899    1.0000 </r>
       <r>    8.1338    1.0000 </r>
       <r>    8.5386    1.0000 </r>
       <r>   23.0484    0.0000 </r>
       <r>   30.6130    0.0000 </r>
       <r>   34.1018    0.0000 </r>
       <r>   36.6016    0.0000 </r>
       <r>   37.8235    0.0000 </r>
       <r>   38.8728    0.0000 </r>
      </set>
      <set comment="kpoint 4">
       <r>    4.6922    1.0000 </r>
       <r>    7.0056    1.0000 </r>
       <r>    7.0964    1.0000 </r>
       <r>    7.7758    1.0000 </r>
       <r>    8.6521    1.0000 </r>
       <r>    9.3050    1.0000 </r>
       <r>   17.7814    0.0000 </r>
       <r>   30.1931    0.0000 </r>
       <r>   32.8332    0.0000 </r>
       <r>   34.4838    0.0000 </r>
       <r>   36.9948    0.0000 </r>
       <r>   38.5569    0.0000 </r>
      </set>
      <set comment="kpoint 5">
       <r>    4.8207    1.0000 </r>
       <r>    6.9158    1.0000 </r>
       <r>    7.0468    1.0000 </r>
       <r>    8.3061    1.0000 </r>
       <r>    8.9140    1.0000 </r>
       <r>   10.1330    0.0000 </r>
       <r>   15.6371    0.0000 </r>
       <r>   30.3792    0.0000 </r>
       <r>   32.6915    0.0000 </r>
       <r>   32.8711    0.0000 </r>
       <r>   37.7928    0.0000 </r>
       <r>   37.8556    0.0000 </r>
      </set>
      <set comment="kpoint 6">
       <r>    4.4743    1.0000 </r>
       <r>    7.0413    1.0000 </r>
       <r>    7.1804    1.0000 </r>
       <r>    7.2677    1.0000 </r>
       <r>    8.7212    1.0000 </r>
       <r>    8.7902    1.0000 </r>
       <r>   19.3795    0.0000 </r>
       <r>   31.0953    0.0000 </r>
       <r>   32.1704    0.0000 </r>
       <r>   34.4898    0.0000 </r>
       <r>   37.7095    0.0000 </r>
       <r>   39.4918    0.0000 </r>
      </set>
      <set comment="kpoint 7">
       <r>    2.9684    1.0000 </r>
       <r>    6.7099    1.0000 </r>
       <r>    7.2812    1.0000 </r>
       <r>    7.3365    1.0000 </r>
       <r>    8.0675    1.0000 </r>
       <r>    8.3074    1.0000 </r>
       <r>   25.0254    0.0000 </r>
       <r>   32.1108    0.0000 </r>
       <r>   32.7166    0.0000 </r>
       <r>   37.1403    0.0000 </r>
       <r>   37.5401    0.0000 </r>
       <r>   41.7615    0.0000 </r>
      </set>
      <set comment="kpoint 8">
       <r>    1.5395    1.0000 </r>
       <r>    6.9204    1.0000 </r>
       <r>    7.2308    1.0000 </r>
       <r>    7.2347    1.0000 </r>
       <r>    7.9466    1.0000 </r>
       <r>    8.1339    1.0000 </r>
       <r>   30.9003    0.0000 </r>
       <r>   33.2614    0.0000 </r>
       <r>   34.1080    0.0000 </r>
       <r>   36.0439    0.0000 </r>
       <r>   39.8570    0.0000 </r>
       <r>   41.7384    0.0000 </r>
      </set>
      <set comment="kpoint 9">
       <r>    2.2919    1.0000 </r>
       <r>    6.6637    1.0000 </r>
       <r>    7.4126    1.0000 </r>
       <r>    7.4419    1.0000 </r>
       <r>    7.7783    1.0000 </r>
       <r>    8.2500    1.0000 </r>
       <r>   29.3649    0.0000 </r>
       <r>   31.8491    0.0000 </r>
       <r>   31.8947    0.0000 </r>
       <r>   34.1753    0.0000 </r>
       <r>   39.2125    0.0000 </r>
       <r>   42.2146    0.0000 </r>
      </set>
      <set comment="kpoint 10">
       <r>    3.6131    1.0000 </r>
       <r>    6.3835    1.0000 </r>
       <r>    7.2076    1.0000 </r>
       <r>    7.6814    1.0000 </r>
       <r>    8.0351    1.0000 </r>
       <r>    8.6113    1.0000 </r>
       <r>   25.5657    0.0000 </r>
       <r>   28.1336    0.0000 </r>
       <r>   31.8727    0.0000 </r>
       <r>   33.7940    0.0000 </r>
       <r>   38.1846    0.0000 </r>
       <r>   42.0285    0.0000 </r>
      </set>
      <set comment="kpoint 11">
       <r>    4.9677    1.0000 </r>
       <r>    6.4980    1.0000 </r>
       <r>    6.9238    1.0000 </r>
       <r>    7.5319    1.0000 </r>
       <r>    8.6938    1.0000 </r>
       <r>    9.7637    0.2170 </r>
       <r>   19.8873    0.0000 </r>
       <r>   27.5637    0.0000 </r>
       <r>   29.4468    0.0000 </r>
       <r>   33.4014    0.0000 </r>
       <r>   39.9813    0.0000 </r>
       <r>   42.3279    0.0000 </r>
      </set>
      <set comment="kpoint 12">
       <r>    5.2723    1.0000 </r>
       <r>    6.5260    1.0000 </r>
       <r>    7.3427    1.0000 </r>
       <r>    7.3991    1.0000 </r>
       <r>    8.8808    1.0000 </r>
       <r>   11.9049    0.0000 </r>
       <r>   15.8395    0.0000 </r>
       <r>   27.0041    0.0000 </r>
       <r>   28.7016    0.0000 </r>
       <r>   33.2456    0.0000 </r>
       <r>   39.1137    0.0000 </r>
       <r>   42.7423    0.0000 </r>
      </set>
      <set comment="kpoint 13">
       <r>    5.2003    1.0000 </r>
       <r>    6.6648    1.0000 </r>
       <r>    6.9994    1.0000 </r>
       <r>    7.4275    1.0000 </r>
       <r>    8.5841    1.0000 </r>
       <r>   10.5855    0.0000 </r>
       <r>   18.2524    0.0000 </r>
       <r>   26.1651    0.0000 </r>
       <r>   30.2839    0.0000 </r>
       <r>   34.3152    0.0000 </r>
       <r>   38.5043    0.0000 </r>
       <r>   42.1339    0.0000 </r>
      </set>
      <set comment="kpoint 14">
       <r>    4.1805    1.0000 </r>
       <r>    6.4534    1.0000 </r>
       <r>    7.0465    1.0000 </r>
       <r>    7.6155    1.0000 </r>
       <r>    7.9728    1.0000 </r>
       <r>    9.0851    1.0000 </r>
       <r>   23.6048    0.0000 </r>
       <r>   26.2987    0.0000 </r>
       <r>   32.8054    0.0000 </r>
       <r>   36.2335    0.0000 </r>
       <r>   38.0050    0.0000 </r>
       <r>   40.8564    0.0000 </r>
      </set>
      <set comment="kpoint 15">
       <r>    2.6466    1.0000 </r>
       <r>    6.6623    1.0000 </r>
       <r>    7.3156    1.0000 </r>
       <r>    7.4440    1.0000 </r>
       <r>    7.8515    1.0000 </r>
       <r>    8.3357    1.0000 </r>
       <r>   27.2405    0.0000 </r>
       <r>   29.8465    0.0000 </r>
       <r>   34.2272    0.0000 </r>
       <r>   35.9802    0.0000 </r>
       <r>   39.2195    0.0000 </r>
       <r>   40.6606    0.0000 </r>
      </set>
      <set comment="kpoint 16">
       <r>    4.2820    1.0000 </r>
       <r>    5.9935    1.0000 </r>
       <r>    7.5092    1.0000 </r>
       <r>    8.0803    1.0000 </r>
       <r>    8.3974    1.0000 </r>
       <r>    8.5809    1.0000 </r>
       <r>   26.1517    0.0000 </r>
       <r>   27.7714    0.0000 </r>
       <r>   27.9176    0.0000 </r>
       <r>   30.6567    0.0000 </r>
       <r>   34.8214    0.0000 </r>
       <r>   46.5842    0.0000 </r>
      </set>
      <set comment="kpoint 17">
       <r>    5.0140    1.0000 </r>
       <r>    5.8003    1.0000 </r>
       <r>    7.4608    1.0000 </r>
       <r>    8.3040    1.0000 </r>
       <r>    8.7381    1.0000 </r>
       <r>   10.0191    0.0000 </r>
       <r>   22.8186    0.0000 </r>
       <r>   24.7437    0.0000 </r>
       <r>   25.6213    0.0000 </r>
       <r>   31.8550    0.0000 </r>
       <r>   36.0283    0.0000 </r>
       <r>   45.6032    0.0000 </r>
      </set>
      <set comment="kpoint 18">
       <r>    5.4867    1.0000 </r>
       <r>    5.9249    1.0000 </r>
       <r>    7.1831    1.0000 </r>
       <r>    8.0396    1.0000 </r>
       <r>    8.9423    1.0000 </r>
       <r>   13.0945    0.0000 </r>
       <r>   17.8240    0.0000 </r>
       <r>   22.5620    0.0000 </r>
       <r>   25.8343    0.0000 </r>
       <r>   32.2696    0.0000 </r>
       <r>   40.9111    0.0000 </r>
       <r>   43.8482    0.0000 </r>
      </set>
      <set comment="kpoint 19">
       <r>    5.9326    1.0000 </r>
       <r>    6.0846    1.0000 </r>
       <r>    6.7603    1.0000 </r>
       <r>    7.8529    1.0000 </r>
       <r>    8.6510    1.0000 </r>
       <r>   13.3885    0.0000 </r>
       <r>   17.6726    0.0000 </r>
       <r>   21.2658    0.0000 </r>
       <r>   27.5140    0.0000 </r>
       <r>   33.1379    0.0000 </r>
       <r>   41.7294    0.0000 </r>
       <r>   46.0466    0.0000 </r>
      </set>
      <set comment="kpoint 20">
       <r>    5.4711    1.0000 </r>
       <r>    6.4693    1.0000 </r>
       <r>    6.6082    1.0000 </r>
       <r>    7.6890    1.0000 </r>
       <r>    8.3015    1.0000 </r>
       <r>   10.6628    0.0000 </r>
       <r>   20.4166    0.0000 </r>
       <r>   23.3593    0.0000 </r>
       <r>   30.0450    0.0000 </r>
       <r>   34.8482    0.0000 </r>
       <r>   39.0423    0.0000 </r>
       <r>   43.5131    0.0000 </r>
      </set>
      <set comment="kpoint 21">
       <r>    4.2940    1.0000 </r>
       <r>    6.7165    1.0000 </r>
       <r>    7.0597    1.0000 </r>
       <r>    7.3510    1.0000 </r>
       <r>    8.3530    1.0000 </r>
       <r>    8.9634    1.0000 </r>
       <r>   21.3369    0.0000 </r>
       <r>   29.0261    0.0000 </r>
       <r>   32.5120    0.0000 </r>
       <r>   34.9358    0.0000 </r>
       <r>   38.6323    0.0000 </r>
       <r>   40.1074    0.0000 </r>
      </set>
      <set comment="kpoint 22">
       <r>    4.8198    1.0000 </r>
       <r>    5.4574    1.0000 </r>
       <r>    8.6368    1.0000 </r>
       <r>    8.6572    1.0000 </r>
       <r>    8.9641    1.0000 </r>
       <r>   10.6991    0.0000 </r>
       <r>   21.5012    0.0000 </r>
       <r>   23.8729    0.0000 </r>
       <r>   25.0366    0.0000 </r>
       <r>   29.7814    0.0000 </r>
       <r>   33.4789    0.0000 </r>
       <r>   46.7214    0.0000 </r>
      </set>
      <set comment="kpoint 23">
       <r>    4.9641    1.0000 </r>
       <r>    5.4801    1.0000 </r>
       <r>    8.2503    1.0000 </r>
       <r>    8.6079    1.0000 </r>
       <r>    9.0964    1.0000 </r>
       <r>   13.1698    0.0000 </r>
       <r>   19.3859    0.0000 </r>
       <r>   21.4927    0.0000 </r>
       <r>   23.9034    0.0000 </r>
       <r>   31.2188    0.0000 </r>
       <r>   35.3742    0.0000 </r>
       <r>   46.7073    0.0000 </r>
      </set>
      <set comment="kpoint 24">
       <r>    5.4438    1.0000 </r>
       <r>    5.8365    1.0000 </r>
       <r>    7.3482    1.0000 </r>
       <r>    8.2031    1.0000 </r>
       <r>    8.9342    1.0000 </r>
       <r>   15.0887    0.0000 </r>
       <r>   17.2131    0.0000 </r>
       <r>   20.0932    0.0000 </r>
       <r>   25.3792    0.0000 </r>
       <r>   32.1058    0.0000 </r>
       <r>   40.8674    0.0000 </r>
       <r>   45.0005    0.0000 </r>
      </set>
      <set comment="kpoint 25">
       <r>    5.6266    1.0000 </r>
       <r>    6.2464    1.0000 </r>
       <r>    7.0439    1.0000 </r>
       <r>    7.6293    1.0000 </r>
       <r>    8.7904    1.0000 </r>
       <r>   13.0983    0.0000 </r>
       <r>   16.1017    0.0000 </r>
       <r>   23.9896    0.0000 </r>
       <r>   27.8706    0.0000 </r>
       <r>   33.1596    0.0000 </r>
       <r>   40.4520    0.0000 </r>
       <r>   44.8588    0.0000 </r>
      </set>
      <set comment="kpoint 26">
       <r>    4.9551    1.0000 </r>
       <r>    6.8132    1.0000 </r>
       <r>    7.1775    1.0000 </r>
       <r>    7.6795    1.0000 </r>
       <r>    8.8282    1.0000 </r>
       <r>   10.3962    0.0000 </r>
       <r>   16.5666    0.0000 </r>
       <r>   28.9751    0.0000 </r>
       <r>   30.9201    0.0000 </r>
       <r>   33.4950    0.0000 </r>
       <r>   38.0546    0.0000 </r>
       <r>   40.2075    0.0000 </r>
      </set>
      <set comment="kpoint 27">
       <r>    4.7652    1.0000 </r>
       <r>    5.3359    1.0000 </r>
       <r>    8.7639    1.0000 </r>
       <r>    8.9013    1.0000 </r>
       <r>    9.1078    1.0000 </r>
       <r>   12.2252    0.0000 </r>
       <r>   19.2797    0.0000 </r>
       <r>   23.3081    0.0000 </r>
       <r>   24.4298    0.0000 </r>
       <r>   29.6377    0.0000 </r>
       <r>   33.3058    0.0000 </r>
       <r>   46.7426    0.0000 </r>
      </set>
      <set comment="kpoint 28">
       <r>    5.0323    1.0000 </r>
       <r>    5.5909    1.0000 </r>
       <r>    7.9333    1.0000 </r>
       <r>    8.5399    1.0000 </r>
       <r>    8.9555    1.0000 </r>
       <r>   11.5763    0.0000 </r>
       <r>   21.5414    0.0000 </r>
       <r>   22.1570    0.0000 </r>
       <r>   24.4418    0.0000 </r>
       <r>   31.4209    0.0000 </r>
       <r>   35.5695    0.0000 </r>
       <r>   46.5466    0.0000 </r>
      </set>
      <set comment="kpoint 29">
       <r>    5.3794    1.0000 </r>
       <r>    6.1668    1.0000 </r>
       <r>    6.9885    1.0000 </r>
       <r>    7.7856    1.0000 </r>
       <r>    8.8852    1.0000 </r>
       <r>   11.1859    0.0000 </r>
       <r>   18.7071    0.0000 </r>
       <r>   25.5967    0.0000 </r>
       <r>   26.8322    0.0000 </r>
       <r>   32.6546    0.0000 </r>
       <r>   40.7679    0.0000 </r>
       <r>   42.8641    0.0000 </r>
      </set>
      <set comment="kpoint 30">
       <r>    4.7759    1.0000 </r>
       <r>    5.6863    1.0000 </r>
       <r>    8.0888    1.0000 </r>
       <r>    8.4179    1.0000 </r>
       <r>    8.7679    1.0000 </r>
       <r>    9.2140    1.0000 </r>
       <r>   24.4048    0.0000 </r>
       <r>   25.0554    0.0000 </r>
       <r>   26.1839    0.0000 </r>
       <r>   30.0938    0.0000 </r>
       <r>   33.9184    0.0000 </r>
       <r>   46.6804    0.0000 </r>
      </set>
      <set comment="kpoint 31">
       <r>    4.5505    1.0000 </r>
       <r>    6.0792    1.0000 </r>
       <r>    7.1494    1.0000 </r>
       <r>    7.9813    1.0000 </r>
       <r>    8.4202    1.0000 </r>
       <r>    9.0636    1.0000 </r>
       <r>   24.0791    0.0000 </r>
       <r>   26.5492    0.0000 </r>
       <r>   28.5519    0.0000 </r>
       <r>   32.5899    0.0000 </r>
       <r>   36.8629    0.0000 </r>
       <r>   43.9435    0.0000 </r>
      </set>
      <set comment="kpoint 32">
       <r>    3.3000    1.0000 </r>
       <r>    6.3364    1.0000 </r>
       <r>    7.4127    1.0000 </r>
       <r>    7.7345    1.0000 </r>
       <r>    7.9290    1.0000 </r>
       <r>    8.4048    1.0000 </r>
       <r>   27.7338    0.0000 </r>
       <r>   29.6940    0.0000 </r>
       <r>   30.5128    0.0000 </r>
       <r>   31.9293    0.0000 </r>
       <r>   36.5181    0.0000 </r>
       <r>   44.7064    0.0000 </r>
      </set>
      <set comment="kpoint 33">
       <r>    2.2836    1.0000 </r>
       <r>    6.8315    1.0000 </r>
       <r>    7.2821    1.0000 </r>
       <r>    7.2821    1.0000 </r>
       <r>    8.0776    1.0000 </r>
       <r>    8.0776    1.0000 </r>
       <r>   26.9617    0.0000 </r>
       <r>   33.1030    0.0000 </r>
       <r>   35.0153    0.0000 </r>
       <r>   35.0153    0.0000 </r>
       <r>   40.4436    0.0000 </r>
       <r>   40.8780    0.0000 </r>
      </set>
      <set comment="kpoint 34">
       <r>    3.3133    1.0000 </r>
       <r>    6.6023    1.0000 </r>
       <r>    7.2310    1.0000 </r>
       <r>    7.4982    1.0000 </r>
       <r>    7.8134    1.0000 </r>
       <r>    8.6346    1.0000 </r>
       <r>   25.3078    0.0000 </r>
       <r>   27.9621    0.0000 </r>
       <r>   35.4889    0.0000 </r>
       <r>   37.4041    0.0000 </r>
       <r>   37.4597    0.0000 </r>
       <r>   39.2406    0.0000 </r>
      </set>
      <set comment="kpoint 35">
       <r>    4.8656    1.0000 </r>
       <r>    6.4998    1.0000 </r>
       <r>    6.8870    1.0000 </r>
       <r>    7.5479    1.0000 </r>
       <r>    8.0510    1.0000 </r>
       <r>    9.7277    0.5938 </r>
       <r>   21.8879    0.0000 </r>
       <r>   24.6868    0.0000 </r>
       <r>   33.5516    0.0000 </r>
       <r>   33.9583    0.0000 </r>
       <r>   39.3259    0.0000 </r>
       <r>   40.9101    0.0000 </r>
      </set>
      <set comment="kpoint 36">
       <r>    5.4095    1.0000 </r>
       <r>    6.5200    1.0000 </r>
       <r>    7.1368    1.0000 </r>
       <r>    7.4413    1.0000 </r>
       <r>    8.6419    1.0000 </r>
       <r>   11.7021    0.0000 </r>
       <r>   16.9539    0.0000 </r>
       <r>   24.9333    0.0000 </r>
       <r>   30.9475    0.0000 </r>
       <r>   31.9386    0.0000 </r>
       <r>   41.1480    0.0000 </r>
       <r>   41.3371    0.0000 </r>
      </set>
      <set comment="kpoint 37">
       <r>    5.3168    1.0000 </r>
       <r>    6.3884    1.0000 </r>
       <r>    7.1688    1.0000 </r>
       <r>    7.5134    1.0000 </r>
       <r>    8.9456    1.0000 </r>
       <r>   11.5540    0.0000 </r>
       <r>   16.9179    0.0000 </r>
       <r>   26.2633    0.0000 </r>
       <r>   29.1099    0.0000 </r>
       <r>   31.4366    0.0000 </r>
       <r>   42.2392    0.0000 </r>
       <r>   42.3071    0.0000 </r>
      </set>
      <set comment="kpoint 38">
       <r>    4.7198    1.0000 </r>
       <r>    6.2181    1.0000 </r>
       <r>    7.0501    1.0000 </r>
       <r>    7.6910    1.0000 </r>
       <r>    8.7786    1.0000 </r>
       <r>    9.1726    1.0000 </r>
       <r>   21.8438    0.0000 </r>
       <r>   28.3923    0.0000 </r>
       <r>   28.7135    0.0000 </r>
       <r>   31.7842    0.0000 </r>
       <r>   39.2605    0.0000 </r>
       <r>   43.4913    0.0000 </r>
      </set>
      <set comment="kpoint 39">
       <r>    3.8648    1.0000 </r>
       <r>    6.4934    1.0000 </r>
       <r>    7.1453    1.0000 </r>
       <r>    7.4734    1.0000 </r>
       <r>    8.4042    1.0000 </r>
       <r>    8.5569    1.0000 </r>
       <r>   23.3177    0.0000 </r>
       <r>   30.5771    0.0000 </r>
       <r>   30.7540    0.0000 </r>
       <r>   33.8345    0.0000 </r>
       <r>   39.8533    0.0000 </r>
       <r>   41.2158    0.0000 </r>
      </set>
      <set comment="kpoint 40">
       <r>    5.0067    1.0000 </r>
       <r>    6.2466    1.0000 </r>
       <r>    6.8248    1.0000 </r>
       <r>    7.8582    1.0000 </r>
       <r>    8.3126    1.0000 </r>
       <r>    9.7850    0.0830 </r>
       <r>   22.1376    0.0000 </r>
       <r>   24.8746    0.0000 </r>
       <r>   29.1733    0.0000 </r>
       <r>   35.3154    0.0000 </r>
       <r>   38.3314    0.0000 </r>
       <r>   41.6326    0.0000 </r>
      </set>
      <set comment="kpoint 41">
       <r>    5.8238    1.0000 </r>
       <r>    6.2382    1.0000 </r>
       <r>    6.5226    1.0000 </r>
       <r>    7.9169    1.0000 </r>
       <r>    8.6183    1.0000 </r>
       <r>   12.0800    0.0000 </r>
       <r>   19.2044    0.0000 </r>
       <r>   22.3368    0.0000 </r>
       <r>   26.4758    0.0000 </r>
       <r>   36.1576    0.0000 </r>
       <r>   38.4335    0.0000 </r>
       <r>   43.6296    0.0000 </r>
      </set>
      <set comment="kpoint 42">
       <r>    5.8079    1.0000 </r>
       <r>    6.0364    1.0000 </r>
       <r>    6.8498    1.0000 </r>
       <r>    7.8700    1.0000 </r>
       <r>    8.8828    1.0000 </r>
       <r>   14.0149    0.0000 </r>
       <r>   16.4438    0.0000 </r>
       <r>   23.2944    0.0000 </r>
       <r>   24.6987    0.0000 </r>
       <r>   35.0169    0.0000 </r>
       <r>   39.7441    0.0000 </r>
       <r>   44.7980    0.0000 </r>
      </set>
      <set comment="kpoint 43">
       <r>    5.4168    1.0000 </r>
       <r>    6.0232    1.0000 </r>
       <r>    6.8793    1.0000 </r>
       <r>    8.1364    1.0000 </r>
       <r>    8.6514    1.0000 </r>
       <r>   10.9834    0.0000 </r>
       <r>   20.9279    0.0000 </r>
       <r>   23.6927    0.0000 </r>
       <r>   25.6812    0.0000 </r>
       <r>   34.5951    0.0000 </r>
       <r>   38.3935    0.0000 </r>
       <r>   42.4096    0.0000 </r>
      </set>
      <set comment="kpoint 44">
       <r>    5.1642    1.0000 </r>
       <r>    5.9300    1.0000 </r>
       <r>    7.2675    1.0000 </r>
       <r>    7.9631    1.0000 </r>
       <r>    8.9346    1.0000 </r>
       <r>   10.4404    0.0000 </r>
       <r>   20.6239    0.0000 </r>
       <r>   25.1770    0.0000 </r>
       <r>   27.2122    0.0000 </r>
       <r>   31.0195    0.0000 </r>
       <r>   38.4870    0.0000 </r>
       <r>   45.7520    0.0000 </r>
      </set>
      <set comment="kpoint 45">
       <r>    5.3901    1.0000 </r>
       <r>    5.8527    1.0000 </r>
       <r>    7.2042    1.0000 </r>
       <r>    8.3007    1.0000 </r>
       <r>    8.9231    1.0000 </r>
       <r>   12.7186    0.0000 </r>
       <r>   20.0204    0.0000 </r>
       <r>   22.1473    0.0000 </r>
       <r>   23.2001    0.0000 </r>
       <r>   34.1206    0.0000 </r>
       <r>   38.3544    0.0000 </r>
       <r>   43.5758    0.0000 </r>
      </set>
      <set comment="kpoint 46">
       <r>    5.5849    1.0000 </r>
       <r>    6.1889    1.0000 </r>
       <r>    6.7690    1.0000 </r>
       <r>    8.0680    1.0000 </r>
       <r>    9.0918    1.0000 </r>
       <r>   16.0520    0.0000 </r>
       <r>   17.7641    0.0000 </r>
       <r>   20.2284    0.0000 </r>
       <r>   21.5632    0.0000 </r>
       <r>   37.0429    0.0000 </r>
       <r>   40.3641    0.0000 </r>
       <r>   41.9934    0.0000 </r>
      </set>
      <set comment="kpoint 47">
       <r>    5.7346    1.0000 </r>
       <r>    6.1921    1.0000 </r>
       <r>    6.6251    1.0000 </r>
       <r>    8.0463    1.0000 </r>
       <r>    8.9079    1.0000 </r>
       <r>   13.9847    0.0000 </r>
       <r>   18.3016    0.0000 </r>
       <r>   21.5832    0.0000 </r>
       <r>   23.2482    0.0000 </r>
       <r>   37.0282    0.0000 </r>
       <r>   38.7750    0.0000 </r>
       <r>   42.9867    0.0000 </r>
      </set>
      <set comment="kpoint 48">
       <r>    5.1411    1.0000 </r>
       <r>    5.6051    1.0000 </r>
       <r>    7.9181    1.0000 </r>
       <r>    8.4371    1.0000 </r>
       <r>    8.9982    1.0000 </r>
       <r>   13.9226    0.0000 </r>
       <r>   18.9326    0.0000 </r>
       <r>   19.9225    0.0000 </r>
       <r>   25.6024    0.0000 </r>
       <r>   30.5538    0.0000 </r>
       <r>   37.7934    0.0000 </r>
       <r>   46.6661    0.0000 </r>
      </set>
      <set comment="kpoint 49">
       <r>    5.2933    1.0000 </r>
       <r>    5.7668    1.0000 </r>
       <r>    7.4708    1.0000 </r>
       <r>    8.3236    1.0000 </r>
       <r>    9.0928    1.0000 </r>
       <r>   14.5265    0.0000 </r>
       <r>   19.2922    0.0000 </r>
       <r>   20.0080    0.0000 </r>
       <r>   22.6395    0.0000 </r>
       <r>   33.8870    0.0000 </r>
       <r>   38.3254    0.0000 </r>
       <r>   44.7160    0.0000 </r>
      </set>
      <set comment="kpoint 50">
       <r>    5.2029    1.0000 </r>
       <r>    5.7119    1.0000 </r>
       <r>    7.6595    1.0000 </r>
       <r>    8.2398    1.0000 </r>
       <r>    9.0024    1.0000 </r>
       <r>   12.1796    0.0000 </r>
       <r>   19.6948    0.0000 </r>
       <r>   22.0756    0.0000 </r>
       <r>   26.1527    0.0000 </r>
       <r>   30.6880    0.0000 </r>
       <r>   38.0107    0.0000 </r>
       <r>   46.5110    0.0000 </r>
      </set>
      <set comment="kpoint 51">
       <r>    3.9840    1.0000 </r>
       <r>    7.0525    1.0000 </r>
       <r>    7.1773    1.0000 </r>
       <r>    7.1773    1.0000 </r>
       <r>    8.4537    1.0000 </r>
       <r>    8.4537    1.0000 </r>
       <r>   21.0630    0.0000 </r>
       <r>   32.0112    0.0000 </r>
       <r>   34.2394    0.0000 </r>
       <r>   34.2394    0.0000 </r>
       <r>   38.4953    0.0000 </r>
       <r>   38.4953    0.0000 </r>
      </set>
      <set comment="kpoint 52">
       <r>    4.7720    1.0000 </r>
       <r>    6.9423    1.0000 </r>
       <r>    6.9561    1.0000 </r>
       <r>    7.2936    1.0000 </r>
       <r>    8.3600    1.0000 </r>
       <r>    9.5912    1.0000 </r>
       <r>   19.6495    0.0000 </r>
       <r>   27.4786    0.0000 </r>
       <r>   33.1481    0.0000 </r>
       <r>   34.2033    0.0000 </r>
       <r>   38.7358    0.0000 </r>
       <r>   39.2543    0.0000 </r>
      </set>
      <set comment="kpoint 53">
       <r>    5.7719    1.0000 </r>
       <r>    6.3797    1.0000 </r>
       <r>    6.6715    1.0000 </r>
       <r>    7.6805    1.0000 </r>
       <r>    8.4233    1.0000 </r>
       <r>   11.8217    0.0000 </r>
       <r>   18.9219    0.0000 </r>
       <r>   22.1469    0.0000 </r>
       <r>   30.5908    0.0000 </r>
       <r>   31.9772    0.0000 </r>
       <r>   42.2990    0.0000 </r>
       <r>   42.8864    0.0000 </r>
      </set>
      <set comment="kpoint 54">
       <r>    5.6811    1.0000 </r>
       <r>    5.9775    1.0000 </r>
       <r>    7.0891    1.0000 </r>
       <r>    8.0081    1.0000 </r>
       <r>    8.7595    1.0000 </r>
       <r>   14.9295    0.0000 </r>
       <r>   16.4321    0.0000 </r>
       <r>   20.5297    0.0000 </r>
       <r>   27.7385    0.0000 </r>
       <r>   31.0742    0.0000 </r>
       <r>   43.9372    0.0000 </r>
       <r>   45.3414    0.0000 </r>
      </set>
      <set comment="kpoint 55">
       <r>    4.9337    1.0000 </r>
       <r>    6.7522    1.0000 </r>
       <r>    7.2411    1.0000 </r>
       <r>    7.2986    1.0000 </r>
       <r>    8.8940    1.0000 </r>
       <r>    9.8950    0.0000 </r>
       <r>   17.9945    0.0000 </r>
       <r>   29.2698    0.0000 </r>
       <r>   30.4456    0.0000 </r>
       <r>   32.2767    0.0000 </r>
       <r>   40.1767    0.0000 </r>
       <r>   40.7787    0.0000 </r>
      </set>
      <set comment="kpoint 56">
       <r>    5.5588    1.0000 </r>
       <r>    6.3031    1.0000 </r>
       <r>    6.9362    1.0000 </r>
       <r>    7.6522    1.0000 </r>
       <r>    8.7902    1.0000 </r>
       <r>   12.1119    0.0000 </r>
       <r>   17.1545    0.0000 </r>
       <r>   25.0886    0.0000 </r>
       <r>   26.8623    0.0000 </r>
       <r>   34.8085    0.0000 </r>
       <r>   38.7318    0.0000 </r>
       <r>   45.2842    0.0000 </r>
      </set>
      <set comment="kpoint 57">
       <r>    5.7562    1.0000 </r>
       <r>    6.0993    1.0000 </r>
       <r>    6.7805    1.0000 </r>
       <r>    8.0032    1.0000 </r>
       <r>    8.9094    1.0000 </r>
       <r>   15.3276    0.0000 </r>
       <r>   16.7828    0.0000 </r>
       <r>   20.6869    0.0000 </r>
       <r>   24.2510    0.0000 </r>
       <r>   35.0558    0.0000 </r>
       <r>   41.0779    0.0000 </r>
       <r>   44.1310    0.0000 </r>
      </set>
      <set comment="kpoint 58">
       <r>    5.5854    1.0000 </r>
       <r>    6.0938    1.0000 </r>
       <r>    7.1144    1.0000 </r>
       <r>    7.7811    1.0000 </r>
       <r>    8.8790    1.0000 </r>
       <r>   13.5079    0.0000 </r>
       <r>   16.2309    0.0000 </r>
       <r>   23.1292    0.0000 </r>
       <r>   28.1995    0.0000 </r>
       <r>   31.1622    0.0000 </r>
       <r>   43.6065    0.0000 </r>
       <r>   43.9593    0.0000 </r>
      </set>
      <set comment="kpoint 59">
       <r>    4.6981    1.0000 </r>
       <r>    7.0094    1.0000 </r>
       <r>    7.0094    1.0000 </r>
       <r>    8.8496    1.0000 </r>
       <r>    8.8496    1.0000 </r>
       <r>    8.8970    1.0000 </r>
       <r>   16.4045    0.0000 </r>
       <r>   31.1306    0.0000 </r>
       <r>   33.8968    0.0000 </r>
       <r>   33.8968    0.0000 </r>
       <r>   36.7497    0.0000 </r>
       <r>   36.7497    0.0000 </r>
      </set>
      <set comment="kpoint 60">
       <r>    5.0648    1.0000 </r>
       <r>    6.7314    1.0000 </r>
       <r>    7.2012    1.0000 </r>
       <r>    7.7075    1.0000 </r>
       <r>    8.8359    1.0000 </r>
       <r>   11.1942    0.0000 </r>
       <r>   15.7350    0.0000 </r>
       <r>   27.9624    0.0000 </r>
       <r>   31.6573    0.0000 </r>
       <r>   32.0215    0.0000 </r>
       <r>   39.3310    0.0000 </r>
       <r>   39.8845    0.0000 </r>
      </set>
     </set>
     <set comment="spin 2">
      <set comment="kpoint 1">
       <r>    1.1339    1.0000 </r>
       <r>    8.6340    1.0000 </r>
       <r>    8.7256    1.0000 </r>
       <r>    8.7256    1.0000 </r>
       <r>    9.9991    0.0000 </r>
       <r>    9.9991    0.0000 </r>
       <r>   31.7744    0.0000 </r>
       <r>   34.8125    0.0000 </r>
       <r>   36.3178    0.0000 </r>
       <r>   36.3178    0.0000 </r>
       <r>   40.1311    0.0000 </r>
       <r>   40.1312    0.0000 </r>
      </set>
      <set comment="kpoint 2">
       <r>    1.9158    1.0000 </r>
       <r>    8.3764    1.0000 </r>
       <r>    8.8917    1.0000 </r>
       <r>    8.8991    1.0000 </r>
       <r>    9.8235    0.0067 </r>
       <r>   10.0715    0.0000 </r>
       <r>   29.2517    0.0000 </r>
       <r>   31.7492    0.0000 </r>
       <r>   35.1534    0.0000 </r>
       <r>   37.3159    0.0000 </r>
       <r>   38.8590    0.0000 </r>
       <r>   40.2381    0.0000 </r>
      </set>
      <set comment="kpoint 3">
       <r>    3.6530    1.0000 </r>
       <r>    8.0668    1.0000 </r>
       <r>    8.8811    1.0000 </r>
       <r>    8.9778    1.0000 </r>
       <r>    9.9680    0.0000 </r>
       <r>   10.3984    0.0000 </r>
       <r>   23.4752    0.0000 </r>
       <r>   30.6821    0.0000 </r>
       <r>   34.1135    0.0000 </r>
       <r>   36.9250    0.0000 </r>
       <r>   38.0412    0.0000 </r>
       <r>   38.9129    0.0000 </r>
      </set>
      <set comment="kpoint 4">
       <r>    5.3543    1.0000 </r>
       <r>    8.4567    1.0000 </r>
       <r>    8.6918    1.0000 </r>
       <r>    8.7884    1.0000 </r>
       <r>   10.5150    0.0000 </r>
       <r>   10.9586    0.0000 </r>
       <r>   18.4891    0.0000 </r>
       <r>   30.1427    0.0000 </r>
       <r>   32.9341    0.0000 </r>
       <r>   34.7967    0.0000 </r>
       <r>   37.2459    0.0000 </r>
       <r>   38.7313    0.0000 </r>
      </set>
      <set comment="kpoint 5">
       <r>    5.7335    1.0000 </r>
       <r>    8.5439    1.0000 </r>
       <r>    8.7311    1.0000 </r>
       <r>    9.0988    1.0000 </r>
       <r>   10.8124    0.0000 </r>
       <r>   11.2228    0.0000 </r>
       <r>   16.6014    0.0000 </r>
       <r>   30.1824    0.0000 </r>
       <r>   32.9898    0.0000 </r>
       <r>   33.1215    0.0000 </r>
       <r>   38.0341    0.0000 </r>
       <r>   38.0443    0.0000 </r>
      </set>
      <set comment="kpoint 6">
       <r>    4.9061    1.0000 </r>
       <r>    8.1761    1.0000 </r>
       <r>    8.7318    1.0000 </r>
       <r>    8.8658    1.0000 </r>
       <r>   10.5113    0.0000 </r>
       <r>   10.6133    0.0000 </r>
       <r>   19.9738    0.0000 </r>
       <r>   30.8830    0.0000 </r>
       <r>   32.4905    0.0000 </r>
       <r>   34.8192    0.0000 </r>
       <r>   37.8602    0.0000 </r>
       <r>   39.6797    0.0000 </r>
      </set>
      <set comment="kpoint 7">
       <r>    3.0019    1.0000 </r>
       <r>    8.1230    1.0000 </r>
       <r>    8.9457    1.0000 </r>
       <r>    8.9934    1.0000 </r>
       <r>    9.8892    0.0000 </r>
       <r>   10.2063    0.0000 </r>
       <r>   25.3801    0.0000 </r>
       <r>   31.9536    0.0000 </r>
       <r>   33.0390    0.0000 </r>
       <r>   37.3409    0.0000 </r>
       <r>   37.6657    0.0000 </r>
       <r>   41.8364    0.0000 </r>
      </set>
      <set comment="kpoint 8">
       <r>    1.5299    1.0000 </r>
       <r>    8.4721    1.0000 </r>
       <r>    8.8362    1.0000 </r>
       <r>    8.8411    1.0000 </r>
       <r>    9.8467    0.0009 </r>
       <r>   10.0665    0.0000 </r>
       <r>   30.8966    0.0000 </r>
       <r>   33.2422    0.0000 </r>
       <r>   34.3809    0.0000 </r>
       <r>   36.1091    0.0000 </r>
       <r>   40.0173    0.0000 </r>
       <r>   41.8060    0.0000 </r>
      </set>
      <set comment="kpoint 9">
       <r>    2.2936    1.0000 </r>
       <r>    8.1655    1.0000 </r>
       <r>    9.0484    1.0000 </r>
       <r>    9.0686    1.0000 </r>
       <r>    9.6046    0.9999 </r>
       <r>   10.1917    0.0000 </r>
       <r>   29.5547    0.0000 </r>
       <r>   31.8588    0.0000 </r>
       <r>   32.1574    0.0000 </r>
       <r>   34.2083    0.0000 </r>
       <r>   39.8465    0.0000 </r>
       <r>   42.2832    0.0000 </r>
      </set>
      <set comment="kpoint 10">
       <r>    3.6840    1.0000 </r>
       <r>    7.8020    1.0000 </r>
       <r>    8.8771    1.0000 </r>
       <r>    9.3629    1.0000 </r>
       <r>    9.7688    0.1770 </r>
       <r>   10.4903    0.0000 </r>
       <r>   25.9037    0.0000 </r>
       <r>   28.3744    0.0000 </r>
       <r>   31.9777    0.0000 </r>
       <r>   33.9296    0.0000 </r>
       <r>   38.6862    0.0000 </r>
       <r>   42.0460    0.0000 </r>
      </set>
      <set comment="kpoint 11">
       <r>    5.4690    1.0000 </r>
       <r>    7.7008    1.0000 </r>
       <r>    8.4732    1.0000 </r>
       <r>    9.2490    1.0000 </r>
       <r>   10.5206    0.0000 </r>
       <r>   11.2865    0.0000 </r>
       <r>   20.4227    0.0000 </r>
       <r>   27.7765    0.0000 </r>
       <r>   29.6967    0.0000 </r>
       <r>   33.5800    0.0000 </r>
       <r>   40.0857    0.0000 </r>
       <r>   42.5757    0.0000 </r>
      </set>
      <set comment="kpoint 12">
       <r>    6.2586    1.0000 </r>
       <r>    7.8851    1.0000 </r>
       <r>    8.5536    1.0000 </r>
       <r>    9.1006    1.0000 </r>
       <r>   10.7607    0.0000 </r>
       <r>   12.7846    0.0000 </r>
       <r>   16.7124    0.0000 </r>
       <r>   27.2040    0.0000 </r>
       <r>   29.0155    0.0000 </r>
       <r>   33.3334    0.0000 </r>
       <r>   39.3005    0.0000 </r>
       <r>   42.8177    0.0000 </r>
      </set>
      <set comment="kpoint 13">
       <r>    5.9170    1.0000 </r>
       <r>    7.9200    1.0000 </r>
       <r>    8.3637    1.0000 </r>
       <r>    9.1499    1.0000 </r>
       <r>   10.4063    0.0000 </r>
       <r>   11.9392    0.0000 </r>
       <r>   18.8905    0.0000 </r>
       <r>   26.4366    0.0000 </r>
       <r>   30.4993    0.0000 </r>
       <r>   34.4110    0.0000 </r>
       <r>   38.6821    0.0000 </r>
       <r>   42.2256    0.0000 </r>
      </set>
      <set comment="kpoint 14">
       <r>    4.3084    1.0000 </r>
       <r>    7.8262    1.0000 </r>
       <r>    8.6809    1.0000 </r>
       <r>    9.3476    1.0000 </r>
       <r>    9.7306    0.5618 </r>
       <r>   10.8723    0.0000 </r>
       <r>   24.0105    0.0000 </r>
       <r>   26.5864    0.0000 </r>
       <r>   32.9159    0.0000 </r>
       <r>   36.3227    0.0000 </r>
       <r>   38.1063    0.0000 </r>
       <r>   41.1527    0.0000 </r>
      </set>
      <set comment="kpoint 15">
       <r>    2.6584    1.0000 </r>
       <r>    8.1356    1.0000 </r>
       <r>    8.9608    1.0000 </r>
       <r>    9.0861    1.0000 </r>
       <r>    9.6858    0.9223 </r>
       <r>   10.2397    0.0000 </r>
       <r>   27.5202    0.0000 </r>
       <r>   30.0181    0.0000 </r>
       <r>   34.2604    0.0000 </r>
       <r>   35.9956    0.0000 </r>
       <r>   39.5330    0.0000 </r>
       <r>   40.8636    0.0000 </r>
      </set>
      <set comment="kpoint 16">
       <r>    4.5289    1.0000 </r>
       <r>    7.3762    1.0000 </r>
       <r>    8.9965    1.0000 </r>
       <r>    9.7941    0.0503 </r>
       <r>   10.0285    0.0000 </r>
       <r>   10.5375    0.0000 </r>
       <r>   26.4424    0.0000 </r>
       <r>   28.0488    0.0000 </r>
       <r>   28.1351    0.0000 </r>
       <r>   30.8691    0.0000 </r>
       <r>   35.3079    0.0000 </r>
       <r>   47.3243    0.0000 </r>
      </set>
      <set comment="kpoint 17">
       <r>    5.7258    1.0000 </r>
       <r>    7.1211    1.0000 </r>
       <r>    8.7830    1.0000 </r>
       <r>   10.0916    0.0000 </r>
       <r>   10.5760    0.0000 </r>
       <r>   11.3831    0.0000 </r>
       <r>   23.1783    0.0000 </r>
       <r>   25.0866    0.0000 </r>
       <r>   25.9462    0.0000 </r>
       <r>   32.0631    0.0000 </r>
       <r>   36.3943    0.0000 </r>
       <r>   45.8493    0.0000 </r>
      </set>
      <set comment="kpoint 18">
       <r>    6.6426    1.0000 </r>
       <r>    7.1397    1.0000 </r>
       <r>    8.4619    1.0000 </r>
       <r>    9.8576    0.0003 </r>
       <r>   10.8044    0.0000 </r>
       <r>   13.9358    0.0000 </r>
       <r>   18.3692    0.0000 </r>
       <r>   23.0235    0.0000 </r>
       <r>   26.1286    0.0000 </r>
       <r>   32.4534    0.0000 </r>
       <r>   41.1633    0.0000 </r>
       <r>   44.0723    0.0000 </r>
      </set>
      <set comment="kpoint 19">
       <r>    6.9574    1.0000 </r>
       <r>    7.4080    1.0000 </r>
       <r>    8.0352    1.0000 </r>
       <r>    9.6828    0.9339 </r>
       <r>   10.4401    0.0000 </r>
       <r>   14.2696    0.0000 </r>
       <r>   18.2605    0.0000 </r>
       <r>   21.7532    0.0000 </r>
       <r>   27.8156    0.0000 </r>
       <r>   33.2672    0.0000 </r>
       <r>   41.7706    0.0000 </r>
       <r>   46.4612    0.0000 </r>
      </set>
      <set comment="kpoint 20">
       <r>    5.9872    1.0000 </r>
       <r>    7.7354    1.0000 </r>
       <r>    8.1468    1.0000 </r>
       <r>    9.4757    1.0000 </r>
       <r>   10.0551    0.0000 </r>
       <r>   12.0879    0.0000 </r>
       <r>   20.9289    0.0000 </r>
       <r>   23.7353    0.0000 </r>
       <r>   30.2805    0.0000 </r>
       <r>   34.9608    0.0000 </r>
       <r>   39.0851    0.0000 </r>
       <r>   43.6560    0.0000 </r>
      </set>
      <set comment="kpoint 21">
       <r>    4.5274    1.0000 </r>
       <r>    7.9309    1.0000 </r>
       <r>    8.7171    1.0000 </r>
       <r>    9.0502    1.0000 </r>
       <r>   10.1442    0.0000 </r>
       <r>   10.7544    0.0000 </r>
       <r>   21.8274    0.0000 </r>
       <r>   29.1904    0.0000 </r>
       <r>   32.5729    0.0000 </r>
       <r>   35.2067    0.0000 </r>
       <r>   38.7671    0.0000 </r>
       <r>   40.2388    0.0000 </r>
      </set>
      <set comment="kpoint 22">
       <r>    5.8466    1.0000 </r>
       <r>    6.7549    1.0000 </r>
       <r>   10.0307    0.0000 </r>
       <r>   10.5684    0.0000 </r>
       <r>   10.8523    0.0000 </r>
       <r>   11.4698    0.0000 </r>
       <r>   22.0787    0.0000 </r>
       <r>   24.1133    0.0000 </r>
       <r>   25.2199    0.0000 </r>
       <r>   30.1048    0.0000 </r>
       <r>   33.8827    0.0000 </r>
       <r>   50.3514    0.0000 </r>
      </set>
      <set comment="kpoint 23">
       <r>    6.1429    1.0000 </r>
       <r>    6.7526    1.0000 </r>
       <r>    9.6322    0.9983 </r>
       <r>   10.5634    0.0000 </r>
       <r>   10.9341    0.0000 </r>
       <r>   13.6626    0.0000 </r>
       <r>   20.1357    0.0000 </r>
       <r>   21.8029    0.0000 </r>
       <r>   24.1310    0.0000 </r>
       <r>   31.4789    0.0000 </r>
       <r>   35.7351    0.0000 </r>
       <r>   48.7302    0.0000 </r>
      </set>
      <set comment="kpoint 24">
       <r>    6.7117    1.0000 </r>
       <r>    7.0371    1.0000 </r>
       <r>    8.6255    1.0000 </r>
       <r>   10.0876    0.0000 </r>
       <r>   10.7560    0.0000 </r>
       <r>   15.6829    0.0000 </r>
       <r>   17.7468    0.0000 </r>
       <r>   20.7135    0.0000 </r>
       <r>   25.6658    0.0000 </r>
       <r>   32.3059    0.0000 </r>
       <r>   41.1726    0.0000 </r>
       <r>   45.0727    0.0000 </r>
      </set>
      <set comment="kpoint 25">
       <r>    6.6820    1.0000 </r>
       <r>    7.5327    1.0000 </r>
       <r>    8.3042    1.0000 </r>
       <r>    9.4002    1.0000 </r>
       <r>   10.6362    0.0000 </r>
       <r>   13.9065    0.0000 </r>
       <r>   16.8908    0.0000 </r>
       <r>   24.3528    0.0000 </r>
       <r>   28.1650    0.0000 </r>
       <r>   33.2656    0.0000 </r>
       <r>   40.5773    0.0000 </r>
       <r>   44.9179    0.0000 </r>
      </set>
      <set comment="kpoint 26">
       <r>    5.8097    1.0000 </r>
       <r>    8.2912    1.0000 </r>
       <r>    8.6820    1.0000 </r>
       <r>    8.8820    1.0000 </r>
       <r>   10.7016    0.0000 </r>
       <r>   11.6058    0.0000 </r>
       <r>   17.3785    0.0000 </r>
       <r>   29.0294    0.0000 </r>
       <r>   31.1731    0.0000 </r>
       <r>   33.6428    0.0000 </r>
       <r>   38.2798    0.0000 </r>
       <r>   40.3400    0.0000 </r>
      </set>
      <set comment="kpoint 27">
       <r>    5.9170    1.0000 </r>
       <r>    6.6151    1.0000 </r>
       <r>   10.4939    0.0000 </r>
       <r>   10.7598    0.0000 </r>
       <r>   10.9514    0.0000 </r>
       <r>   12.5037    0.0000 </r>
       <r>   20.0724    0.0000 </r>
       <r>   23.5125    0.0000 </r>
       <r>   24.5800    0.0000 </r>
       <r>   29.9868    0.0000 </r>
       <r>   33.7093    0.0000 </r>
       <r>   50.4116    0.0000 </r>
      </set>
      <set comment="kpoint 28">
       <r>    6.0905    1.0000 </r>
       <r>    6.8800    1.0000 </r>
       <r>    9.2388    1.0000 </r>
       <r>   10.4181    0.0000 </r>
       <r>   10.8076    0.0000 </r>
       <r>   12.4595    0.0000 </r>
       <r>   22.0084    0.0000 </r>
       <r>   22.5703    0.0000 </r>
       <r>   24.6953    0.0000 </r>
       <r>   31.6620    0.0000 </r>
       <r>   35.9276    0.0000 </r>
       <r>   47.5145    0.0000 </r>
      </set>
      <set comment="kpoint 29">
       <r>    6.2432    1.0000 </r>
       <r>    7.4000    1.0000 </r>
       <r>    8.3574    1.0000 </r>
       <r>    9.5416    1.0000 </r>
       <r>   10.7609    0.0000 </r>
       <r>   12.3395    0.0000 </r>
       <r>   19.2604    0.0000 </r>
       <r>   25.8924    0.0000 </r>
       <r>   27.1592    0.0000 </r>
       <r>   32.8195    0.0000 </r>
       <r>   40.9130    0.0000 </r>
       <r>   43.2082    0.0000 </r>
      </set>
      <set comment="kpoint 30">
       <r>    5.4587    1.0000 </r>
       <r>    7.0192    1.0000 </r>
       <r>    9.3011    1.0000 </r>
       <r>   10.2131    0.0000 </r>
       <r>   10.6167    0.0000 </r>
       <r>   10.7093    0.0000 </r>
       <r>   24.7515    0.0000 </r>
       <r>   25.3833    0.0000 </r>
       <r>   26.4160    0.0000 </r>
       <r>   30.3681    0.0000 </r>
       <r>   34.3398    0.0000 </r>
       <r>   49.6872    0.0000 </r>
      </set>
      <set comment="kpoint 31">
       <r>    4.8237    1.0000 </r>
       <r>    7.4442    1.0000 </r>
       <r>    8.6953    1.0000 </r>
       <r>    9.7071    0.7933 </r>
       <r>   10.1611    0.0000 </r>
       <r>   10.8102    0.0000 </r>
       <r>   24.4427    0.0000 </r>
       <r>   26.8185    0.0000 </r>
       <r>   28.8147    0.0000 </r>
       <r>   32.7614    0.0000 </r>
       <r>   37.2702    0.0000 </r>
       <r>   44.0298    0.0000 </r>
      </set>
      <set comment="kpoint 32">
       <r>    3.3514    1.0000 </r>
       <r>    7.7782    1.0000 </r>
       <r>    9.1045    1.0000 </r>
       <r>    9.3953    1.0000 </r>
       <r>    9.6050    0.9999 </r>
       <r>   10.3566    0.0000 </r>
       <r>   28.0088    0.0000 </r>
       <r>   30.0000    0.0000 </r>
       <r>   30.5329    0.0000 </r>
       <r>   32.0669    0.0000 </r>
       <r>   37.1186    0.0000 </r>
       <r>   44.6631    0.0000 </r>
      </set>
      <set comment="kpoint 33">
       <r>    2.2880    1.0000 </r>
       <r>    8.3061    1.0000 </r>
       <r>    8.9170    1.0000 </r>
       <r>    8.9170    1.0000 </r>
       <r>    9.9704    0.0000 </r>
       <r>    9.9704    0.0000 </r>
       <r>   27.2432    0.0000 </r>
       <r>   32.8502    0.0000 </r>
       <r>   35.3078    0.0000 </r>
       <r>   35.3078    0.0000 </r>
       <r>   40.3221    0.0000 </r>
       <r>   40.9601    0.0000 </r>
      </set>
      <set comment="kpoint 34">
       <r>    3.3559    1.0000 </r>
       <r>    8.0274    1.0000 </r>
       <r>    8.8682    1.0000 </r>
       <r>    9.1803    1.0000 </r>
       <r>    9.6398    0.9968 </r>
       <r>   10.4889    0.0000 </r>
       <r>   25.6577    0.0000 </r>
       <r>   28.1968    0.0000 </r>
       <r>   35.4197    0.0000 </r>
       <r>   37.3388    0.0000 </r>
       <r>   37.6310    0.0000 </r>
       <r>   39.5982    0.0000 </r>
      </set>
      <set comment="kpoint 35">
       <r>    5.1299    1.0000 </r>
       <r>    7.8138    1.0000 </r>
       <r>    8.4690    1.0000 </r>
       <r>    9.3342    1.0000 </r>
       <r>    9.7933    0.0528 </r>
       <r>   11.3925    0.0000 </r>
       <r>   22.3556    0.0000 </r>
       <r>   25.0223    0.0000 </r>
       <r>   33.5256    0.0000 </r>
       <r>   34.2791    0.0000 </r>
       <r>   39.2464    0.0000 </r>
       <r>   41.1257    0.0000 </r>
      </set>
      <set comment="kpoint 36">
       <r>    6.3206    1.0000 </r>
       <r>    7.8665    1.0000 </r>
       <r>    8.3470    1.0000 </r>
       <r>    9.1913    1.0000 </r>
       <r>   10.4760    0.0000 </r>
       <r>   12.7771    0.0000 </r>
       <r>   17.6863    0.0000 </r>
       <r>   25.2533    0.0000 </r>
       <r>   31.2644    0.0000 </r>
       <r>   31.9720    0.0000 </r>
       <r>   41.3471    0.0000 </r>
       <r>   41.3626    0.0000 </r>
      </set>
      <set comment="kpoint 37">
       <r>    6.2689    1.0000 </r>
       <r>    7.6366    1.0000 </r>
       <r>    8.4684    1.0000 </r>
       <r>    9.2523    1.0000 </r>
       <r>   10.8435    0.0000 </r>
       <r>   12.5658    0.0000 </r>
       <r>   17.6279    0.0000 </r>
       <r>   26.5308    0.0000 </r>
       <r>   29.4019    0.0000 </r>
       <r>   31.5805    0.0000 </r>
       <r>   42.2637    0.0000 </r>
       <r>   42.4736    0.0000 </r>
      </set>
      <set comment="kpoint 38">
       <r>    5.0631    1.0000 </r>
       <r>    7.5236    1.0000 </r>
       <r>    8.6052    1.0000 </r>
       <r>    9.4172    1.0000 </r>
       <r>   10.6967    0.0000 </r>
       <r>   10.6978    0.0000 </r>
       <r>   22.2851    0.0000 </r>
       <r>   28.5475    0.0000 </r>
       <r>   29.0062    0.0000 </r>
       <r>   32.0363    0.0000 </r>
       <r>   39.5953    0.0000 </r>
       <r>   43.4980    0.0000 </r>
      </set>
      <set comment="kpoint 39">
       <r>    3.9815    1.0000 </r>
       <r>    7.8454    1.0000 </r>
       <r>    8.8168    1.0000 </r>
       <r>    9.1594    1.0000 </r>
       <r>   10.0997    0.0000 </r>
       <r>   10.4670    0.0000 </r>
       <r>   23.7279    0.0000 </r>
       <r>   30.6927    0.0000 </r>
       <r>   30.8937    0.0000 </r>
       <r>   34.1073    0.0000 </r>
       <r>   40.1399    0.0000 </r>
       <r>   41.3090    0.0000 </r>
      </set>
      <set comment="kpoint 40">
       <r>    5.3540    1.0000 </r>
       <r>    7.5732    1.0000 </r>
       <r>    8.3936    1.0000 </r>
       <r>    9.6094    0.9998 </r>
       <r>   10.0682    0.0000 </r>
       <r>   11.3890    0.0000 </r>
       <r>   22.5777    0.0000 </r>
       <r>   25.1961    0.0000 </r>
       <r>   29.4236    0.0000 </r>
       <r>   35.4233    0.0000 </r>
       <r>   38.4879    0.0000 </r>
       <r>   42.0027    0.0000 </r>
      </set>
      <set comment="kpoint 41">
       <r>    6.6700    1.0000 </r>
       <r>    7.5621    1.0000 </r>
       <r>    7.8908    1.0000 </r>
       <r>    9.7244    0.6289 </r>
       <r>   10.3992    0.0000 </r>
       <r>   13.1698    0.0000 </r>
       <r>   19.7339    0.0000 </r>
       <r>   22.7454    0.0000 </r>
       <r>   26.8044    0.0000 </r>
       <r>   36.2431    0.0000 </r>
       <r>   38.5178    0.0000 </r>
       <r>   44.1606    0.0000 </r>
      </set>
      <set comment="kpoint 42">
       <r>    6.9739    1.0000 </r>
       <r>    7.2574    1.0000 </r>
       <r>    8.1353    1.0000 </r>
       <r>    9.6745    0.9591 </r>
       <r>   10.7183    0.0000 </r>
       <r>   14.7599    0.0000 </r>
       <r>   17.1352    0.0000 </r>
       <r>   23.6903    0.0000 </r>
       <r>   25.0596    0.0000 </r>
       <r>   35.1174    0.0000 </r>
       <r>   39.8612    0.0000 </r>
       <r>   45.2836    0.0000 </r>
      </set>
      <set comment="kpoint 43">
       <r>    6.1863    1.0000 </r>
       <r>    7.3214    1.0000 </r>
       <r>    8.2608    1.0000 </r>
       <r>    9.9332    0.0000 </r>
       <r>   10.4471    0.0000 </r>
       <r>   12.2361    0.0000 </r>
       <r>   21.3755    0.0000 </r>
       <r>   24.0309    0.0000 </r>
       <r>   26.0461    0.0000 </r>
       <r>   34.7285    0.0000 </r>
       <r>   38.6221    0.0000 </r>
       <r>   42.7026    0.0000 </r>
      </set>
      <set comment="kpoint 44">
       <r>    5.9302    1.0000 </r>
       <r>    7.2110    1.0000 </r>
       <r>    8.6031    1.0000 </r>
       <r>    9.7437    0.4145 </r>
       <r>   10.8488    0.0000 </r>
       <r>   11.6794    0.0000 </r>
       <r>   21.0673    0.0000 </r>
       <r>   25.5290    0.0000 </r>
       <r>   27.4728    0.0000 </r>
       <r>   31.2578    0.0000 </r>
       <r>   38.8038    0.0000 </r>
       <r>   45.8567    0.0000 </r>
      </set>
      <set comment="kpoint 45">
       <r>    6.5053    1.0000 </r>
       <r>    7.1270    1.0000 </r>
       <r>    8.4788    1.0000 </r>
       <r>   10.1635    0.0000 </r>
       <r>   10.7413    0.0000 </r>
       <r>   13.5904    0.0000 </r>
       <r>   20.4564    0.0000 </r>
       <r>   22.6167    0.0000 </r>
       <r>   23.5610    0.0000 </r>
       <r>   34.2763    0.0000 </r>
       <r>   38.6465    0.0000 </r>
       <r>   43.7782    0.0000 </r>
      </set>
      <set comment="kpoint 46">
       <r>    6.8484    1.0000 </r>
       <r>    7.4415    1.0000 </r>
       <r>    8.0335    1.0000 </r>
       <r>    9.9204    0.0000 </r>
       <r>   10.9244    0.0000 </r>
       <r>   16.6131    0.0000 </r>
       <r>   18.2716    0.0000 </r>
       <r>   20.7990    0.0000 </r>
       <r>   21.9962    0.0000 </r>
       <r>   37.1448    0.0000 </r>
       <r>   40.4598    0.0000 </r>
       <r>   42.2406    0.0000 </r>
      </set>
      <set comment="kpoint 47">
       <r>    6.9195    1.0000 </r>
       <r>    7.4433    1.0000 </r>
       <r>    7.8897    1.0000 </r>
       <r>    9.8868    0.0000 </r>
       <r>   10.7169    0.0000 </r>
       <r>   14.7757    0.0000 </r>
       <r>   18.8222    0.0000 </r>
       <r>   22.0238    0.0000 </r>
       <r>   23.6672    0.0000 </r>
       <r>   37.1168    0.0000 </r>
       <r>   38.8689    0.0000 </r>
       <r>   43.4015    0.0000 </r>
      </set>
      <set comment="kpoint 48">
[...]
       </set>
       <set comment="band 5">
        <r>  0.0001  0.0000  0.0004  0.0006  0.0025  0.0310  0.0001  0.9512  0.0066 </r>
       </set>
       <set comment="band 6">
        <r>  0.0263  0.0064  0.4438  0.0009  0.0002  0.2920  0.0315  0.0144  0.0018 </r>
       </set>
       <set comment="band 7">
        <r>  0.0016  0.1288  0.0106  0.2667  0.1443  0.0073  0.1820  0.0043  0.0165 </r>
       </set>
       <set comment="band 8">
        <r>  0.3285  0.0106  0.0360  0.0849  0.0681  0.0047  0.2598  0.0003  0.0000 </r>
       </set>
       <set comment="band 9">
        <r>  0.2231  0.1788  0.0026  0.1545  0.0530  0.0013  0.0125  0.0013  0.0815 </r>
       </set>
       <set comment="band 10">
        <r>  0.0251  0.0323  0.0005  0.0685  0.5635  0.0000  0.0174  0.0009  0.0042 </r>
       </set>
       <set comment="band 11">
        <r>  0.1783  0.2475  0.0043  0.0163  0.0727  0.0000  0.1579  0.0002  0.0077 </r>
       </set>
       <set comment="band 12">
        <r>  0.0256  0.0025  0.0305  0.0002  0.0001  0.3505  0.0165  0.0020  0.0284 </r>
       </set>
      </set>
      <set comment="kpoint 50">
       <set comment="band 1">
        <r>  0.0830  0.0086  0.0481  0.0086  0.0532  0.0095  0.6028  0.0095  0.0000 </r>
       </set>
       <set comment="band 2">
        <r>  0.0005  0.0223  0.0002  0.0223  0.7963  0.0078  0.0501  0.0078  0.0000 </r>
       </set>
       <set comment="band 3">
        <r>  0.0332  0.0000  0.1531  0.0000  0.0339  0.2877  0.0966  0.2877  0.0000 </r>
       </set>
       <set comment="band 4">
        <r>  0.0000  0.0045  0.0000  0.0045  0.0000  0.1707  0.0000  0.1707  0.6232 </r>
       </set>
       <set comment="band 5">
        <r>  0.0000  0.0000  0.0000  0.0000  0.0000  0.3209  0.0000  0.3209  0.3510 </r>
       </set>
       <set comment="band 6">
        <r>  0.0736  0.0133  0.2554  0.0133  0.0043  0.1872  0.1303  0.1872  0.0000 </r>
       </set>
       <set comment="band 7">
        <r>  0.1128  0.1847  0.0004  0.1847  0.1587  0.0280  0.0547  0.0280  0.0000 </r>
       </set>
       <set comment="band 8">
        <r>  0.2228  0.0008  0.1701  0.0008  0.0128  0.0055  0.3491  0.0055  0.0000 </r>
       </set>
       <set comment="band 9">
        <r>  0.0000  0.2814  0.0000  0.2814  0.0000  0.0184  0.0000  0.0184  0.0721 </r>
       </set>
       <set comment="band 10">
        <r>  0.1382  0.0016  0.0188  0.0016  0.5403  0.0001  0.0429  0.0001  0.0000 </r>
       </set>
       <set comment="band 11">
        <r>  0.1731  0.0986  0.0273  0.0986  0.1848  0.0047  0.1087  0.0047  0.0000 </r>
       </set>
       <set comment="band 12">
        <r>  0.0000  0.0208  0.0000  0.0209  0.0000  0.1061  0.0000  0.1061  0.2078 </r>
       </set>
      </set>
      <set comment="kpoint 51">
       <set comment="band 1">
        <r>  0.4411  0.0472  0.0472  0.0472  0.0470  0.0470  0.0000  0.0470  0.0000 </r>
       </set>
       <set comment="band 2">
        <r>  0.0161  0.0458  0.0458  0.0458  0.2408  0.2408  0.0000  0.2408  0.0000 </r>
       </set>
       <set comment="band 3">
        <r>  0.0000  0.0001  0.0004  0.0004  0.2277  0.2562  0.2592  0.0636  0.1562 </r>
       </set>
       <set comment="band 4">
        <r>  0.0000  0.0005  0.0002  0.0002  0.1373  0.1088  0.1562  0.3014  0.2592 </r>
       </set>
       <set comment="band 5">
        <r>  0.0000  0.0010  0.0001  0.0005  0.0227  0.1349  0.0446  0.2668  0.5113 </r>
       </set>
       <set comment="band 6">
        <r>  0.0000  0.0001  0.0010  0.0006  0.2603  0.1480  0.5113  0.0161  0.0446 </r>
       </set>
       <set comment="band 7">
        <r>  0.1718  0.0823  0.0823  0.0823  0.1233  0.1233  0.0000  0.1233  0.0000 </r>
       </set>
       <set comment="band 8">
        <r>  0.0107  0.0028  0.0028  0.0028  0.0190  0.0190  0.0000  0.0190  0.0000 </r>
       </set>
       <set comment="band 9">
        <r>  0.0000  0.1039  0.2113  0.0823  0.1719  0.0669  0.0569  0.0845  0.0145 </r>
       </set>
       <set comment="band 10">
        <r>  0.0000  0.1611  0.0537  0.1827  0.0437  0.1486  0.0145  0.1310  0.0569 </r>
       </set>
       <set comment="band 11">
        <r>  0.0000  0.0296  0.0853  0.0152  0.0198  0.0035  0.5806  0.0069  0.0097 </r>
       </set>
       <set comment="band 12">
        <r>  0.0000  0.0571  0.0014  0.0715  0.0003  0.0166  0.0097  0.0132  0.5806 </r>
       </set>
      </set>
      <set comment="kpoint 52">
       <set comment="band 1">
        <r>  0.3296  0.0755  0.0755  0.0043  0.0594  0.1397  0.0031  0.0594  0.0094 </r>
       </set>
       <set comment="band 2">
        <r>  0.0133  0.0474  0.0474  0.0702  0.3030  0.0175  0.0147  0.3030  0.0440 </r>
       </set>
       <set comment="band 3">
        <r>  0.0008  0.0023  0.0023  0.0019  0.0584  0.3438  0.1200  0.0584  0.3599 </r>
       </set>
       <set comment="band 4">
        <r>  0.0000  0.0005  0.0005  0.0000  0.1934  0.0000  0.4308  0.1934  0.1436 </r>
       </set>
       <set comment="band 5">
        <r>  0.0000  0.0009  0.0009  0.0000  0.2946  0.0000  0.2906  0.2946  0.0969 </r>
       </set>
       <set comment="band 6">
        <r>  0.0325  0.0216  0.0216  0.0056  0.0068  0.4543  0.1036  0.0068  0.3109 </r>
       </set>
       <set comment="band 7">
        <r>  0.1978  0.0455  0.0455  0.1500  0.1356  0.0831  0.0037  0.1356  0.0110 </r>
       </set>
       <set comment="band 8">
        <r>  0.0506  0.0329  0.0329  0.1802  0.0798  0.0597  0.0282  0.0798  0.0846 </r>
       </set>
       <set comment="band 9">
        <r>  0.0330  0.0926  0.0926  0.0647  0.0011  0.0000  0.0052  0.0011  0.0157 </r>
       </set>
       <set comment="band 10">
        <r>  0.0000  0.1880  0.1880  0.0000  0.0006  0.0000  0.3035  0.0006  0.1012 </r>
       </set>
       <set comment="band 11">
        <r>  0.0000  0.0741  0.0741  0.0000  0.2360  0.0000  0.1852  0.2360  0.0617 </r>
       </set>
       <set comment="band 12">
        <r>  0.0598  0.0081  0.0081  0.0265  0.0163  0.1371  0.0559  0.0163  0.1677 </r>
       </set>
      </set>
      <set comment="kpoint 53">
       <set comment="band 1">
        <r>  0.1581  0.0910  0.0910  0.0010  0.0238  0.3784  0.0094  0.0238  0.0282 </r>
       </set>
       <set comment="band 2">
        <r>  0.0004  0.0266  0.0266  0.0302  0.0921  0.0909  0.1294  0.0921  0.3882 </r>
       </set>
       <set comment="band 3">
        <r>  0.0030  0.0001  0.0001  0.0625  0.2904  0.1287  0.0356  0.2904  0.1067 </r>
       </set>
       <set comment="band 4">
        <r>  0.0000  0.0035  0.0035  0.0000  0.0474  0.0000  0.6450  0.0474  0.2150 </r>
       </set>
       <set comment="band 5">
        <r>  0.0000  0.0003  0.0003  0.0000  0.4425  0.0000  0.0707  0.4425  0.0236 </r>
       </set>
       <set comment="band 6">
        <r>  0.1152  0.0729  0.0729  0.0045  0.0002  0.3939  0.0591  0.0002  0.1773 </r>
       </set>
       <set comment="band 7">
        <r>  0.1059  0.0109  0.0109  0.3253  0.1594  0.0231  0.0070  0.1594  0.0210 </r>
       </set>
       <set comment="band 8">
        <r>  0.2205  0.0473  0.0473  0.1120  0.0346  0.0524  0.0446  0.0346  0.1339 </r>
       </set>
       <set comment="band 9">
        <r>  0.0000  0.2233  0.2233  0.0000  0.0007  0.0000  0.2432  0.0007  0.0811 </r>
       </set>
       <set comment="band 10">
        <r>  0.1010  0.0603  0.0603  0.0043  0.0000  0.1395  0.0227  0.0000  0.0682 </r>
       </set>
       <set comment="band 11">
        <r>  0.0113  0.0002  0.0002  0.0817  0.0488  0.0305  0.0063  0.0488  0.0188 </r>
       </set>
       <set comment="band 12">
        <r>  0.0000  0.0146  0.0146  0.0000  0.3168  0.0000  0.0453  0.3168  0.0151 </r>
       </set>
      </set>
      <set comment="kpoint 54">
       <set comment="band 1">
        <r>  0.0503  0.0074  0.0074  0.0052  0.0129  0.6353  0.0427  0.0129  0.1281 </r>
       </set>
       <set comment="band 2">
        <r>  0.0006  0.0667  0.0667  0.0010  0.0008  0.1116  0.1464  0.0008  0.4393 </r>
       </set>
       <set comment="band 3">
        <r>  0.0012  0.0010  0.0010  0.1350  0.3621  0.0315  0.0017  0.3621  0.0050 </r>
       </set>
       <set comment="band 4">
        <r>  0.0000  0.0049  0.0049  0.0000  0.0382  0.0000  0.6604  0.0382  0.2201 </r>
       </set>
       <set comment="band 5">
        <r>  0.0000  0.0001  0.0001  0.0000  0.4546  0.0000  0.0576  0.4546  0.0192 </r>
       </set>
       <set comment="band 6">
        <r>  0.0760  0.1413  0.1413  0.0619  0.0130  0.2058  0.0379  0.0130  0.1136 </r>
       </set>
       <set comment="band 7">
        <r>  0.1205  0.0063  0.0063  0.3443  0.1545  0.0442  0.0004  0.1545  0.0013 </r>
       </set>
       <set comment="band 8">
        <r>  0.3229  0.0207  0.0207  0.0655  0.0104  0.0270  0.0721  0.0104  0.2163 </r>
       </set>
       <set comment="band 9">
        <r>  0.0000  0.2612  0.2612  0.0000  0.0014  0.0000  0.1419  0.0014  0.0473 </r>
       </set>
       <set comment="band 10">
        <r>  0.1391  0.0251  0.0251  0.0029  0.0000  0.3403  0.0208  0.0000  0.0624 </r>
       </set>
       <set comment="band 11">
        <r>  0.1210  0.1012  0.1012  0.0083  0.0006  0.3148  0.0196  0.0006  0.0587 </r>
       </set>
       <set comment="band 12">
        <r>  0.0000  0.0067  0.0067  0.0000  0.2399  0.0000  0.0337  0.2393  0.0113 </r>
       </set>
      </set>
      <set comment="kpoint 55">
       <set comment="band 1">
        <r>  0.2528  0.0093  0.0830  0.0093  0.1479  0.1354  0.0289  0.1354  0.0000 </r>
       </set>
       <set comment="band 2">
        <r>  0.0110  0.0760  0.0548  0.0760  0.2342  0.0460  0.2852  0.0460  0.0000 </r>
       </set>
       <set comment="band 3">
        <r>  0.0102  0.0060  0.0209  0.0060  0.4122  0.0769  0.3319  0.0769  0.0000 </r>
       </set>
       <set comment="band 4">
        <r>  0.0000  0.0024  0.0000  0.0024  0.0000  0.2251  0.0000  0.2251  0.5070 </r>
       </set>
       <set comment="band 5">
        <r>  0.0000  0.0002  0.0000  0.0002  0.0000  0.2632  0.0000  0.2632  0.4645 </r>
       </set>
       <set comment="band 6">
        <r>  0.0330  0.0270  0.0645  0.0270  0.0930  0.1862  0.3092  0.1862  0.0000 </r>
       </set>
       <set comment="band 7">
        <r>  0.2607  0.0866  0.0144  0.0866  0.1657  0.1035  0.0082  0.1035  0.0000 </r>
       </set>
       <set comment="band 8">
        <r>  0.0046  0.0000  0.0948  0.0000  0.0673  0.0079  0.2553  0.0079  0.0000 </r>
       </set>
       <set comment="band 9">
        <r>  0.0000  0.2398  0.0000  0.2398  0.0000  0.0687  0.0000  0.0687  0.1183 </r>
       </set>
       <set comment="band 10">
        <r>  0.1079  0.0414  0.2405  0.0414  0.1421  0.0051  0.0288  0.0051  0.0000 </r>
       </set>
       <set comment="band 11">
        <r>  0.0165  0.0004  0.0131  0.0004  0.2490  0.0184  0.3747  0.0184  0.0000 </r>
       </set>
       <set comment="band 12">
        <r>  0.0000  0.0555  0.0000  0.0555  0.0000  0.0735  0.0000  0.0735  0.4784 </r>
       </set>
      </set>
      <set comment="kpoint 56">
       <set comment="band 1">
        <r>  0.1339  0.0170  0.0754  0.0047  0.2151  0.2440  0.0615  0.0920  0.0019 </r>
       </set>
       <set comment="band 2">
        <r>  0.0001  0.0668  0.0239  0.0499  0.1192  0.0228  0.4288  0.0274  0.1050 </r>
       </set>
       <set comment="band 3">
        <r>  0.0089  0.0046  0.0358  0.0320  0.3869  0.3217  0.0830  0.0040  0.0435 </r>
       </set>
       <set comment="band 4">
        <r>  0.0000  0.0012  0.0099  0.0020  0.0327  0.0113  0.1466  0.2461  0.5106 </r>
       </set>
       <set comment="band 5">
        <r>  0.0006  0.0003  0.0021  0.0014  0.0860  0.0625  0.0651  0.5420  0.2254 </r>
       </set>
       <set comment="band 6">
        <r>  0.0659  0.0606  0.1390  0.0397  0.0200  0.3019  0.1608  0.0125  0.0694 </r>
       </set>
       <set comment="band 7">
        <r>  0.2605  0.0365  0.0003  0.1640  0.1861  0.0657  0.0119  0.0974  0.0116 </r>
       </set>
       <set comment="band 8">
        <r>  0.0435  0.0962  0.0012  0.1803  0.0801  0.0444  0.1163  0.0183  0.1027 </r>
       </set>
       <set comment="band 9">
        <r>  0.1507  0.0038  0.2655  0.0556  0.0003  0.0219  0.1780  0.0217  0.0190 </r>
       </set>
       <set comment="band 10">
        <r>  0.0043  0.2498  0.0377  0.0320  0.0926  0.0053  0.0000  0.0025  0.0004 </r>
       </set>
       <set comment="band 11">
        <r>  0.0528  0.0200  0.0006  0.0052  0.2355  0.1437  0.0652  0.0317  0.2104 </r>
       </set>
       <set comment="band 12">
        <r>  0.0120  0.0592  0.0282  0.0048  0.0319  0.0383  0.2689  0.0206  0.0162 </r>
       </set>
      </set>
      <set comment="kpoint 57">
       <set comment="band 1">
        <r>  0.0002  0.0658  0.0224  0.0027  0.0002  0.0037  0.4372  0.0000  0.3077 </r>
       </set>
       <set comment="band 2">
        <r>  0.0361  0.0044  0.0628  0.0063  0.0378  0.7162  0.0024  0.0128  0.0195 </r>
       </set>
       <set comment="band 3">
        <r>  0.0006  0.0008  0.0044  0.1100  0.6666  0.0527  0.0057  0.0617  0.0016 </r>
       </set>
       <set comment="band 4">
        <r>  0.0071  0.0009  0.0062  0.0013  0.0005  0.0035  0.3872  0.0286  0.5276 </r>
       </set>
       <set comment="band 5">
        <r>  0.0007  0.0000  0.0000  0.0022  0.1101  0.0060  0.0116  0.8423  0.0152 </r>
       </set>
       <set comment="band 6">
        <r>  0.0682  0.0915  0.2189  0.0495  0.0203  0.2115  0.0972  0.0004  0.0496 </r>
       </set>
       <set comment="band 7">
        <r>  0.1139  0.0001  0.0164  0.3574  0.2275  0.0378  0.0006  0.0651  0.0057 </r>
       </set>
       <set comment="band 8">
        <r>  0.2688  0.0771  0.0002  0.0741  0.0225  0.0246  0.0950  0.0039  0.1906 </r>
       </set>
       <set comment="band 9">
        <r>  0.1654  0.0790  0.2414  0.0025  0.0004  0.0619  0.1738  0.0017  0.0031 </r>
       </set>
       <set comment="band 10">
        <r>  0.0342  0.1566  0.0342  0.0021  0.0003  0.2791  0.0014  0.0003  0.0699 </r>
       </set>
       <set comment="band 11">
        <r>  0.0047  0.0215  0.0004  0.0470  0.3855  0.0339  0.0135  0.0126  0.0153 </r>
       </set>
       <set comment="band 12">
        <r>  0.0503  0.2488  0.0254  0.0008  0.0436  0.2453  0.0346  0.0001  0.0497 </r>
       </set>
      </set>
      <set comment="kpoint 58">
       <set comment="band 1">
        <r>  0.0845  0.0025  0.0361  0.0025  0.4677  0.0858  0.1175  0.0858  0.0000 </r>
       </set>
       <set comment="band 2">
        <r>  0.0000  0.0658  0.0101  0.0658  0.1080  0.0060  0.5733  0.0060  0.0000 </r>
       </set>
       <set comment="band 3">
        <r>  0.0079  0.0069  0.1009  0.0069  0.2188  0.2559  0.0546  0.2559  0.0000 </r>
       </set>
       <set comment="band 4">
        <r>  0.0000  0.0043  0.0000  0.0043  0.0000  0.1410  0.0000  0.1410  0.6741 </r>
       </set>
       <set comment="band 5">
        <r>  0.0000  0.0002  0.0000  0.0002  0.0000  0.3508  0.0000  0.3508  0.2874 </r>
       </set>
       <set comment="band 6">
        <r>  0.0093  0.0831  0.2055  0.0831  0.0630  0.0929  0.1963  0.0929  0.0000 </r>
       </set>
       <set comment="band 7">
        <r>  0.3116  0.0617  0.0332  0.0617  0.1844  0.0906  0.0067  0.0906  0.0000 </r>
       </set>
       <set comment="band 8">
        <r>  0.1585  0.0161  0.1943  0.0161  0.0180  0.0249  0.2777  0.0249  0.0000 </r>
       </set>
       <set comment="band 9">
        <r>  0.0000  0.2580  0.0000  0.2580  0.0000  0.0130  0.0000  0.0130  0.1738 </r>
       </set>
       <set comment="band 10">
        <r>  0.1336  0.0280  0.0279  0.0280  0.3078  0.0001  0.0541  0.0001  0.0000 </r>
       </set>
       <set comment="band 11">
        <r>  0.0018  0.0642  0.0320  0.0642  0.3449  0.0037  0.0076  0.0037  0.0000 </r>
       </set>
       <set comment="band 12">
        <r>  0.0000  0.0319  0.0000  0.0319  0.0000  0.1729  0.0000  0.1729  0.2323 </r>
       </set>
      </set>
      <set comment="kpoint 59">
       <set comment="band 1">
        <r>  0.2318  0.0095  0.0095  0.0095  0.1931  0.1931  0.0000  0.1931  0.0000 </r>
       </set>
       <set comment="band 2">
        <r>  0.0000  0.0000  0.0000  0.0001  0.0596  0.2572  0.1167  0.0995  0.4269 </r>
       </set>
       <set comment="band 3">
        <r>  0.0000  0.0000  0.0001  0.0000  0.2179  0.0203  0.4269  0.1780  0.1167 </r>
       </set>
       <set comment="band 4">
        <r>  0.0255  0.1746  0.1746  0.1746  0.0467  0.0467  0.0000  0.0467  0.0000 </r>
       </set>
       <set comment="band 5">
        <r>  0.0000  0.0001  0.0001  0.0002  0.0955  0.3654  0.1080  0.1033  0.3172 </r>
       </set>
       <set comment="band 6">
        <r>  0.0000  0.0002  0.0002  0.0000  0.2806  0.0107  0.3172  0.2728  0.1080 </r>
       </set>
       <set comment="band 7">
        <r>  0.3492  0.0248  0.0248  0.0248  0.1507  0.1507  0.0000  0.1507  0.0000 </r>
       </set>
       <set comment="band 8">
        <r>  0.0011  0.0090  0.0090  0.0090  0.0024  0.0024  0.0000  0.0024  0.0000 </r>
       </set>
       <set comment="band 9">
        <r>  0.0000  0.0117  0.3213  0.2265  0.0363  0.0256  0.0127  0.0013  0.0020 </r>
       </set>
       <set comment="band 10">
        <r>  0.0000  0.3613  0.0517  0.1465  0.0058  0.0165  0.0020  0.0408  0.0127 </r>
       </set>
       <set comment="band 11">
        <r>  0.0000  0.0029  0.0173  0.0079  0.1674  0.0761  0.6195  0.0281  0.0505 </r>
       </set>
       <set comment="band 12">
        <r>  0.0000  0.0158  0.0014  0.0108  0.0137  0.1049  0.0505  0.1530  0.6195 </r>
       </set>
      </set>
      <set comment="kpoint 60">
       <set comment="band 1">
        <r>  0.1693  0.0098  0.0098  0.0086  0.1972  0.2719  0.0000  0.1972  0.0000 </r>
       </set>
       <set comment="band 2">
        <r>  0.0002  0.0561  0.0561  0.0293  0.0045  0.0456  0.1649  0.0045  0.4946 </r>
       </set>
       <set comment="band 3">
        <r>  0.0008  0.0645  0.0645  0.0918  0.1514  0.3259  0.0029  0.1514  0.0088 </r>
       </set>
       <set comment="band 4">
        <r>  0.0000  0.0013  0.0013  0.0000  0.1836  0.0000  0.4425  0.1836  0.1475 </r>
       </set>
       <set comment="band 5">
        <r>  0.0000  0.0002  0.0002  0.0000  0.3073  0.0000  0.2804  0.3073  0.0935 </r>
       </set>
       <set comment="band 6">
        <r>  0.0075  0.0840  0.0840  0.0816  0.0319  0.2543  0.0738  0.0319  0.2215 </r>
       </set>
       <set comment="band 7">
        <r>  0.3817  0.0000  0.0000  0.0406  0.1607  0.1423  0.0006  0.1607  0.0017 </r>
       </set>
       <set comment="band 8">
        <r>  0.0320  0.0112  0.0112  0.1794  0.0395  0.0402  0.0499  0.0395  0.1497 </r>
       </set>
       <set comment="band 9">
        <r>  0.0000  0.2338  0.2338  0.0000  0.0181  0.0000  0.1719  0.0181  0.0573 </r>
       </set>
       <set comment="band 10">
        <r>  0.0682  0.0793  0.0793  0.1251  0.0045  0.0468  0.0003  0.0045  0.0009 </r>
       </set>
       <set comment="band 11">
        <r>  0.0000  0.0588  0.0588  0.0000  0.1647  0.0000  0.2966  0.1647  0.0989 </r>
       </set>
       <set comment="band 12">
        <r>  0.0513  0.0001  0.0001  0.0007  0.0001  0.2762  0.0937  0.0001  0.2812 </r>
       </set>
      </set>
     </set>
    </set>
   </array>
  </projected>
 </calculation>
 <structure name="finalpos" >
  <crystal>
   <varray name="basis" >
    <v>       0.00000000       1.78303115       1.78303115 </v>
    <v>       1.78303115       0.00000000       1.78303115 </v>
    <v>       1.78303115       1.78303115       0.00000000 </v>
   </varray>
   <i name="volume">     11.33722562 </i>
   <varray name="rec_basis" >
    <v>      -0.28042135       0.28042135       0.28042135 </v>
    <v>       0.28042135      -0.28042135       0.28042135 </v>
    <v>       0.28042135       0.28042135      -0.28042135 </v>
   </varray>
  </crystal>
  <varray name="positions" >
   <v>       0.00000000       0.00000000       0.00000000 </v>
  </varray>
 </structure>
</modeling>
