   1   1   0   0
  0.1529075E+02  0.2786001E-09  0.2786001E-09  0.2786001E-09  0.5000000E-15
  1.000000000000000E-004
  CAR 
 Pt-fcc                                  
     69.02598637    -46.39709630  301     11.74956059      1.00000000
    -46.397  0.0000E+00  0.0000E+00
    -46.012  0.0000E+00  0.0000E+00
    -45.628  0.0000E+00  0.0000E+00
    -45.243  0.0000E+00  0.0000E+00
    -44.858  0.0000E+00  0.0000E+00
    -44.473  0.0000E+00  0.0000E+00
    -44.089  0.0000E+00  0.0000E+00
    -43.704  0.0000E+00  0.0000E+00
    -43.319  0.0000E+00  0.0000E+00
    -42.934  0.0000E+00  0.0000E+00
    -42.550  0.0000E+00  0.0000E+00
    -42.165  0.0000E+00  0.0000E+00
    -41.780  0.0000E+00  0.0000E+00
    -41.395  0.1480E-12  0.5696E-13
    -41.011  0.3924E+01  0.1510E+01
    -40.626  0.1141E+02  0.6000E+01
    -40.241  0.0000E+00  0.6000E+01
    -39.856  0.0000E+00  0.6000E+01
    -39.472  0.0000E+00  0.6000E+01
    -39.087  0.0000E+00  0.6000E+01
    -38.702  0.0000E+00  0.6000E+01
    -38.317  0.0000E+00  0.6000E+01
    -37.933  0.0000E+00  0.6000E+01
    -37.548  0.0000E+00  0.6000E+01
    -37.163  0.0000E+00  0.6000E+01
    -36.779  0.0000E+00  0.6000E+01
    -36.394  0.0000E+00  0.6000E+01
    -36.009  0.0000E+00  0.6000E+01
    -35.624  0.0000E+00  0.6000E+01
    -35.240  0.0000E+00  0.6000E+01
    -34.855  0.0000E+00  0.6000E+01
    -34.470  0.0000E+00  0.6000E+01
    -34.085  0.0000E+00  0.6000E+01
    -33.701  0.0000E+00  0.6000E+01
    -33.316  0.0000E+00  0.6000E+01
    -32.931  0.0000E+00  0.6000E+01
    -32.546  0.0000E+00  0.6000E+01
    -32.162  0.0000E+00  0.6000E+01
    -31.777  0.0000E+00  0.6000E+01
    -31.392  0.0000E+00  0.6000E+01
    -31.007  0.0000E+00  0.6000E+01
    -30.623  0.0000E+00  0.6000E+01
    -30.238  0.0000E+00  0.6000E+01
    -29.853  0.0000E+00  0.6000E+01
    -29.468  0.0000E+00  0.6000E+01
    -29.084  0.0000E+00  0.6000E+01
    -28.699  0.0000E+00  0.6000E+01
    -28.314  0.0000E+00  0.6000E+01
    -27.929  0.0000E+00  0.6000E+01
    -27.545  0.0000E+00  0.6000E+01
    -27.160  0.0000E+00  0.6000E+01
    -26.775  0.0000E+00  0.6000E+01
    -26.390  0.0000E+00  0.6000E+01
    -26.006  0.0000E+00  0.6000E+01
    -25.621  0.0000E+00  0.6000E+01
    -25.236  0.0000E+00  0.6000E+01
    -24.851  0.0000E+00  0.6000E+01
    -24.467  0.0000E+00  0.6000E+01
    -24.082  0.0000E+00  0.6000E+01
    -23.697  0.0000E+00  0.6000E+01
    -23.312  0.0000E+00  0.6000E+01
    -22.928  0.0000E+00  0.6000E+01
    -22.543  0.0000E+00  0.6000E+01
    -22.158  0.0000E+00  0.6000E+01
    -21.774  0.0000E+00  0.6000E+01
    -21.389  0.0000E+00  0.6000E+01
    -21.004  0.0000E+00  0.6000E+01
    -20.619  0.0000E+00  0.6000E+01
    -20.235  0.0000E+00  0.6000E+01
    -19.850  0.0000E+00  0.6000E+01
    -19.465  0.0000E+00  0.6000E+01
    -19.080  0.0000E+00  0.6000E+01
    -18.696  0.0000E+00  0.6000E+01
    -18.311  0.0000E+00  0.6000E+01
    -17.926  0.0000E+00  0.6000E+01
    -17.541  0.0000E+00  0.6000E+01
    -17.157  0.0000E+00  0.6000E+01
    -16.772  0.0000E+00  0.6000E+01
    -16.387  0.0000E+00  0.6000E+01
    -16.002  0.0000E+00  0.6000E+01
    -15.618  0.0000E+00  0.6000E+01
    -15.233  0.0000E+00  0.6000E+01
    -14.848  0.0000E+00  0.6000E+01
    -14.463  0.0000E+00  0.6000E+01
    -14.079  0.0000E+00  0.6000E+01
    -13.694  0.0000E+00  0.6000E+01
    -13.309  0.0000E+00  0.6000E+01
    -12.924  0.0000E+00  0.6000E+01
    -12.540  0.0000E+00  0.6000E+01
    -12.155  0.0000E+00  0.6000E+01
    -11.770  0.0000E+00  0.6000E+01
    -11.385  0.0000E+00  0.6000E+01
    -11.001  0.0000E+00  0.6000E+01
    -10.616  0.0000E+00  0.6000E+01
    -10.231  0.0000E+00  0.6000E+01
     -9.846  0.0000E+00  0.6000E+01
     -9.462  0.0000E+00  0.6000E+01
     -9.077  0.0000E+00  0.6000E+01
     -8.692  0.0000E+00  0.6000E+01
     -8.307  0.0000E+00  0.6000E+01
     -7.923  0.0000E+00  0.6000E+01
     -7.538  0.0000E+00  0.6000E+01
     -7.153  0.0000E+00  0.6000E+01
     -6.769  0.0000E+00  0.6000E+01
     -6.384  0.0000E+00  0.6000E+01
     -5.999  0.0000E+00  0.6000E+01
     -5.614  0.0000E+00  0.6000E+01
     -5.230  0.0000E+00  0.6000E+01
     -4.845  0.0000E+00  0.6000E+01
     -4.460  0.0000E+00  0.6000E+01
     -4.075  0.0000E+00  0.6000E+01
     -3.691  0.0000E+00  0.6000E+01
     -3.306  0.0000E+00  0.6000E+01
     -2.921  0.0000E+00  0.6000E+01
     -2.536  0.0000E+00  0.6000E+01
     -2.152  0.0000E+00  0.6000E+01
     -1.767  0.0000E+00  0.6000E+01
     -1.382  0.0000E+00  0.6000E+01
     -0.997  0.0000E+00  0.6000E+01
     -0.613  0.0000E+00  0.6000E+01
     -0.228  0.0000E+00  0.6000E+01
      0.157  0.0000E+00  0.6000E+01
      0.542  0.0000E+00  0.6000E+01
      0.926  0.0000E+00  0.6000E+01
      1.311  0.0000E+00  0.6000E+01
      1.696  0.1008E-06  0.6000E+01
      2.081  0.2031E-01  0.6008E+01
      2.465  0.6092E-01  0.6031E+01
      2.850  0.6092E-01  0.6055E+01
      3.235  0.8124E-01  0.6086E+01
      3.620  0.1545E+00  0.6145E+01
      4.004  0.9075E-01  0.6180E+01
      4.389  0.2482E+00  0.6283E+01
      4.774  0.4018E+00  0.6438E+01
      5.159  0.6533E+00  0.6691E+01
      5.543  0.1276E+01  0.7182E+01
      5.928  0.1454E+01  0.7753E+01
      6.313  0.1227E+01  0.8233E+01
      6.698  0.8547E+00  0.8584E+01
      7.082  0.1342E+01  0.9102E+01
      7.467  0.1291E+01  0.9615E+01
      7.852  0.1750E+01  0.1029E+02
      8.236  0.1357E+01  0.1085E+02
      8.621  0.2249E+01  0.1173E+02
      9.006  0.1504E+01  0.1232E+02
      9.391  0.9700E+00  0.1270E+02
      9.775  0.1454E+01  0.1327E+02
     10.160  0.1354E+01  0.1379E+02
     10.545  0.1377E+01  0.1432E+02
     10.930  0.8606E+00  0.1466E+02
     11.314  0.1430E+01  0.1521E+02
     11.699  0.1606E+01  0.1584E+02
     12.084  0.1375E+01  0.1640E+02
     12.469  0.4576E+00  0.1658E+02
     12.853  0.6450E+00  0.1683E+02
     13.238  0.1683E+00  0.1689E+02
     13.623  0.1786E+00  0.1697E+02
     14.008  0.3007E+00  0.1708E+02
     14.392  0.2291E+00  0.1718E+02
     14.777  0.2357E+00  0.1727E+02
     15.162  0.3654E+00  0.1741E+02
     15.547  0.1891E+00  0.1749E+02
     15.931  0.3539E+00  0.1762E+02
     16.316  0.9483E-01  0.1766E+02
     16.701  0.2623E+00  0.1776E+02
     17.086  0.2681E+00  0.1787E+02
     17.470  0.2731E+00  0.1798E+02
     17.855  0.4708E+00  0.1816E+02
     18.240  0.2249E+00  0.1825E+02
     18.625  0.2262E+00  0.1834E+02
     19.009  0.3423E+00  0.1848E+02
     19.394  0.3757E+00  0.1862E+02
     19.779  0.1288E+00  0.1867E+02
     20.164  0.6791E+00  0.1894E+02
     20.548  0.1206E+00  0.1899E+02
     20.933  0.1937E+00  0.1907E+02
     21.318  0.2158E+00  0.1915E+02
     21.703  0.3653E+00  0.1930E+02
     22.087  0.3254E+00  0.1942E+02
     22.472  0.3565E+00  0.1956E+02
     22.857  0.4948E+00  0.1975E+02
     23.241  0.4219E+00  0.1991E+02
     23.626  0.2685E+00  0.2003E+02
     24.011  0.3314E+00  0.2016E+02
     24.396  0.4835E+00  0.2035E+02
     24.780  0.5435E+00  0.2056E+02
     25.165  0.6016E+00  0.2079E+02
     25.550  0.3747E+00  0.2094E+02
     25.935  0.5545E+00  0.2116E+02
     26.319  0.6174E+00  0.2140E+02
     26.704  0.4218E+00  0.2157E+02
     27.089  0.1053E+01  0.2198E+02
     27.474  0.5962E+00  0.2222E+02
     27.858  0.5763E+00  0.2244E+02
     28.243  0.7249E+00  0.2272E+02
     28.628  0.6693E+00  0.2298E+02
     29.013  0.8526E+00  0.2331E+02
     29.397  0.1693E+00  0.2338E+02
     29.782  0.4002E+00  0.2353E+02
     30.167  0.3267E+00  0.2366E+02
     30.552  0.6088E+00  0.2391E+02
     30.936  0.3413E+00  0.2405E+02
     31.321  0.8921E+00  0.2440E+02
     31.706  0.7922E+00  0.2471E+02
     32.091  0.5628E+00  0.2494E+02
     32.475  0.7125E+00  0.2522E+02
     32.860  0.5147E+00  0.2542E+02
     33.245  0.7068E+00  0.2569E+02
     33.630  0.4427E+00  0.2586E+02
     34.014  0.2442E+00  0.2595E+02
     34.399  0.4182E+00  0.2611E+02
     34.784  0.3860E+00  0.2627E+02
     35.169  0.5259E+00  0.2647E+02
     35.553  0.3522E+00  0.2660E+02
     35.938  0.3456E+00  0.2675E+02
     36.323  0.7919E+00  0.2706E+02
     36.708  0.4509E+00  0.2723E+02
     37.092  0.4923E+00  0.2742E+02
     37.477  0.6565E+00  0.2768E+02
     37.862  0.4238E+00  0.2784E+02
     38.246  0.4221E+00  0.2801E+02
     38.631  0.1061E+01  0.2842E+02
     39.016  0.5395E+00  0.2864E+02
     39.401  0.1159E+01  0.2909E+02
     39.785  0.1704E+01  0.2976E+02
     40.170  0.9985E+00  0.3015E+02
     40.555  0.6944E+00  0.3043E+02
     40.940  0.4864E+00  0.3062E+02
     41.324  0.5436E+00  0.3083E+02
     41.709  0.8407E+00  0.3116E+02
     42.094  0.5124E+00  0.3136E+02
     42.479  0.7967E+00  0.3167E+02
     42.863  0.8314E+00  0.3200E+02
     43.248  0.5853E+00  0.3223E+02
     43.633  0.9142E+00  0.3258E+02
     44.018  0.7657E+00  0.3288E+02
     44.402  0.9990E+00  0.3327E+02
     44.787  0.6048E+00  0.3352E+02
     45.172  0.1284E+00  0.3357E+02
     45.557  0.3950E+00  0.3372E+02
     45.941  0.7398E+00  0.3401E+02
     46.326  0.7142E+00  0.3430E+02
     46.711  0.9496E+00  0.3467E+02
     47.096  0.7748E+00  0.3499E+02
     47.480  0.7798E+00  0.3530E+02
     47.865  0.1145E+01  0.3574E+02
     48.250  0.9489E+00  0.3610E+02
     48.635  0.1096E+01  0.3655E+02
     49.019  0.9355E+00  0.3692E+02
     49.404  0.1402E+01  0.3746E+02
     49.789  0.8846E+00  0.3782E+02
     50.174  0.2377E+00  0.3791E+02
     50.558  0.9701E+00  0.3830E+02
     50.943  0.2921E+00  0.3841E+02
     51.328  0.1191E+01  0.3888E+02
     51.713  0.5536E+00  0.3909E+02
     52.097  0.7735E+00  0.3939E+02
     52.482  0.2742E+01  0.4045E+02
     52.867  0.3900E+01  0.4196E+02
     53.251  0.1114E+01  0.4239E+02
     53.636  0.7167E+00  0.4268E+02
     54.021  0.8454E+00  0.4302E+02
     54.406  0.7148E+00  0.4330E+02
     54.790  0.1138E+01  0.4374E+02
     55.175  0.5144E+00  0.4394E+02
     55.560  0.7734E+00  0.4425E+02
     55.945  0.8611E+00  0.4460E+02
     56.329  0.3530E+00  0.4474E+02
     56.714  0.1331E+01  0.4526E+02
     57.099  0.9224E+00  0.4563E+02
     57.484  0.6069E+00  0.4587E+02
     57.868  0.1273E+01  0.4638E+02
     58.253  0.3151E+00  0.4651E+02
     58.638  0.8073E+00  0.4682E+02
     59.023  0.7104E+00  0.4711E+02
     59.407  0.5617E+00  0.4733E+02
     59.792  0.2017E+00  0.4741E+02
     60.177  0.4455E+00  0.4759E+02
     60.562  0.1836E+00  0.4766E+02
     60.946  0.1600E+00  0.4772E+02
     61.331  0.3460E+00  0.4785E+02
     61.716  0.1962E+00  0.4793E+02
     62.101  0.0000E+00  0.4793E+02
     62.485  0.1395E-01  0.4794E+02
     62.870  0.1079E+00  0.4798E+02
     63.255  0.0000E+00  0.4798E+02
     63.640  0.2310E-05  0.4798E+02
     64.024  0.6091E-01  0.4800E+02
     64.409  0.0000E+00  0.4800E+02
     64.794  0.0000E+00  0.4800E+02
     65.179  0.0000E+00  0.4800E+02
     65.563  0.0000E+00  0.4800E+02
     65.948  0.0000E+00  0.4800E+02
     66.333  0.0000E+00  0.4800E+02
     66.718  0.0000E+00  0.4800E+02
     67.102  0.0000E+00  0.4800E+02
     67.487  0.0000E+00  0.4800E+02
     67.872  0.0000E+00  0.4800E+02
     68.256  0.0000E+00  0.4800E+02
     68.641  0.0000E+00  0.4800E+02
     69.026  0.0000E+00  0.4800E+02
