 vasp.6.3.2 27Jun22 (build Aug 12 2022 00:53:59) complex                        
  
 executed on               tv2STD date 2024.11.30  15:55:58
 running   24 mpi-ranks, with    1 threads/rank
 distrk:  each k-point on   24 cores,    1 groups
 distr:  one band on NCORE=   1 cores,   24 groups


--------------------------------------------------------------------------------------------------------


 INCAR:
   SYSTEM = Pt-fcc
   NWRITE = 2    write-flag
   ISTART = 0    job   : 0-new, 1-cont, 2-samecut
   ICHARG = 2    charge: 0-wave, 1-file, 2-atom, >10-const
   INIWAV = 1    electr: 0-lowe 1-rand  2-diag
   ENCUT = 425.0     energy cutoff in eV
   PREC = accurate      normal | accurate
   ADDGRID = .FALSE.  (use fine grid)
   NELM = 100     number of ELM steps
   EDIFF = 1E-06    energy stopping-criterion for ELM
   LREAL = .FALSE.      real-space projection (.FALSE., .TRUE., On, Auto)
   ALGO = Normal     Normal, Fast, Very_Fast
   LWAVE = .FALSE.
   LCHARG = .FALSE.
   NSW = 0       max number of geometry steps
   IBRION = -1     ionic relax: 0-MD, 1-quasi-Newton, 2-CG, 3-Damped MD
   EDIFFG = -0.02  force (eV/A) stopping-criterion for geometry steps
   ISIF = 2     (1:force\=y stress\=trace only ions\=y shape\=n volume\=n)
   ISYM = 1     (1-use symmetry, 0-no symmetry)
   ISMEAR = 0     (-1-Fermi, 1-Methfessel/Paxton)
   SIGMA = 0.05   broadening in eV

 POTCAR:    PAW_PBE Pt_pv 12Dec2005               
 POTCAR:    PAW_PBE Pt_pv 12Dec2005               
   SHA256 =  e5abf7e8cd8db70d0153315afc5ad66b6e3eeee29cc2d5b91b16730957c1d208 Pt_pv/POTCAR          
   COPYR  = (c) Copyright 12Dec2005 Georg Kresse                                                    
   COPYR  = This file is part of the software VASP. Any use, copying, and all other rights are regul
   COPYR  = If you do not have a valid VASP license, you may not use, copy or distribute this file. 
   VRHFIN =Pt: 5ps1d9                                                                               
   LEXCH  = PE                                                                                      
   EATOM  =  2428.2504 eV,  178.4714 Ry                                                             
                                                                                                    
   TITEL  = PAW_PBE Pt_pv 12Dec2005                                                                 
   LULTRA =        F    use ultrasoft PP ?                                                          
   IUNSCR =        1    unscreen: 0-lin 1-nonlin 2-no                                               
   RPACOR =    2.000    partial core radius                                                         
   POMASS =  195.080; ZVAL   =   16.000    mass and valenz                                          
   RCORE  =    2.200    outmost cutoff radius                                                       
   RWIGS  =    2.200; RWIGS  =    1.164    wigner-seitz radius (au A)                               
   ENMAX  =  294.607; ENMIN  =  220.955 eV                                                          
   ICORE  =        3    local potential                                                             
   LCOR   =        T    correct aug charges                                                         
   LPAW   =        T    paw PP                                                                      
   EAUG   =  527.014                                                                                
   DEXC   =    0.000                                                                                
   RMAX   =    2.247    core radius for proj-oper                                                   
   RAUG   =    1.300    factor for augmentation sphere                                              
   RDEP   =    2.279    radius for radial grids                                                     
   RDEPT  =    1.878    core radius for aug-charge                                                  
                                                                                                    
   Atomic configuration                                                                             
   16 entries                                                                                       
     n  l   j            E        occ.                                                              
     1  0  0.50    -78401.1885   2.0000                                                             
     2  0  0.50    -13770.7750   2.0000                                                             
     2  1  1.50    -11931.0468   6.0000                                                             
     3  0  0.50     -3234.7234   2.0000                                                             
     3  1  1.50     -2699.2216   6.0000                                                             
     3  2  2.50     -2119.5714  10.0000                                                             
     4  0  0.50      -695.1528   2.0000                                                             
     4  1  1.50      -519.6034   6.0000                                                             
     4  2  2.50      -306.6786  10.0000                                                             
     4  3  3.50       -70.1041  14.0000                                                             
     5  0  0.50      -101.7747   2.0000                                                             
     5  1  1.50       -55.9873   6.0000                                                             
     6  1  1.50        -6.8029   0.0000                                                             
     5  2  2.50        -6.1423   9.0000                                                             
     6  0  0.50        -5.6573   1.0000                                                             
     5  3  2.50        -1.3606   0.0000                                                             
   Description                                                                                      
     l       E           TYP  RCUT    TYP  RCUT                                                     
     1    -55.9873477     23  2.000                                                                 
     1     27.2116520     23  2.000                                                                 
     2     -6.1423404     23  2.200                                                                 
     2     -4.6754623     23  2.200                                                                 
     0     -5.6573207     23  2.200                                                                 
     0     47.6203910     23  2.200                                                                 
     3      6.8029130     23  2.200                                                                 
  local pseudopotential read in
  partial core-charges read in
  partial kinetic energy density read in
  atomic valenz-charges read in
  non local Contribution for L=           1  read in
    real space projection operators read in
  non local Contribution for L=           1  read in
    real space projection operators read in
  non local Contribution for L=           2  read in
    real space projection operators read in
  non local Contribution for L=           2  read in
    real space projection operators read in
  non local Contribution for L=           0  read in
    real space projection operators read in
  non local Contribution for L=           0  read in
    real space projection operators read in
    PAW grid and wavefunctions read in
 
   number of l-projection  operators is LMAX  =           6
   number of lm-projection operators is LMMAX =          18
 
  PAW_PBE Pt_pv 12Dec2005               :
 energy of atom  1       EATOM=-2428.2504
 kinetic energy error for atom=    0.0554 (will be added to EATOM!!)
 
 
 POSCAR: Pt
  positions in cartesian coordinates
  No initial velocities read in
 exchange correlation table for  LEXCH =        8
   RHO(1)=    0.500       N(1)  =     2000
   RHO(2)=  100.500       N(2)  =     4000
 


--------------------------------------------------------------------------------------------------------


 ion  position               nearest neighbor table
   1  0.000  0.000  0.000-
 
  LATTYP: Found a face centered cubic cell.
 ALAT       =     3.9400000000
  
  Lattice vectors:
  
 A1 = (   0.0000000000,   1.9700000000,   1.9700000000)
 A2 = (   1.9700000000,   0.0000000000,   1.9700000000)
 A3 = (   1.9700000000,   1.9700000000,   0.0000000000)


Analysis of symmetry for initial positions (statically):
=====================================================================
 Subroutine PRICEL returns:
 Original cell was already a primitive cell.
 

 Routine SETGRP: Setting up the symmetry group for a 
 face centered cubic supercell.


 Subroutine GETGRP returns: Found 48 space group operations
 (whereof 48 operations were pure point group operations)
 out of a pool of 48 trial point group operations.


The static configuration has the point symmetry O_h .


Analysis of symmetry for dynamics (positions and initial velocities):
=====================================================================
 Subroutine PRICEL returns:
 Original cell was already a primitive cell.
 

 Routine SETGRP: Setting up the symmetry group for a 
 face centered cubic supercell.


 Subroutine GETGRP returns: Found 48 space group operations
 (whereof 48 operations were pure point group operations)
 out of a pool of 48 trial point group operations.


The dynamic configuration has the point symmetry O_h .


 Subroutine INISYM returns: Found 48 space group operations
 (whereof 48 operations are pure point group operations),
 and found     1 'primitive' translations


----------------------------------------------------------------------------------------

                                     Primitive cell                                     

  volume of cell :      15.2907

  direct lattice vectors                    reciprocal lattice vectors
     0.000000000  1.970000000  1.970000000    -0.253807107  0.253807107  0.253807107
     1.970000000  0.000000000  1.970000000     0.253807107 -0.253807107  0.253807107
     1.970000000  1.970000000  0.000000000     0.253807107  0.253807107 -0.253807107

  length of vectors
     2.786000718  2.786000718  2.786000718     0.439606804  0.439606804  0.439606804

  position of ions in fractional coordinates (direct lattice)
     0.000000000  0.000000000  0.000000000

  ion indices of the primitive-cell ions
   primitive index   ion index
                 1           1

----------------------------------------------------------------------------------------

 
 
 KPOINTS: Automatic mesh                          

Automatic generation of k-mesh.
 Grid dimensions read from file:
 generate k-points for:    8    8    8

 Generating k-lattice:

  Cartesian coordinates                     Fractional coordinates (reciprocal lattice)
    -0.031725888  0.031725888  0.031725888     0.125000000  0.000000000  0.000000000
     0.031725888 -0.031725888  0.031725888     0.000000000  0.125000000  0.000000000
     0.031725888  0.031725888 -0.031725888     0.000000000  0.000000000  0.125000000

  Length of vectors
     0.054950850  0.054950850  0.054950850

  Shift w.r.t. Gamma in fractional coordinates (k-lattice)
     0.500000000  0.500000000  0.500000000

 
 Subroutine IBZKPT returns following result:
 ===========================================
 
 Found     60 irreducible k-points:
 
 Following reciprocal coordinates:
            Coordinates               Weight
  0.062500  0.062500  0.062500      8.000000
  0.187500  0.062500  0.062500     24.000000
  0.312500  0.062500  0.062500     24.000000
  0.437500  0.062500  0.062500     24.000000
 -0.437500  0.062500  0.062500     24.000000
 -0.312500  0.062500  0.062500     24.000000
 -0.187500  0.062500  0.062500     24.000000
 -0.062500  0.062500  0.062500     24.000000
  0.187500  0.187500  0.062500     24.000000
  0.312500  0.187500  0.062500     48.000000
  0.437500  0.187500  0.062500     48.000000
 -0.437500  0.187500  0.062500     48.000000
 -0.312500  0.187500  0.062500     48.000000
 -0.187500  0.187500  0.062500     48.000000
 -0.062500  0.187500  0.062500     48.000000
  0.312500  0.312500  0.062500     24.000000
  0.437500  0.312500  0.062500     48.000000
 -0.437500  0.312500  0.062500     48.000000
 -0.312500  0.312500  0.062500     48.000000
 -0.187500  0.312500  0.062500     48.000000
 -0.062500  0.312500  0.062500     48.000000
  0.437500  0.437500  0.062500     24.000000
 -0.437500  0.437500  0.062500     48.000000
 -0.312500  0.437500  0.062500     48.000000
 -0.187500  0.437500  0.062500     48.000000
 -0.062500  0.437500  0.062500     48.000000
 -0.437500 -0.437500  0.062500     24.000000
 -0.312500 -0.437500  0.062500     48.000000
 -0.187500 -0.437500  0.062500     48.000000
 -0.312500 -0.312500  0.062500     24.000000
 -0.187500 -0.312500  0.062500     48.000000
 -0.187500 -0.187500  0.062500     24.000000
  0.187500  0.187500  0.187500      8.000000
  0.312500  0.187500  0.187500     24.000000
  0.437500  0.187500  0.187500     24.000000
 -0.437500  0.187500  0.187500     24.000000
 -0.312500  0.187500  0.187500     24.000000
 -0.187500  0.187500  0.187500     24.000000
  0.312500  0.312500  0.187500     24.000000
  0.437500  0.312500  0.187500     48.000000
 -0.437500  0.312500  0.187500     48.000000
 -0.312500  0.312500  0.187500     48.000000
 -0.187500  0.312500  0.187500     48.000000
  0.437500  0.437500  0.187500     24.000000
 -0.437500  0.437500  0.187500     48.000000
 -0.312500  0.437500  0.187500     48.000000
 -0.187500  0.437500  0.187500     48.000000
 -0.437500 -0.437500  0.187500     24.000000
 -0.312500 -0.437500  0.187500     48.000000
 -0.312500 -0.312500  0.187500     24.000000
  0.312500  0.312500  0.312500      8.000000
  0.437500  0.312500  0.312500     24.000000
 -0.437500  0.312500  0.312500     24.000000
 -0.312500  0.312500  0.312500     24.000000
  0.437500  0.437500  0.312500     24.000000
 -0.437500  0.437500  0.312500     48.000000
 -0.312500  0.437500  0.312500     48.000000
 -0.437500 -0.437500  0.312500     24.000000
  0.437500  0.437500  0.437500      8.000000
 -0.437500  0.437500  0.437500     24.000000
 
 Following cartesian coordinates:
            Coordinates               Weight
  0.015863  0.015863  0.015863      8.000000
 -0.015863  0.047589  0.047589     24.000000
 -0.047589  0.079315  0.079315     24.000000
 -0.079315  0.111041  0.111041     24.000000
  0.142766 -0.111041 -0.111041     24.000000
  0.111041 -0.079315 -0.079315     24.000000
  0.079315 -0.047589 -0.047589     24.000000
  0.047589 -0.015863 -0.015863     24.000000
  0.015863  0.015863  0.079315     24.000000
 -0.015863  0.047589  0.111041     48.000000
 -0.047589  0.079315  0.142766     48.000000
  0.174492 -0.142766 -0.079315     48.000000
  0.142766 -0.111041 -0.047589     48.000000
  0.111041 -0.079315 -0.015863     48.000000
  0.079315 -0.047589  0.015863     48.000000
  0.015863  0.015863  0.142766     24.000000
 -0.015863  0.047589  0.174492     48.000000
  0.206218 -0.174492 -0.047589     48.000000
  0.174492 -0.142766 -0.015863     48.000000
  0.142766 -0.111041  0.015863     48.000000
  0.111041 -0.079315  0.047589     48.000000
  0.015863  0.015863  0.206218     24.000000
  0.237944 -0.206218 -0.015863     48.000000
  0.206218 -0.174492  0.015863     48.000000
  0.174492 -0.142766  0.047589     48.000000
  0.142766 -0.111041  0.079315     48.000000
  0.015863  0.015863 -0.237944     24.000000
 -0.015863  0.047589 -0.206218     48.000000
 -0.047589  0.079315 -0.174492     48.000000
  0.015863  0.015863 -0.174492     24.000000
 -0.015863  0.047589 -0.142766     48.000000
  0.015863  0.015863 -0.111041     24.000000
  0.047589  0.047589  0.047589      8.000000
  0.015863  0.079315  0.079315     24.000000
 -0.015863  0.111041  0.111041     24.000000
  0.206218 -0.111041 -0.111041     24.000000
  0.174492 -0.079315 -0.079315     24.000000
  0.142766 -0.047589 -0.047589     24.000000
  0.047589  0.047589  0.111041     24.000000
  0.015863  0.079315  0.142766     48.000000
  0.237944 -0.142766 -0.079315     48.000000
  0.206218 -0.111041 -0.047589     48.000000
  0.174492 -0.079315 -0.015863     48.000000
  0.047589  0.047589  0.174492     24.000000
  0.269670 -0.174492 -0.047589     48.000000
  0.237944 -0.142766 -0.015863     48.000000
  0.206218 -0.111041  0.015863     48.000000
  0.047589  0.047589 -0.269670     24.000000
  0.015863  0.079315 -0.237944     48.000000
  0.047589  0.047589 -0.206218     24.000000
  0.079315  0.079315  0.079315      8.000000
  0.047589  0.111041  0.111041     24.000000
  0.269670 -0.111041 -0.111041     24.000000
  0.237944 -0.079315 -0.079315     24.000000
  0.079315  0.079315  0.142766     24.000000
  0.301396 -0.142766 -0.079315     48.000000
  0.269670 -0.111041 -0.047589     48.000000
  0.079315  0.079315 -0.301396     24.000000
  0.111041  0.111041  0.111041      8.000000
  0.333122 -0.111041 -0.111041     24.000000
 


--------------------------------------------------------------------------------------------------------




 Dimension of arrays:
   k-points           NKPTS =     60   k-points in BZ     NKDIM =     60   number of bands    NBANDS=     24
   number of dos      NEDOS =    301   number of ions     NIONS =      1
   non local maximal  LDIM  =      6   non local SUM 2l+1 LMDIM =     18
   total plane-waves  NPLWV =   8000
   max r-space proj   IRMAX =      1   max aug-charges    IRDMAX=  18011
   dimension x,y,z NGX =    20 NGY =   20 NGZ =   20
   dimension x,y,z NGXF=    40 NGYF=   40 NGZF=   40
   support grid    NGXF=    40 NGYF=   40 NGZF=   40
   ions per type =               1
   NGX,Y,Z   is equivalent  to a cutoff of  11.93, 11.93, 11.93 a.u.
   NGXF,Y,Z  is equivalent  to a cutoff of  23.87, 23.87, 23.87 a.u.

 SYSTEM =  Pt-fcc                                  
 POSCAR =  Pt                                      

 Startparameter for this run:
   NWRITE =      2    write-flag & timer
   PREC   = accura    normal or accurate (medium, high low for compatibility)
   ISTART =      0    job   : 0-new  1-cont  2-samecut
   ICHARG =      2    charge: 1-file 2-atom 10-const
   ISPIN  =      1    spin polarized calculation?
   LNONCOLLINEAR =      F non collinear calculations
   LSORBIT =      F    spin-orbit coupling
   INIWAV =      1    electr: 0-lowe 1-rand  2-diag
   LASPH  =      F    aspherical Exc in radial PAW
 Electronic Relaxation 1
   ENCUT  =  425.0 eV  31.24 Ry    5.59 a.u.   4.68  4.68  4.68*2*pi/ulx,y,z
   ENINI  =  425.0     initial cutoff
   ENAUG  =  527.0 eV  augmentation charge cutoff
   NELM   =    100;   NELMIN=  2; NELMDL= -5     # of ELM steps 
   EDIFF  = 0.1E-05   stopping-criterion for ELM
   LREAL  =      F    real-space projection
   NLSPLINE    = F    spline interpolate recip. space projectors
   LCOMPAT=      F    compatible to vasp.4.4
   GGA_COMPAT  = T    GGA compatible to vasp.4.4-vasp.4.6
   LMAXPAW     = -100 max onsite density
   LMAXMIX     =    2 max onsite mixed and CHGCAR
   VOSKOWN=      0    Vosko Wilk Nusair interpolation
   ROPT   =    0.00000
 Ionic relaxation
   EDIFFG = -.2E-01   stopping-criterion for IOM
   NSW    =      0    number of steps for IOM
   NBLOCK =      1;   KBLOCK =      1    inner block; outer block 
   IBRION =     -1    ionic relax: 0-MD 1-quasi-New 2-CG
   NFREE  =      0    steps in history (QN), initial steepest desc. (CG)
   ISIF   =      2    stress and relaxation
   IWAVPR =     10    prediction:  0-non 1-charg 2-wave 3-comb
   ISYM   =      1    0-nonsym 1-usesym 2-fastsym
   LCORR  =      T    Harris-Foulkes like correction to forces

   POTIM  = 0.5000    time-step for ionic-motion
   TEIN   =    0.0    initial temperature
   TEBEG  =    0.0;   TEEND  =   0.0 temperature during run
   SMASS  =  -3.00    Nose mass-parameter (am)
   estimated Nose-frequenzy (Omega)   =  0.10E-29 period in steps = 0.13E+47 mass=  -0.177E-27a.u.
   SCALEE = 1.0000    scale energy and forces
   NPACO  =    256;   APACO  = 10.0  distance and # of slots for P.C.
   PSTRESS=    0.0 pullay stress

  Mass of Ions in am
   POMASS = 195.08
  Ionic Valenz
   ZVAL   =  16.00
  Atomic Wigner-Seitz radii
   RWIGS  =  -1.00
  virtual crystal weights 
   VCA    =   1.00
   NELECT =      16.0000    total number of electrons
   NUPDOWN=      -1.0000    fix difference up-down

 DOS related values:
   EMIN   =  10.00;   EMAX   =-10.00  energy-range for DOS
   EFERMI =   0.00
   ISMEAR =     0;   SIGMA  =   0.05  broadening in eV -4-tet -1-fermi 0-gaus

 Electronic relaxation 2 (details)
   IALGO  =     38    algorithm
   LDIAG  =      T    sub-space diagonalisation (order eigenvalues)
   LSUBROT=      F    optimize rotation matrix (better conditioning)
   TURBO    =      0    0=normal 1=particle mesh
   IRESTART =      0    0=no restart 2=restart with 2 vectors
   NREBOOT  =      0    no. of reboots
   NMIN     =      0    reboot dimension
   EREF     =   0.00    reference energy to select bands
   IMIX   =      4    mixing-type and parameters
     AMIX     =   0.40;   BMIX     =  1.00
     AMIX_MAG =   1.60;   BMIX_MAG =  1.00
     AMIN     =   0.10
     WC   =   100.;   INIMIX=   1;  MIXPRE=   1;  MAXMIX= -45

 Intra band minimization:
   WEIMIN = 0.0000     energy-eigenvalue tresh-hold
   EBREAK =  0.10E-07  absolut break condition
   DEPER  =   0.30     relativ break condition  

   TIME   =   0.40     timestep for ELM

  volume/ion in A,a.u.               =      15.29       103.19
  Fermi-wavevector in a.u.,A,eV,Ry     =   1.662029  3.140779 37.583923  2.762340
  Thomas-Fermi vector in A             =   2.748990
 
 Write flags
   LWAVE        =      F    write WAVECAR
   LDOWNSAMPLE  =      F    k-point downsampling of WAVECAR
   LCHARG       =      F    write CHGCAR
   LVTOT        =      F    write LOCPOT, total local potential
   LVHAR        =      F    write LOCPOT, Hartree potential only
   LELF         =      F    write electronic localiz. function (ELF)
   LORBIT       =      0    0 simple, 1 ext, 2 COOP (PROOUT), +10 PAW based schemes


 Dipole corrections
   LMONO  =      F    monopole corrections only (constant potential shift)
   LDIPOL =      F    correct potential (dipole corrections)
   IDIPOL =      0    1-x, 2-y, 3-z, 4-all directions 
   EPSILON=  1.0000000 bulk dielectric constant

 Exchange correlation treatment:
   GGA     =    --    GGA type
   LEXCH   =     8    internal setting for exchange type
   LIBXC   =     F    Libxc                    
   VOSKOWN =     0    Vosko Wilk Nusair interpolation
   LHFCALC =     F    Hartree Fock is set to
   LHFONE  =     F    Hartree Fock one center treatment
   AEXX    =    0.0000 exact exchange contribution

 Linear response parameters
   LEPSILON=     F    determine dielectric tensor
   LRPA    =     F    only Hartree local field effects (RPA)
   LNABLA  =     F    use nabla operator in PAW spheres
   LVEL    =     F    velocity operator in full k-point grid
   CSHIFT  =0.1000    complex shift for real part using Kramers Kronig
   OMEGAMAX=  -1.0    maximum frequency
   DEG_THRESHOLD= 0.2000000E-02 threshold for treating states as degnerate
   RTIME   =   -0.100 relaxation time in fs
  (WPLASMAI=    0.000 imaginary part of plasma frequency in eV, 0.658/RTIME)
   DFIELD  = 0.0000000 0.0000000 0.0000000 field for delta impulse in time
 
  Optional k-point grid parameters
   LKPOINTS_OPT  =     F    use optional k-point grid
   KPOINTS_OPT_MODE=     1    mode for optional k-point grid
 
 Orbital magnetization related:
   ORBITALMAG=     F  switch on orbital magnetization
   LCHIMAG   =     F  perturbation theory with respect to B field
   DQ        =  0.001000  dq finite difference perturbation B field
   LLRAUG    =     F  two centre corrections for induced B field



--------------------------------------------------------------------------------------------------------


 Static calculation
 charge density and potential will be updated during run
 non-spin polarized calculation
 Variant of blocked Davidson
 Davidson routine will perform the subspace rotation
 perform sub-space diagonalisation
    after iterative eigenvector-optimisation
 modified Broyden-mixing scheme, WC =      100.0
 initial mixing is a Kerker type mixing with AMIX =  0.4000 and BMIX =      1.0000
 Hartree-type preconditioning will be used
 using additional bands           16
 reciprocal scheme for non local part
 use partial core corrections
 calculate Harris-corrections to forces 
   (improved forces if not selfconsistent)
 use gradient corrections 
 use of overlap-Matrix (Vanderbilt PP)
 Gauss-broadening in eV      SIGMA  =   0.05


--------------------------------------------------------------------------------------------------------


  energy-cutoff  :      425.00
  volume of cell :       15.29
      direct lattice vectors                 reciprocal lattice vectors
     0.000000000  1.970000000  1.970000000    -0.253807107  0.253807107  0.253807107
     1.970000000  0.000000000  1.970000000     0.253807107 -0.253807107  0.253807107
     1.970000000  1.970000000  0.000000000     0.253807107  0.253807107 -0.253807107

  length of vectors
     2.786000718  2.786000718  2.786000718     0.439606804  0.439606804  0.439606804


 
 k-points in units of 2pi/SCALE and weight: Automatic mesh                          
   0.01586294  0.01586294  0.01586294       0.004
  -0.01586294  0.04758883  0.04758883       0.012
  -0.04758883  0.07931472  0.07931472       0.012
  -0.07931472  0.11104061  0.11104061       0.012
   0.14276650 -0.11104061 -0.11104061       0.012
   0.11104061 -0.07931472 -0.07931472       0.012
   0.07931472 -0.04758883 -0.04758883       0.012
   0.04758883 -0.01586294 -0.01586294       0.012
   0.01586294  0.01586294  0.07931472       0.012
  -0.01586294  0.04758883  0.11104061       0.023
  -0.04758883  0.07931472  0.14276650       0.023
   0.17449239 -0.14276650 -0.07931472       0.023
   0.14276650 -0.11104061 -0.04758883       0.023
   0.11104061 -0.07931472 -0.01586294       0.023
   0.07931472 -0.04758883  0.01586294       0.023
   0.01586294  0.01586294  0.14276650       0.012
  -0.01586294  0.04758883  0.17449239       0.023
   0.20621827 -0.17449239 -0.04758883       0.023
   0.17449239 -0.14276650 -0.01586294       0.023
   0.14276650 -0.11104061  0.01586294       0.023
   0.11104061 -0.07931472  0.04758883       0.023
   0.01586294  0.01586294  0.20621827       0.012
   0.23794416 -0.20621827 -0.01586294       0.023
   0.20621827 -0.17449239  0.01586294       0.023
   0.17449239 -0.14276650  0.04758883       0.023
   0.14276650 -0.11104061  0.07931472       0.023
   0.01586294  0.01586294 -0.23794416       0.012
  -0.01586294  0.04758883 -0.20621827       0.023
  -0.04758883  0.07931472 -0.17449239       0.023
   0.01586294  0.01586294 -0.17449239       0.012
  -0.01586294  0.04758883 -0.14276650       0.023
   0.01586294  0.01586294 -0.11104061       0.012
   0.04758883  0.04758883  0.04758883       0.004
   0.01586294  0.07931472  0.07931472       0.012
  -0.01586294  0.11104061  0.11104061       0.012
   0.20621827 -0.11104061 -0.11104061       0.012
   0.17449239 -0.07931472 -0.07931472       0.012
   0.14276650 -0.04758883 -0.04758883       0.012
   0.04758883  0.04758883  0.11104061       0.012
   0.01586294  0.07931472  0.14276650       0.023
   0.23794416 -0.14276650 -0.07931472       0.023
   0.20621827 -0.11104061 -0.04758883       0.023
   0.17449239 -0.07931472 -0.01586294       0.023
   0.04758883  0.04758883  0.17449239       0.012
   0.26967005 -0.17449239 -0.04758883       0.023
   0.23794416 -0.14276650 -0.01586294       0.023
   0.20621827 -0.11104061  0.01586294       0.023
   0.04758883  0.04758883 -0.26967005       0.012
   0.01586294  0.07931472 -0.23794416       0.023
   0.04758883  0.04758883 -0.20621827       0.012
   0.07931472  0.07931472  0.07931472       0.004
   0.04758883  0.11104061  0.11104061       0.012
   0.26967005 -0.11104061 -0.11104061       0.012
   0.23794416 -0.07931472 -0.07931472       0.012
   0.07931472  0.07931472  0.14276650       0.012
   0.30139594 -0.14276650 -0.07931472       0.023
   0.26967005 -0.11104061 -0.04758883       0.023
   0.07931472  0.07931472 -0.30139594       0.012
   0.11104061  0.11104061  0.11104061       0.004
   0.33312183 -0.11104061 -0.11104061       0.012
 
 k-points in reciprocal lattice and weights: Automatic mesh                          
   0.06250000  0.06250000  0.06250000       0.004
   0.18750000  0.06250000  0.06250000       0.012
   0.31250000  0.06250000  0.06250000       0.012
   0.43750000  0.06250000  0.06250000       0.012
  -0.43750000  0.06250000  0.06250000       0.012
  -0.31250000  0.06250000  0.06250000       0.012
  -0.18750000  0.06250000  0.06250000       0.012
  -0.06250000  0.06250000  0.06250000       0.012
   0.18750000  0.18750000  0.06250000       0.012
   0.31250000  0.18750000  0.06250000       0.023
   0.43750000  0.18750000  0.06250000       0.023
  -0.43750000  0.18750000  0.06250000       0.023
  -0.31250000  0.18750000  0.06250000       0.023
  -0.18750000  0.18750000  0.06250000       0.023
  -0.06250000  0.18750000  0.06250000       0.023
   0.31250000  0.31250000  0.06250000       0.012
   0.43750000  0.31250000  0.06250000       0.023
  -0.43750000  0.31250000  0.06250000       0.023
  -0.31250000  0.31250000  0.06250000       0.023
  -0.18750000  0.31250000  0.06250000       0.023
  -0.06250000  0.31250000  0.06250000       0.023
   0.43750000  0.43750000  0.06250000       0.012
  -0.43750000  0.43750000  0.06250000       0.023
  -0.31250000  0.43750000  0.06250000       0.023
  -0.18750000  0.43750000  0.06250000       0.023
  -0.06250000  0.43750000  0.06250000       0.023
  -0.43750000 -0.43750000  0.06250000       0.012
  -0.31250000 -0.43750000  0.06250000       0.023
  -0.18750000 -0.43750000  0.06250000       0.023
  -0.31250000 -0.31250000  0.06250000       0.012
  -0.18750000 -0.31250000  0.06250000       0.023
  -0.18750000 -0.18750000  0.06250000       0.012
   0.18750000  0.18750000  0.18750000       0.004
   0.31250000  0.18750000  0.18750000       0.012
   0.43750000  0.18750000  0.18750000       0.012
  -0.43750000  0.18750000  0.18750000       0.012
  -0.31250000  0.18750000  0.18750000       0.012
  -0.18750000  0.18750000  0.18750000       0.012
   0.31250000  0.31250000  0.18750000       0.012
   0.43750000  0.31250000  0.18750000       0.023
  -0.43750000  0.31250000  0.18750000       0.023
  -0.31250000  0.31250000  0.18750000       0.023
  -0.18750000  0.31250000  0.18750000       0.023
   0.43750000  0.43750000  0.18750000       0.012
  -0.43750000  0.43750000  0.18750000       0.023
  -0.31250000  0.43750000  0.18750000       0.023
  -0.18750000  0.43750000  0.18750000       0.023
  -0.43750000 -0.43750000  0.18750000       0.012
  -0.31250000 -0.43750000  0.18750000       0.023
  -0.31250000 -0.31250000  0.18750000       0.012
   0.31250000  0.31250000  0.31250000       0.004
   0.43750000  0.31250000  0.31250000       0.012
  -0.43750000  0.31250000  0.31250000       0.012
  -0.31250000  0.31250000  0.31250000       0.012
   0.43750000  0.43750000  0.31250000       0.012
  -0.43750000  0.43750000  0.31250000       0.023
  -0.31250000  0.43750000  0.31250000       0.023
  -0.43750000 -0.43750000  0.31250000       0.012
   0.43750000  0.43750000  0.43750000       0.004
  -0.43750000  0.43750000  0.43750000       0.012
 
 position of ions in fractional coordinates (direct lattice) 
   0.00000000  0.00000000  0.00000000
 
 position of ions in cartesian coordinates  (Angst):
   0.00000000  0.00000000  0.00000000
 


--------------------------------------------------------------------------------------------------------


 k-point   1 :   0.0625 0.0625 0.0625  plane waves:     316
 k-point   2 :   0.1875 0.0625 0.0625  plane waves:     311
 k-point   3 :   0.3125 0.0625 0.0625  plane waves:     305
 k-point   4 :   0.4375 0.0625 0.0625  plane waves:     304
 k-point   5 :  -0.4375 0.0625 0.0625  plane waves:     305
 k-point   6 :  -0.3125 0.0625 0.0625  plane waves:     302
 k-point   7 :  -0.1875 0.0625 0.0625  plane waves:     304
 k-point   8 :  -0.0625 0.0625 0.0625  plane waves:     309
 k-point   9 :   0.1875 0.1875 0.0625  plane waves:     305
 k-point  10 :   0.3125 0.1875 0.0625  plane waves:     303
 k-point  11 :   0.4375 0.1875 0.0625  plane waves:     308
 k-point  12 :  -0.4375 0.1875 0.0625  plane waves:     304
 k-point  13 :  -0.3125 0.1875 0.0625  plane waves:     305
 k-point  14 :  -0.1875 0.1875 0.0625  plane waves:     305
 k-point  15 :  -0.0625 0.1875 0.0625  plane waves:     308
 k-point  16 :   0.3125 0.3125 0.0625  plane waves:     310
 k-point  17 :   0.4375 0.3125 0.0625  plane waves:     310
 k-point  18 :  -0.4375 0.3125 0.0625  plane waves:     302
 k-point  19 :  -0.3125 0.3125 0.0625  plane waves:     300
 k-point  20 :  -0.1875 0.3125 0.0625  plane waves:     305
 k-point  21 :  -0.0625 0.3125 0.0625  plane waves:     303
 k-point  22 :   0.4375 0.4375 0.0625  plane waves:     310
 k-point  23 :  -0.4375 0.4375 0.0625  plane waves:     305
 k-point  24 :  -0.3125 0.4375 0.0625  plane waves:     297
 k-point  25 :  -0.1875 0.4375 0.0625  plane waves:     303
 k-point  26 :  -0.0625 0.4375 0.0625  plane waves:     304
 k-point  27 :  -0.4375-0.4375 0.0625  plane waves:     304
 k-point  28 :  -0.3125-0.4375 0.0625  plane waves:     308
 k-point  29 :  -0.1875-0.4375 0.0625  plane waves:     306
 k-point  30 :  -0.3125-0.3125 0.0625  plane waves:     311
 k-point  31 :  -0.1875-0.3125 0.0625  plane waves:     306
 k-point  32 :  -0.1875-0.1875 0.0625  plane waves:     304
 k-point  33 :   0.1875 0.1875 0.1875  plane waves:     311
 k-point  34 :   0.3125 0.1875 0.1875  plane waves:     307
 k-point  35 :   0.4375 0.1875 0.1875  plane waves:     305
 k-point  36 :  -0.4375 0.1875 0.1875  plane waves:     301
 k-point  37 :  -0.3125 0.1875 0.1875  plane waves:     306
 k-point  38 :  -0.1875 0.1875 0.1875  plane waves:     309
 k-point  39 :   0.3125 0.3125 0.1875  plane waves:     302
 k-point  40 :   0.4375 0.3125 0.1875  plane waves:     307
 k-point  41 :  -0.4375 0.3125 0.1875  plane waves:     302
 k-point  42 :  -0.3125 0.3125 0.1875  plane waves:     301
 k-point  43 :  -0.1875 0.3125 0.1875  plane waves:     306
 k-point  44 :   0.4375 0.4375 0.1875  plane waves:     307
 k-point  45 :  -0.4375 0.4375 0.1875  plane waves:     302
 k-point  46 :  -0.3125 0.4375 0.1875  plane waves:     301
 k-point  47 :  -0.1875 0.4375 0.1875  plane waves:     302
 k-point  48 :  -0.4375-0.4375 0.1875  plane waves:     305
 k-point  49 :  -0.3125-0.4375 0.1875  plane waves:     302
 k-point  50 :  -0.3125-0.3125 0.1875  plane waves:     303
 k-point  51 :   0.3125 0.3125 0.3125  plane waves:     302
 k-point  52 :   0.4375 0.3125 0.3125  plane waves:     302
 k-point  53 :  -0.4375 0.3125 0.3125  plane waves:     299
 k-point  54 :  -0.3125 0.3125 0.3125  plane waves:     300
 k-point  55 :   0.4375 0.4375 0.3125  plane waves:     305
 k-point  56 :  -0.4375 0.4375 0.3125  plane waves:     303
 k-point  57 :  -0.3125 0.4375 0.3125  plane waves:     301
 k-point  58 :  -0.4375-0.4375 0.3125  plane waves:     302
 k-point  59 :   0.4375 0.4375 0.4375  plane waves:     308
 k-point  60 :  -0.4375 0.4375 0.4375  plane waves:     300

 maximum and minimum number of plane-waves per node :       316      297

 maximum number of plane-waves:       316
 maximum index in each direction: 
   IXMAX=    5   IYMAX=    5   IZMAX=    4
   IXMIN=   -5   IYMIN=   -5   IZMIN=   -5


 serial   3D FFT for wavefunctions
 parallel 3D FFT for charge:
    minimum data exchange during FFTs selected (reduces bandwidth)


 total amount of memory used by VASP MPI-rank0    33900. kBytes
=======================================================================

   base      :      30000. kBytes
   nonl-proj :       2908. kBytes
   fftplans  :        147. kBytes
   grid      :        485. kBytes
   one-center:         15. kBytes
   wavefun   :        345. kBytes
 
     INWAV:  cpu time      0.0000: real time      0.0001
 Broyden mixing: mesh for mixing (old mesh)
   NGX =  9   NGY =  9   NGZ =  9
  (NGX  = 40   NGY  = 40   NGZ  = 40)
  gives a total of    729 points

 initial charge density was supplied:
 charge density of overlapping atoms calculated
 number of electron      16.0000000 magnetization 
 keeping initial charge density in first step


--------------------------------------------------------------------------------------------------------


 Maximum index for augmentation-charges          868 (set IRDMAX)


--------------------------------------------------------------------------------------------------------


 First call to EWALD:  gamma=   0.714
 Maximum number of real-space cells 3x 3x 3
 Maximum number of reciprocal cells 3x 3x 3

    FEWALD:  cpu time      0.0014: real time      0.0014


--------------------------------------- Iteration      1(   1)  ---------------------------------------


    POTLOK:  cpu time      0.0034: real time      0.0034
    SETDIJ:  cpu time      0.0022: real time      0.0022
     EDDAV:  cpu time      0.2688: real time      0.2703
       DOS:  cpu time      0.0005: real time      0.0005
    --------------------------------------------
      LOOP:  cpu time      0.2748: real time      0.2764

 eigenvalue-minimisations  :  3168
 total energy-change (2. order) : 0.1803652E+02  (-0.1170044E+04)
 number of electron      16.0000000 magnetization 
 augmentation part       16.0000000 magnetization 

 Free energy of the ion-electron system (eV)
  ---------------------------------------------------
  alpha Z        PSCENC =       156.91311333
  Ewald energy   TEWEN  =     -2144.84590610
  -Hartree energ DENC   =      -397.82488157
  -exchange      EXHF   =         0.00000000
  -V(xc)+E(xc)   XCENC  =        63.81680431
  PAW double counting   =      2065.75261637    -2030.83594803
  entropy T*S    EENTRO =        -0.00109660
  eigenvalues    EBANDS =      -123.13319460
  atomic energy  EATOM  =      2428.19501064
  Solvation  Ediel_sol  =         0.00000000
  ---------------------------------------------------
  free energy    TOTEN  =        18.03651777 eV

  energy without entropy =       18.03761436  energy(sigma->0) =       18.03706606


--------------------------------------------------------------------------------------------------------




--------------------------------------- Iteration      1(   2)  ---------------------------------------


     EDDAV:  cpu time      0.3622: real time      0.3645
       DOS:  cpu time      0.0003: real time      0.0003
    --------------------------------------------
      LOOP:  cpu time      0.3625: real time      0.3648

 eigenvalue-minimisations  :  3840
 total energy-change (2. order) :-0.2443075E+02  (-0.2426416E+02)
 number of electron      16.0000000 magnetization 
 augmentation part       16.0000000 magnetization 

 Free energy of the ion-electron system (eV)
  ---------------------------------------------------
  alpha Z        PSCENC =       156.91311333
  Ewald energy   TEWEN  =     -2144.84590610
  -Hartree energ DENC   =      -397.82488157
  -exchange      EXHF   =         0.00000000
  -V(xc)+E(xc)   XCENC  =        63.81680431
  PAW double counting   =      2065.75261637    -2030.83594803
  entropy T*S    EENTRO =        -0.00371449
  eigenvalues    EBANDS =      -147.56132956
  atomic energy  EATOM  =      2428.19501064
  Solvation  Ediel_sol  =         0.00000000
  ---------------------------------------------------
  free energy    TOTEN  =        -6.39423508 eV

  energy without entropy =       -6.39052059  energy(sigma->0) =       -6.39237784


--------------------------------------------------------------------------------------------------------




--------------------------------------- Iteration      1(   3)  ---------------------------------------


     EDDAV:  cpu time      0.3425: real time      0.3443
       DOS:  cpu time      0.0003: real time      0.0003
    --------------------------------------------
      LOOP:  cpu time      0.3428: real time      0.3446

 eigenvalue-minimisations  :  3576
 total energy-change (2. order) :-0.3227976E-01  (-0.3227629E-01)
 number of electron      16.0000000 magnetization 
 augmentation part       16.0000000 magnetization 

 Free energy of the ion-electron system (eV)
  ---------------------------------------------------
  alpha Z        PSCENC =       156.91311333
  Ewald energy   TEWEN  =     -2144.84590610
  -Hartree energ DENC   =      -397.82488157
  -exchange      EXHF   =         0.00000000
  -V(xc)+E(xc)   XCENC  =        63.81680431
  PAW double counting   =      2065.75261637    -2030.83594803
  entropy T*S    EENTRO =        -0.00372309
  eigenvalues    EBANDS =      -147.59360071
  atomic energy  EATOM  =      2428.19501064
  Solvation  Ediel_sol  =         0.00000000
  ---------------------------------------------------
  free energy    TOTEN  =        -6.42651484 eV

  energy without entropy =       -6.42279174  energy(sigma->0) =       -6.42465329


--------------------------------------------------------------------------------------------------------




--------------------------------------- Iteration      1(   4)  ---------------------------------------


     EDDAV:  cpu time      0.5358: real time      0.5384
       DOS:  cpu time      0.0003: real time      0.0003
    --------------------------------------------
      LOOP:  cpu time      0.5362: real time      0.5387

 eigenvalue-minimisations  :  4656
 total energy-change (2. order) :-0.3281470E-04  (-0.3281510E-04)
 number of electron      16.0000000 magnetization 
 augmentation part       16.0000000 magnetization 

 Free energy of the ion-electron system (eV)
  ---------------------------------------------------
  alpha Z        PSCENC =       156.91311333
  Ewald energy   TEWEN  =     -2144.84590610
  -Hartree energ DENC   =      -397.82488157
  -exchange      EXHF   =         0.00000000
  -V(xc)+E(xc)   XCENC  =        63.81680431
  PAW double counting   =      2065.75261637    -2030.83594803
  entropy T*S    EENTRO =        -0.00372310
  eigenvalues    EBANDS =      -147.59363352
  atomic energy  EATOM  =      2428.19501064
  Solvation  Ediel_sol  =         0.00000000
  ---------------------------------------------------
  free energy    TOTEN  =        -6.42654765 eV

  energy without entropy =       -6.42282455  energy(sigma->0) =       -6.42468610


--------------------------------------------------------------------------------------------------------




--------------------------------------- Iteration      1(   5)  ---------------------------------------


     EDDAV:  cpu time      0.3433: real time      0.3451
       DOS:  cpu time      0.0003: real time      0.0003
    CHARGE:  cpu time      0.0130: real time      0.0131
    MIXING:  cpu time      0.0003: real time      0.0003
    --------------------------------------------
      LOOP:  cpu time      0.3569: real time      0.3587

 eigenvalue-minimisations  :  3576
 total energy-change (2. order) :-0.2591605E-08  (-0.8673459E-09)
 number of electron      16.0000003 magnetization 
 augmentation part        3.9768733 magnetization 

 Broyden mixing:
  rms(total) = 0.14940E+01    rms(broyden)= 0.14939E+01
  rms(prec ) = 0.20516E+01
  weight for this iteration     100.00

 Free energy of the ion-electron system (eV)
  ---------------------------------------------------
  alpha Z        PSCENC =       156.91311333
  Ewald energy   TEWEN  =     -2144.84590610
  -Hartree energ DENC   =      -397.82488157
  -exchange      EXHF   =         0.00000000
  -V(xc)+E(xc)   XCENC  =        63.81680431
  PAW double counting   =      2065.75261637    -2030.83594803
  entropy T*S    EENTRO =        -0.00372310
  eigenvalues    EBANDS =      -147.59363352
  atomic energy  EATOM  =      2428.19501064
  Solvation  Ediel_sol  =         0.00000000
  ---------------------------------------------------
  free energy    TOTEN  =        -6.42654766 eV

  energy without entropy =       -6.42282456  energy(sigma->0) =       -6.42468611


--------------------------------------------------------------------------------------------------------




--------------------------------------- Iteration      1(   6)  ---------------------------------------


    POTLOK:  cpu time      0.0026: real time      0.0027
    SETDIJ:  cpu time      0.0021: real time      0.0021
     EDDAV:  cpu time      0.2816: real time      0.2829
       DOS:  cpu time      0.0003: real time      0.0003
    CHARGE:  cpu time      0.0123: real time      0.0124
    MIXING:  cpu time      0.0003: real time      0.0003
    --------------------------------------------
      LOOP:  cpu time      0.2991: real time      0.3007

 eigenvalue-minimisations  :  3240
 total energy-change (2. order) : 0.3350091E+00  (-0.1233253E+00)
 number of electron      16.0000003 magnetization 
 augmentation part        4.0884487 magnetization 

 Broyden mixing:
  rms(total) = 0.47932E+00    rms(broyden)= 0.47932E+00
  rms(prec ) = 0.59195E+00
  weight for this iteration     100.00

 eigenvalues of (default mixing * dielectric matrix)
  average eigenvalue GAMMA=   1.4492
  1.4492

 Free energy of the ion-electron system (eV)
  ---------------------------------------------------
  alpha Z        PSCENC =       156.91311333
  Ewald energy   TEWEN  =     -2144.84590610
  -Hartree energ DENC   =      -382.52792811
  -exchange      EXHF   =         0.00000000
  -V(xc)+E(xc)   XCENC  =        63.15711774
  PAW double counting   =      2236.35851801    -2203.51172521
  entropy T*S    EENTRO =        -0.00352131
  eigenvalues    EBANDS =      -159.82621760
  atomic energy  EATOM  =      2428.19501064
  Solvation  Ediel_sol  =         0.00000000
  ---------------------------------------------------
  free energy    TOTEN  =        -6.09153860 eV

  energy without entropy =       -6.08801730  energy(sigma->0) =       -6.08977795


--------------------------------------------------------------------------------------------------------




--------------------------------------- Iteration      1(   7)  ---------------------------------------


    POTLOK:  cpu time      0.0023: real time      0.0024
    SETDIJ:  cpu time      0.0018: real time      0.0018
     EDDAV:  cpu time      0.4189: real time      0.4209
       DOS:  cpu time      0.0003: real time      0.0003
    CHARGE:  cpu time      0.0123: real time      0.0124
    MIXING:  cpu time      0.0003: real time      0.0003
    --------------------------------------------
      LOOP:  cpu time      0.4359: real time      0.4381

 eigenvalue-minimisations  :  4176
 total energy-change (2. order) : 0.1951421E-01  (-0.8137365E-02)
 number of electron      16.0000003 magnetization 
 augmentation part        4.1154655 magnetization 

 Broyden mixing:
  rms(total) = 0.14570E+00    rms(broyden)= 0.14569E+00
  rms(prec ) = 0.17710E+00
  weight for this iteration     100.00

 eigenvalues of (default mixing * dielectric matrix)
  average eigenvalue GAMMA=   1.9671
  1.2026  2.7317

 Free energy of the ion-electron system (eV)
  ---------------------------------------------------
  alpha Z        PSCENC =       156.91311333
  Ewald energy   TEWEN  =     -2144.84590610
  -Hartree energ DENC   =      -378.40546285
  -exchange      EXHF   =         0.00000000
  -V(xc)+E(xc)   XCENC  =        62.96920909
  PAW double counting   =      2309.42867590    -2277.19018796
  entropy T*S    EENTRO =        -0.00353537
  eigenvalues    EBANDS =      -163.13294109
  atomic energy  EATOM  =      2428.19501064
  Solvation  Ediel_sol  =         0.00000000
  ---------------------------------------------------
  free energy    TOTEN  =        -6.07202440 eV

  energy without entropy =       -6.06848903  energy(sigma->0) =       -6.07025672


--------------------------------------------------------------------------------------------------------




--------------------------------------- Iteration      1(   8)  ---------------------------------------


    POTLOK:  cpu time      0.0022: real time      0.0023
    SETDIJ:  cpu time      0.0019: real time      0.0019
     EDDAV:  cpu time      0.2692: real time      0.2705
       DOS:  cpu time      0.0003: real time      0.0003
    CHARGE:  cpu time      0.0125: real time      0.0125
    MIXING:  cpu time      0.0002: real time      0.0002
    --------------------------------------------
      LOOP:  cpu time      0.2863: real time      0.2878

 eigenvalue-minimisations  :  3168
 total energy-change (2. order) : 0.1572222E-02  (-0.3988618E-03)
 number of electron      16.0000003 magnetization 
 augmentation part        4.1114677 magnetization 

 Broyden mixing:
  rms(total) = 0.15526E-01    rms(broyden)= 0.15518E-01
  rms(prec ) = 0.19420E-01
  weight for this iteration     100.00

 eigenvalues of (default mixing * dielectric matrix)
  average eigenvalue GAMMA=   1.5767
  1.0790  1.2229  2.4284

 Free energy of the ion-electron system (eV)
  ---------------------------------------------------
  alpha Z        PSCENC =       156.91311333
  Ewald energy   TEWEN  =     -2144.84590610
  -Hartree energ DENC   =      -378.27355597
  -exchange      EXHF   =         0.00000000
  -V(xc)+E(xc)   XCENC  =        62.95000825
  PAW double counting   =      2351.66001109    -2319.48176458
  entropy T*S    EENTRO =        -0.00352674
  eigenvalues    EBANDS =      -163.18384209
  atomic energy  EATOM  =      2428.19501064
  Solvation  Ediel_sol  =         0.00000000
  ---------------------------------------------------
  free energy    TOTEN  =        -6.07045218 eV

  energy without entropy =       -6.06692543  energy(sigma->0) =       -6.06868880


--------------------------------------------------------------------------------------------------------




--------------------------------------- Iteration      1(   9)  ---------------------------------------


    POTLOK:  cpu time      0.0022: real time      0.0024
    SETDIJ:  cpu time      0.0020: real time      0.0020
     EDDAV:  cpu time      0.4203: real time      0.4223
       DOS:  cpu time      0.0003: real time      0.0003
    CHARGE:  cpu time      0.0123: real time      0.0123
    MIXING:  cpu time      0.0002: real time      0.0002
    --------------------------------------------
      LOOP:  cpu time      0.4374: real time      0.4395

 eigenvalue-minimisations  :  4056
 total energy-change (2. order) : 0.6892821E-04  (-0.4776582E-05)
 number of electron      16.0000003 magnetization 
 augmentation part        4.1117647 magnetization 

 Broyden mixing:
  rms(total) = 0.15720E-02    rms(broyden)= 0.15704E-02
  rms(prec ) = 0.31547E-02
  weight for this iteration     100.00

 eigenvalues of (default mixing * dielectric matrix)
  average eigenvalue GAMMA=   1.8424
  1.0159  1.2060  2.7854  2.3623

 Free energy of the ion-electron system (eV)
  ---------------------------------------------------
  alpha Z        PSCENC =       156.91311333
  Ewald energy   TEWEN  =     -2144.84590610
  -Hartree energ DENC   =      -378.32382291
  -exchange      EXHF   =         0.00000000
  -V(xc)+E(xc)   XCENC  =        62.95336623
  PAW double counting   =      2348.46364712    -2316.25827075
  entropy T*S    EENTRO =        -0.00352769
  eigenvalues    EBANDS =      -163.16399313
  atomic energy  EATOM  =      2428.19501064
  Solvation  Ediel_sol  =         0.00000000
  ---------------------------------------------------
  free energy    TOTEN  =        -6.07038325 eV

  energy without entropy =       -6.06685556  energy(sigma->0) =       -6.06861940


--------------------------------------------------------------------------------------------------------




--------------------------------------- Iteration      1(  10)  ---------------------------------------


    POTLOK:  cpu time      0.0022: real time      0.0023
    SETDIJ:  cpu time      0.0018: real time      0.0018
     EDDAV:  cpu time      0.3777: real time      0.3795
       DOS:  cpu time      0.0003: real time      0.0003
    CHARGE:  cpu time      0.0129: real time      0.0129
    MIXING:  cpu time      0.0003: real time      0.0003
    --------------------------------------------
      LOOP:  cpu time      0.3952: real time      0.3972

 eigenvalue-minimisations  :  3840
 total energy-change (2. order) :-0.5587431E-05  (-0.5083109E-06)
 number of electron      16.0000003 magnetization 
 augmentation part        4.1118160 magnetization 

 Broyden mixing:
  rms(total) = 0.60416E-03    rms(broyden)= 0.60395E-03
  rms(prec ) = 0.60861E-03
  weight for this iteration     100.00

 eigenvalues of (default mixing * dielectric matrix)
  average eigenvalue GAMMA=   1.7037
  2.7127  2.3482  0.9744  1.2416  1.2416

 Free energy of the ion-electron system (eV)
  ---------------------------------------------------
  alpha Z        PSCENC =       156.91311333
  Ewald energy   TEWEN  =     -2144.84590610
  -Hartree energ DENC   =      -378.35117080
  -exchange      EXHF   =         0.00000000
  -V(xc)+E(xc)   XCENC  =        62.95438649
  PAW double counting   =      2350.10121537    -2317.86902419
  entropy T*S    EENTRO =        -0.00352783
  eigenvalues    EBANDS =      -163.16448574
  atomic energy  EATOM  =      2428.19501064
  Solvation  Ediel_sol  =         0.00000000
  ---------------------------------------------------
  free energy    TOTEN  =        -6.07038884 eV

  energy without entropy =       -6.06686100  energy(sigma->0) =       -6.06862492


--------------------------------------------------------------------------------------------------------




--------------------------------------- Iteration      1(  11)  ---------------------------------------


    POTLOK:  cpu time      0.0023: real time      0.0024
    SETDIJ:  cpu time      0.0020: real time      0.0021
     EDDAV:  cpu time      0.1729: real time      0.1749
       DOS:  cpu time      0.0003: real time      0.0003
    --------------------------------------------
      LOOP:  cpu time      0.1775: real time      0.1797

 eigenvalue-minimisations  :  2016
 total energy-change (2. order) : 0.5294032E-07  (-0.5292229E-09)
 number of electron      16.0000003 magnetization 
 augmentation part        4.1118160 magnetization 

 Free energy of the ion-electron system (eV)
  ---------------------------------------------------
  alpha Z        PSCENC =       156.91311333
  Ewald energy   TEWEN  =     -2144.84590610
  -Hartree energ DENC   =      -378.35093376
  -exchange      EXHF   =         0.00000000
  -V(xc)+E(xc)   XCENC  =        62.95437711
  PAW double counting   =      2349.92909160    -2317.69728838
  entropy T*S    EENTRO =        -0.00352783
  eigenvalues    EBANDS =      -163.16432540
  atomic energy  EATOM  =      2428.19501064
  Solvation  Ediel_sol  =         0.00000000
  ---------------------------------------------------
  free energy    TOTEN  =        -6.07038878 eV

  energy without entropy =       -6.06686095  energy(sigma->0) =       -6.06862487


--------------------------------------------------------------------------------------------------------




 average (electrostatic) potential at core
  the test charge radii are     0.9952
  (the norm of the test charge is              1.0000)
       1 -88.9780
 
 
 
 E-fermi :  11.7496     XC(G=0): -13.9168     alpha+bet :-17.1560

 Fermi energy:        11.7495605866

 k-point     1 :       0.0625    0.0625    0.0625
  band No.  band energies     occupation 
      1     -40.7288      2.00000
      2     -40.7144      2.00000
      3     -40.7144      2.00000
      4       1.8521      2.00000
      5       8.0048      2.00000
      6       8.1343      2.00000
      7       8.1343      2.00000
      8      10.1530      2.00000
      9      10.1530      2.00000
     10      26.6820      0.00000
     11      30.5071      0.00000
     12      31.5594      0.00000
     13      31.5594      0.00000
     14      37.5210      0.00000
     15      41.5813      0.00000
     16      42.5096      0.00000
     17      42.5096      0.00000
     18      46.1114      0.00000
     19      46.1114      0.00000
     20      47.3364      0.00000
     21      52.4826      0.00000
     22      52.8020      0.00000
     23      52.8020      0.00000
     24      60.2556      0.00000

 k-point     2 :       0.1875    0.0625    0.0625
  band No.  band energies     occupation 
      1     -40.8076      2.00000
      2     -40.7381      2.00000
      3     -40.7213      2.00000
      4       2.6397      2.00000
      5       7.6831      2.00000
      6       8.4012      2.00000
      7       8.4225      2.00000
      8       9.8412      2.00000
      9      10.2913      2.00000
     10      27.7320      0.00000
     11      28.2714      0.00000
     12      31.6640      0.00000
     13      33.2587      0.00000
     14      36.4879      0.00000
     15      39.5292      0.00000
     16      41.0011      0.00000
     17      41.6634      0.00000
     18      43.9437      0.00000
     19      47.6800      0.00000
     20      50.3134      0.00000
     21      51.7274      0.00000
     22      52.4840      0.00000
     23      54.3905      0.00000
     24      61.1078      0.00000

 k-point     3 :       0.3125    0.0625    0.0625
  band No.  band energies     occupation 
      1     -40.9670      2.00000
      2     -40.7661      2.00000
      3     -40.7435      2.00000
      4       4.0858      2.00000
      5       7.6863      2.00000
      6       8.4035      2.00000
      7       8.5012      2.00000
      8      10.1462      2.00000
      9      10.9467      2.00000
     10      24.3656      0.00000
     11      28.0894      0.00000
     12      32.3017      0.00000
     13      34.1601      0.00000
     14      35.9823      0.00000
     15      36.2657      0.00000
     16      37.9026      0.00000
     17      44.5683      0.00000
     18      46.6873      0.00000
     19      48.8202      0.00000
     20      50.0824      0.00000
     21      52.4897      0.00000
     22      53.5146      0.00000
     23      55.2557      0.00000
     24      60.8640      0.00000

 k-point     4 :       0.4375    0.0625    0.0625
  band No.  band energies     occupation 
      1     -41.1087      2.00000
      2     -40.7860      2.00000
      3     -40.7679      2.00000
      4       4.6950      2.00000
      5       8.0510      2.00000
      6       8.2027      2.00000
      7       9.4184      2.00000
      8      11.2148      2.00000
      9      12.0895      0.00000
     10      19.7598      0.00000
     11      26.6735      0.00000
     12      30.5115      0.00000
     13      32.1145      0.00000
     14      37.5887      0.00000
     15      39.1693      0.00000
     16      39.7709      0.00000
     17      45.4723      0.00000
     18      47.3708      0.00000
     19      49.3513      0.00000
     20      52.3725      0.00000
     21      52.4966      0.00000
     22      55.4082      0.00000
     23      56.0045      0.00000
     24      57.5288      0.00000

 k-point     5 :      -0.4375    0.0625    0.0625
  band No.  band energies     occupation 
      1     -41.1506      2.00000
      2     -40.7870      2.00000
      3     -40.7804      2.00000
      4       4.7118      2.00000
      5       7.9125      2.00000
      6       8.1222      2.00000
      7      10.3949      2.00000
      8      11.8336      0.01742
      9      12.7564      0.00000
     10      17.5840      0.00000
     11      26.2415      0.00000
     12      30.3764      0.00000
     13      30.4483      0.00000
     14      39.5124      0.00000
     15      39.8341      0.00000
     16      41.4009      0.00000
     17      45.8666      0.00000
     18      47.2665      0.00000
     19      47.4873      0.00000
     20      52.4969      0.00000
     21      53.7521      0.00000
     22      54.6351      0.00000
     23      56.8064      0.00000
     24      57.9294      0.00000

 k-point     6 :      -0.3125    0.0625    0.0625
  band No.  band energies     occupation 
      1     -41.0698      2.00000
      2     -40.7732      2.00000
      3     -40.7679      2.00000
      4       4.6139      2.00000
      5       8.1186      2.00000
      6       8.3383      2.00000
      7       8.6277      2.00000
      8      11.2183      2.00000
      9      11.4020      2.00000
     10      21.2627      0.00000
     11      27.1030      0.00000
     12      31.3863      0.00000
     13      32.5909      0.00000
     14      37.4988      0.00000
     15      37.5491      0.00000
     16      38.7696      0.00000
     17      44.5145      0.00000
     18      48.6987      0.00000
     19      49.4258      0.00000
     20      52.3799      0.00000
     21      52.4970      0.00000
     22      52.8090      0.00000
     23      56.3792      0.00000
     24      58.4019      0.00000

 k-point     7 :      -0.1875    0.0625    0.0625
  band No.  band energies     occupation 
      1     -40.9108      2.00000
      2     -40.7506      2.00000
      3     -40.7414      2.00000
      4       3.6164      2.00000
      5       7.5203      2.00000
      6       8.4798      2.00000
      7       8.5617      2.00000
      8       9.9988      2.00000
      9      10.5640      2.00000
     10      25.8070      0.00000
     11      28.3716      0.00000
     12      32.5699      0.00000
     13      33.8008      0.00000
     14      35.5028      0.00000
     15      36.9750      0.00000
     16      38.2674      0.00000
     17      43.9992      0.00000
     18      45.6230      0.00000
     19      48.6731      0.00000
     20      50.4754      0.00000
     21      51.6270      0.00000
     22      52.4929      0.00000
     23      55.7028      0.00000
     24      61.4210      0.00000

 k-point     8 :      -0.0625    0.0625    0.0625
  band No.  band energies     occupation 
      1     -40.7650      2.00000
      2     -40.7261      2.00000
      3     -40.7226      2.00000
      4       2.2582      2.00000
      5       7.7731      2.00000
      6       8.3204      2.00000
      7       8.3298      2.00000
      8       9.8795      2.00000
      9      10.2769      2.00000
     10      27.2799      0.00000
     11      29.5023      0.00000
     12      31.5779      0.00000
     13      31.9764      0.00000
     14      38.5284      0.00000
     15      40.0432      0.00000
     16      40.3934      0.00000
     17      42.3146      0.00000
     18      43.6716      0.00000
     19      48.5785      0.00000
     20      49.1659      0.00000
     21      51.0556      0.00000
     22      52.4882      0.00000
     23      54.1865      0.00000
     24      60.9645      0.00000

 k-point     9 :       0.1875    0.1875    0.0625
  band No.  band energies     occupation 
      1     -40.8238      2.00000
      2     -40.7492      2.00000
      3     -40.7454      2.00000
      4       3.0250      2.00000
      5       7.3402      2.00000
      6       8.6746      2.00000
      7       8.7121      2.00000
      8       9.4738      2.00000
      9      10.5108      2.00000
     10      28.3364      0.00000
     11      28.7171      0.00000
     12      31.1934      0.00000
     13      31.7610      0.00000
     14      37.1017      0.00000
     15      38.3218      0.00000
     16      39.5754      0.00000
     17      42.9845      0.00000
     18      43.5435      0.00000
     19      48.3489      0.00000
     20      50.8453      0.00000
     21      51.1351      0.00000
     22      52.4907      0.00000
     23      55.0833      0.00000
     24      62.5116      0.00000

 k-point    10 :       0.3125    0.1875    0.0625
  band No.  band energies     occupation 
      1     -40.9321      2.00000
      2     -40.7931      2.00000
      3     -40.7630      2.00000
      4       4.3022      2.00000
      5       6.9424      2.00000
      6       8.3800      2.00000
      7       9.1833      2.00000
      8       9.8479      2.00000
      9      11.1076      2.00000
     10      26.2533      0.00000
     11      28.7509      0.00000
     12      30.4582      0.00000
     13      31.4677      0.00000
     14      36.0907      0.00000
     15      37.3639      0.00000
     16      39.1219      0.00000
     17      42.8499      0.00000
     18      46.5882      0.00000
     19      48.2306      0.00000
     20      49.6291      0.00000
     21      52.4931      0.00000
     22      54.1891      0.00000
     23      56.5317      0.00000
     24      61.1691      0.00000

 k-point    11 :       0.4375    0.1875    0.0625
  band No.  band energies     occupation 
      1     -41.0588      2.00000
      2     -40.8279      2.00000
      3     -40.7892      2.00000
      4       5.2738      2.00000
      5       7.5066      2.00000
      6       7.8286      2.00000
      7       8.9772      2.00000
      8      11.2489      2.00000
      9      12.5303      0.00000
     10      21.4636      0.00000
     11      27.6826      0.00000
     12      28.6218      0.00000
     13      31.6894      0.00000
     14      36.8123      0.00000
     15      39.4036      0.00000
     16      40.4981      0.00000
     17      42.1963      0.00000
     18      48.0987      0.00000
     19      49.5065      0.00000
     20      51.8863      0.00000
     21      52.4899      0.00000
     22      54.1496      0.00000
     23      56.5649      0.00000
     24      58.9855      0.00000

 k-point    12 :      -0.4375    0.1875    0.0625
  band No.  band energies     occupation 
      1     -41.1207      2.00000
      2     -40.8496      2.00000
      3     -40.7996      2.00000
      4       5.3703      2.00000
      5       7.4097      2.00000
      6       8.7052      2.00000
      7       8.9389      2.00000
      8      11.7235      1.53938
      9      14.8914      0.00000
     10      17.4115      0.00000
     11      26.9025      0.00000
     12      28.1981      0.00000
     13      30.1496      0.00000
     14      38.5914      0.00000
     15      39.9230      0.00000
     16      42.9375      0.00000
     17      44.1609      0.00000
     18      47.1423      0.00000
     19      49.5586      0.00000
     20      51.1266      0.00000
     21      52.4947      0.00000
     22      53.1619      0.00000
     23      57.1223      0.00000
     24      59.1038      0.00000

 k-point    13 :      -0.3125    0.1875    0.0625
  band No.  band energies     occupation 
      1     -41.0851      2.00000
      2     -40.8512      2.00000
      3     -40.7827      2.00000
      4       5.4116      2.00000
      5       7.5946      2.00000
      6       8.2557      2.00000
      7       8.8197      2.00000
      8      11.0270      2.00000
      9      13.5093      0.00000
     10      20.0427      0.00000
     11      26.8476      0.00000
     12      28.3783      0.00000
     13      31.8858      0.00000
     14      36.4537      0.00000
     15      39.7753      0.00000
     16      42.3978      0.00000
     17      43.3951      0.00000
     18      48.1171      0.00000
     19      49.1882      0.00000
     20      50.3035      0.00000
     21      52.4939      0.00000
     22      55.1452      0.00000
     23      56.7417      0.00000
     24      58.4335      0.00000

 k-point    14 :      -0.1875    0.1875    0.0625
  band No.  band energies     occupation 
      1     -40.9765      2.00000
      2     -40.8202      2.00000
      3     -40.7545      2.00000
      4       4.8028      2.00000
      5       7.1347      2.00000
      6       8.1427      2.00000
      7       9.1159      2.00000
      8       9.7635      2.00000
      9      11.8166      0.05794
     10      24.6252      0.00000
     11      27.7354      0.00000
     12      30.0729      0.00000
     13      32.3187      0.00000
     14      36.0937      0.00000
     15      38.4611      0.00000
     16      40.3786      0.00000
     17      41.7210      0.00000
     18      46.6559      0.00000
     19      47.7080      0.00000
     20      51.0088      0.00000
     21      52.4915      0.00000
     22      55.5172      0.00000
     23      57.4106      0.00000
     24      58.8600      0.00000

 k-point    15 :      -0.0625    0.1875    0.0625
  band No.  band energies     occupation 
      1     -40.8666      2.00000
      2     -40.7617      2.00000
      3     -40.7353      2.00000
      4       3.3600      2.00000
      5       7.3741      2.00000
      6       8.5407      2.00000
      7       8.7123      2.00000
      8       9.6228      2.00000
      9      10.6157      2.00000
     10      27.2076      0.00000
     11      28.4845      0.00000
     12      31.3396      0.00000
     13      33.1033      0.00000
     14      35.5117      0.00000
     15      38.5449      0.00000
     16      39.8302      0.00000
     17      42.5892      0.00000
     18      44.1904      0.00000
     19      48.5321      0.00000
     20      49.3421      0.00000
     21      52.4863      0.00000
     22      53.0416      0.00000
     23      55.8559      0.00000
     24      61.2502      0.00000

 k-point    16 :       0.3125    0.3125    0.0625
  band No.  band energies     occupation 
      1     -40.9761      2.00000
      2     -40.8138      2.00000
      3     -40.8120      2.00000
      4       4.9006      2.00000
      5       6.3046      2.00000
      6       8.7190      2.00000
      7       9.9481      2.00000
      8      10.3740      2.00000
      9      11.1920      2.00000
     10      26.7567      0.00000
     11      27.9266      0.00000
     12      28.8905      0.00000
     13      31.3427      0.00000
     14      32.2365      0.00000
     15      39.2167      0.00000
     16      39.5594      0.00000
     17      44.1504      0.00000
     18      45.2158      0.00000
     19      49.3707      0.00000
     20      52.4809      0.00000
     21      53.1187      0.00000
     22      53.9281      0.00000
     23      54.7034      0.00000
     24      62.6751      0.00000

 k-point    17 :       0.4375    0.3125    0.0625
  band No.  band energies     occupation 
      1     -41.0510      2.00000
      2     -40.8628      2.00000
      3     -40.8338      2.00000
      4       5.4843      2.00000
      5       6.1044      2.00000
      6       8.6443      2.00000
      7      10.4482      2.00000
      8      11.3495      2.00000
      9      12.6258      0.00000
     10      23.2214      0.00000
     11      25.7377      0.00000
     12      26.8446      0.00000
     13      32.1728      0.00000
     14      34.0142      0.00000
     15      39.5015      0.00000
     16      41.7205      0.00000
     17      44.3817      0.00000
     18      45.9222      0.00000
     19      48.9500      0.00000
     20      52.4815      0.00000
     21      52.6265      0.00000
     22      55.8959      0.00000
     23      56.8402      0.00000
     24      59.3602      0.00000

 k-point    18 :      -0.4375    0.3125    0.0625
  band No.  band energies     occupation 
      1     -41.0767      2.00000
      2     -40.9249      2.00000
      3     -40.8394      2.00000
      4       5.7861      2.00000
      5       6.6397      2.00000
      6       8.3671      2.00000
      7      10.0036      2.00000
      8      11.8276      0.02731
      9      15.9314      0.00000
     10      18.6556      0.00000
     11      24.4742      0.00000
     12      26.3082      0.00000
     13      31.5020      0.00000
     14      37.6786      0.00000
     15      39.4311      0.00000
     16      41.4967      0.00000
     17      45.5288      0.00000
     18      47.7401      0.00000
     19      48.8388      0.00000
     20      52.1062      0.00000
     21      52.4981      0.00000
     22      54.2201      0.00000
     23      57.6388      0.00000
     24      58.6397      0.00000

 k-point    19 :      -0.3125    0.3125    0.0625
  band No.  band energies     occupation 
      1     -41.0453      2.00000
      2     -40.9676      2.00000
      3     -40.8168      2.00000
      4       6.2781      2.00000
      5       7.0641      2.00000
      6       7.8265      2.00000
      7       9.6668      2.00000
      8      11.1075      2.00000
      9      15.5903      0.00000
     10      20.1238      0.00000
     11      22.7500      0.00000
     12      28.1640      0.00000
     13      31.2499      0.00000
     14      36.8683      0.00000
     15      39.6659      0.00000
     16      42.0353      0.00000
     17      45.8154      0.00000
     18      48.4359      0.00000
     19      50.4899      0.00000
     20      51.1967      0.00000
     21      52.5010      0.00000
     22      52.8620      0.00000
     23      54.4927      0.00000
     24      59.0501      0.00000

 k-point    20 :      -0.1875    0.3125    0.0625
  band No.  band energies     occupation 
      1     -41.0427      2.00000
      2     -40.8940      2.00000
      3     -40.7827      2.00000
      4       5.9912      2.00000
      5       7.3066      2.00000
      6       7.5181      2.00000
      7       9.3396      2.00000
      8      10.3721      2.00000
      9      13.6259      0.00000
     10      21.9336      0.00000
     11      25.1369      0.00000
     12      28.9018      0.00000
     13      32.9035      0.00000
     14      34.6629      0.00000
     15      39.7008      0.00000
     16      42.6516      0.00000
     17      43.9075      0.00000
     18      46.2803      0.00000
     19      48.5388      0.00000
     20      52.0934      0.00000
     21      52.4939      0.00000
     22      55.7651      0.00000
     23      56.5019      0.00000
     24      57.5619      0.00000

 k-point    21 :      -0.0625    0.3125    0.0625
  band No.  band energies     occupation 
      1     -41.0194      2.00000
      2     -40.7928      2.00000
      3     -40.7597      2.00000
      4       4.6828      2.00000
      5       7.7075      2.00000
      6       8.1485      2.00000
      7       8.6340      2.00000
      8      10.5111      2.00000
      9      11.6328      1.99904
     10      22.9578      0.00000
     11      27.8524      0.00000
     12      30.4662      0.00000
     13      33.2698      0.00000
     14      35.9060      0.00000
     15      37.9389      0.00000
     16      39.3704      0.00000
     17      42.8582      0.00000
     18      48.2460      0.00000
     19      49.1666      0.00000
     20      50.9991      0.00000
     21      52.4943      0.00000
     22      53.2163      0.00000
     23      57.2491      0.00000
     24      58.7821      0.00000

 k-point    22 :       0.4375    0.4375    0.0625
  band No.  band energies     occupation 
      1     -41.0985      2.00000
      2     -40.8726      2.00000
      3     -40.8646      2.00000
      4       5.0793      2.00000
      5       5.5486      2.00000
      6      10.7234      2.00000
      7      11.3137      2.00000
      8      11.9080      0.00001
      9      12.7283      0.00000
     10      22.5774      0.00000
     11      24.2999      0.00000
     12      24.3970      0.00000
     13      31.5869      0.00000
     14      34.2007      0.00000
     15      40.5768      0.00000
     16      43.7935      0.00000
     17      44.4991      0.00000
     18      47.3783      0.00000
     19      48.3114      0.00000
     20      52.4883      0.00000
     21      54.6694      0.00000
     22      55.0812      0.00000
     23      55.5568      0.00000
     24      55.8343      0.00000

 k-point    23 :      -0.4375    0.4375    0.0625
  band No.  band energies     occupation 
      1     -41.1082      2.00000
      2     -40.9074      2.00000
      3     -40.8744      2.00000
      4       5.2192      2.00000
      5       5.6516      2.00000
      6      10.2358      2.00000
      7      11.2517      2.00000
      8      12.1468      0.00000
      9      15.5516      0.00000
     10      19.8644      0.00000
     11      22.7708      0.00000
     12      23.9361      0.00000
     13      32.9858      0.00000
     14      35.0231      0.00000
     15      39.5659      0.00000
     16      44.1172      0.00000
     17      47.0426      0.00000
     18      47.4901      0.00000
     19      49.3305      0.00000
     20      52.2023      0.00000
     21      52.4965      0.00000
     22      53.6305      0.00000
     23      54.5162      0.00000
     24      55.5440      0.00000

 k-point    24 :      -0.3125    0.4375    0.0625
  band No.  band energies     occupation 
      1     -41.0623      2.00000
      2     -40.9666      2.00000
      3     -40.8496      2.00000
      4       5.7479      2.00000
      5       6.4739      2.00000
      6       8.7478      2.00000
      7      10.3569      2.00000
      8      11.7554      0.86794
      9      17.5960      0.00000
     10      18.2038      0.00000
     11      22.2068      0.00000
     12      25.8920      0.00000
     13      32.1613      0.00000
     14      38.0415      0.00000
     15      38.7524      0.00000
     16      41.3326      0.00000
     17      46.9837      0.00000
     18      47.6500      0.00000
     19      50.4605      0.00000
     20      51.5061      0.00000
     21      52.5047      0.00000
     22      53.5936      0.00000
     23      56.6880      0.00000
     24      57.9324      0.00000

 k-point    25 :      -0.1875    0.4375    0.0625
  band No.  band energies     occupation 
      1     -41.0911      2.00000
      2     -40.9070      2.00000
      3     -40.8110      2.00000
      4       5.8827      2.00000
      5       7.1072      2.00000
      6       8.3675      2.00000
      7       9.2059      2.00000
      8      11.4710      2.00000
      9      15.8705      0.00000
     10      17.8135      0.00000
     11      25.2903      0.00000
     12      27.9859      0.00000
     13      30.5007      0.00000
     14      37.8168      0.00000
     15      39.8003      0.00000
     16      42.5033      0.00000
     17      45.8317      0.00000
     18      46.6857      0.00000
     19      50.1368      0.00000
     20      51.4999      0.00000
     21      52.2094      0.00000
     22      52.4951      0.00000
     23      56.7464      0.00000
     24      58.7911      0.00000

 k-point    26 :      -0.0625    0.4375    0.0625
  band No.  band energies     occupation 
      1     -41.1268      2.00000
      2     -40.8090      2.00000
      3     -40.7824      2.00000
      4       4.9523      2.00000
      5       7.7750      2.00000
      6       8.3545      2.00000
      7       9.3928      2.00000
      8      11.6102      1.99992
      9      13.1964      0.00000
     10      18.4437      0.00000
     11      26.7370      0.00000
     12      29.3955      0.00000
     13      30.9592      0.00000
     14      38.3907      0.00000
     15      39.8513      0.00000
     16      41.4860      0.00000
     17      44.5008      0.00000
     18      48.2485      0.00000
     19      48.5165      0.00000
     20      51.5098      0.00000
     21      52.4961      0.00000
     22      54.7826      0.00000
     23      57.0543      0.00000
     24      57.8240      0.00000

 k-point    27 :      -0.4375   -0.4375    0.0625
  band No.  band energies     occupation 
      1     -41.1259      2.00000
      2     -40.8863      2.00000
      3     -40.8765      2.00000
      4       4.9410      2.00000
      5       5.3836      2.00000
      6      11.5060      2.00000
      7      11.6406      1.99794
      8      12.1807      0.00000
      9      14.0865      0.00000
     10      20.5972      0.00000
     11      23.1205      0.00000
     12      23.4967      0.00000
     13      31.9840      0.00000
     14      34.7976      0.00000
     15      40.1315      0.00000
     16      45.3681      0.00000
     17      47.0026      0.00000
     18      47.2184      0.00000
[...]

 k-point    49 :      -0.3125   -0.4375    0.1875
  band No.  band energies     occupation 
      1     -41.0760      2.00000
      2     -40.9414      2.00000
      3     -40.8737      2.00000
      4       5.7102      2.00000
      5       6.1639      2.00000
      6       8.9266      2.00000
      7      10.5752      2.00000
      8      12.1324      0.00000
      9      17.1122      0.00000
     10      19.2693      0.00000
     11      22.1302      0.00000
     12      24.1273      0.00000
     13      34.1100      0.00000
     14      36.2015      0.00000
     15      38.4439      0.00000
     16      43.7593      0.00000
     17      45.9934      0.00000
     18      46.5880      0.00000
     19      49.1575      0.00000
     20      52.1234      0.00000
     21      52.4992      0.00000
     22      53.8077      0.00000
     23      56.7464      0.00000
     24      58.6008      0.00000

 k-point    50 :      -0.3125   -0.3125    0.1875
  band No.  band energies     occupation 
      1     -41.0839      2.00000
      2     -40.9077      2.00000
      3     -40.8486      2.00000
      4       5.4828      2.00000
      5       6.1496      2.00000
      6       9.0996      2.00000
      7      10.3968      2.00000
      8      12.0080      0.00000
      9      14.8440      0.00000
     10      19.9389      0.00000
     11      24.4412      0.00000
     12      25.7952      0.00000
     13      31.6537      0.00000
     14      36.2591      0.00000
     15      39.5053      0.00000
     16      42.1241      0.00000
     17      46.7364      0.00000
     18      46.7812      0.00000
     19      48.0395      0.00000
     20      52.4951      0.00000
     21      53.6830      0.00000
     22      54.2081      0.00000
     23      56.6228      0.00000
     24      57.2938      0.00000

 k-point    51 :       0.3125    0.3125    0.3125
  band No.  band energies     occupation 
      1     -41.0223      2.00000
      2     -40.7562      2.00000
      3     -40.7562      2.00000
      4       4.2938      2.00000
      5       8.2634      2.00000
      6       8.3194      2.00000
      7       8.3194      2.00000
      8      10.8101      2.00000
      9      10.8101      2.00000
     10      22.7742      0.00000
     11      27.4520      0.00000
     12      33.4974      0.00000
     13      33.4974      0.00000
     14      36.1217      0.00000
     15      36.8173      0.00000
     16      36.8173      0.00000
     17      46.9746      0.00000
     18      46.9746      0.00000
     19      48.2835      0.00000
     20      51.5924      0.00000
     21      52.4956      0.00000
     22      53.9787      0.00000
     23      53.9787      0.00000
     24      61.4831      0.00000

 k-point    52 :       0.4375    0.3125    0.3125
  band No.  band energies     occupation 
      1     -41.0605      2.00000
      2     -40.8190      2.00000
      3     -40.7628      2.00000
      4       5.0131      2.00000
      5       7.9102      2.00000
      6       8.2494      2.00000
      7       8.5571      2.00000
      8      10.5575      2.00000
      9      12.4896      0.00000
     10      21.4472      0.00000
     11      27.3360      0.00000
     12      29.3248      0.00000
     13      33.4578      0.00000
     14      35.2804      0.00000
     15      39.1810      0.00000
     16      40.8469      0.00000
     17      43.5609      0.00000
     18      47.1164      0.00000
     19      49.1928      0.00000
     20      52.0719      0.00000
     21      52.4979      0.00000
     22      54.7500      0.00000
     23      56.3781      0.00000
     24      57.7264      0.00000

 k-point    53 :      -0.4375    0.3125    0.3125
  band No.  band energies     occupation 
      1     -41.0500      2.00000
      2     -40.9330      2.00000
      3     -40.7931      2.00000
      4       6.1855      2.00000
      5       7.3152      2.00000
      6       7.7302      2.00000
      7       9.3342      2.00000
      8      10.6175      2.00000
      9      14.5329      0.00000
     10      20.9526      0.00000
     11      23.8113      0.00000
     12      29.4457      0.00000
     13      31.1169      0.00000
     14      35.9295      0.00000
     15      39.1220      0.00000
     16      43.0909      0.00000
     17      46.0761      0.00000
     18      47.8657      0.00000
     19      48.5084      0.00000
     20      50.8042      0.00000
     21      52.5020      0.00000
     22      53.5986      0.00000
     23      56.0528      0.00000
     24      58.5329      0.00000

 k-point    54 :      -0.3125    0.3125    0.3125
  band No.  band energies     occupation 
      1     -41.0450      2.00000
      2     -40.9843      2.00000
      3     -40.8287      2.00000
      4       5.9320      2.00000
      5       6.8867      2.00000
      6       8.3462      2.00000
      7       9.9759      2.00000
      8      11.3594      2.00000
      9      16.4886      0.00000
     10      19.1757      0.00000
     11      22.2633      0.00000
     12      27.8747      0.00000
     13      30.7118      0.00000
     14      38.8276      0.00000
     15      38.9872      0.00000
     16      40.2212      0.00000
     17      48.0940      0.00000
     18      48.6058      0.00000
     19      49.7228      0.00000
     20      51.7732      0.00000
     21      52.5005      0.00000
     22      52.6607      0.00000
     23      55.0487      0.00000
     24      58.4371      0.00000

 k-point    55 :       0.4375    0.4375    0.3125
  band No.  band energies     occupation 
      1     -41.0993      2.00000
      2     -40.8031      2.00000
      3     -40.7915      2.00000
      4       5.0273      2.00000
      5       7.7566      2.00000
      6       8.5607      2.00000
      7       8.5638      2.00000
      8      11.7976      0.17433
      9      12.5270      0.00000
     10      19.7722      0.00000
     11      27.1465      0.00000
     12      29.7628      0.00000
     13      30.8160      0.00000
     14      38.3028      0.00000
     15      39.6496      0.00000
     16      40.4027      0.00000
     17      42.5986      0.00000
     18      49.3871      0.00000
     19      49.4520      0.00000
     20      51.2112      0.00000
     21      52.4942      0.00000
     22      55.1363      0.00000
     23      55.9910      0.00000
     24      57.5852      0.00000

 k-point    56 :      -0.4375    0.4375    0.3125
  band No.  band energies     occupation 
      1     -41.0885      2.00000
      2     -40.8896      2.00000
      3     -40.8105      2.00000
      4       5.8525      2.00000
      5       7.1436      2.00000
      6       8.1099      2.00000
      7       9.2518      2.00000
      8      11.4777      2.00000
      9      14.9556      0.00000
     10      18.7619      0.00000
     11      26.1079      0.00000
     12      27.2436      0.00000
     13      31.2208      0.00000
     14      37.1825      0.00000
     15      40.4414      0.00000
     16      42.7225      0.00000
     17      43.5288      0.00000
     18      47.7413      0.00000
     19      49.6594      0.00000
     20      50.3491      0.00000
     21      52.4959      0.00000
     22      54.1848      0.00000
     23      57.6857      0.00000
     24      58.2000      0.00000

 k-point    57 :      -0.3125    0.4375    0.3125
  band No.  band energies     occupation 
      1     -41.0352      2.00000
      2     -40.9872      2.00000
      3     -40.8479      2.00000
      4       6.2934      2.00000
      5       6.8514      2.00000
      6       7.8297      2.00000
      7       9.9084      2.00000
      8      11.6836      1.93808
      9      17.0168      0.00000
     10      19.3047      0.00000
     11      22.0821      0.00000
     12      25.8049      0.00000
     13      32.9639      0.00000
     14      36.8930      0.00000
     15      40.6796      0.00000
     16      41.6721      0.00000
     17      44.2435      0.00000
     18      46.8486      0.00000
     19      51.1044      0.00000
     20      52.4991      0.00000
     21      53.0629      0.00000
     22      53.6211      0.00000
     23      55.2842      0.00000
     24      58.5920      0.00000

 k-point    58 :      -0.4375   -0.4375    0.3125
  band No.  band energies     occupation 
      1     -41.0855      2.00000
      2     -40.9201      2.00000
      3     -40.8216      2.00000
      4       5.8054      2.00000
      5       6.9941      2.00000
      6       8.3521      2.00000
      7       9.4886      2.00000
      8      11.6990      1.84750
      9      16.6622      0.00000
     10      17.2349      0.00000
     11      24.7935      0.00000
     12      28.1000      0.00000
     13      30.0017      0.00000
     14      39.0219      0.00000
     15      39.2893      0.00000
     16      40.9143      0.00000
     17      45.9297      0.00000
     18      48.1132      0.00000
     19      49.4523      0.00000
     20      51.2944      0.00000
     21      52.4967      0.00000
     22      53.7031      0.00000
     23      56.3687      0.00000
     24      59.9929      0.00000

 k-point    59 :       0.4375    0.4375    0.4375
  band No.  band energies     occupation 
      1     -41.1420      2.00000
      2     -40.7738      2.00000
      3     -40.7738      2.00000
      4       4.5854      2.00000
      5       8.0537      2.00000
      6       8.0537      2.00000
      7      10.6704      2.00000
      8      11.6813      1.94650
      9      11.6813      1.94650
     10      18.4382      0.00000
     11      26.1785      0.00000
     12      31.0223      0.00000
     13      31.0223      0.00000
     14      39.3470      0.00000
     15      39.3470      0.00000
     16      40.0926      0.00000
     17      46.8738      0.00000
     18      46.8738      0.00000
     19      47.6783      0.00000
     20      52.4936      0.00000
     21      55.1254      0.00000
     22      55.1254      0.00000
     23      56.4285      0.00000
     24      57.5364      0.00000

 k-point    60 :      -0.4375    0.4375    0.4375
  band No.  band energies     occupation 
      1     -41.1342      2.00000
      2     -40.8237      2.00000
      3     -40.7862      2.00000
      4       5.0664      2.00000
      5       7.6613      2.00000
      6       8.4001      2.00000
      7       9.5148      2.00000
      8      11.6302      1.99927
      9      14.0704      0.00000
     10      17.5364      0.00000
     11      26.6931      0.00000
     12      29.0268      0.00000
     13      30.4273      0.00000
     14      38.9370      0.00000
     15      39.5237      0.00000
     16      42.4169      0.00000
     17      46.1465      0.00000
     18      47.2736      0.00000
     19      47.4054      0.00000
     20      52.2757      0.00000
     21      52.5018      0.00000
     22      52.9807      0.00000
     23      57.6837      0.00000
     24      58.2606      0.00000


--------------------------------------------------------------------------------------------------------


 soft charge-density along one line, spin component           1
         0         1         2         3         4         5         6         7         8         9
 total charge-density along one line
 
 pseudopotential strength for first ion, spin component:           1
-31.479  -0.000  -0.000  10.534   0.000   0.000  -0.000  -0.000
 -0.000 -31.479  -0.000   0.000  10.534   0.000  -0.000  -0.000
 -0.000  -0.000 -31.479   0.000   0.000  10.534  -0.000  -0.000
 10.534   0.000   0.000  16.328  -0.000  -0.000   0.000   0.000
  0.000  10.534   0.000  -0.000  16.328  -0.000   0.000   0.000
  0.000   0.000  10.534  -0.000  -0.000  16.328   0.000   0.000
 -0.000  -0.000  -0.000   0.000   0.000   0.000  -3.583   0.000
 -0.000  -0.000  -0.000   0.000   0.000   0.000   0.000  -3.583
  0.000  -0.000  -0.000  -0.000   0.000  -0.000   0.000  -0.000
 -0.000  -0.000  -0.000   0.000   0.000   0.000   0.000   0.000
  0.000   0.000  -0.000  -0.000  -0.000  -0.000   0.000   0.000
 -0.000   0.000  -0.000   0.000  -0.000   0.000  -3.797   0.000
 -0.000  -0.000  -0.000   0.000   0.000   0.000   0.000  -3.797
  0.000  -0.000  -0.000  -0.000   0.000   0.000   0.000  -0.000
 -0.000   0.000  -0.000   0.000   0.000   0.000   0.000   0.000
  0.000   0.000  -0.000  -0.000  -0.000  -0.000   0.000   0.000
  0.000   0.000  -0.000   0.000   0.000   0.000   0.000   0.000
 -0.000  -0.000   0.000  -0.000  -0.000  -0.000  -0.000  -0.000
 total augmentation occupancy for first ion, spin component:           1
  2.002  -0.000   0.000  -0.021   0.000   0.000   0.000   0.000   0.000   0.000   0.000   0.000   0.000   0.000   0.000   0.000
 -0.000   2.002  -0.000   0.000  -0.021  -0.000   0.000   0.000   0.000   0.000   0.000   0.000   0.000   0.000   0.000   0.000
  0.000   0.000   2.002   0.000   0.000  -0.021   0.000   0.000   0.000   0.000   0.000   0.000   0.000   0.000   0.000   0.000
 -0.021   0.000  -0.000   0.050   0.000   0.000   0.000   0.000   0.000   0.000   0.000   0.000   0.000   0.000   0.000   0.000
  0.000  -0.021  -0.000   0.000   0.050  -0.000   0.000   0.000   0.000   0.000   0.000   0.000   0.000   0.000   0.000   0.000
  0.000  -0.000  -0.021  -0.000   0.000   0.050   0.000   0.000   0.000   0.000   0.000   0.000   0.000   0.000   0.000   0.000
  0.000   0.000   0.000   0.000   0.000   0.000   5.386  -0.000  -0.000   0.000  -0.000  -3.062   0.000   0.000  -0.000   0.000
  0.000   0.000   0.000   0.000   0.000   0.000  -0.000   5.386  -0.000  -0.000   0.000   0.000  -3.062   0.000   0.000  -0.000
  0.000   0.000   0.000   0.000   0.000   0.000  -0.000  -0.000   4.421  -0.000   0.000   0.000   0.000  -2.412  -0.000  -0.000
  0.000   0.000   0.000   0.000   0.000   0.000  -0.000  -0.000   0.000   5.386   0.000  -0.000   0.000   0.000  -3.062  -0.000
  0.000   0.000   0.000   0.000   0.000   0.000  -0.000   0.000  -0.000  -0.000   4.421   0.000   0.000   0.000  -0.000  -2.412
  0.000   0.000   0.000   0.000   0.000   0.000  -3.062   0.000   0.000   0.000  -0.000   2.480  -0.000   0.000   0.000   0.000
  0.000   0.000   0.000   0.000   0.000   0.000   0.000  -3.062   0.000   0.000   0.000  -0.000   2.480  -0.000  -0.000   0.000
  0.000   0.000   0.000   0.000   0.000   0.000   0.000   0.000  -2.412   0.000   0.000  -0.000   0.000   2.245  -0.000   0.000
  0.000   0.000   0.000   0.000   0.000   0.000  -0.000   0.000  -0.000  -3.062  -0.000   0.000  -0.000   0.000   2.480  -0.000
  0.000   0.000   0.000   0.000   0.000   0.000   0.000   0.000  -0.000   0.000  -2.412  -0.000   0.000   0.000  -0.000   2.245
  0.000   0.000   0.000   0.000   0.000   0.000  -0.000  -0.000   0.000  -0.000   0.000  -0.000   0.000  -0.000  -0.000   0.000
  0.000   0.000   0.000   0.000   0.000   0.000   0.000  -0.000  -0.000  -0.000  -0.000  -0.000   0.000  -0.000   0.000   0.000


------------------------ aborting loop because EDIFF is reached ----------------------------------------


    CHARGE:  cpu time      0.0123: real time      0.0123
    FORLOC:  cpu time      0.0001: real time      0.0001
    FORNL :  cpu time      0.0040: real time      0.0040
    STRESS:  cpu time      0.0637: real time      0.0639
    FORCOR:  cpu time      0.0019: real time      0.0019
    FORHAR:  cpu time      0.0004: real time      0.0004
    MIXING:  cpu time      0.0002: real time      0.0002
    OFIELD:  cpu time      0.0000: real time      0.0000

  FORCE on cell =-STRESS in cart. coord.  units (eV):
  Direction    XX          YY          ZZ          XY          YZ          ZX
  --------------------------------------------------------------------------------------
  Alpha Z   156.91311   156.91311   156.91311
  Ewald    -714.94866  -714.94866  -714.94866    -0.00000     0.00000     0.00000
  Hartree   126.11634   126.11634   126.11634     0.00000     0.00000     0.00000
  E(xc)     -85.52142   -85.52142   -85.52142     0.00000     0.00000     0.00000
  Local     125.02622   125.02622   125.02622     0.00000     0.00000     0.00000
  n-local   -29.75830   -27.06826   -32.65067     3.25756    -3.72783    -0.37199
  augment    73.33374    73.33374    73.33374     0.00000     0.00000     0.00000
  Kinetic   348.66091   353.00833   346.06860     4.38424    -5.03000    -0.21488
  Fock        0.00000     0.00000     0.00000     0.00000     0.00000     0.00000
  -------------------------------------------------------------------------------------
  Total       0.33954     0.33954     0.33954     0.00000     0.00000     0.00000
  in kB      35.57689    35.57689    35.57689     0.00000     0.00000     0.00000
  external pressure =       35.58 kB  Pullay stress =        0.00 kB


 VOLUME and BASIS-vectors are now :
 -----------------------------------------------------------------------------
  energy-cutoff  :      425.00
  volume of cell :       15.29
      direct lattice vectors                 reciprocal lattice vectors
     0.000000000  1.970000000  1.970000000    -0.253807107  0.253807107  0.253807107
     1.970000000  0.000000000  1.970000000     0.253807107 -0.253807107  0.253807107
     1.970000000  1.970000000  0.000000000     0.253807107  0.253807107 -0.253807107

  length of vectors
     2.786000718  2.786000718  2.786000718     0.439606804  0.439606804  0.439606804


 FORCES acting on ions
    electron-ion (+dipol)            ewald-force                    non-local-force                 convergence-correction
 -----------------------------------------------------------------------------------------------
   -.637E-14 -.811E-14 -.770E-15   -.456E-14 -.897E-14 -.116E-13   0.155E-24 0.000E+00 0.000E+00   -.408E-13 -.755E-13 -.385E-13
 -----------------------------------------------------------------------------------------------
   -.637E-14 -.811E-14 -.770E-15   -.456E-14 -.897E-14 -.116E-13   0.155E-24 0.000E+00 0.000E+00   -.408E-13 -.755E-13 -.385E-13
 
 
 POSITION                                       TOTAL-FORCE (eV/Angst)
 -----------------------------------------------------------------------------------
      0.00000      0.00000      0.00000         0.000000     -0.000000      0.000000
 -----------------------------------------------------------------------------------
    total drift:                               -0.000000     -0.000000     -0.000000


--------------------------------------------------------------------------------------------------------



  FREE ENERGIE OF THE ION-ELECTRON SYSTEM (eV)
  ---------------------------------------------------
  free  energy   TOTEN  =        -6.07038878 eV

  energy  without entropy=       -6.06686095  energy(sigma->0) =       -6.06862487
 


--------------------------------------------------------------------------------------------------------


    POTLOK:  cpu time      0.0045: real time      0.0045


--------------------------------------------------------------------------------------------------------


     LOOP+:  cpu time      3.9977: real time      4.0240
    4ORBIT:  cpu time      0.0000: real time      0.0000

 total amount of memory used by VASP MPI-rank0    33900. kBytes
=======================================================================

   base      :      30000. kBytes
   nonl-proj :       2908. kBytes
   fftplans  :        147. kBytes
   grid      :        485. kBytes
   one-center:         15. kBytes
   wavefun   :        345. kBytes
 
  
  
 General timing and accounting informations for this job:
 ========================================================
  
                  Total CPU time used (sec):        4.799
                            User time (sec):        4.334
                          System time (sec):        0.466
                         Elapsed time (sec):        6.137
  
                   Maximum memory used (kb):      219024.
                   Average memory used (kb):          N/A
  
                          Minor page faults:        21175
                          Major page faults:           69
                 Voluntary context switches:         2148
