<?xml version="1.0" encoding="ISO-8859-1"?>
<modeling>
 <generator>
  <i name="program" type="string">vasp </i>
  <i name="version" type="string">6.3.2  </i>
  <i name="subversion" type="string">27Jun22 (build Aug 12 2022 00:53:59) complex                          parallel </i>
  <i name="platform" type="string">tv2STD </i>
  <i name="date" type="string">2024 11 30 </i>
  <i name="time" type="string">15:55:58 </i>
 </generator>
 <incar>
  <i type="string" name="SYSTEM">Pt-fcc</i>
  <i type="int" name="ISTART">     0</i>
  <i type="string" name="PREC">accurate      normal | accurate</i>
  <i type="string" name="ALGO">Normal     Normal, Fast, Very_Fast</i>
  <i type="logical" name="ADDGRID"> F  </i>
  <i type="int" name="ICHARG">     2</i>
  <i type="int" name="INIWAV">     1</i>
  <i type="int" name="NELM">   100</i>
  <i type="int" name="IBRION">    -1</i>
  <i name="EDIFF">      0.00000100</i>
  <i name="EDIFFG">     -0.02000000</i>
  <i type="int" name="NSW">     0</i>
  <i type="int" name="ISIF">     2</i>
  <i type="int" name="ISYM">     1</i>
  <i name="ENCUT">    425.00000000</i>
  <i type="logical" name="LREAL"> F  </i>
  <i type="int" name="ISMEAR">     0</i>
  <i name="SIGMA">      0.05000000</i>
  <i type="int" name="NWRITE">     2</i>
  <i type="logical" name="LWAVE"> F  </i>
  <i type="logical" name="LCHARG"> F  </i>
 </incar>
 <primitive_cell>
  <structure name="primitive_cell" >
   <crystal>
    <varray name="basis" >
     <v>       0.00000000       1.97000000       1.97000000 </v>
     <v>       1.97000000       0.00000000       1.97000000 </v>
     <v>       1.97000000       1.97000000       0.00000000 </v>
    </varray>
    <i name="volume">     15.29074600 </i>
    <varray name="rec_basis" >
     <v>      -0.25380711       0.25380711       0.25380711 </v>
     <v>       0.25380711      -0.25380711       0.25380711 </v>
     <v>       0.25380711       0.25380711      -0.25380711 </v>
    </varray>
   </crystal>
   <varray name="positions" >
    <v>       0.00000000       0.00000000       0.00000000 </v>
   </varray>
  </structure>
  <varray name="primitive_index" >
   <v type="int" >        1 </v>
  </varray>
 </primitive_cell>
 <kpoints>
  <generation param="Monkhorst-Pack">
   <v type="int" name="divisions">       8        8        8 </v>
   <v name="usershift">      0.00000000       0.00000000       0.00000000 </v>
   <v name="genvec1">      0.12500000       0.00000000       0.00000000 </v>
   <v name="genvec2">      0.00000000       0.12500000       0.00000000 </v>
   <v name="genvec3">      0.00000000       0.00000000       0.12500000 </v>
   <v name="shift">      0.50000000       0.50000000       0.50000000 </v>
  </generation>
  <varray name="kpointlist" >
   <v>       0.06250000       0.06250000       0.06250000 </v>
   <v>       0.18750000       0.06250000       0.06250000 </v>
   <v>       0.31250000       0.06250000       0.06250000 </v>
   <v>       0.43750000       0.06250000       0.06250000 </v>
   <v>      -0.43750000       0.06250000       0.06250000 </v>
   <v>      -0.31250000       0.06250000       0.06250000 </v>
   <v>      -0.18750000       0.06250000       0.06250000 </v>
   <v>      -0.06250000       0.06250000       0.06250000 </v>
   <v>       0.18750000       0.18750000       0.06250000 </v>
   <v>       0.31250000       0.18750000       0.06250000 </v>
   <v>       0.43750000       0.18750000       0.06250000 </v>
   <v>      -0.43750000       0.18750000       0.06250000 </v>
   <v>      -0.31250000       0.18750000       0.06250000 </v>
   <v>      -0.18750000       0.18750000       0.06250000 </v>
   <v>      -0.06250000       0.18750000       0.06250000 </v>
   <v>       0.31250000       0.31250000       0.06250000 </v>
   <v>       0.43750000       0.31250000       0.06250000 </v>
   <v>      -0.43750000       0.31250000       0.06250000 </v>
   <v>      -0.31250000       0.31250000       0.06250000 </v>
   <v>      -0.18750000       0.31250000       0.06250000 </v>
   <v>      -0.06250000       0.31250000       0.06250000 </v>
   <v>       0.43750000       0.43750000       0.06250000 </v>
   <v>      -0.43750000       0.43750000       0.06250000 </v>
   <v>      -0.31250000       0.43750000       0.06250000 </v>
   <v>      -0.18750000       0.43750000       0.06250000 </v>
   <v>      -0.06250000       0.43750000       0.06250000 </v>
   <v>      -0.43750000      -0.43750000       0.06250000 </v>
   <v>      -0.31250000      -0.43750000       0.06250000 </v>
   <v>      -0.18750000      -0.43750000       0.06250000 </v>
   <v>      -0.31250000      -0.31250000       0.06250000 </v>
   <v>      -0.18750000      -0.31250000       0.06250000 </v>
   <v>      -0.18750000      -0.18750000       0.06250000 </v>
   <v>       0.18750000       0.18750000       0.18750000 </v>
   <v>       0.31250000       0.18750000       0.18750000 </v>
   <v>       0.43750000       0.18750000       0.18750000 </v>
   <v>      -0.43750000       0.18750000       0.18750000 </v>
   <v>      -0.31250000       0.18750000       0.18750000 </v>
   <v>      -0.18750000       0.18750000       0.18750000 </v>
   <v>       0.31250000       0.31250000       0.18750000 </v>
   <v>       0.43750000       0.31250000       0.18750000 </v>
   <v>      -0.43750000       0.31250000       0.18750000 </v>
   <v>      -0.31250000       0.31250000       0.18750000 </v>
   <v>      -0.18750000       0.31250000       0.18750000 </v>
   <v>       0.43750000       0.43750000       0.18750000 </v>
   <v>      -0.43750000       0.43750000       0.18750000 </v>
   <v>      -0.31250000       0.43750000       0.18750000 </v>
   <v>      -0.18750000       0.43750000       0.18750000 </v>
   <v>      -0.43750000      -0.43750000       0.18750000 </v>
   <v>      -0.31250000      -0.43750000       0.18750000 </v>
   <v>      -0.31250000      -0.31250000       0.18750000 </v>
   <v>       0.31250000       0.31250000       0.31250000 </v>
   <v>       0.43750000       0.31250000       0.31250000 </v>
   <v>      -0.43750000       0.31250000       0.31250000 </v>
   <v>      -0.31250000       0.31250000       0.31250000 </v>
   <v>       0.43750000       0.43750000       0.31250000 </v>
   <v>      -0.43750000       0.43750000       0.31250000 </v>
   <v>      -0.31250000       0.43750000       0.31250000 </v>
   <v>      -0.43750000      -0.43750000       0.31250000 </v>
   <v>       0.43750000       0.43750000       0.43750000 </v>
   <v>      -0.43750000       0.43750000       0.43750000 </v>
  </varray>
  <varray name="weights" >
   <v>       0.00390625 </v>
   <v>       0.01171875 </v>
   <v>       0.01171875 </v>
   <v>       0.01171875 </v>
   <v>       0.01171875 </v>
   <v>       0.01171875 </v>
   <v>       0.01171875 </v>
   <v>       0.01171875 </v>
   <v>       0.01171875 </v>
   <v>       0.02343750 </v>
   <v>       0.02343750 </v>
   <v>       0.02343750 </v>
   <v>       0.02343750 </v>
   <v>       0.02343750 </v>
   <v>       0.02343750 </v>
   <v>       0.01171875 </v>
   <v>       0.02343750 </v>
   <v>       0.02343750 </v>
   <v>       0.02343750 </v>
   <v>       0.02343750 </v>
   <v>       0.02343750 </v>
   <v>       0.01171875 </v>
   <v>       0.02343750 </v>
   <v>       0.02343750 </v>
   <v>       0.02343750 </v>
   <v>       0.02343750 </v>
   <v>       0.01171875 </v>
   <v>       0.02343750 </v>
   <v>       0.02343750 </v>
   <v>       0.01171875 </v>
   <v>       0.02343750 </v>
   <v>       0.01171875 </v>
   <v>       0.00390625 </v>
   <v>       0.01171875 </v>
   <v>       0.01171875 </v>
   <v>       0.01171875 </v>
   <v>       0.01171875 </v>
   <v>       0.01171875 </v>
   <v>       0.01171875 </v>
   <v>       0.02343750 </v>
   <v>       0.02343750 </v>
   <v>       0.02343750 </v>
   <v>       0.02343750 </v>
   <v>       0.01171875 </v>
   <v>       0.02343750 </v>
   <v>       0.02343750 </v>
   <v>       0.02343750 </v>
   <v>       0.01171875 </v>
   <v>       0.02343750 </v>
   <v>       0.01171875 </v>
   <v>       0.00390625 </v>
   <v>       0.01171875 </v>
   <v>       0.01171875 </v>
   <v>       0.01171875 </v>
   <v>       0.01171875 </v>
   <v>       0.02343750 </v>
   <v>       0.02343750 </v>
   <v>       0.01171875 </v>
   <v>       0.00390625 </v>
   <v>       0.01171875 </v>
  </varray>
 </kpoints>
 <parameters>
  <separator name="general" >
   <i type="string" name="SYSTEM">Pt-fcc</i>
   <i type="logical" name="LCOMPAT"> F  </i>
  </separator>
  <separator name="electronic" >
   <i type="string" name="PREC">accura</i>
   <i name="ENMAX">    425.00000000</i>
   <i name="ENAUG">    527.01400000</i>
   <i name="EDIFF">      0.00000100</i>
   <i type="int" name="IALGO">    38</i>
   <i type="int" name="IWAVPR">    10</i>
   <i type="int" name="NBANDS">    24</i>
   <i type="int" name="NBANDSLOW">    -1</i>
   <i type="int" name="NBANDSHIGH">    -1</i>
   <i name="NELECT">     16.00000000</i>
   <i type="int" name="TURBO">     0</i>
   <i type="int" name="IRESTART">     0</i>
   <i type="int" name="NREBOOT">     0</i>
   <i type="int" name="NMIN">     0</i>
   <i name="EREF">      0.00000000</i>
   <separator name="electronic smearing" >
    <i type="int" name="ISMEAR">     0</i>
    <i name="SIGMA">      0.05000000</i>
    <i name="KSPACING">      0.50000000</i>
    <i type="logical" name="KGAMMA"> T  </i>
    <i type="logical" name="KBLOWUP"> T  </i>
   </separator>
   <separator name="electronic projectors" >
    <i type="logical" name="LREAL"> F  </i>
    <v name="ROPT">      0.00000000</v>
    <i type="int" name="LMAXPAW">  -100</i>
    <i type="int" name="LMAXMIX">     2</i>
    <i type="logical" name="NLSPLINE"> F  </i>
   </separator>
   <separator name="electronic startup" >
    <i type="int" name="ISTART">     0</i>
    <i type="int" name="ICHARG">     2</i>
    <i type="int" name="INIWAV">     1</i>
   </separator>
   <separator name="electronic spin" >
    <i type="int" name="ISPIN">     1</i>
    <i type="logical" name="LNONCOLLINEAR"> F  </i>
    <v name="MAGMOM">      1.00000000</v>
    <i name="NUPDOWN">     -1.00000000</i>
    <i type="logical" name="LSORBIT"> F  </i>
    <v name="SAXIS">      0.00000000      0.00000000      1.00000000</v>
    <i type="logical" name="LSPIRAL"> F  </i>
    <v name="QSPIRAL">      0.00000000      0.00000000      0.00000000</v>
    <i type="logical" name="LZEROZ"> F  </i>
   </separator>
   <separator name="electronic exchange-correlation" >
    <i type="logical" name="LASPH"> F  </i>
    <i type="logical" name="LMETAGGA"> F  </i>
   </separator>
   <separator name="electronic convergence" >
    <i type="int" name="NELM">   100</i>
    <i type="int" name="NELMDL">    -5</i>
    <i type="int" name="NELMIN">     2</i>
    <i name="ENINI">    425.00000000</i>
    <separator name="electronic convergence detail" >
     <i type="logical" name="LDIAG"> T  </i>
     <i type="logical" name="LSUBROT"> F  </i>
     <i name="WEIMIN">      0.00000000</i>
     <i name="EBREAK">      0.00000001</i>
     <i name="DEPER">      0.30000000</i>
     <i type="int" name="NRMM">     4</i>
     <i name="TIME">      0.40000000</i>
    </separator>
   </separator>
   <separator name="electronic mixer" >
    <i name="AMIX">      0.40000000</i>
    <i name="BMIX">      1.00000000</i>
    <i name="AMIN">      0.10000000</i>
    <i name="AMIX_MAG">      1.60000000</i>
    <i name="BMIX_MAG">      1.00000000</i>
    <separator name="electronic mixer details" >
     <i type="int" name="IMIX">     4</i>
     <i type="logical" name="MIXFIRST"> F  </i>
     <i type="int" name="MAXMIX">   -45</i>
     <i name="WC">    100.00000000</i>
     <i type="int" name="INIMIX">     1</i>
     <i type="int" name="MIXPRE">     1</i>
     <i type="int" name="MREMOVE">     5</i>
    </separator>
   </separator>
   <separator name="electronic dipolcorrection" >
    <i type="logical" name="LDIPOL"> F  </i>
    <i type="logical" name="LMONO"> F  </i>
    <i type="int" name="IDIPOL">     0</i>
    <i name="EPSILON">      1.00000000</i>
    <v name="DIPOL">   -100.00000000   -100.00000000   -100.00000000</v>
    <i name="EFIELD">      0.00000000</i>
   </separator>
  </separator>
  <separator name="grids" >
   <i type="int" name="NGX">    20</i>
   <i type="int" name="NGY">    20</i>
   <i type="int" name="NGZ">    20</i>
   <i type="int" name="NGXF">    40</i>
   <i type="int" name="NGYF">    40</i>
   <i type="int" name="NGZF">    40</i>
   <i type="logical" name="ADDGRID"> F  </i>
  </separator>
  <separator name="ionic" >
   <i type="int" name="NSW">     0</i>
   <i type="int" name="IBRION">    -1</i>
   <i type="int" name="MDALGO">     0</i>
   <i type="int" name="ISIF">     2</i>
   <i name="PSTRESS">      0.00000000</i>
   <i name="EDIFFG">     -0.02000000</i>
   <i type="int" name="NFREE">     0</i>
   <i name="POTIM">      0.50000000</i>
   <i name="SMASS">     -3.00000000</i>
   <i name="SCALEE">      1.00000000</i>
  </separator>
  <separator name="ionic md" >
   <i name="TEBEG">      0.00010000</i>
   <i name="TEEND">      0.00010000</i>
   <i type="int" name="NBLOCK">     1</i>
   <i type="int" name="KBLOCK">     1</i>
   <i type="int" name="NPACO">   256</i>
   <i name="APACO">     10.00000000</i>
  </separator>
  <separator name="symmetry" >
   <i type="int" name="ISYM">     1</i>
   <i name="SYMPREC">      0.00001000</i>
  </separator>
  <separator name="dos" >
   <i type="int" name="LORBIT">     0</i>
   <v name="RWIGS">     -1.00000000</v>
   <i type="int" name="NEDOS">   301</i>
   <i name="EMIN">     10.00000000</i>
   <i name="EMAX">    -10.00000000</i>
   <i name="EFERMI">      0.00000000</i>
  </separator>
  <separator name="writing" >
   <i type="int" name="NWRITE">     2</i>
   <i type="logical" name="LWAVE"> F  </i>
   <i type="logical" name="LDOWNSAMPLE"> F  </i>
   <i type="logical" name="LCHARG"> F  </i>
   <i type="logical" name="LPARD"> F  </i>
   <i type="logical" name="LVTOT"> F  </i>
   <i type="logical" name="LVHAR"> F  </i>
   <i type="logical" name="LELF"> F  </i>
   <i type="logical" name="LOPTICS"> F  </i>
   <v name="STM">      0.00000000      0.00000000      0.00000000      0.00000000      0.00000000      0.00000000      0.00000000</v>
  </separator>
  <separator name="performance" >
   <i type="int" name="NPAR">    24</i>
   <i type="int" name="NSIM">     4</i>
   <i type="int" name="NBLK">    -1</i>
   <i type="logical" name="LPLANE"> T  </i>
   <i type="logical" name="LSCALAPACK"> T  </i>
   <i type="logical" name="LSCAAWARE"> T  </i>
   <i type="logical" name="LSCALU"> F  </i>
   <i type="logical" name="LASYNC"> F  </i>
   <i type="logical" name="LORBITALREAL"> F  </i>
  </separator>
  <separator name="miscellaneous" >
   <i type="int" name="IDIOT">     3</i>
   <i type="int" name="PHON_NSTRUCT">    -1</i>
   <i type="logical" name="LMUSIC"> F  </i>
   <v name="POMASS">    195.08000000</v>
   <v name="DARWINR">      0.00000000</v>
   <v name="DARWINV">      1.00000000</v>
   <i type="logical" name="LCORR"> T  </i>
  </separator>
  <i type="logical" name="GGA_COMPAT"> T  </i>
  <i type="logical" name="LBERRY"> F  </i>
  <i type="int" name="ICORELEVEL">     0</i>
  <i type="logical" name="LDAU"> F  </i>
  <i type="int" name="I_CONSTRAINED_M">     0</i>
  <separator name="electronic exchange-correlation" >
   <i type="string" name="GGA">--</i>
   <i type="int" name="VOSKOWN">     0</i>
   <i type="logical" name="LHFCALC"> F  </i>
   <i type="string" name="PRECFOCK"></i>
   <i type="logical" name="LSYMGRAD"> F  </i>
   <i type="logical" name="LHFONE"> F  </i>
   <i type="logical" name="LRHFCALC"> F  </i>
   <i type="logical" name="LTHOMAS"> F  </i>
   <i type="logical" name="LMODELHF"> F  </i>
   <i type="logical" name="LFOCKACE"> F  </i>
   <i name="ENCUT4O">     -1.00000000</i>
   <i type="int" name="EXXOEP">     0</i>
   <i type="int" name="FOURORBIT">     0</i>
   <i name="AEXX">      0.00000000</i>
   <i name="HFALPHA">      0.00000000</i>
   <i name="MCALPHA">      0.00000000</i>
   <i name="ALDAX">      1.00000000</i>
   <i name="AGGAX">      1.00000000</i>
   <i name="ALDAC">      1.00000000</i>
   <i name="AGGAC">      1.00000000</i>
   <i type="int" name="NKREDX">     1</i>
   <i type="int" name="NKREDY">     1</i>
   <i type="int" name="NKREDZ">     1</i>
   <i type="logical" name="SHIFTRED"> F  </i>
   <i type="logical" name="ODDONLY"> F  </i>
   <i type="logical" name="EVENONLY"> F  </i>
   <i type="int" name="LMAXFOCK">     0</i>
   <i type="int" name="NMAXFOCKAE">     0</i>
   <i type="logical" name="LFOCKAEDFT"> F  </i>
   <i name="HFSCREEN">      0.00000000</i>
   <i name="HFSCREENC">      0.00000000</i>
   <i type="int" name="NBANDSGWLOW">     0</i>
  </separator>
  <separator name="vdW DFT" >
   <i type="logical" name="LUSE_VDW"> F  </i>
   <i name="Zab_VDW">     -0.84910000</i>
   <i name="PARAM1">      0.12340000</i>
   <i name="PARAM2">      1.00000000</i>
   <i name="PARAM3">      0.00000000</i>
  </separator>
  <separator name="model GW" >
   <i type="int" name="MODEL_GW">     0</i>
   <i name="MODEL_EPS0">      9.17444760</i>
   <i name="MODEL_ALPHA">      1.00000000</i>
  </separator>
  <separator name="linear response parameters" >
   <i type="logical" name="LEPSILON"> F  </i>
   <i type="logical" name="LRPA"> F  </i>
   <i type="logical" name="LNABLA"> F  </i>
   <i type="logical" name="LVEL"> F  </i>
   <i name="CSHIFT">      0.10000000</i>
   <i name="OMEGAMAX">     -1.00000000</i>
   <i name="DEG_THRESHOLD">      0.00200000</i>
   <i name="RTIME">     -0.10000000</i>
   <i name="WPLASMAI">      0.00000000</i>
   <v name="DFIELD">      0.00000000      0.00000000      0.00000000</v>
   <v name="WPLASMA">      0.00000000      0.00000000      0.00000000      0.00000000      0.00000000      0.00000000      0.00000000      0.00000000      0.00000000</v>
  </separator>
  <separator name="orbital magnetization" >
   <i type="logical" name="NUCIND"> F  </i>
   <v name="MAGPOS">      0.00000000      0.00000000      0.00000000</v>
   <i type="logical" name="LNICSALL"> T  </i>
   <i type="logical" name="ORBITALMAG"> F  </i>
   <i type="logical" name="LMAGBLOCH"> F  </i>
   <i type="logical" name="LCHIMAG"> F  </i>
   <i type="logical" name="LGAUGE"> T  </i>
   <i type="int" name="MAGATOM">     0</i>
   <v name="MAGDIPOL">      0.00000000      0.00000000      0.00000000</v>
   <v name="AVECCONST">      0.00000000      0.00000000      0.00000000</v>
  </separator>
  <separator name="response functions" >
   <i type="logical" name="LFINITE_TEMPERATURE"> F  </i>
   <i type="logical" name="LADDER"> F  </i>
   <i type="logical" name="LRPAFORCE"> F  </i>
   <i type="logical" name="LFXC"> F  </i>
   <i type="logical" name="LHARTREE"> T  </i>
   <i type="int" name="IBSE">     0</i>
   <v type="int" name="KPOINT">    -1     0     0     0</v>
   <i type="logical" name="LTCTC"> F  </i>
   <i type="logical" name="LTCTE"> F  </i>
   <i type="logical" name="LTETE"> F  </i>
   <i type="logical" name="LTRIPLET"> F  </i>
   <i type="logical" name="LFXCEPS"> F  </i>
   <i type="logical" name="LFXHEG"> F  </i>
   <i type="int" name="NATURALO">     2</i>
   <i type="logical" name="LHOLEGF"> F  </i>
   <i type="logical" name="L2ORDER"> F  </i>
   <i type="logical" name="LDMP1"> F  </i>
   <i type="logical" name="LMP2LT"> F  </i>
   <i type="logical" name="LSMP2LT"> F  </i>
   <i type="logical" name="LGWLF"> F  </i>
   <i name="ENCUTGW">     -2.00000000</i>
   <i name="ENCUTGWSOFT">     -2.00000000</i>
   <i name="ENCUTLF">     -1.00000000</i>
   <i type="logical" name="LESF_SPLINES"> F  </i>
   <i type="int" name="LMAXMP2">    -1</i>
   <i name="SCISSOR">      0.00000000</i>
   <i type="int" name="NOMEGA">     0</i>
   <i type="int" name="NOMEGAR">     0</i>
   <i type="int" name="NBANDSGW">    -1</i>
   <i type="int" name="NBANDSO">    -1</i>
   <i type="int" name="NBANDSV">    -1</i>
   <i type="int" name="NELMGW">     1</i>
   <i type="int" name="NELMHF">     1</i>
   <i type="int" name="DIM">     3</i>
   <i type="int" name="IESPILON">     4</i>
   <i type="int" name="ANTIRES">     0</i>
   <i name="OMEGAMAX">    -30.00000000</i>
   <i name="OMEGAMIN">    -30.00000000</i>
   <i name="OMEGATL">   -200.00000000</i>
   <i type="int" name="OMEGAGRID">     0</i>
   <i name="CSHIFT">     -0.10000000</i>
   <i type="logical" name="LSELFENERGY"> F  </i>
   <i type="logical" name="LSPECTRAL"> F  </i>
   <i type="logical" name="LSPECTRALGW"> F  </i>
   <i type="logical" name="LSINGLES"> F  </i>
   <i type="logical" name="LFERMIGW"> F  </i>
   <i type="logical" name="ODDONLYGW"> F  </i>
   <i type="logical" name="EVENONLYGW"> F  </i>
   <i type="int" name="NKREDLFX">     1</i>
   <i type="int" name="NKREDLFY">     1</i>
   <i type="int" name="NKREDLFZ">     1</i>
   <i type="int" name="MAXMEM">  2800</i>
   <i type="int" name="TELESCOPE">     0</i>
   <i type="int" name="NTAUPAR">    -1</i>
   <i type="int" name="NOMEGAPAR">    -1</i>
   <i name="DAMP_NEWTON">      0.80000001</i>
   <i name="LAMBDA">      1.00000000</i>
  </separator>
  <separator name="External order field" >
   <i name="OFIELD_KAPPA">      0.00000000</i>
   <v name="OFIELD_K">      0.00000000      0.00000000      0.00000000</v>
   <i name="OFIELD_Q6_NEAR">      0.00000000</i>
   <i name="OFIELD_Q6_FAR">      0.00000000</i>
   <i name="OFIELD_A">      0.00000000</i>
  </separator>
  <separator name="optional k-points parameters" >
   <i type="int" name="KPOINTS_OPT_MODE">     1</i>
   <i type="logical" name="LKPOINTS_OPT"> F  </i>
  </separator>
 </parameters>
 <atominfo>
  <atoms>       1 </atoms>
  <types>       1 </types>
  <array name="atoms" >
   <dimension dim="1">ion</dimension>
   <field type="string">element</field>
   <field type="int">atomtype</field>
   <set>
    <rc><c>Pt</c><c>   1</c></rc>
   </set>
  </array>
  <array name="atomtypes" >
   <dimension dim="1">type</dimension>
   <field type="int">atomspertype</field>
   <field type="string">element</field>
   <field>mass</field>
   <field>valence</field>
   <field type="string">pseudopotential</field>
   <set>
    <rc><c>   1</c><c>Pt</c><c>    195.08000000</c><c>     16.00000000</c><c>  PAW_PBE Pt_pv 12Dec2005               </c></rc>
   </set>
  </array>
 </atominfo>
 <structure name="initialpos" >
  <crystal>
   <varray name="basis" >
    <v>       0.00000000       1.97000000       1.97000000 </v>
    <v>       1.97000000       0.00000000       1.97000000 </v>
    <v>       1.97000000       1.97000000       0.00000000 </v>
   </varray>
   <i name="volume">     15.29074600 </i>
   <varray name="rec_basis" >
    <v>      -0.25380711       0.25380711       0.25380711 </v>
    <v>       0.25380711      -0.25380711       0.25380711 </v>
    <v>       0.25380711       0.25380711      -0.25380711 </v>
   </varray>
  </crystal>
  <varray name="positions" >
   <v>       0.00000000       0.00000000       0.00000000 </v>
  </varray>
 </structure>
 <calculation>
  <scstep>
   <time name="dav">    0.27    0.27</time>
   <time name="total">    0.27    0.28</time>
   <energy>
    <i name="alphaZ">    156.91311333 </i>
    <i name="ewald">  -2144.84590610 </i>
    <i name="hartreedc">   -397.82488157 </i>
    <i name="XCdc">     63.81680431 </i>
    <i name="pawpsdc">   2065.75261637 </i>
    <i name="pawaedc">  -2030.83594803 </i>
    <i name="eentropy">     -0.00109660 </i>
    <i name="bandstr">   -123.13319460 </i>
    <i name="atom">   2428.19501064 </i>
    <i name="e_fr_energy">     18.03651777 </i>
    <i name="e_wo_entrp">     18.03761436 </i>
    <i name="e_0_energy">     18.03706606 </i>
   </energy>
  </scstep>
  <scstep>
   <time name="dav">    0.36    0.36</time>
   <time name="total">    0.36    0.36</time>
   <energy>
    <i name="e_fr_energy">     -6.39423508 </i>
    <i name="e_wo_entrp">     -6.39052059 </i>
    <i name="e_0_energy">     -6.39237784 </i>
   </energy>
  </scstep>
  <scstep>
   <time name="dav">    0.34    0.34</time>
   <time name="total">    0.34    0.34</time>
   <energy>
    <i name="e_fr_energy">     -6.42651484 </i>
    <i name="e_wo_entrp">     -6.42279174 </i>
    <i name="e_0_energy">     -6.42465329 </i>
   </energy>
  </scstep>
  <scstep>
   <time name="dav">    0.54    0.54</time>
   <time name="total">    0.54    0.54</time>
   <energy>
    <i name="e_fr_energy">     -6.42654765 </i>
    <i name="e_wo_entrp">     -6.42282455 </i>
    <i name="e_0_energy">     -6.42468610 </i>
   </energy>
  </scstep>
  <scstep>
   <time name="dav">    0.34    0.35</time>
   <time name="total">    0.36    0.36</time>
   <energy>
    <i name="e_fr_energy">     -6.42654766 </i>
    <i name="e_wo_entrp">     -6.42282456 </i>
    <i name="e_0_energy">     -6.42468611 </i>
   </energy>
  </scstep>
  <scstep>
   <time name="dav">    0.28    0.28</time>
   <time name="total">    0.30    0.30</time>
   <energy>
    <i name="e_fr_energy">     -6.09153860 </i>
    <i name="e_wo_entrp">     -6.08801730 </i>
    <i name="e_0_energy">     -6.08977795 </i>
   </energy>
  </scstep>
  <scstep>
   <time name="dav">    0.42    0.42</time>
   <time name="total">    0.44    0.44</time>
   <energy>
    <i name="e_fr_energy">     -6.07202440 </i>
    <i name="e_wo_entrp">     -6.06848903 </i>
    <i name="e_0_energy">     -6.07025672 </i>
   </energy>
  </scstep>
  <scstep>
   <time name="dav">    0.27    0.27</time>
   <time name="total">    0.29    0.29</time>
   <energy>
    <i name="e_fr_energy">     -6.07045218 </i>
    <i name="e_wo_entrp">     -6.06692543 </i>
    <i name="e_0_energy">     -6.06868880 </i>
   </energy>
  </scstep>
  <scstep>
   <time name="dav">    0.42    0.42</time>
   <time name="total">    0.44    0.44</time>
   <energy>
    <i name="e_fr_energy">     -6.07038325 </i>
    <i name="e_wo_entrp">     -6.06685556 </i>
    <i name="e_0_energy">     -6.06861940 </i>
   </energy>
  </scstep>
  <scstep>
   <time name="dav">    0.38    0.38</time>
   <time name="total">    0.40    0.40</time>
   <energy>
    <i name="e_fr_energy">     -6.07038884 </i>
    <i name="e_wo_entrp">     -6.06686100 </i>
    <i name="e_0_energy">     -6.06862492 </i>
   </energy>
  </scstep>
  <scstep>
   <time name="dav">    0.17    0.17</time>
   <time name="total">    0.18    0.18</time>
   <energy>
    <i name="alphaZ">    156.91311333 </i>
    <i name="ewald">  -2144.84590610 </i>
    <i name="hartreedc">   -378.35093376 </i>
    <i name="XCdc">     62.95437711 </i>
    <i name="pawpsdc">   2349.92909160 </i>
    <i name="pawaedc">  -2317.69728838 </i>
    <i name="eentropy">     -0.00352783 </i>
    <i name="bandstr">   -163.16432540 </i>
    <i name="atom">   2428.19501064 </i>
    <i name="e_fr_energy">     -6.07038878 </i>
    <i name="e_wo_entrp">     -6.06686095 </i>
    <i name="e_0_energy">     -6.06862487 </i>
   </energy>
  </scstep>
  <structure>
   <crystal>
    <varray name="basis" >
     <v>       0.00000000       1.97000000       1.97000000 </v>
     <v>       1.97000000       0.00000000       1.97000000 </v>
     <v>       1.97000000       1.97000000       0.00000000 </v>
    </varray>
    <i name="volume">     15.29074600 </i>
    <varray name="rec_basis" >
     <v>      -0.25380711       0.25380711       0.25380711 </v>
     <v>       0.25380711      -0.25380711       0.25380711 </v>
     <v>       0.25380711       0.25380711      -0.25380711 </v>
    </varray>
   </crystal>
   <varray name="positions" >
    <v>       0.00000000       0.00000000       0.00000000 </v>
   </varray>
  </structure>
  <varray name="forces" >
   <v>       0.00000000      -0.00000000       0.00000000 </v>
  </varray>
  <varray name="stress" >
   <v>      35.57689184      -0.00000000       0.00000000 </v>
   <v>       0.00000000      35.57689184      -0.00000000 </v>
   <v>      -0.00000000       0.00000000      35.57689184 </v>
  </varray>
  <energy>
   <i name="e_fr_energy">     -6.07038878 </i>
   <i name="e_wo_entrp">     -6.06686095 </i>
   <i name="e_0_energy">     -6.06862487 </i>
  </energy>
  <time name="totalsc">    4.00    4.02</time>
  <eigenvalues>
   <array>
    <dimension dim="1">band</dimension>
    <dimension dim="2">kpoint</dimension>
    <dimension dim="3">spin</dimension>
    <field>eigene</field>
    <field>occ</field>
    <set>
     <set comment="spin 1">
      <set comment="kpoint 1">
       <r>  -40.7288    1.0000 </r>
       <r>  -40.7144    1.0000 </r>
       <r>  -40.7144    1.0000 </r>
       <r>    1.8521    1.0000 </r>
       <r>    8.0048    1.0000 </r>
       <r>    8.1343    1.0000 </r>
       <r>    8.1343    1.0000 </r>
       <r>   10.1530    1.0000 </r>
       <r>   10.1530    1.0000 </r>
       <r>   26.6820    0.0000 </r>
       <r>   30.5071    0.0000 </r>
       <r>   31.5594    0.0000 </r>
       <r>   31.5594    0.0000 </r>
       <r>   37.5210    0.0000 </r>
       <r>   41.5813    0.0000 </r>
       <r>   42.5096    0.0000 </r>
       <r>   42.5096    0.0000 </r>
       <r>   46.1114    0.0000 </r>
       <r>   46.1114    0.0000 </r>
       <r>   47.3364    0.0000 </r>
       <r>   52.4826    0.0000 </r>
       <r>   52.8020    0.0000 </r>
       <r>   52.8020    0.0000 </r>
       <r>   60.2556    0.0000 </r>
      </set>
      <set comment="kpoint 2">
       <r>  -40.8076    1.0000 </r>
       <r>  -40.7381    1.0000 </r>
       <r>  -40.7213    1.0000 </r>
       <r>    2.6397    1.0000 </r>
       <r>    7.6831    1.0000 </r>
       <r>    8.4012    1.0000 </r>
       <r>    8.4225    1.0000 </r>
       <r>    9.8412    1.0000 </r>
       <r>   10.2913    1.0000 </r>
       <r>   27.7320    0.0000 </r>
       <r>   28.2714    0.0000 </r>
       <r>   31.6640    0.0000 </r>
       <r>   33.2587    0.0000 </r>
       <r>   36.4879    0.0000 </r>
       <r>   39.5292    0.0000 </r>
       <r>   41.0011    0.0000 </r>
       <r>   41.6634    0.0000 </r>
       <r>   43.9437    0.0000 </r>
       <r>   47.6800    0.0000 </r>
       <r>   50.3134    0.0000 </r>
       <r>   51.7274    0.0000 </r>
       <r>   52.4840    0.0000 </r>
       <r>   54.3905    0.0000 </r>
       <r>   61.1078    0.0000 </r>
      </set>
      <set comment="kpoint 3">
       <r>  -40.9670    1.0000 </r>
       <r>  -40.7661    1.0000 </r>
       <r>  -40.7435    1.0000 </r>
       <r>    4.0858    1.0000 </r>
       <r>    7.6863    1.0000 </r>
       <r>    8.4035    1.0000 </r>
       <r>    8.5012    1.0000 </r>
       <r>   10.1462    1.0000 </r>
       <r>   10.9467    1.0000 </r>
       <r>   24.3656    0.0000 </r>
       <r>   28.0894    0.0000 </r>
       <r>   32.3017    0.0000 </r>
       <r>   34.1601    0.0000 </r>
       <r>   35.9823    0.0000 </r>
       <r>   36.2657    0.0000 </r>
       <r>   37.9026    0.0000 </r>
       <r>   44.5683    0.0000 </r>
       <r>   46.6873    0.0000 </r>
       <r>   48.8202    0.0000 </r>
       <r>   50.0824    0.0000 </r>
       <r>   52.4897    0.0000 </r>
       <r>   53.5146    0.0000 </r>
       <r>   55.2557    0.0000 </r>
       <r>   60.8640    0.0000 </r>
      </set>
      <set comment="kpoint 4">
       <r>  -41.1087    1.0000 </r>
       <r>  -40.7860    1.0000 </r>
       <r>  -40.7679    1.0000 </r>
       <r>    4.6950    1.0000 </r>
       <r>    8.0510    1.0000 </r>
       <r>    8.2027    1.0000 </r>
       <r>    9.4184    1.0000 </r>
       <r>   11.2148    1.0000 </r>
       <r>   12.0895    0.0000 </r>
       <r>   19.7598    0.0000 </r>
       <r>   26.6735    0.0000 </r>
       <r>   30.5115    0.0000 </r>
       <r>   32.1145    0.0000 </r>
       <r>   37.5887    0.0000 </r>
       <r>   39.1693    0.0000 </r>
       <r>   39.7709    0.0000 </r>
       <r>   45.4723    0.0000 </r>
       <r>   47.3708    0.0000 </r>
       <r>   49.3513    0.0000 </r>
       <r>   52.3725    0.0000 </r>
       <r>   52.4966    0.0000 </r>
       <r>   55.4082    0.0000 </r>
       <r>   56.0045    0.0000 </r>
       <r>   57.5288    0.0000 </r>
      </set>
      <set comment="kpoint 5">
       <r>  -41.1506    1.0000 </r>
       <r>  -40.7870    1.0000 </r>
       <r>  -40.7804    1.0000 </r>
       <r>    4.7118    1.0000 </r>
       <r>    7.9125    1.0000 </r>
       <r>    8.1222    1.0000 </r>
       <r>   10.3949    1.0000 </r>
       <r>   11.8336    0.0087 </r>
       <r>   12.7564    0.0000 </r>
       <r>   17.5840    0.0000 </r>
       <r>   26.2415    0.0000 </r>
       <r>   30.3764    0.0000 </r>
       <r>   30.4483    0.0000 </r>
       <r>   39.5124    0.0000 </r>
       <r>   39.8341    0.0000 </r>
       <r>   41.4009    0.0000 </r>
       <r>   45.8666    0.0000 </r>
       <r>   47.2665    0.0000 </r>
       <r>   47.4873    0.0000 </r>
       <r>   52.4969    0.0000 </r>
       <r>   53.7521    0.0000 </r>
       <r>   54.6351    0.0000 </r>
       <r>   56.8064    0.0000 </r>
       <r>   57.9294    0.0000 </r>
      </set>
      <set comment="kpoint 6">
       <r>  -41.0698    1.0000 </r>
       <r>  -40.7732    1.0000 </r>
       <r>  -40.7679    1.0000 </r>
       <r>    4.6139    1.0000 </r>
       <r>    8.1186    1.0000 </r>
       <r>    8.3383    1.0000 </r>
       <r>    8.6277    1.0000 </r>
       <r>   11.2183    1.0000 </r>
       <r>   11.4020    1.0000 </r>
       <r>   21.2627    0.0000 </r>
       <r>   27.1030    0.0000 </r>
       <r>   31.3863    0.0000 </r>
       <r>   32.5909    0.0000 </r>
       <r>   37.4988    0.0000 </r>
       <r>   37.5491    0.0000 </r>
       <r>   38.7696    0.0000 </r>
       <r>   44.5145    0.0000 </r>
       <r>   48.6987    0.0000 </r>
       <r>   49.4258    0.0000 </r>
       <r>   52.3799    0.0000 </r>
       <r>   52.4970    0.0000 </r>
       <r>   52.8090    0.0000 </r>
       <r>   56.3792    0.0000 </r>
       <r>   58.4019    0.0000 </r>
      </set>
      <set comment="kpoint 7">
       <r>  -40.9108    1.0000 </r>
       <r>  -40.7506    1.0000 </r>
       <r>  -40.7414    1.0000 </r>
       <r>    3.6164    1.0000 </r>
       <r>    7.5203    1.0000 </r>
       <r>    8.4798    1.0000 </r>
       <r>    8.5617    1.0000 </r>
       <r>    9.9988    1.0000 </r>
       <r>   10.5640    1.0000 </r>
       <r>   25.8070    0.0000 </r>
       <r>   28.3716    0.0000 </r>
       <r>   32.5699    0.0000 </r>
       <r>   33.8008    0.0000 </r>
       <r>   35.5028    0.0000 </r>
       <r>   36.9750    0.0000 </r>
       <r>   38.2674    0.0000 </r>
       <r>   43.9992    0.0000 </r>
       <r>   45.6230    0.0000 </r>
       <r>   48.6731    0.0000 </r>
       <r>   50.4754    0.0000 </r>
       <r>   51.6270    0.0000 </r>
       <r>   52.4929    0.0000 </r>
       <r>   55.7028    0.0000 </r>
       <r>   61.4210    0.0000 </r>
      </set>
      <set comment="kpoint 8">
       <r>  -40.7650    1.0000 </r>
       <r>  -40.7261    1.0000 </r>
       <r>  -40.7226    1.0000 </r>
       <r>    2.2582    1.0000 </r>
       <r>    7.7731    1.0000 </r>
       <r>    8.3204    1.0000 </r>
       <r>    8.3298    1.0000 </r>
       <r>    9.8795    1.0000 </r>
       <r>   10.2769    1.0000 </r>
       <r>   27.2799    0.0000 </r>
       <r>   29.5023    0.0000 </r>
       <r>   31.5779    0.0000 </r>
       <r>   31.9764    0.0000 </r>
       <r>   38.5284    0.0000 </r>
       <r>   40.0432    0.0000 </r>
       <r>   40.3934    0.0000 </r>
       <r>   42.3146    0.0000 </r>
       <r>   43.6716    0.0000 </r>
       <r>   48.5785    0.0000 </r>
       <r>   49.1659    0.0000 </r>
       <r>   51.0556    0.0000 </r>
       <r>   52.4882    0.0000 </r>
       <r>   54.1865    0.0000 </r>
       <r>   60.9645    0.0000 </r>
      </set>
      <set comment="kpoint 9">
       <r>  -40.8238    1.0000 </r>
       <r>  -40.7492    1.0000 </r>
       <r>  -40.7454    1.0000 </r>
       <r>    3.0250    1.0000 </r>
       <r>    7.3402    1.0000 </r>
       <r>    8.6746    1.0000 </r>
       <r>    8.7121    1.0000 </r>
       <r>    9.4738    1.0000 </r>
       <r>   10.5108    1.0000 </r>
       <r>   28.3364    0.0000 </r>
       <r>   28.7171    0.0000 </r>
       <r>   31.1934    0.0000 </r>
       <r>   31.7610    0.0000 </r>
       <r>   37.1017    0.0000 </r>
       <r>   38.3218    0.0000 </r>
       <r>   39.5754    0.0000 </r>
       <r>   42.9845    0.0000 </r>
       <r>   43.5435    0.0000 </r>
       <r>   48.3489    0.0000 </r>
       <r>   50.8453    0.0000 </r>
       <r>   51.1351    0.0000 </r>
       <r>   52.4907    0.0000 </r>
       <r>   55.0833    0.0000 </r>
       <r>   62.5116    0.0000 </r>
      </set>
      <set comment="kpoint 10">
       <r>  -40.9321    1.0000 </r>
       <r>  -40.7931    1.0000 </r>
       <r>  -40.7630    1.0000 </r>
       <r>    4.3022    1.0000 </r>
       <r>    6.9424    1.0000 </r>
       <r>    8.3800    1.0000 </r>
       <r>    9.1833    1.0000 </r>
       <r>    9.8479    1.0000 </r>
       <r>   11.1076    1.0000 </r>
       <r>   26.2533    0.0000 </r>
       <r>   28.7509    0.0000 </r>
       <r>   30.4582    0.0000 </r>
       <r>   31.4677    0.0000 </r>
       <r>   36.0907    0.0000 </r>
       <r>   37.3639    0.0000 </r>
       <r>   39.1219    0.0000 </r>
       <r>   42.8499    0.0000 </r>
       <r>   46.5882    0.0000 </r>
       <r>   48.2306    0.0000 </r>
       <r>   49.6291    0.0000 </r>
       <r>   52.4931    0.0000 </r>
       <r>   54.1891    0.0000 </r>
       <r>   56.5317    0.0000 </r>
       <r>   61.1691    0.0000 </r>
      </set>
      <set comment="kpoint 11">
       <r>  -41.0588    1.0000 </r>
       <r>  -40.8279    1.0000 </r>
       <r>  -40.7892    1.0000 </r>
       <r>    5.2738    1.0000 </r>
       <r>    7.5066    1.0000 </r>
       <r>    7.8286    1.0000 </r>
       <r>    8.9772    1.0000 </r>
       <r>   11.2489    1.0000 </r>
       <r>   12.5303    0.0000 </r>
       <r>   21.4636    0.0000 </r>
       <r>   27.6826    0.0000 </r>
       <r>   28.6218    0.0000 </r>
       <r>   31.6894    0.0000 </r>
       <r>   36.8123    0.0000 </r>
       <r>   39.4036    0.0000 </r>
       <r>   40.4981    0.0000 </r>
       <r>   42.1963    0.0000 </r>
       <r>   48.0987    0.0000 </r>
       <r>   49.5065    0.0000 </r>
       <r>   51.8863    0.0000 </r>
       <r>   52.4899    0.0000 </r>
       <r>   54.1496    0.0000 </r>
       <r>   56.5649    0.0000 </r>
       <r>   58.9855    0.0000 </r>
      </set>
      <set comment="kpoint 12">
       <r>  -41.1207    1.0000 </r>
       <r>  -40.8496    1.0000 </r>
       <r>  -40.7996    1.0000 </r>
       <r>    5.3703    1.0000 </r>
       <r>    7.4097    1.0000 </r>
       <r>    8.7052    1.0000 </r>
       <r>    8.9389    1.0000 </r>
       <r>   11.7235    0.7697 </r>
       <r>   14.8914    0.0000 </r>
       <r>   17.4115    0.0000 </r>
       <r>   26.9025    0.0000 </r>
       <r>   28.1981    0.0000 </r>
       <r>   30.1496    0.0000 </r>
       <r>   38.5914    0.0000 </r>
       <r>   39.9230    0.0000 </r>
       <r>   42.9375    0.0000 </r>
       <r>   44.1609    0.0000 </r>
       <r>   47.1423    0.0000 </r>
       <r>   49.5586    0.0000 </r>
       <r>   51.1266    0.0000 </r>
       <r>   52.4947    0.0000 </r>
       <r>   53.1619    0.0000 </r>
       <r>   57.1223    0.0000 </r>
       <r>   59.1038    0.0000 </r>
      </set>
      <set comment="kpoint 13">
       <r>  -41.0851    1.0000 </r>
       <r>  -40.8512    1.0000 </r>
       <r>  -40.7827    1.0000 </r>
       <r>    5.4116    1.0000 </r>
       <r>    7.5946    1.0000 </r>
       <r>    8.2557    1.0000 </r>
       <r>    8.8197    1.0000 </r>
       <r>   11.0270    1.0000 </r>
       <r>   13.5093    0.0000 </r>
       <r>   20.0427    0.0000 </r>
       <r>   26.8476    0.0000 </r>
       <r>   28.3783    0.0000 </r>
       <r>   31.8858    0.0000 </r>
       <r>   36.4537    0.0000 </r>
       <r>   39.7753    0.0000 </r>
       <r>   42.3978    0.0000 </r>
       <r>   43.3951    0.0000 </r>
       <r>   48.1171    0.0000 </r>
       <r>   49.1882    0.0000 </r>
       <r>   50.3035    0.0000 </r>
       <r>   52.4939    0.0000 </r>
       <r>   55.1452    0.0000 </r>
       <r>   56.7417    0.0000 </r>
       <r>   58.4335    0.0000 </r>
      </set>
      <set comment="kpoint 14">
       <r>  -40.9765    1.0000 </r>
       <r>  -40.8202    1.0000 </r>
       <r>  -40.7545    1.0000 </r>
       <r>    4.8028    1.0000 </r>
       <r>    7.1347    1.0000 </r>
       <r>    8.1427    1.0000 </r>
       <r>    9.1159    1.0000 </r>
       <r>    9.7635    1.0000 </r>
       <r>   11.8166    0.0290 </r>
       <r>   24.6252    0.0000 </r>
       <r>   27.7354    0.0000 </r>
       <r>   30.0729    0.0000 </r>
       <r>   32.3187    0.0000 </r>
       <r>   36.0937    0.0000 </r>
       <r>   38.4611    0.0000 </r>
       <r>   40.3786    0.0000 </r>
       <r>   41.7210    0.0000 </r>
       <r>   46.6559    0.0000 </r>
       <r>   47.7080    0.0000 </r>
       <r>   51.0088    0.0000 </r>
       <r>   52.4915    0.0000 </r>
       <r>   55.5172    0.0000 </r>
       <r>   57.4106    0.0000 </r>
       <r>   58.8600    0.0000 </r>
      </set>
      <set comment="kpoint 15">
       <r>  -40.8666    1.0000 </r>
       <r>  -40.7617    1.0000 </r>
       <r>  -40.7353    1.0000 </r>
       <r>    3.3600    1.0000 </r>
       <r>    7.3741    1.0000 </r>
       <r>    8.5407    1.0000 </r>
       <r>    8.7123    1.0000 </r>
       <r>    9.6228    1.0000 </r>
       <r>   10.6157    1.0000 </r>
       <r>   27.2076    0.0000 </r>
       <r>   28.4845    0.0000 </r>
       <r>   31.3396    0.0000 </r>
       <r>   33.1033    0.0000 </r>
       <r>   35.5117    0.0000 </r>
       <r>   38.5449    0.0000 </r>
       <r>   39.8302    0.0000 </r>
       <r>   42.5892    0.0000 </r>
       <r>   44.1904    0.0000 </r>
       <r>   48.5321    0.0000 </r>
       <r>   49.3421    0.0000 </r>
       <r>   52.4863    0.0000 </r>
       <r>   53.0416    0.0000 </r>
       <r>   55.8559    0.0000 </r>
       <r>   61.2502    0.0000 </r>
      </set>
      <set comment="kpoint 16">
       <r>  -40.9761    1.0000 </r>
       <r>  -40.8138    1.0000 </r>
       <r>  -40.8120    1.0000 </r>
       <r>    4.9006    1.0000 </r>
       <r>    6.3046    1.0000 </r>
       <r>    8.7190    1.0000 </r>
       <r>    9.9481    1.0000 </r>
       <r>   10.3740    1.0000 </r>
       <r>   11.1920    1.0000 </r>
       <r>   26.7567    0.0000 </r>
       <r>   27.9266    0.0000 </r>
       <r>   28.8905    0.0000 </r>
       <r>   31.3427    0.0000 </r>
       <r>   32.2365    0.0000 </r>
       <r>   39.2167    0.0000 </r>
       <r>   39.5594    0.0000 </r>
       <r>   44.1504    0.0000 </r>
       <r>   45.2158    0.0000 </r>
       <r>   49.3707    0.0000 </r>
       <r>   52.4809    0.0000 </r>
       <r>   53.1187    0.0000 </r>
       <r>   53.9281    0.0000 </r>
       <r>   54.7034    0.0000 </r>
       <r>   62.6751    0.0000 </r>
      </set>
      <set comment="kpoint 17">
       <r>  -41.0510    1.0000 </r>
       <r>  -40.8628    1.0000 </r>
       <r>  -40.8338    1.0000 </r>
       <r>    5.4843    1.0000 </r>
       <r>    6.1044    1.0000 </r>
       <r>    8.6443    1.0000 </r>
       <r>   10.4482    1.0000 </r>
       <r>   11.3495    1.0000 </r>
       <r>   12.6258    0.0000 </r>
       <r>   23.2214    0.0000 </r>
       <r>   25.7377    0.0000 </r>
       <r>   26.8446    0.0000 </r>
       <r>   32.1728    0.0000 </r>
       <r>   34.0142    0.0000 </r>
       <r>   39.5015    0.0000 </r>
       <r>   41.7205    0.0000 </r>
       <r>   44.3817    0.0000 </r>
       <r>   45.9222    0.0000 </r>
       <r>   48.9500    0.0000 </r>
       <r>   52.4815    0.0000 </r>
       <r>   52.6265    0.0000 </r>
       <r>   55.8959    0.0000 </r>
       <r>   56.8402    0.0000 </r>
       <r>   59.3602    0.0000 </r>
      </set>
      <set comment="kpoint 18">
       <r>  -41.0767    1.0000 </r>
       <r>  -40.9249    1.0000 </r>
       <r>  -40.8394    1.0000 </r>
       <r>    5.7861    1.0000 </r>
       <r>    6.6397    1.0000 </r>
       <r>    8.3671    1.0000 </r>
       <r>   10.0036    1.0000 </r>
       <r>   11.8276    0.0137 </r>
       <r>   15.9314    0.0000 </r>
       <r>   18.6556    0.0000 </r>
       <r>   24.4742    0.0000 </r>
       <r>   26.3082    0.0000 </r>
       <r>   31.5020    0.0000 </r>
       <r>   37.6786    0.0000 </r>
       <r>   39.4311    0.0000 </r>
       <r>   41.4967    0.0000 </r>
       <r>   45.5288    0.0000 </r>
       <r>   47.7401    0.0000 </r>
       <r>   48.8388    0.0000 </r>
       <r>   52.1062    0.0000 </r>
       <r>   52.4981    0.0000 </r>
       <r>   54.2201    0.0000 </r>
       <r>   57.6388    0.0000 </r>
       <r>   58.6397    0.0000 </r>
      </set>
      <set comment="kpoint 19">
       <r>  -41.0453    1.0000 </r>
       <r>  -40.9676    1.0000 </r>
       <r>  -40.8168    1.0000 </r>
       <r>    6.2781    1.0000 </r>
       <r>    7.0641    1.0000 </r>
       <r>    7.8265    1.0000 </r>
       <r>    9.6668    1.0000 </r>
       <r>   11.1075    1.0000 </r>
       <r>   15.5903    0.0000 </r>
       <r>   20.1238    0.0000 </r>
       <r>   22.7500    0.0000 </r>
       <r>   28.1640    0.0000 </r>
       <r>   31.2499    0.0000 </r>
       <r>   36.8683    0.0000 </r>
       <r>   39.6659    0.0000 </r>
       <r>   42.0353    0.0000 </r>
       <r>   45.8154    0.0000 </r>
       <r>   48.4359    0.0000 </r>
       <r>   50.4899    0.0000 </r>
       <r>   51.1967    0.0000 </r>
       <r>   52.5010    0.0000 </r>
       <r>   52.8620    0.0000 </r>
       <r>   54.4927    0.0000 </r>
       <r>   59.0501    0.0000 </r>
      </set>
      <set comment="kpoint 20">
       <r>  -41.0427    1.0000 </r>
       <r>  -40.8940    1.0000 </r>
       <r>  -40.7827    1.0000 </r>
       <r>    5.9912    1.0000 </r>
       <r>    7.3066    1.0000 </r>
       <r>    7.5181    1.0000 </r>
       <r>    9.3396    1.0000 </r>
       <r>   10.3721    1.0000 </r>
       <r>   13.6259    0.0000 </r>
       <r>   21.9336    0.0000 </r>
       <r>   25.1369    0.0000 </r>
       <r>   28.9018    0.0000 </r>
       <r>   32.9035    0.0000 </r>
       <r>   34.6629    0.0000 </r>
       <r>   39.7008    0.0000 </r>
       <r>   42.6516    0.0000 </r>
       <r>   43.9075    0.0000 </r>
       <r>   46.2803    0.0000 </r>
       <r>   48.5388    0.0000 </r>
       <r>   52.0934    0.0000 </r>
       <r>   52.4939    0.0000 </r>
       <r>   55.7651    0.0000 </r>
       <r>   56.5019    0.0000 </r>
       <r>   57.5619    0.0000 </r>
      </set>
      <set comment="kpoint 21">
       <r>  -41.0194    1.0000 </r>
       <r>  -40.7928    1.0000 </r>
       <r>  -40.7597    1.0000 </r>
       <r>    4.6828    1.0000 </r>
       <r>    7.7075    1.0000 </r>
       <r>    8.1485    1.0000 </r>
       <r>    8.6340    1.0000 </r>
       <r>   10.5111    1.0000 </r>
       <r>   11.6328    0.9995 </r>
       <r>   22.9578    0.0000 </r>
       <r>   27.8524    0.0000 </r>
       <r>   30.4662    0.0000 </r>
       <r>   33.2698    0.0000 </r>
       <r>   35.9060    0.0000 </r>
       <r>   37.9389    0.0000 </r>
       <r>   39.3704    0.0000 </r>
       <r>   42.8582    0.0000 </r>
       <r>   48.2460    0.0000 </r>
       <r>   49.1666    0.0000 </r>
       <r>   50.9991    0.0000 </r>
       <r>   52.4943    0.0000 </r>
       <r>   53.2163    0.0000 </r>
       <r>   57.2491    0.0000 </r>
       <r>   58.7821    0.0000 </r>
      </set>
      <set comment="kpoint 22">
       <r>  -41.0985    1.0000 </r>
       <r>  -40.8726    1.0000 </r>
       <r>  -40.8646    1.0000 </r>
       <r>    5.0793    1.0000 </r>
       <r>    5.5486    1.0000 </r>
       <r>   10.7234    1.0000 </r>
       <r>   11.3137    1.0000 </r>
       <r>   11.9080    0.0000 </r>
       <r>   12.7283    0.0000 </r>
       <r>   22.5774    0.0000 </r>
       <r>   24.2999    0.0000 </r>
       <r>   24.3970    0.0000 </r>
       <r>   31.5869    0.0000 </r>
       <r>   34.2007    0.0000 </r>
       <r>   40.5768    0.0000 </r>
       <r>   43.7935    0.0000 </r>
       <r>   44.4991    0.0000 </r>
       <r>   47.3783    0.0000 </r>
       <r>   48.3114    0.0000 </r>
       <r>   52.4883    0.0000 </r>
       <r>   54.6694    0.0000 </r>
       <r>   55.0812    0.0000 </r>
       <r>   55.5568    0.0000 </r>
       <r>   55.8343    0.0000 </r>
      </set>
      <set comment="kpoint 23">
       <r>  -41.1082    1.0000 </r>
       <r>  -40.9074    1.0000 </r>
       <r>  -40.8744    1.0000 </r>
       <r>    5.2192    1.0000 </r>
       <r>    5.6516    1.0000 </r>
       <r>   10.2358    1.0000 </r>
       <r>   11.2517    1.0000 </r>
       <r>   12.1468    0.0000 </r>
       <r>   15.5516    0.0000 </r>
       <r>   19.8644    0.0000 </r>
       <r>   22.7708    0.0000 </r>
       <r>   23.9361    0.0000 </r>
       <r>   32.9858    0.0000 </r>
       <r>   35.0231    0.0000 </r>
       <r>   39.5659    0.0000 </r>
       <r>   44.1172    0.0000 </r>
       <r>   47.0426    0.0000 </r>
       <r>   47.4901    0.0000 </r>
       <r>   49.3305    0.0000 </r>
       <r>   52.2023    0.0000 </r>
       <r>   52.4965    0.0000 </r>
       <r>   53.6305    0.0000 </r>
       <r>   54.5162    0.0000 </r>
       <r>   55.5440    0.0000 </r>
      </set>
      <set comment="kpoint 24">
       <r>  -41.0623    1.0000 </r>
       <r>  -40.9666    1.0000 </r>
       <r>  -40.8496    1.0000 </r>
       <r>    5.7479    1.0000 </r>
       <r>    6.4739    1.0000 </r>
       <r>    8.7478    1.0000 </r>
       <r>   10.3569    1.0000 </r>
       <r>   11.7554    0.4340 </r>
       <r>   17.5960    0.0000 </r>
       <r>   18.2038    0.0000 </r>
       <r>   22.2068    0.0000 </r>
       <r>   25.8920    0.0000 </r>
       <r>   32.1613    0.0000 </r>
       <r>   38.0415    0.0000 </r>
       <r>   38.7524    0.0000 </r>
       <r>   41.3326    0.0000 </r>
       <r>   46.9837    0.0000 </r>
       <r>   47.6500    0.0000 </r>
       <r>   50.4605    0.0000 </r>
       <r>   51.5061    0.0000 </r>
       <r>   52.5047    0.0000 </r>
       <r>   53.5936    0.0000 </r>
       <r>   56.6880    0.0000 </r>
       <r>   57.9324    0.0000 </r>
      </set>
      <set comment="kpoint 25">
       <r>  -41.0911    1.0000 </r>
       <r>  -40.9070    1.0000 </r>
       <r>  -40.8110    1.0000 </r>
       <r>    5.8827    1.0000 </r>
       <r>    7.1072    1.0000 </r>
       <r>    8.3675    1.0000 </r>
       <r>    9.2059    1.0000 </r>
       <r>   11.4710    1.0000 </r>
       <r>   15.8705    0.0000 </r>
       <r>   17.8135    0.0000 </r>
       <r>   25.2903    0.0000 </r>
       <r>   27.9859    0.0000 </r>
       <r>   30.5007    0.0000 </r>
       <r>   37.8168    0.0000 </r>
       <r>   39.8003    0.0000 </r>
       <r>   42.5033    0.0000 </r>
       <r>   45.8317    0.0000 </r>
       <r>   46.6857    0.0000 </r>
       <r>   50.1368    0.0000 </r>
       <r>   51.4999    0.0000 </r>
       <r>   52.2094    0.0000 </r>
       <r>   52.4951    0.0000 </r>
       <r>   56.7464    0.0000 </r>
       <r>   58.7911    0.0000 </r>
      </set>
      <set comment="kpoint 26">
       <r>  -41.1268    1.0000 </r>
       <r>  -40.8090    1.0000 </r>
       <r>  -40.7824    1.0000 </r>
       <r>    4.9523    1.0000 </r>
       <r>    7.7750    1.0000 </r>
       <r>    8.3545    1.0000 </r>
       <r>    9.3928    1.0000 </r>
       <r>   11.6102    1.0000 </r>
       <r>   13.1964    0.0000 </r>
       <r>   18.4437    0.0000 </r>
       <r>   26.7370    0.0000 </r>
       <r>   29.3955    0.0000 </r>
       <r>   30.9592    0.0000 </r>
       <r>   38.3907    0.0000 </r>
       <r>   39.8513    0.0000 </r>
       <r>   41.4860    0.0000 </r>
       <r>   44.5008    0.0000 </r>
       <r>   48.2485    0.0000 </r>
       <r>   48.5165    0.0000 </r>
       <r>   51.5098    0.0000 </r>
       <r>   52.4961    0.0000 </r>
       <r>   54.7826    0.0000 </r>
       <r>   57.0543    0.0000 </r>
       <r>   57.8240    0.0000 </r>
      </set>
      <set comment="kpoint 27">
       <r>  -41.1259    1.0000 </r>
       <r>  -40.8863    1.0000 </r>
       <r>  -40.8765    1.0000 </r>
       <r>    4.9410    1.0000 </r>
       <r>    5.3836    1.0000 </r>
       <r>   11.5060    1.0000 </r>
       <r>   11.6406    0.9990 </r>
       <r>   12.1807    0.0000 </r>
       <r>   14.0865    0.0000 </r>
       <r>   20.5972    0.0000 </r>
       <r>   23.1205    0.0000 </r>
       <r>   23.4967    0.0000 </r>
       <r>   31.9840    0.0000 </r>
       <r>   34.7976    0.0000 </r>
       <r>   40.1315    0.0000 </r>
       <r>   45.3681    0.0000 </r>
       <r>   47.0026    0.0000 </r>
       <r>   47.2184    0.0000 </r>
       <r>   49.5914    0.0000 </r>
       <r>   52.0073    0.0000 </r>
       <r>   52.4938    0.0000 </r>
       <r>   52.6426    0.0000 </r>
       <r>   54.5522    0.0000 </r>
       <r>   55.7866    0.0000 </r>
      </set>
      <set comment="kpoint 28">
       <r>  -41.0889    1.0000 </r>
       <r>  -40.8912    1.0000 </r>
       <r>  -40.8603    1.0000 </r>
       <r>    5.3623    1.0000 </r>
       <r>    5.8079    1.0000 </r>
       <r>    9.5301    1.0000 </r>
       <r>   11.0305    1.0000 </r>
       <r>   11.8490    0.0025 </r>
       <r>   14.0427    0.0000 </r>
       <r>   21.4232    0.0000 </r>
       <r>   24.0364    0.0000 </r>
       <r>   24.9279    0.0000 </r>
       <r>   32.5659    0.0000 </r>
       <r>   34.6102    0.0000 </r>
       <r>   39.7593    0.0000 </r>
       <r>   43.4425    0.0000 </r>
       <r>   45.0083    0.0000 </r>
       <r>   47.7649    0.0000 </r>
       <r>   48.1398    0.0000 </r>
       <r>   52.4511    0.0000 </r>
       <r>   52.5188    0.0000 </r>
       <r>   54.4909    0.0000 </r>
       <r>   56.6867    0.0000 </r>
       <r>   57.4666    0.0000 </r>
      </set>
      <set comment="kpoint 29">
       <r>  -41.0780    1.0000 </r>
       <r>  -40.8734    1.0000 </r>
       <r>  -40.8185    1.0000 </r>
       <r>    5.6755    1.0000 </r>
       <r>    7.0130    1.0000 </r>
       <r>    7.9619    1.0000 </r>
       <r>    9.4736    1.0000 </r>
       <r>   11.7361    0.6478 </r>
       <r>   13.9839    0.0000 </r>
       <r>   19.9498    0.0000 </r>
       <r>   26.7777    0.0000 </r>
       <r>   27.0853    0.0000 </r>
       <r>   30.9993    0.0000 </r>
       <r>   37.4233    0.0000 </r>
       <r>   39.7881    0.0000 </r>
       <r>   40.9990    0.0000 </r>
       <r>   43.7849    0.0000 </r>
       <r>   47.7763    0.0000 </r>
       <r>   49.0494    0.0000 </r>
       <r>   51.3317    0.0000 </r>
       <r>   52.4931    0.0000 </r>
       <r>   55.5568    0.0000 </r>
       <r>   57.0150    0.0000 </r>
       <r>   59.9494    0.0000 </r>
      </set>
      <set comment="kpoint 30">
       <r>  -41.0464    1.0000 </r>
       <r>  -40.8470    1.0000 </r>
       <r>  -40.8417    1.0000 </r>
       <r>    5.1982    1.0000 </r>
       <r>    5.8655    1.0000 </r>
       <r>    9.5159    1.0000 </r>
       <r>   10.6840    1.0000 </r>
       <r>   11.4122    1.0000 </r>
       <r>   11.5609    1.0000 </r>
       <r>   24.8133    0.0000 </r>
       <r>   25.9731    0.0000 </r>
       <r>   26.5751    0.0000 </r>
       <r>   31.1952    0.0000 </r>
       <r>   33.1095    0.0000 </r>
       <r>   40.6355    0.0000 </r>
       <r>   41.4898    0.0000 </r>
       <r>   43.0765    0.0000 </r>
       <r>   46.6018    0.0000 </r>
       <r>   48.8242    0.0000 </r>
       <r>   52.4847    0.0000 </r>
       <r>   54.6800    0.0000 </r>
       <r>   54.7942    0.0000 </r>
       <r>   56.5024    0.0000 </r>
       <r>   59.4058    0.0000 </r>
      </set>
      <set comment="kpoint 31">
       <r>  -40.9965    1.0000 </r>
       <r>  -40.8285    1.0000 </r>
       <r>  -40.7986    1.0000 </r>
       <r>    5.1686    1.0000 </r>
       <r>    6.4975    1.0000 </r>
       <r>    8.1991    1.0000 </r>
       <r>    9.7747    1.0000 </r>
       <r>   10.5727    1.0000 </r>
       <r>   11.7211    0.7895 </r>
       <r>   24.9448    0.0000 </r>
       <r>   27.5214    0.0000 </r>
       <r>   28.7739    0.0000 </r>
       <r>   31.7927    0.0000 </r>
       <r>   34.3465    0.0000 </r>
       <r>   38.4104    0.0000 </r>
       <r>   40.0890    0.0000 </r>
       <r>   44.0128    0.0000 </r>
       <r>   45.3594    0.0000 </r>
       <r>   49.3485    0.0000 </r>
       <r>   52.4805    0.0000 </r>
       <r>   52.5711    0.0000 </r>
       <r>   53.8847    0.0000 </r>
       <r>   55.9894    0.0000 </r>
       <r>   61.6587    0.0000 </r>
      </set>
      <set comment="kpoint 32">
       <r>  -40.8975    1.0000 </r>
       <r>  -40.7792    1.0000 </r>
       <r>  -40.7779    1.0000 </r>
       <r>    4.0208    1.0000 </r>
       <r>    6.8195    1.0000 </r>
       <r>    8.7185    1.0000 </r>
       <r>    9.2645    1.0000 </r>
       <r>    9.5961    1.0000 </r>
       <r>   10.8283    1.0000 </r>
       <r>   27.9946    0.0000 </r>
       <r>   29.6165    0.0000 </r>
       <r>   29.8716    0.0000 </r>
       <r>   30.7710    0.0000 </r>
       <r>   34.6695    0.0000 </r>
       <r>   38.1337    0.0000 </r>
       <r>   38.4698    0.0000 </r>
       <r>   44.2012    0.0000 </r>
       <r>   46.1050    0.0000 </r>
       <r>   46.6046    0.0000 </r>
       <r>   51.8898    0.0000 </r>
       <r>   52.4916    0.0000 </r>
       <r>   52.7322    0.0000 </r>
       <r>   55.0904    0.0000 </r>
       <r>   63.7795    0.0000 </r>
      </set>
      <set comment="kpoint 33">
       <r>  -40.8520    1.0000 </r>
       <r>  -40.7317    1.0000 </r>
       <r>  -40.7317    1.0000 </r>
       <r>    2.9801    1.0000 </r>
       <r>    7.6797    1.0000 </r>
       <r>    8.4326    1.0000 </r>
       <r>    8.4326    1.0000 </r>
       <r>   10.1142    1.0000 </r>
       <r>   10.1142    1.0000 </r>
       <r>   27.0111    0.0000 </r>
       <r>   28.0152    0.0000 </r>
       <r>   33.2577    0.0000 </r>
       <r>   33.2577    0.0000 </r>
       <r>   35.9229    0.0000 </r>
       <r>   38.3946    0.0000 </r>
       <r>   38.3946    0.0000 </r>
       <r>   43.0640    0.0000 </r>
       <r>   46.7208    0.0000 </r>
       <r>   46.7208    0.0000 </r>
       <r>   49.9755    0.0000 </r>
       <r>   52.4834    0.0000 </r>
       <r>   53.1508    0.0000 </r>
       <r>   53.1508    0.0000 </r>
       <r>   60.7393    0.0000 </r>
      </set>
      <set comment="kpoint 34">
       <r>  -40.9218    1.0000 </r>
       <r>  -40.7872    1.0000 </r>
       <r>  -40.7363    1.0000 </r>
       <r>    3.9863    1.0000 </r>
       <r>    7.3278    1.0000 </r>
       <r>    8.4295    1.0000 </r>
       <r>    8.8364    1.0000 </r>
       <r>    9.5477    1.0000 </r>
       <r>   11.1008    1.0000 </r>
       <r>   25.8737    0.0000 </r>
       <r>   28.3965    0.0000 </r>
       <r>   31.2998    0.0000 </r>
       <r>   32.3812    0.0000 </r>
       <r>   35.9730    0.0000 </r>
       <r>   38.6422    0.0000 </r>
       <r>   39.6867    0.0000 </r>
       <r>   41.8820    0.0000 </r>
       <r>   45.7459    0.0000 </r>
       <r>   47.1930    0.0000 </r>
       <r>   50.2667    0.0000 </r>
       <r>   52.4880    0.0000 </r>
       <r>   55.3327    0.0000 </r>
       <r>   55.8512    0.0000 </r>
       <r>   60.7929    0.0000 </r>
      </set>
      <set comment="kpoint 35">
       <r>  -41.0163    1.0000 </r>
       <r>  -40.8555    1.0000 </r>
       <r>  -40.7605    1.0000 </r>
       <r>    5.4052    1.0000 </r>
       <r>    7.2829    1.0000 </r>
       <r>    7.9504    1.0000 </r>
       <r>    9.0586    1.0000 </r>
       <r>    9.8738    1.0000 </r>
       <r>   12.6862    0.0000 </r>
       <r>   23.1931    0.0000 </r>
       <r>   26.5232    0.0000 </r>
       <r>   29.4756    0.0000 </r>
       <r>   33.4401    0.0000 </r>
       <r>   34.4800    0.0000 </r>
       <r>   39.6153    0.0000 </r>
       <r>   41.7461    0.0000 </r>
       <r>   42.6103    0.0000 </r>
       <r>   45.6877    0.0000 </r>
       <r>   47.8025    0.0000 </r>
       <r>   52.4927    0.0000 </r>
       <r>   53.6772    0.0000 </r>
       <r>   55.4860    0.0000 </r>
       <r>   56.6343    0.0000 </r>
       <r>   57.8299    0.0000 </r>
      </set>
      <set comment="kpoint 36">
       <r>  -41.0964    1.0000 </r>
       <r>  -40.8782    1.0000 </r>
       <r>  -40.7908    1.0000 </r>
       <r>    5.6085    1.0000 </r>
       <r>    7.4086    1.0000 </r>
       <r>    8.5774    1.0000 </r>
       <r>    8.8476    1.0000 </r>
       <r>   11.1514    1.0000 </r>
       <r>   14.5311    0.0000 </r>
       <r>   18.8536    0.0000 </r>
       <r>   25.9604    0.0000 </r>
       <r>   28.6800    0.0000 </r>
       <r>   30.7713    0.0000 </r>
       <r>   37.2771    0.0000 </r>
       <r>   39.3421    0.0000 </r>
       <r>   42.8463    0.0000 </r>
       <r>   46.5864    0.0000 </r>
       <r>   47.3750    0.0000 </r>
       <r>   48.2305    0.0000 </r>
       <r>   50.3787    0.0000 </r>
       <r>   52.4978    0.0000 </r>
       <r>   53.1396    0.0000 </r>
       <r>   57.8048    0.0000 </r>
       <r>   58.4472    0.0000 </r>
      </set>
      <set comment="kpoint 37">
       <r>  -41.1048    1.0000 </r>
       <r>  -40.8564    1.0000 </r>
       <r>  -40.8089    1.0000 </r>
       <r>    5.4680    1.0000 </r>
       <r>    7.3170    1.0000 </r>
       <r>    8.4241    1.0000 </r>
       <r>    8.9634    1.0000 </r>
       <r>   11.8992    0.0000 </r>
       <r>   14.4318    0.0000 </r>
       <r>   18.3554    0.0000 </r>
       <r>   26.7936    0.0000 </r>
       <r>   28.6822    0.0000 </r>
       <r>   29.5833    0.0000 </r>
       <r>   38.8434    0.0000 </r>
       <r>   40.0400    0.0000 </r>
       <r>   41.2594    0.0000 </r>
       <r>   43.2797    0.0000 </r>
       <r>   48.5595    0.0000 </r>
       <r>   49.3485    0.0000 </r>
       <r>   51.0371    0.0000 </r>
       <r>   52.4917    0.0000 </r>
       <r>   54.6209    0.0000 </r>
       <r>   56.3364    0.0000 </r>
       <r>   59.9628    0.0000 </r>
      </set>
      <set comment="kpoint 38">
       <r>  -41.0243    1.0000 </r>
       <r>  -40.8144    1.0000 </r>
       <r>  -40.8037    1.0000 </r>
       <r>    5.1938    1.0000 </r>
       <r>    6.8796    1.0000 </r>
       <r>    8.0358    1.0000 </r>
       <r>    9.2583    1.0000 </r>
       <r>   11.5077    1.0000 </r>
       <r>   11.5603    1.0000 </r>
       <r>   23.1548    0.0000 </r>
       <r>   28.2978    0.0000 </r>
       <r>   28.7564    0.0000 </r>
       <r>   31.1776    0.0000 </r>
       <r>   36.3169    0.0000 </r>
       <r>   38.2246    0.0000 </r>
       <r>   39.9278    0.0000 </r>
       <r>   42.8669    0.0000 </r>
       <r>   46.6714    0.0000 </r>
       <r>   50.1344    0.0000 </r>
       <r>   52.4876    0.0000 </r>
       <r>   52.9999    0.0000 </r>
       <r>   53.0213    0.0000 </r>
       <r>   55.9377    0.0000 </r>
       <r>   60.1941    0.0000 </r>
      </set>
      <set comment="kpoint 39">
       <r>  -40.9710    1.0000 </r>
       <r>  -40.7758    1.0000 </r>
       <r>  -40.7707    1.0000 </r>
       <r>    4.4372    1.0000 </r>
       <r>    7.2246    1.0000 </r>
       <r>    8.2718    1.0000 </r>
       <r>    8.8346    1.0000 </r>
       <r>   10.4444    1.0000 </r>
       <r>   11.0815    1.0000 </r>
       <r>   24.6095    0.0000 </r>
       <r>   28.5787    0.0000 </r>
       <r>   30.7736    0.0000 </r>
       <r>   32.3410    0.0000 </r>
       <r>   36.4158    0.0000 </r>
       <r>   37.2333    0.0000 </r>
       <r>   38.8053    0.0000 </r>
       <r>   42.4541    0.0000 </r>
       <r>   48.1091    0.0000 </r>
       <r>   48.7942    0.0000 </r>
       <r>   50.7176    0.0000 </r>
       <r>   51.9719    0.0000 </r>
       <r>   52.4960    0.0000 </r>
       <r>   57.5659    0.0000 </r>
       <r>   60.0721    0.0000 </r>
      </set>
      <set comment="kpoint 40">
       <r>  -41.0229    1.0000 </r>
       <r>  -40.8569    1.0000 </r>
       <r>  -40.7858    1.0000 </r>
       <r>    5.6030    1.0000 </r>
       <r>    6.8705    1.0000 </r>
       <r>    7.7176    1.0000 </r>
       <r>    9.5933    1.0000 </r>
       <r>   10.4125    1.0000 </r>
       <r>   12.6702    0.0000 </r>
       <r>   23.2604    0.0000 </r>
       <r>   26.4461    0.0000 </r>
       <r>   28.6917    0.0000 </r>
       <r>   32.7239    0.0000 </r>
       <r>   35.0764    0.0000 </r>
       <r>   39.3394    0.0000 </r>
       <r>   40.4687    0.0000 </r>
       <r>   43.4466    0.0000 </r>
       <r>   46.0674    0.0000 </r>
       <r>   48.8027    0.0000 </r>
       <r>   52.4906    0.0000 </r>
       <r>   52.9624    0.0000 </r>
       <r>   53.7501    0.0000 </r>
       <r>   57.1784    0.0000 </r>
       <r>   60.2874    0.0000 </r>
      </set>
      <set comment="kpoint 41">
       <r>  -41.0525    1.0000 </r>
       <r>  -40.9305    1.0000 </r>
       <r>  -40.8157    1.0000 </r>
       <r>    6.4720    1.0000 </r>
       <r>    6.9808    1.0000 </r>
       <r>    7.3082    1.0000 </r>
       <r>    9.7991    1.0000 </r>
       <r>   11.0408    1.0000 </r>
       <r>   14.7784    0.0000 </r>
       <r>   20.8548    0.0000 </r>
       <r>   23.7764    0.0000 </r>
       <r>   27.4806    0.0000 </r>
       <r>   32.6989    0.0000 </r>
       <r>   35.4810    0.0000 </r>
       <r>   40.5903    0.0000 </r>
       <r>   42.3247    0.0000 </r>
       <r>   43.6936    0.0000 </r>
       <r>   48.5350    0.0000 </r>
       <r>   48.8905    0.0000 </r>
       <r>   50.4389    0.0000 </r>
       <r>   52.4983    0.0000 </r>
       <r>   54.7276    0.0000 </r>
       <r>   56.5811    0.0000 </r>
       <r>   58.4177    0.0000 </r>
      </set>
      <set comment="kpoint 42">
       <r>  -41.0709    1.0000 </r>
       <r>  -40.9359    1.0000 </r>
       <r>  -40.8347    1.0000 </r>
       <r>    6.2292    1.0000 </r>
       <r>    6.8161    1.0000 </r>
       <r>    7.9509    1.0000 </r>
       <r>    9.6756    1.0000 </r>
       <r>   11.6364    0.9993 </r>
       <r>   16.9048    0.0000 </r>
       <r>   17.7343    0.0000 </r>
       <r>   24.5501    0.0000 </r>
       <r>   26.1003    0.0000 </r>
       <r>   31.9585    0.0000 </r>
       <r>   37.1792    0.0000 </r>
       <r>   41.2553    0.0000 </r>
       <r>   41.7758    0.0000 </r>
       <r>   44.1340    0.0000 </r>
       <r>   46.3246    0.0000 </r>
       <r>   51.1973    0.0000 </r>
       <r>   51.9398    0.0000 </r>
       <r>   52.4991    0.0000 </r>
       <r>   53.3416    0.0000 </r>
       <r>   56.6283    0.0000 </r>
       <r>   57.7710    0.0000 </r>
      </set>
      <set comment="kpoint 43">
       <r>  -41.0544    1.0000 </r>
       <r>  -40.8927    1.0000 </r>
       <r>  -40.8228    1.0000 </r>
       <r>    5.9765    1.0000 </r>
       <r>    6.5743    1.0000 </r>
       <r>    7.7511    1.0000 </r>
       <r>   10.1779    1.0000 </r>
       <r>   11.1390    1.0000 </r>
       <r>   13.7909    0.0000 </r>
       <r>   21.8253    0.0000 </r>
       <r>   24.9008    0.0000 </r>
       <r>   27.0558    0.0000 </r>
       <r>   32.9016    0.0000 </r>
       <r>   35.0779    0.0000 </r>
       <r>   39.6987    0.0000 </r>
       <r>   41.4996    0.0000 </r>
       <r>   44.4682    0.0000 </r>
       <r>   46.7706    0.0000 </r>
       <r>   49.5321    0.0000 </r>
       <r>   50.2852    0.0000 </r>
       <r>   52.4930    0.0000 </r>
       <r>   55.6984    0.0000 </r>
       <r>   57.6118    0.0000 </r>
       <r>   60.0785    0.0000 </r>
      </set>
      <set comment="kpoint 44">
       <r>  -41.0625    1.0000 </r>
       <r>  -40.8631    1.0000 </r>
       <r>  -40.8295    1.0000 </r>
       <r>    5.5257    1.0000 </r>
       <r>    6.4871    1.0000 </r>
       <r>    8.3565    1.0000 </r>
       <r>    9.8039    1.0000 </r>
       <r>   11.8957    0.0000 </r>
       <r>   13.0206    0.0000 </r>
       <r>   21.4921    0.0000 </r>
       <r>   26.7691    0.0000 </r>
       <r>   27.0299    0.0000 </r>
       <r>   31.0284    0.0000 </r>
       <r>   36.1578    0.0000 </r>
       <r>   39.1596    0.0000 </r>
       <r>   41.2325    0.0000 </r>
       <r>   44.6064    0.0000 </r>
       <r>   46.0228    0.0000 </r>
       <r>   49.0510    0.0000 </r>
       <r>   52.4903    0.0000 </r>
       <r>   53.7693    0.0000 </r>
       <r>   54.4691    0.0000 </r>
       <r>   56.8749    0.0000 </r>
       <r>   59.7511    0.0000 </r>
      </set>
      <set comment="kpoint 45">
       <r>  -41.0706    1.0000 </r>
       <r>  -40.9229    1.0000 </r>
       <r>  -40.8549    1.0000 </r>
       <r>    5.8668    1.0000 </r>
       <r>    6.3003    1.0000 </r>
       <r>    8.3579    1.0000 </r>
       <r>   10.5637    1.0000 </r>
       <r>   11.7307    0.7036 </r>
       <r>   15.3439    0.0000 </r>
       <r>   20.4907    0.0000 </r>
       <r>   23.4057    0.0000 </r>
       <r>   25.2078    0.0000 </r>
       <r>   33.4804    0.0000 </r>
       <r>   35.6055    0.0000 </r>
       <r>   39.2691    0.0000 </r>
       <r>   43.0897    0.0000 </r>
       <r>   44.6316    0.0000 </r>
       <r>   47.4915    0.0000 </r>
       <r>   49.2155    0.0000 </r>
       <r>   51.2420    0.0000 </r>
       <r>   52.4985    0.0000 </r>
       <r>   53.3203    0.0000 </r>
       <r>   59.0384    0.0000 </r>
       <r>   59.7221    0.0000 </r>
      </set>
      <set comment="kpoint 46">
       <r>  -41.0340    1.0000 </r>
       <r>  -40.9838    1.0000 </r>
       <r>  -40.8743    1.0000 </r>
       <r>    6.2092    1.0000 </r>
       <r>    6.8560    1.0000 </r>
       <r>    7.7900    1.0000 </r>
       <r>    9.9593    1.0000 </r>
       <r>   12.1283    0.0000 </r>
       <r>   18.0662    0.0000 </r>
       <r>   19.3860    0.0000 </r>
       <r>   21.2615    0.0000 </r>
       <r>   24.1442    0.0000 </r>
       <r>   34.9431    0.0000 </r>
       <r>   36.4995    0.0000 </r>
       <r>   39.0995    0.0000 </r>
       <r>   43.3852    0.0000 </r>
       <r>   44.1617    0.0000 </r>
       <r>   45.7987    0.0000 </r>
       <r>   48.7689    0.0000 </r>
       <r>   52.4997    0.0000 </r>
       <r>   53.6129    0.0000 </r>
       <r>   55.3815    0.0000 </r>
       <r>   57.7543    0.0000 </r>
       <r>   58.6833    0.0000 </r>
      </set>
      <set comment="kpoint 47">
       <r>  -41.0473    1.0000 </r>
       <r>  -40.9617    1.0000 </r>
       <r>  -40.8504    1.0000 </r>
       <r>    6.4341    1.0000 </r>
       <r>    6.8417    1.0000 </r>
       <r>    7.4865    1.0000 </r>
       <r>   10.0193    1.0000 </r>
       <r>   11.6798    0.9757 </r>
       <r>   16.3369    0.0000 </r>
       <r>   19.9580    0.0000 </r>
       <r>   22.5687    0.0000 </r>
       <r>   25.4652    0.0000 </r>
       <r>   33.7566    0.0000 </r>
       <r>   35.9339    0.0000 </r>
       <r>   40.9539    0.0000 </r>
       <r>   42.4018    0.0000 </r>
       <r>   43.3863    0.0000 </r>
       <r>   46.4720    0.0000 </r>
       <r>   50.9122    0.0000 </r>
       <r>   52.1369    0.0000 </r>
       <r>   52.4987    0.0000 </r>
       <r>   53.0863    0.0000 </r>
       <r>   56.8623    0.0000 </r>
       <r>   59.2190    0.0000 </r>
      </set>
      <set comment="kpoint 48">
       <r>  -41.0923    1.0000 </r>
       <r>  -40.9353    1.0000 </r>
       <r>  -40.8592    1.0000 </r>
       <r>    5.3805    1.0000 </r>
       <r>    5.9745    1.0000 </r>
       <r>    9.6788    1.0000 </r>
       <r>   10.8722    1.0000 </r>
       <r>   11.9231    0.0000 </r>
       <r>   16.6003    0.0000 </r>
       <r>   18.8004    0.0000 </r>
       <r>   22.5035    0.0000 </r>
       <r>   25.1559    0.0000 </r>
       <r>   32.2363    0.0000 </r>
       <r>   36.3891    0.0000 </r>
       <r>   39.4589    0.0000 </r>
       <r>   42.2022    0.0000 </r>
       <r>   47.7925    0.0000 </r>
       <r>   48.2276    0.0000 </r>
       <r>   49.2803    0.0000 </r>
       <r>   51.7316    0.0000 </r>
       <r>   52.4958    0.0000 </r>
       <r>   54.1772    0.0000 </r>
       <r>   54.6841    0.0000 </r>
       <r>   56.6141    0.0000 </r>
      </set>
      <set comment="kpoint 49">
       <r>  -41.0760    1.0000 </r>
       <r>  -40.9414    1.0000 </r>
       <r>  -40.8737    1.0000 </r>
       <r>    5.7102    1.0000 </r>
       <r>    6.1639    1.0000 </r>
       <r>    8.9266    1.0000 </r>
       <r>   10.5752    1.0000 </r>
       <r>   12.1324    0.0000 </r>
       <r>   17.1122    0.0000 </r>
       <r>   19.2693    0.0000 </r>
       <r>   22.1302    0.0000 </r>
       <r>   24.1273    0.0000 </r>
       <r>   34.1100    0.0000 </r>
       <r>   36.2015    0.0000 </r>
       <r>   38.4439    0.0000 </r>
       <r>   43.7593    0.0000 </r>
       <r>   45.9934    0.0000 </r>
       <r>   46.5880    0.0000 </r>
       <r>   49.1575    0.0000 </r>
       <r>   52.1234    0.0000 </r>
       <r>   52.4992    0.0000 </r>
       <r>   53.8077    0.0000 </r>
       <r>   56.7464    0.0000 </r>
       <r>   58.6008    0.0000 </r>
      </set>
      <set comment="kpoint 50">
       <r>  -41.0839    1.0000 </r>
       <r>  -40.9077    1.0000 </r>
       <r>  -40.8486    1.0000 </r>
       <r>    5.4828    1.0000 </r>
       <r>    6.1496    1.0000 </r>
       <r>    9.0996    1.0000 </r>
       <r>   10.3968    1.0000 </r>
       <r>   12.0080    0.0000 </r>
       <r>   14.8440    0.0000 </r>
       <r>   19.9389    0.0000 </r>
       <r>   24.4412    0.0000 </r>
       <r>   25.7952    0.0000 </r>
       <r>   31.6537    0.0000 </r>
       <r>   36.2591    0.0000 </r>
       <r>   39.5053    0.0000 </r>
       <r>   42.1241    0.0000 </r>
       <r>   46.7364    0.0000 </r>
       <r>   46.7812    0.0000 </r>
       <r>   48.0395    0.0000 </r>
       <r>   52.4951    0.0000 </r>
       <r>   53.6830    0.0000 </r>
       <r>   54.2081    0.0000 </r>
       <r>   56.6228    0.0000 </r>
       <r>   57.2938    0.0000 </r>
      </set>
      <set comment="kpoint 51">
       <r>  -41.0223    1.0000 </r>
       <r>  -40.7562    1.0000 </r>
       <r>  -40.7562    1.0000 </r>
       <r>    4.2938    1.0000 </r>
       <r>    8.2634    1.0000 </r>
       <r>    8.3194    1.0000 </r>
       <r>    8.3194    1.0000 </r>
       <r>   10.8101    1.0000 </r>
       <r>   10.8101    1.0000 </r>
       <r>   22.7742    0.0000 </r>
       <r>   27.4520    0.0000 </r>
       <r>   33.4974    0.0000 </r>
       <r>   33.4974    0.0000 </r>
       <r>   36.1217    0.0000 </r>
       <r>   36.8173    0.0000 </r>
       <r>   36.8173    0.0000 </r>
       <r>   46.9746    0.0000 </r>
       <r>   46.9746    0.0000 </r>
       <r>   48.2835    0.0000 </r>
       <r>   51.5924    0.0000 </r>
       <r>   52.4956    0.0000 </r>
       <r>   53.9787    0.0000 </r>
       <r>   53.9787    0.0000 </r>
       <r>   61.4831    0.0000 </r>
      </set>
      <set comment="kpoint 52">
       <r>  -41.0605    1.0000 </r>
       <r>  -40.8190    1.0000 </r>
       <r>  -40.7628    1.0000 </r>
       <r>    5.0131    1.0000 </r>
       <r>    7.9102    1.0000 </r>
       <r>    8.2494    1.0000 </r>
       <r>    8.5571    1.0000 </r>
       <r>   10.5575    1.0000 </r>
       <r>   12.4896    0.0000 </r>
       <r>   21.4472    0.0000 </r>
       <r>   27.3360    0.0000 </r>
       <r>   29.3248    0.0000 </r>
       <r>   33.4578    0.0000 </r>
       <r>   35.2804    0.0000 </r>
       <r>   39.1810    0.0000 </r>
       <r>   40.8469    0.0000 </r>
       <r>   43.5609    0.0000 </r>
       <r>   47.1164    0.0000 </r>
       <r>   49.1928    0.0000 </r>
       <r>   52.0719    0.0000 </r>
       <r>   52.4979    0.0000 </r>
       <r>   54.7500    0.0000 </r>
       <r>   56.3781    0.0000 </r>
       <r>   57.7264    0.0000 </r>
      </set>
      <set comment="kpoint 53">
       <r>  -41.0500    1.0000 </r>
       <r>  -40.9330    1.0000 </r>
       <r>  -40.7931    1.0000 </r>
       <r>    6.1855    1.0000 </r>
       <r>    7.3152    1.0000 </r>
       <r>    7.7302    1.0000 </r>
       <r>    9.3342    1.0000 </r>
       <r>   10.6175    1.0000 </r>
       <r>   14.5329    0.0000 </r>
       <r>   20.9526    0.0000 </r>
       <r>   23.8113    0.0000 </r>
       <r>   29.4457    0.0000 </r>
       <r>   31.1169    0.0000 </r>
       <r>   35.9295    0.0000 </r>
       <r>   39.1220    0.0000 </r>
       <r>   43.0909    0.0000 </r>
       <r>   46.0761    0.0000 </r>
       <r>   47.8657    0.0000 </r>
       <r>   48.5084    0.0000 </r>
       <r>   50.8042    0.0000 </r>
       <r>   52.5020    0.0000 </r>
       <r>   53.5986    0.0000 </r>
       <r>   56.0528    0.0000 </r>
       <r>   58.5329    0.0000 </r>
      </set>
      <set comment="kpoint 54">
       <r>  -41.0450    1.0000 </r>
       <r>  -40.9843    1.0000 </r>
       <r>  -40.8287    1.0000 </r>
       <r>    5.9320    1.0000 </r>
       <r>    6.8867    1.0000 </r>
       <r>    8.3462    1.0000 </r>
       <r>    9.9759    1.0000 </r>
       <r>   11.3594    1.0000 </r>
       <r>   16.4886    0.0000 </r>
       <r>   19.1757    0.0000 </r>
       <r>   22.2633    0.0000 </r>
       <r>   27.8747    0.0000 </r>
       <r>   30.7118    0.0000 </r>
       <r>   38.8276    0.0000 </r>
       <r>   38.9872    0.0000 </r>
       <r>   40.2212    0.0000 </r>
       <r>   48.0940    0.0000 </r>
       <r>   48.6058    0.0000 </r>
       <r>   49.7228    0.0000 </r>
       <r>   51.7732    0.0000 </r>
       <r>   52.5005    0.0000 </r>
       <r>   52.6607    0.0000 </r>
       <r>   55.0487    0.0000 </r>
       <r>   58.4371    0.0000 </r>
      </set>
      <set comment="kpoint 55">
       <r>  -41.0993    1.0000 </r>
       <r>  -40.8031    1.0000 </r>
       <r>  -40.7915    1.0000 </r>
       <r>    5.0273    1.0000 </r>
       <r>    7.7566    1.0000 </r>
       <r>    8.5607    1.0000 </r>
       <r>    8.5638    1.0000 </r>
       <r>   11.7976    0.0872 </r>
       <r>   12.5270    0.0000 </r>
       <r>   19.7722    0.0000 </r>
       <r>   27.1465    0.0000 </r>
       <r>   29.7628    0.0000 </r>
       <r>   30.8160    0.0000 </r>
       <r>   38.3028    0.0000 </r>
       <r>   39.6496    0.0000 </r>
       <r>   40.4027    0.0000 </r>
       <r>   42.5986    0.0000 </r>
       <r>   49.3871    0.0000 </r>
       <r>   49.4520    0.0000 </r>
       <r>   51.2112    0.0000 </r>
       <r>   52.4942    0.0000 </r>
       <r>   55.1363    0.0000 </r>
       <r>   55.9910    0.0000 </r>
       <r>   57.5852    0.0000 </r>
      </set>
      <set comment="kpoint 56">
       <r>  -41.0885    1.0000 </r>
       <r>  -40.8896    1.0000 </r>
       <r>  -40.8105    1.0000 </r>
       <r>    5.8525    1.0000 </r>
       <r>    7.1436    1.0000 </r>
       <r>    8.1099    1.0000 </r>
       <r>    9.2518    1.0000 </r>
       <r>   11.4777    1.0000 </r>
       <r>   14.9556    0.0000 </r>
       <r>   18.7619    0.0000 </r>
       <r>   26.1079    0.0000 </r>
       <r>   27.2436    0.0000 </r>
       <r>   31.2208    0.0000 </r>
       <r>   37.1825    0.0000 </r>
       <r>   40.4414    0.0000 </r>
       <r>   42.7225    0.0000 </r>
       <r>   43.5288    0.0000 </r>
       <r>   47.7413    0.0000 </r>
       <r>   49.6594    0.0000 </r>
       <r>   50.3491    0.0000 </r>
       <r>   52.4959    0.0000 </r>
       <r>   54.1848    0.0000 </r>
       <r>   57.6857    0.0000 </r>
       <r>   58.2000    0.0000 </r>
      </set>
      <set comment="kpoint 57">
       <r>  -41.0352    1.0000 </r>
       <r>  -40.9872    1.0000 </r>
       <r>  -40.8479    1.0000 </r>
       <r>    6.2934    1.0000 </r>
       <r>    6.8514    1.0000 </r>
       <r>    7.8297    1.0000 </r>
       <r>    9.9084    1.0000 </r>
       <r>   11.6836    0.9690 </r>
       <r>   17.0168    0.0000 </r>
       <r>   19.3047    0.0000 </r>
       <r>   22.0821    0.0000 </r>
       <r>   25.8049    0.0000 </r>
       <r>   32.9639    0.0000 </r>
       <r>   36.8930    0.0000 </r>
       <r>   40.6796    0.0000 </r>
       <r>   41.6721    0.0000 </r>
       <r>   44.2435    0.0000 </r>
       <r>   46.8486    0.0000 </r>
       <r>   51.1044    0.0000 </r>
       <r>   52.4991    0.0000 </r>
       <r>   53.0629    0.0000 </r>
       <r>   53.6211    0.0000 </r>
       <r>   55.2842    0.0000 </r>
       <r>   58.5920    0.0000 </r>
      </set>
      <set comment="kpoint 58">
       <r>  -41.0855    1.0000 </r>
       <r>  -40.9201    1.0000 </r>
       <r>  -40.8216    1.0000 </r>
       <r>    5.8054    1.0000 </r>
       <r>    6.9941    1.0000 </r>
       <r>    8.3521    1.0000 </r>
       <r>    9.4886    1.0000 </r>
       <r>   11.6990    0.9237 </r>
       <r>   16.6622    0.0000 </r>
       <r>   17.2349    0.0000 </r>
       <r>   24.7935    0.0000 </r>
       <r>   28.1000    0.0000 </r>
       <r>   30.0017    0.0000 </r>
       <r>   39.0219    0.0000 </r>
       <r>   39.2893    0.0000 </r>
       <r>   40.9143    0.0000 </r>
       <r>   45.9297    0.0000 </r>
       <r>   48.1132    0.0000 </r>
       <r>   49.4523    0.0000 </r>
       <r>   51.2944    0.0000 </r>
       <r>   52.4967    0.0000 </r>
       <r>   53.7031    0.0000 </r>
       <r>   56.3687    0.0000 </r>
       <r>   59.9929    0.0000 </r>
      </set>
      <set comment="kpoint 59">
       <r>  -41.1420    1.0000 </r>
       <r>  -40.7738    1.0000 </r>
       <r>  -40.7738    1.0000 </r>
       <r>    4.5854    1.0000 </r>
       <r>    8.0537    1.0000 </r>
       <r>    8.0537    1.0000 </r>
       <r>   10.6704    1.0000 </r>
       <r>   11.6813    0.9733 </r>
       <r>   11.6813    0.9733 </r>
       <r>   18.4382    0.0000 </r>
       <r>   26.1785    0.0000 </r>
       <r>   31.0223    0.0000 </r>
       <r>   31.0223    0.0000 </r>
       <r>   39.3470    0.0000 </r>
       <r>   39.3470    0.0000 </r>
       <r>   40.0926    0.0000 </r>
       <r>   46.8738    0.0000 </r>
       <r>   46.8738    0.0000 </r>
       <r>   47.6783    0.0000 </r>
       <r>   52.4936    0.0000 </r>
       <r>   55.1254    0.0000 </r>
       <r>   55.1254    0.0000 </r>
       <r>   56.4285    0.0000 </r>
       <r>   57.5364    0.0000 </r>
      </set>
      <set comment="kpoint 60">
       <r>  -41.1342    1.0000 </r>
       <r>  -40.8237    1.0000 </r>
       <r>  -40.7862    1.0000 </r>
       <r>    5.0664    1.0000 </r>
       <r>    7.6613    1.0000 </r>
       <r>    8.4001    1.0000 </r>
       <r>    9.5148    1.0000 </r>
       <r>   11.6302    0.9996 </r>
       <r>   14.0704    0.0000 </r>
       <r>   17.5364    0.0000 </r>
       <r>   26.6931    0.0000 </r>
       <r>   29.0268    0.0000 </r>
       <r>   30.4273    0.0000 </r>
       <r>   38.9370    0.0000 </r>
       <r>   39.5237    0.0000 </r>
       <r>   42.4169    0.0000 </r>
       <r>   46.1465    0.0000 </r>
       <r>   47.2736    0.0000 </r>
       <r>   47.4054    0.0000 </r>
       <r>   52.2757    0.0000 </r>
       <r>   52.5018    0.0000 </r>
       <r>   52.9807    0.0000 </r>
       <r>   57.6837    0.0000 </r>
       <r>   58.2606    0.0000 </r>
      </set>
     </set>
    </set>
   </array>
  </eigenvalues>
  <separator name="orbital magnetization" >
   <v name="MAGDIPOLOUT">      0.00000000      0.00000000      0.00000000</v>
  </separator>
  <dos>
   <i name="efermi">     11.74956059 </i>
   <total>
    <array>
     <dimension dim="1">gridpoints</dimension>
     <dimension dim="2">spin</dimension>
     <field>energy</field>
     <field>total</field>
     <field>integrated</field>
     <set>
      <set comment="spin 1">
       <r>   -46.3971     0.0000     0.0000 </r>
       <r>   -46.0124     0.0000     0.0000 </r>
       <r>   -45.6276     0.0000     0.0000 </r>
       <r>   -45.2429     0.0000     0.0000 </r>
       <r>   -44.8581     0.0000     0.0000 </r>
       <r>   -44.4734     0.0000     0.0000 </r>
       <r>   -44.0886     0.0000     0.0000 </r>
       <r>   -43.7039     0.0000     0.0000 </r>
       <r>   -43.3191     0.0000     0.0000 </r>
       <r>   -42.9344     0.0000     0.0000 </r>
       <r>   -42.5497     0.0000     0.0000 </r>
       <r>   -42.1649     0.0000     0.0000 </r>
       <r>   -41.7802     0.0000     0.0000 </r>
       <r>   -41.3954     0.0000     0.0000 </r>
       <r>   -41.0107     3.9242     1.5098 </r>
       <r>   -40.6259    11.4117     5.9995 </r>
       <r>   -40.2412     0.0000     6.0000 </r>
       <r>   -39.8565     0.0000     6.0000 </r>
       <r>   -39.4717     0.0000     6.0000 </r>
       <r>   -39.0870     0.0000     6.0000 </r>
       <r>   -38.7022     0.0000     6.0000 </r>
       <r>   -38.3175     0.0000     6.0000 </r>
       <r>   -37.9327     0.0000     6.0000 </r>
       <r>   -37.5480     0.0000     6.0000 </r>
       <r>   -37.1632     0.0000     6.0000 </r>
       <r>   -36.7785     0.0000     6.0000 </r>
       <r>   -36.3938     0.0000     6.0000 </r>
       <r>   -36.0090     0.0000     6.0000 </r>
       <r>   -35.6243     0.0000     6.0000 </r>
       <r>   -35.2395     0.0000     6.0000 </r>
       <r>   -34.8548     0.0000     6.0000 </r>
       <r>   -34.4700     0.0000     6.0000 </r>
       <r>   -34.0853     0.0000     6.0000 </r>
       <r>   -33.7006     0.0000     6.0000 </r>
       <r>   -33.3158     0.0000     6.0000 </r>
       <r>   -32.9311     0.0000     6.0000 </r>
       <r>   -32.5463     0.0000     6.0000 </r>
       <r>   -32.1616     0.0000     6.0000 </r>
       <r>   -31.7768     0.0000     6.0000 </r>
       <r>   -31.3921     0.0000     6.0000 </r>
       <r>   -31.0074     0.0000     6.0000 </r>
       <r>   -30.6226     0.0000     6.0000 </r>
       <r>   -30.2379     0.0000     6.0000 </r>
       <r>   -29.8531     0.0000     6.0000 </r>
       <r>   -29.4684     0.0000     6.0000 </r>
       <r>   -29.0836     0.0000     6.0000 </r>
       <r>   -28.6989     0.0000     6.0000 </r>
       <r>   -28.3141     0.0000     6.0000 </r>
       <r>   -27.9294     0.0000     6.0000 </r>
       <r>   -27.5447     0.0000     6.0000 </r>
       <r>   -27.1599     0.0000     6.0000 </r>
       <r>   -26.7752     0.0000     6.0000 </r>
       <r>   -26.3904     0.0000     6.0000 </r>
       <r>   -26.0057     0.0000     6.0000 </r>
       <r>   -25.6209     0.0000     6.0000 </r>
       <r>   -25.2362     0.0000     6.0000 </r>
       <r>   -24.8515     0.0000     6.0000 </r>
       <r>   -24.4667     0.0000     6.0000 </r>
       <r>   -24.0820     0.0000     6.0000 </r>
       <r>   -23.6972     0.0000     6.0000 </r>
       <r>   -23.3125     0.0000     6.0000 </r>
       <r>   -22.9277     0.0000     6.0000 </r>
       <r>   -22.5430     0.0000     6.0000 </r>
       <r>   -22.1582     0.0000     6.0000 </r>
       <r>   -21.7735     0.0000     6.0000 </r>
       <r>   -21.3888     0.0000     6.0000 </r>
       <r>   -21.0040     0.0000     6.0000 </r>
       <r>   -20.6193     0.0000     6.0000 </r>
       <r>   -20.2345     0.0000     6.0000 </r>
       <r>   -19.8498     0.0000     6.0000 </r>
       <r>   -19.4650     0.0000     6.0000 </r>
       <r>   -19.0803     0.0000     6.0000 </r>
       <r>   -18.6956     0.0000     6.0000 </r>
       <r>   -18.3108     0.0000     6.0000 </r>
       <r>   -17.9261     0.0000     6.0000 </r>
       <r>   -17.5413     0.0000     6.0000 </r>
       <r>   -17.1566     0.0000     6.0000 </r>
       <r>   -16.7718     0.0000     6.0000 </r>
       <r>   -16.3871     0.0000     6.0000 </r>
       <r>   -16.0024     0.0000     6.0000 </r>
       <r>   -15.6176     0.0000     6.0000 </r>
       <r>   -15.2329     0.0000     6.0000 </r>
       <r>   -14.8481     0.0000     6.0000 </r>
       <r>   -14.4634     0.0000     6.0000 </r>
       <r>   -14.0786     0.0000     6.0000 </r>
       <r>   -13.6939     0.0000     6.0000 </r>
       <r>   -13.3091     0.0000     6.0000 </r>
       <r>   -12.9244     0.0000     6.0000 </r>
       <r>   -12.5397     0.0000     6.0000 </r>
       <r>   -12.1549     0.0000     6.0000 </r>
       <r>   -11.7702     0.0000     6.0000 </r>
       <r>   -11.3854     0.0000     6.0000 </r>
       <r>   -11.0007     0.0000     6.0000 </r>
       <r>   -10.6159     0.0000     6.0000 </r>
       <r>   -10.2312     0.0000     6.0000 </r>
       <r>    -9.8465     0.0000     6.0000 </r>
       <r>    -9.4617     0.0000     6.0000 </r>
       <r>    -9.0770     0.0000     6.0000 </r>
       <r>    -8.6922     0.0000     6.0000 </r>
       <r>    -8.3075     0.0000     6.0000 </r>
       <r>    -7.9227     0.0000     6.0000 </r>
       <r>    -7.5380     0.0000     6.0000 </r>
       <r>    -7.1532     0.0000     6.0000 </r>
       <r>    -6.7685     0.0000     6.0000 </r>
       <r>    -6.3838     0.0000     6.0000 </r>
       <r>    -5.9990     0.0000     6.0000 </r>
       <r>    -5.6143     0.0000     6.0000 </r>
       <r>    -5.2295     0.0000     6.0000 </r>
       <r>    -4.8448     0.0000     6.0000 </r>
       <r>    -4.4600     0.0000     6.0000 </r>
       <r>    -4.0753     0.0000     6.0000 </r>
       <r>    -3.6906     0.0000     6.0000 </r>
       <r>    -3.3058     0.0000     6.0000 </r>
       <r>    -2.9211     0.0000     6.0000 </r>
       <r>    -2.5363     0.0000     6.0000 </r>
       <r>    -2.1516     0.0000     6.0000 </r>
       <r>    -1.7668     0.0000     6.0000 </r>
       <r>    -1.3821     0.0000     6.0000 </r>
       <r>    -0.9974     0.0000     6.0000 </r>
       <r>    -0.6126     0.0000     6.0000 </r>
       <r>    -0.2279     0.0000     6.0000 </r>
       <r>     0.1569     0.0000     6.0000 </r>
       <r>     0.5416     0.0000     6.0000 </r>
       <r>     0.9264     0.0000     6.0000 </r>
       <r>     1.3111     0.0000     6.0000 </r>
       <r>     1.6959     0.0000     6.0000 </r>
       <r>     2.0806     0.0203     6.0078 </r>
       <r>     2.4653     0.0609     6.0313 </r>
       <r>     2.8501     0.0609     6.0547 </r>
       <r>     3.2348     0.0812     6.0859 </r>
       <r>     3.6196     0.1545     6.1454 </r>
       <r>     4.0043     0.0907     6.1803 </r>
       <r>     4.3891     0.2482     6.2829 </r>
       <r>     4.7738     0.4018     6.4379 </r>
       <r>     5.1585     0.6533     6.6907 </r>
       <r>     5.5433     1.2761     7.1821 </r>
       <r>     5.9280     1.4543     7.7525 </r>
       <r>     6.3128     1.2269     8.2329 </r>
       <r>     6.6975     0.8547     8.5836 </r>
       <r>     7.0823     1.3423     9.1024 </r>
       <r>     7.4670     1.2910     9.6147 </r>
       <r>     7.8518     1.7498    10.2918 </r>
       <r>     8.2365     1.3575    10.8528 </r>
       <r>     8.6212     2.2492    11.7295 </r>
       <r>     9.0060     1.5044    12.3155 </r>
       <r>     9.3907     0.9700    12.7031 </r>
       <r>     9.7755     1.4536    13.2671 </r>
       <r>    10.1602     1.3536    13.7881 </r>
       <r>    10.5450     1.3771    14.3195 </r>
       <r>    10.9297     0.8606    14.6627 </r>
       <r>    11.3144     1.4297    15.2140 </r>
       <r>    11.6992     1.6064    15.8354 </r>
       <r>    12.0839     1.3746    16.4034 </r>
       <r>    12.4687     0.4576    16.5799 </r>
       <r>    12.8534     0.6450    16.8280 </r>
       <r>    13.2382     0.1683    16.8929 </r>
       <r>    13.6229     0.1786    16.9671 </r>
       <r>    14.0077     0.3007    17.0829 </r>
       <r>    14.3924     0.2291    17.1828 </r>
       <r>    14.7771     0.2357    17.2735 </r>
       <r>    15.1619     0.3654    17.4141 </r>
       <r>    15.5466     0.1891    17.4868 </r>
       <r>    15.9314     0.3539    17.6230 </r>
       <r>    16.3161     0.0948    17.6615 </r>
       <r>    16.7009     0.2623    17.7624 </r>
       <r>    17.0856     0.2681    17.8688 </r>
       <r>    17.4703     0.2731    17.9751 </r>
       <r>    17.8551     0.4708    18.1584 </r>
       <r>    18.2398     0.2249    18.2506 </r>
       <r>    18.6246     0.2262    18.3449 </r>
       <r>    19.0093     0.3423    18.4766 </r>
       <r>    19.3941     0.3757    18.6211 </r>
       <r>    19.7788     0.1288    18.6710 </r>
       <r>    20.1635     0.6791    18.9392 </r>
       <r>    20.5483     0.1206    18.9917 </r>
       <r>    20.9330     0.1937    19.0687 </r>
       <r>    21.3178     0.2158    19.1523 </r>
       <r>    21.7025     0.3653    19.2969 </r>
       <r>    22.0873     0.3254    19.4221 </r>
       <r>    22.4720     0.3565    19.5592 </r>
       <r>    22.8568     0.4948    19.7496 </r>
       <r>    23.2415     0.4219    19.9124 </r>
       <r>    23.6262     0.2685    20.0312 </r>
       <r>    24.0110     0.3314    20.1587 </r>
       <r>    24.3957     0.4835    20.3456 </r>
       <r>    24.7805     0.5435    20.5594 </r>
       <r>    25.1652     0.6016    20.7908 </r>
       <r>    25.5500     0.3747    20.9449 </r>
       <r>    25.9347     0.5545    21.1587 </r>
       <r>    26.3194     0.6174    21.4025 </r>
       <r>    26.7042     0.4218    21.5666 </r>
       <r>    27.0889     1.0532    21.9784 </r>
       <r>    27.4737     0.5962    22.2172 </r>
       <r>    27.8584     0.5763    22.4410 </r>
       <r>    28.2432     0.7249    22.7199 </r>
       <r>    28.6279     0.6693    22.9828 </r>
       <r>    29.0127     0.8526    23.3127 </r>
       <r>    29.3974     0.1693    23.3779 </r>
       <r>    29.7821     0.4002    23.5323 </r>
       <r>    30.1669     0.3267    23.6649 </r>
       <r>    30.5516     0.6088    23.9139 </r>
       <r>    30.9364     0.3413    24.0532 </r>
       <r>    31.3211     0.8921    24.3965 </r>
       <r>    31.7059     0.7922    24.7088 </r>
       <r>    32.0906     0.5628    24.9448 </r>
       <r>    32.4753     0.7125    25.2190 </r>
       <r>    32.8601     0.5147    25.4171 </r>
       <r>    33.2448     0.7068    25.6890 </r>
       <r>    33.6296     0.4427    25.8594 </r>
       <r>    34.0143     0.2442    25.9533 </r>
       <r>    34.3991     0.4182    26.1142 </r>
       <r>    34.7838     0.3860    26.2659 </r>
       <r>    35.1685     0.5259    26.4683 </r>
       <r>    35.5533     0.3522    26.6043 </r>
       <r>    35.9380     0.3456    26.7456 </r>
       <r>    36.3228     0.7919    27.0589 </r>
       <r>    36.7075     0.4509    27.2345 </r>
       <r>    37.0923     0.4923    27.4239 </r>
       <r>    37.4770     0.6565    27.6765 </r>
       <r>    37.8618     0.4238    27.8426 </r>
       <r>    38.2465     0.4221    28.0097 </r>
       <r>    38.6312     1.0612    28.4243 </r>
       <r>    39.0160     0.5395    28.6383 </r>
       <r>    39.4007     1.1591    29.0895 </r>
       <r>    39.7855     1.7042    29.7584 </r>
       <r>    40.1702     0.9985    30.1542 </r>
       <r>    40.5550     0.6944    30.4252 </r>
       <r>    40.9397     0.4864    30.6152 </r>
       <r>    41.3244     0.5436    30.8300 </r>
       <r>    41.7092     0.8407    31.1555 </r>
       <r>    42.0939     0.5124    31.3618 </r>
       <r>    42.4787     0.7967    31.6706 </r>
       <r>    42.8634     0.8314    31.9984 </r>
       <r>    43.2482     0.5853    32.2309 </r>
       <r>    43.6329     0.9142    32.5827 </r>
       <r>    44.0177     0.7657    32.8780 </r>
       <r>    44.4024     0.9990    33.2699 </r>
       <r>    44.7871     0.6048    33.5156 </r>
       <r>    45.1719     0.1284    33.5650 </r>
       <r>    45.5566     0.3950    33.7170 </r>
       <r>    45.9414     0.7398    34.0119 </r>
       <r>    46.3261     0.7142    34.3009 </r>
       <r>    46.7109     0.9496    34.6709 </r>
       <r>    47.0956     0.7748    34.9921 </r>
       <r>    47.4803     0.7798    35.2954 </r>
       <r>    47.8651     1.1449    35.7363 </r>
       <r>    48.2498     0.9489    36.1032 </r>
       <r>    48.6346     1.0960    36.5518 </r>
       <r>    49.0193     0.9355    36.9187 </r>
       <r>    49.4041     1.4023    37.4594 </r>
       <r>    49.7888     0.8846    37.8196 </r>
       <r>    50.1735     0.2377    37.9118 </r>
       <r>    50.5583     0.9701    38.2953 </r>
       <r>    50.9430     0.2921    38.4093 </r>
       <r>    51.3278     1.1905    38.8763 </r>
       <r>    51.7125     0.5536    39.0938 </r>
       <r>    52.0973     0.7735    39.3915 </r>
       <r>    52.4820     2.7421    40.4522 </r>
       <r>    52.8668     3.9004    41.9619 </r>
       <r>    53.2515     1.1136    42.3921 </r>
       <r>    53.6362     0.7167    42.6756 </r>
       <r>    54.0210     0.8454    43.0215 </r>
       <r>    54.4057     0.7148    43.2985 </r>
       <r>    54.7905     1.1384    43.7365 </r>
       <r>    55.1752     0.5144    43.9393 </r>
       <r>    55.5600     0.7734    44.2510 </r>
       <r>    55.9447     0.8611    44.6033 </r>
       <r>    56.3294     0.3530    44.7435 </r>
       <r>    56.7142     1.3309    45.2555 </r>
       <r>    57.0989     0.9224    45.6322 </r>
       <r>    57.4837     0.6069    45.8710 </r>
       <r>    57.8684     1.2727    46.3763 </r>
       <r>    58.2532     0.3151    46.5067 </r>
       <r>    58.6379     0.8073    46.8204 </r>
       <r>    59.0227     0.7104    47.1052 </r>
       <r>    59.4074     0.5617    47.3282 </r>
       <r>    59.7921     0.2017    47.4101 </r>
       <r>    60.1769     0.4455    47.5855 </r>
       <r>    60.5616     0.1836    47.6563 </r>
       <r>    60.9464     0.1600    47.7178 </r>
       <r>    61.3311     0.3460    47.8512 </r>
       <r>    61.7159     0.1962    47.9272 </r>
       <r>    62.1006     0.0000    47.9297 </r>
       <r>    62.4853     0.0139    47.9351 </r>
       <r>    62.8701     0.1079    47.9766 </r>
       <r>    63.2548     0.0000    47.9766 </r>
       <r>    63.6396     0.0000    47.9766 </r>
       <r>    64.0243     0.0609    48.0000 </r>
       <r>    64.4091     0.0000    48.0000 </r>
       <r>    64.7938     0.0000    48.0000 </r>
       <r>    65.1786     0.0000    48.0000 </r>
       <r>    65.5633     0.0000    48.0000 </r>
       <r>    65.9480     0.0000    48.0000 </r>
       <r>    66.3328     0.0000    48.0000 </r>
       <r>    66.7175     0.0000    48.0000 </r>
       <r>    67.1023     0.0000    48.0000 </r>
       <r>    67.4870     0.0000    48.0000 </r>
       <r>    67.8718     0.0000    48.0000 </r>
       <r>    68.2565     0.0000    48.0000 </r>
       <r>    68.6412     0.0000    48.0000 </r>
       <r>    69.0260     0.0000    48.0000 </r>
      </set>
     </set>
    </array>
   </total>
  </dos>
 </calculation>
 <structure name="finalpos" >
  <crystal>
   <varray name="basis" >
    <v>       0.00000000       1.97000000       1.97000000 </v>
    <v>       1.97000000       0.00000000       1.97000000 </v>
    <v>       1.97000000       1.97000000       0.00000000 </v>
   </varray>
   <i name="volume">     15.29074600 </i>
   <varray name="rec_basis" >
    <v>      -0.25380711       0.25380711       0.25380711 </v>
    <v>       0.25380711      -0.25380711       0.25380711 </v>
    <v>       0.25380711       0.25380711      -0.25380711 </v>
   </varray>
  </crystal>
  <varray name="positions" >
   <v>       0.00000000       0.00000000       0.00000000 </v>
  </varray>
 </structure>
</modeling>
