   2   2   0   0
  0.1064014E+02  0.2472000E-09  0.2472000E-09  0.4021144E-09  0.5000000E-15
  1.000000000000000E-004
  CAR 
 Co fcc                                  
     37.83513038     -0.49863069  301     10.48958835      1.00000000
     -0.499  0.0000E+00  0.0000E+00  0.0000E+00  0.0000E+00
     -0.371  0.0000E+00  0.0000E+00  0.0000E+00  0.0000E+00
     -0.243  0.0000E+00  0.0000E+00  0.0000E+00  0.0000E+00
     -0.115 -0.9368E-30 -0.1998E-30 -0.1197E-30 -0.2553E-31
      0.012 -0.1755E-25 -0.4235E-26 -0.2243E-26 -0.5411E-27
      0.140 -0.1443E-21 -0.3939E-22 -0.1844E-22 -0.5034E-23
      0.268 -0.5197E-18 -0.1606E-18 -0.6643E-19 -0.2052E-19
      0.396 -0.7918E-15 -0.2776E-15 -0.1012E-15 -0.3549E-16
      0.524 -0.5389E-12 -0.2139E-12 -0.6896E-13 -0.2736E-13
      0.651 -0.1585E-09 -0.7136E-10 -0.2033E-10 -0.9146E-11
      0.779 -0.1997E-07 -0.1022E-07 -0.2573E-08 -0.1315E-08
      0.907 -0.1060E-05 -0.6181E-06 -0.1380E-06 -0.8030E-07
      1.035 -0.2290E-04 -0.1533E-04 -0.3064E-05 -0.2039E-05
      1.162 -0.1841E-03 -0.1444E-03 -0.2659E-04 -0.2049E-04
      1.290 -0.3458E-03 -0.3700E-03 -0.7078E-04 -0.6776E-04
      1.418  0.1361E-02  0.8942E-03  0.1032E-03  0.4649E-04
      1.546  0.5944E-02  0.5192E-02  0.8627E-03  0.7099E-03
      1.674  0.1086E-01  0.9988E-02  0.2250E-02  0.1986E-02
      1.801  0.2347E-01  0.2004E-01  0.5249E-02  0.4547E-02
      1.929  0.5576E-01  0.4933E-01  0.1237E-01  0.1085E-01
      2.057  0.7688E-01  0.7657E-01  0.2220E-01  0.2063E-01
      2.185  0.4329E-01  0.5191E-01  0.2773E-01  0.2727E-01
      2.313  0.1054E-01  0.1123E-01  0.2908E-01  0.2870E-01
      2.440  0.4757E-01  0.3497E-01  0.3516E-01  0.3317E-01
      2.568  0.9582E-01  0.8899E-01  0.4740E-01  0.4454E-01
      2.696  0.9278E-01  0.9528E-01  0.5926E-01  0.5672E-01
      2.824  0.7329E-01  0.7469E-01  0.6862E-01  0.6626E-01
      2.951  0.8276E-01  0.7165E-01  0.7920E-01  0.7542E-01
      3.079  0.1300E+00  0.1121E+00  0.9580E-01  0.8973E-01
      3.207  0.1391E+00  0.1438E+00  0.1136E+00  0.1081E+00
      3.335  0.8835E-01  0.1027E+00  0.1249E+00  0.1212E+00
      3.463  0.5452E-01  0.6219E-01  0.1318E+00  0.1292E+00
      3.590  0.2626E-01  0.3784E-01  0.1352E+00  0.1340E+00
      3.718  0.7386E-01  0.2771E-01  0.1446E+00  0.1375E+00
      3.846  0.1977E+00  0.1236E+00  0.1699E+00  0.1533E+00
      3.974  0.2281E+00  0.2151E+00  0.1990E+00  0.1808E+00
      4.101  0.1927E+00  0.1965E+00  0.2237E+00  0.2059E+00
      4.229  0.1956E+00  0.1613E+00  0.2487E+00  0.2266E+00
      4.357  0.1723E+00  0.1709E+00  0.2707E+00  0.2484E+00
      4.485  0.1024E+00  0.1608E+00  0.2838E+00  0.2689E+00
      4.613  0.1452E+00  0.8967E-01  0.3023E+00  0.2804E+00
      4.740  0.2340E+00  0.8544E-01  0.3322E+00  0.2913E+00
      4.868  0.2232E+00  0.1820E+00  0.3607E+00  0.3146E+00
      4.996  0.1878E+00  0.2285E+00  0.3847E+00  0.3438E+00
      5.124  0.3257E+00  0.1541E+00  0.4264E+00  0.3634E+00
      5.251  0.6642E+00  0.1385E+00  0.5112E+00  0.3811E+00
      5.379  0.1005E+01  0.2160E+00  0.6396E+00  0.4088E+00
      5.507  0.1050E+01  0.2728E+00  0.7738E+00  0.4436E+00
      5.635  0.8375E+00  0.3424E+00  0.8808E+00  0.4874E+00
      5.763  0.9869E+00  0.3615E+00  0.1007E+01  0.5336E+00
      5.890  0.1699E+01  0.3583E+00  0.1224E+01  0.5793E+00
      6.018  0.1812E+01  0.4567E+00  0.1456E+01  0.6377E+00
      6.146  0.1508E+01  0.3068E+00  0.1648E+01  0.6769E+00
      6.274  0.1715E+01  0.1559E+00  0.1867E+01  0.6968E+00
      6.401  0.1792E+01  0.5650E+00  0.2096E+01  0.7690E+00
      6.529  0.1486E+01  0.1078E+01  0.2286E+01  0.9067E+00
      6.657  0.1531E+01  0.1020E+01  0.2482E+01  0.1037E+01
      6.785  0.1849E+01  0.7762E+00  0.2718E+01  0.1136E+01
      6.913  0.2052E+01  0.8108E+00  0.2980E+01  0.1240E+01
      7.040  0.2113E+01  0.1082E+01  0.3250E+01  0.1378E+01
      7.168  0.1981E+01  0.1134E+01  0.3504E+01  0.1523E+01
      7.296  0.1591E+01  0.9898E+00  0.3707E+01  0.1650E+01
      7.424  0.1271E+01  0.1360E+01  0.3869E+01  0.1823E+01
      7.551  0.1678E+01  0.1639E+01  0.4084E+01  0.2033E+01
      7.679  0.2527E+01  0.1256E+01  0.4407E+01  0.2193E+01
      7.807  0.2802E+01  0.1045E+01  0.4765E+01  0.2327E+01
      7.935  0.2778E+01  0.1293E+01  0.5120E+01  0.2492E+01
      8.063  0.2859E+01  0.1614E+01  0.5485E+01  0.2698E+01
      8.190  0.2921E+01  0.1718E+01  0.5858E+01  0.2918E+01
      8.318  0.3056E+01  0.1887E+01  0.6249E+01  0.3159E+01
      8.446  0.2884E+01  0.2008E+01  0.6617E+01  0.3415E+01
      8.574  0.2403E+01  0.1635E+01  0.6924E+01  0.3624E+01
      8.701  0.1968E+01  0.1049E+01  0.7176E+01  0.3758E+01
      8.829  0.1783E+01  0.7820E+00  0.7404E+01  0.3858E+01
      8.957  0.1589E+01  0.9870E+00  0.7607E+01  0.3984E+01
      9.085  0.1547E+01  0.1476E+01  0.7804E+01  0.4173E+01
      9.213  0.2067E+01  0.2090E+01  0.8068E+01  0.4440E+01
      9.340  0.2170E+01  0.2553E+01  0.8346E+01  0.4766E+01
      9.468  0.1907E+01  0.2528E+01  0.8589E+01  0.5089E+01
      9.596  0.2524E+01  0.2302E+01  0.8912E+01  0.5383E+01
      9.724  0.3844E+01  0.2463E+01  0.9403E+01  0.5698E+01
      9.851  0.4282E+01  0.2729E+01  0.9950E+01  0.6047E+01
      9.979  0.2799E+01  0.2717E+01  0.1031E+02  0.6394E+01
     10.107  0.9779E+00  0.2330E+01  0.1043E+02  0.6692E+01
     10.235  0.5391E+00  0.1856E+01  0.1050E+02  0.6929E+01
     10.363  0.7080E+00  0.1637E+01  0.1059E+02  0.7138E+01
     10.490  0.5385E+00  0.1583E+01  0.1066E+02  0.7340E+01
     10.618  0.2299E+00  0.1350E+01  0.1069E+02  0.7513E+01
     10.746  0.4550E-01  0.1262E+01  0.1070E+02  0.7674E+01
     10.874 -0.2435E-01  0.1290E+01  0.1069E+02  0.7839E+01
     11.001  0.2756E-01  0.1672E+01  0.1070E+02  0.8053E+01
     11.129  0.2584E+00  0.1846E+01  0.1073E+02  0.8288E+01
     11.257  0.4096E+00  0.1491E+01  0.1078E+02  0.8479E+01
     11.385  0.2652E+00  0.1645E+01  0.1082E+02  0.8689E+01
     11.513  0.2103E+00  0.2406E+01  0.1084E+02  0.8997E+01
     11.640  0.4560E+00  0.3479E+01  0.1090E+02  0.9441E+01
     11.768  0.5816E+00  0.4010E+01  0.1098E+02  0.9954E+01
     11.896  0.4152E+00  0.3203E+01  0.1103E+02  0.1036E+02
     12.024  0.2051E+00  0.1780E+01  0.1105E+02  0.1059E+02
     12.152  0.9091E-01  0.7004E+00  0.1107E+02  0.1068E+02
     12.279  0.2278E+00  0.2056E+00  0.1110E+02  0.1071E+02
     12.407  0.3831E+00  0.2059E+00  0.1114E+02  0.1073E+02
     12.535  0.4020E+00  0.3121E+00  0.1120E+02  0.1077E+02
     12.663  0.2418E+00  0.2757E+00  0.1123E+02  0.1081E+02
     12.790  0.7258E-01  0.3139E+00  0.1124E+02  0.1085E+02
     12.918  0.1774E+00  0.4847E+00  0.1126E+02  0.1091E+02
     13.046  0.2390E+00  0.5256E+00  0.1129E+02  0.1098E+02
     13.174  0.8946E-01  0.3794E+00  0.1130E+02  0.1103E+02
     13.302  0.6726E-01  0.3140E+00  0.1131E+02  0.1107E+02
     13.429  0.1921E+00  0.4518E+00  0.1133E+02  0.1112E+02
     13.557  0.1966E+00  0.4620E+00  0.1136E+02  0.1118E+02
     13.685  0.1281E+00  0.2761E+00  0.1138E+02  0.1122E+02
     13.813  0.2442E+00  0.1454E+00  0.1141E+02  0.1124E+02
     13.940  0.4159E+00  0.1586E+00  0.1146E+02  0.1126E+02
     14.068  0.4582E+00  0.2584E+00  0.1152E+02  0.1129E+02
     14.196  0.3540E+00  0.2362E+00  0.1156E+02  0.1132E+02
     14.324  0.2284E+00  0.1643E+00  0.1159E+02  0.1134E+02
     14.452  0.1421E+00  0.1252E+00  0.1161E+02  0.1136E+02
     14.579  0.1139E+00  0.1051E+00  0.1163E+02  0.1137E+02
     14.707  0.2631E+00  0.2202E+00  0.1166E+02  0.1140E+02
     14.835  0.3503E+00  0.4673E+00  0.1170E+02  0.1146E+02
     14.963  0.2228E+00  0.5047E+00  0.1173E+02  0.1152E+02
     15.090  0.7694E-01  0.3971E+00  0.1174E+02  0.1157E+02
     15.218  0.5148E-01  0.2658E+00  0.1175E+02  0.1161E+02
     15.346  0.1757E+00  0.9969E-01  0.1177E+02  0.1162E+02
     15.474  0.2581E+00  0.9052E-01  0.1180E+02  0.1163E+02
     15.602  0.2145E+00  0.2383E+00  0.1183E+02  0.1166E+02
     15.729  0.1812E+00  0.3300E+00  0.1185E+02  0.1170E+02
     15.857  0.8392E-01  0.2155E+00  0.1187E+02  0.1173E+02
     15.985  0.3283E-01  0.1344E+00  0.1187E+02  0.1175E+02
     16.113  0.9127E-01  0.2482E+00  0.1188E+02  0.1178E+02
     16.240  0.8782E-01  0.2512E+00  0.1189E+02  0.1181E+02
     16.368  0.1854E-01  0.1495E+00  0.1189E+02  0.1183E+02
     16.496  0.5948E-02  0.1637E+00  0.1190E+02  0.1185E+02
     16.624  0.9608E-01  0.1146E+00  0.1191E+02  0.1187E+02
     16.752  0.2279E+00  0.7100E-01  0.1194E+02  0.1188E+02
     16.879  0.2438E+00  0.8064E-01  0.1197E+02  0.1189E+02
     17.007  0.1479E+00  0.5112E-01  0.1199E+02  0.1189E+02
     17.135  0.9964E-01  0.2580E-01  0.1200E+02  0.1190E+02
     17.263  0.1370E+00  0.8880E-01  0.1202E+02  0.1191E+02
     17.390  0.1521E+00  0.1942E+00  0.1204E+02  0.1193E+02
     17.518  0.1597E+00  0.2104E+00  0.1206E+02  0.1196E+02
     17.646  0.1954E+00  0.1311E+00  0.1208E+02  0.1198E+02
     17.774  0.1195E+00  0.6644E-01  0.1210E+02  0.1198E+02
     17.902  0.5005E-01  0.6772E-01  0.1210E+02  0.1199E+02
     18.029  0.1345E+00  0.1352E+00  0.1212E+02  0.1201E+02
     18.157  0.2979E+00  0.2076E+00  0.1216E+02  0.1204E+02
     18.285  0.4326E+00  0.2378E+00  0.1221E+02  0.1207E+02
     18.413  0.4076E+00  0.1920E+00  0.1227E+02  0.1209E+02
     18.540  0.3685E+00  0.5820E-01  0.1231E+02  0.1210E+02
     18.668  0.2950E+00  0.1096E-01  0.1235E+02  0.1210E+02
     18.796  0.2052E+00  0.8886E-01  0.1238E+02  0.1211E+02
     18.924  0.3588E+00  0.1702E+00  0.1242E+02  0.1213E+02
     19.052  0.4905E+00  0.3363E+00  0.1249E+02  0.1218E+02
     19.179  0.4387E+00  0.5302E+00  0.1254E+02  0.1224E+02
     19.307  0.4122E+00  0.4309E+00  0.1259E+02  0.1230E+02
     19.435  0.3350E+00  0.3254E+00  0.1264E+02  0.1234E+02
     19.563  0.2070E+00  0.3766E+00  0.1266E+02  0.1239E+02
     19.690  0.1850E+00  0.4855E+00  0.1269E+02  0.1245E+02
     19.818  0.2547E+00  0.5426E+00  0.1272E+02  0.1252E+02
     19.946  0.3450E+00  0.4356E+00  0.1276E+02  0.1258E+02
     20.074  0.3933E+00  0.2988E+00  0.1281E+02  0.1261E+02
     20.202  0.3669E+00  0.2682E+00  0.1286E+02  0.1265E+02
     20.329  0.3515E+00  0.2976E+00  0.1291E+02  0.1269E+02
     20.457  0.2204E+00  0.3527E+00  0.1293E+02  0.1273E+02
     20.585  0.1366E+00  0.3778E+00  0.1295E+02  0.1278E+02
     20.713  0.3430E+00  0.3445E+00  0.1300E+02  0.1282E+02
     20.840  0.5406E+00  0.3036E+00  0.1306E+02  0.1286E+02
     20.968  0.4864E+00  0.3254E+00  0.1313E+02  0.1290E+02
     21.096  0.3140E+00  0.2240E+00  0.1317E+02  0.1293E+02
     21.224  0.4292E+00  0.1937E+00  0.1322E+02  0.1296E+02
     21.352  0.5840E+00  0.5082E+00  0.1330E+02  0.1302E+02
     21.479  0.5146E+00  0.6694E+00  0.1336E+02  0.1311E+02
     21.607  0.4348E+00  0.4787E+00  0.1342E+02  0.1317E+02
     21.735  0.2586E+00  0.3945E+00  0.1345E+02  0.1322E+02
     21.863  0.1265E+00  0.4699E+00  0.1347E+02  0.1328E+02
     21.991  0.1628E+00  0.4416E+00  0.1349E+02  0.1334E+02
     22.118  0.2489E+00  0.4426E+00  0.1352E+02  0.1339E+02
     22.246  0.3181E+00  0.3738E+00  0.1356E+02  0.1344E+02
     22.374  0.4057E+00  0.2271E+00  0.1361E+02  0.1347E+02
     22.502  0.5346E+00  0.2191E+00  0.1368E+02  0.1350E+02
     22.629  0.4664E+00  0.2357E+00  0.1374E+02  0.1353E+02
     22.757  0.2159E+00  0.2662E+00  0.1377E+02  0.1356E+02
     22.885  0.1745E+00  0.4346E+00  0.1379E+02  0.1362E+02
     23.013  0.1978E+00  0.5697E+00  0.1381E+02  0.1369E+02
     23.141  0.1315E+00  0.4079E+00  0.1383E+02  0.1374E+02
     23.268  0.2264E+00  0.1852E+00  0.1386E+02  0.1377E+02
     23.396  0.3192E+00  0.2002E+00  0.1390E+02  0.1379E+02
     23.524  0.3380E+00  0.2103E+00  0.1394E+02  0.1382E+02
     23.652  0.4109E+00  0.1339E+00  0.1400E+02  0.1384E+02
     23.779  0.2901E+00  0.2181E+00  0.1403E+02  0.1386E+02
     23.907  0.1337E+00  0.3844E+00  0.1405E+02  0.1391E+02
     24.035  0.2603E+00  0.4414E+00  0.1408E+02  0.1397E+02
     24.163  0.3717E+00  0.3716E+00  0.1413E+02  0.1402E+02
     24.291  0.2594E+00  0.1835E+00  0.1417E+02  0.1404E+02
     24.418  0.3538E+00  0.1255E+00  0.1421E+02  0.1406E+02
     24.546  0.5478E+00  0.3079E+00  0.1428E+02  0.1410E+02
     24.674  0.4956E+00  0.4012E+00  0.1434E+02  0.1415E+02
     24.802  0.3697E+00  0.3683E+00  0.1439E+02  0.1419E+02
     24.929  0.2340E+00  0.4616E+00  0.1442E+02  0.1425E+02
     25.057  0.1151E+00  0.5063E+00  0.1444E+02  0.1432E+02
     25.185  0.1976E+00  0.4024E+00  0.1446E+02  0.1437E+02
     25.313  0.3884E+00  0.2973E+00  0.1451E+02  0.1441E+02
     25.441  0.4162E+00  0.1695E+00  0.1456E+02  0.1443E+02
     25.568  0.3224E+00  0.1375E+00  0.1460E+02  0.1445E+02
     25.696  0.3527E+00  0.3391E+00  0.1465E+02  0.1449E+02
     25.824  0.3892E+00  0.4493E+00  0.1470E+02  0.1455E+02
     25.952  0.2545E+00  0.3667E+00  0.1473E+02  0.1459E+02
     26.079  0.2572E+00  0.3528E+00  0.1477E+02  0.1464E+02
     26.207  0.4649E+00  0.3767E+00  0.1482E+02  0.1469E+02
     26.335  0.4991E+00  0.3270E+00  0.1489E+02  0.1473E+02
     26.463  0.3593E+00  0.3243E+00  0.1493E+02  0.1477E+02
     26.591  0.2941E+00  0.4604E+00  0.1497E+02  0.1483E+02
     26.718  0.4184E+00  0.5158E+00  0.1503E+02  0.1489E+02
     26.846  0.4420E+00  0.3899E+00  0.1508E+02  0.1494E+02
     26.974  0.2149E+00  0.2972E+00  0.1511E+02  0.1498E+02
     27.102  0.1568E+00  0.4112E+00  0.1513E+02  0.1503E+02
     27.229  0.2375E+00  0.4351E+00  0.1516E+02  0.1509E+02
     27.357  0.2222E+00  0.2244E+00  0.1519E+02  0.1512E+02
     27.485  0.1166E+00  0.1704E+00  0.1520E+02  0.1514E+02
     27.613  0.8150E-01  0.2226E+00  0.1521E+02  0.1517E+02
     27.741  0.2531E+00  0.1855E+00  0.1525E+02  0.1519E+02
     27.868  0.4232E+00  0.9467E-01  0.1530E+02  0.1521E+02
     27.996  0.3595E+00  0.1412E+00  0.1535E+02  0.1522E+02
     28.124  0.1895E+00  0.3465E+00  0.1537E+02  0.1527E+02
     28.252  0.1764E+00  0.4462E+00  0.1539E+02  0.1532E+02
     28.379  0.2145E+00  0.3276E+00  0.1542E+02  0.1537E+02
     28.507  0.2151E+00  0.1990E+00  0.1545E+02  0.1539E+02
     28.635  0.2247E+00  0.1587E+00  0.1548E+02  0.1541E+02
     28.763  0.2033E+00  0.1692E+00  0.1550E+02  0.1543E+02
     28.891  0.1790E+00  0.2397E+00  0.1552E+02  0.1546E+02
     29.018  0.1491E+00  0.2826E+00  0.1554E+02  0.1550E+02
     29.146  0.8941E-01  0.1922E+00  0.1556E+02  0.1553E+02
     29.274  0.1026E+00  0.1030E+00  0.1557E+02  0.1554E+02
     29.402  0.1756E+00  0.1089E+00  0.1559E+02  0.1555E+02
     29.529  0.1790E+00  0.1540E+00  0.1561E+02  0.1557E+02
     29.657  0.1531E+00  0.1800E+00  0.1563E+02  0.1559E+02
     29.785  0.1742E+00  0.1306E+00  0.1566E+02  0.1561E+02
     29.913  0.2210E+00  0.1233E+00  0.1568E+02  0.1563E+02
     30.041  0.1646E+00  0.2281E+00  0.1570E+02  0.1566E+02
     30.168  0.9755E-01  0.2401E+00  0.1572E+02  0.1569E+02
     30.296  0.1284E+00  0.1378E+00  0.1573E+02  0.1570E+02
     30.424  0.1048E+00  0.1067E+00  0.1575E+02  0.1572E+02
     30.552  0.5404E-01  0.1518E+00  0.1575E+02  0.1574E+02
     30.679  0.6146E-01  0.1380E+00  0.1576E+02  0.1576E+02
     30.807  0.9033E-01  0.6017E-01  0.1577E+02  0.1576E+02
     30.935  0.1063E+00  0.2618E-01  0.1579E+02  0.1577E+02
     31.063  0.9091E-01  0.7875E-01  0.1580E+02  0.1578E+02
     31.191  0.1072E+00  0.1298E+00  0.1581E+02  0.1579E+02
     31.318  0.8002E-01  0.1333E+00  0.1582E+02  0.1581E+02
     31.446  0.1407E-01  0.9064E-01  0.1582E+02  0.1582E+02
     31.574  0.1604E-02  0.3147E-01  0.1582E+02  0.1583E+02
     31.702  0.3562E-01  0.2250E-01  0.1583E+02  0.1583E+02
     31.830  0.9283E-01  0.5001E-01  0.1584E+02  0.1583E+02
     31.957  0.1474E+00  0.5379E-01  0.1586E+02  0.1584E+02
     32.085  0.1228E+00  0.9921E-01  0.1588E+02  0.1585E+02
     32.213  0.3111E-01  0.1315E+00  0.1588E+02  0.1587E+02
     32.341 -0.1397E-02  0.7048E-01  0.1588E+02  0.1588E+02
     32.468  0.3649E-01  0.5398E-01  0.1588E+02  0.1589E+02
     32.596  0.6002E-01  0.6204E-01  0.1589E+02  0.1590E+02
     32.724  0.3234E-01  0.1980E-01  0.1590E+02  0.1590E+02
     32.852  0.3144E-01 -0.3457E-02  0.1590E+02  0.1590E+02
     32.980  0.1116E+00  0.2826E-01  0.1591E+02  0.1590E+02
     33.107  0.2020E+00  0.1059E+00  0.1594E+02  0.1591E+02
     33.235  0.1492E+00  0.1676E+00  0.1596E+02  0.1594E+02
     33.363  0.4585E-01  0.1553E+00  0.1596E+02  0.1596E+02
     33.491  0.4973E-01  0.1115E+00  0.1597E+02  0.1597E+02
     33.618  0.5872E-01  0.6707E-01  0.1598E+02  0.1598E+02
     33.746  0.1566E-01  0.2025E-01  0.1598E+02  0.1598E+02
     33.874 -0.3358E-02  0.6104E-02  0.1598E+02  0.1598E+02
     34.002  0.2924E-02  0.5288E-02  0.1598E+02  0.1598E+02
     34.130  0.9675E-02  0.2861E-03  0.1598E+02  0.1598E+02
     34.257  0.5047E-02 -0.2172E-02  0.1598E+02  0.1598E+02
     34.385 -0.8884E-03  0.2653E-02  0.1598E+02  0.1598E+02
     34.513  0.9495E-02  0.2437E-01  0.1598E+02  0.1599E+02
     34.641  0.3134E-01  0.3843E-01  0.1599E+02  0.1599E+02
     34.768  0.3423E-01  0.2509E-01  0.1599E+02  0.1599E+02
     34.896  0.2017E-01  0.9232E-02  0.1599E+02  0.1599E+02
     35.024  0.5603E-02  0.7901E-03  0.1600E+02  0.1600E+02
     35.152 -0.9203E-03 -0.1174E-02  0.1600E+02  0.1599E+02
     35.280 -0.1559E-02  0.2138E-02  0.1599E+02  0.1600E+02
     35.407  0.2295E-02  0.8749E-02  0.1600E+02  0.1600E+02
     35.535  0.1522E-01  0.7706E-02  0.1600E+02  0.1600E+02
     35.663  0.1853E-01  0.3635E-02  0.1600E+02  0.1600E+02
     35.791  0.5632E-02  0.7533E-02  0.1600E+02  0.1600E+02
     35.918 -0.8275E-03  0.8065E-02  0.1600E+02  0.1600E+02
     36.046 -0.4836E-03  0.2332E-02  0.1600E+02  0.1600E+02
     36.174 -0.5310E-04 -0.3383E-03  0.1600E+02  0.1600E+02
     36.302 -0.2116E-05 -0.2109E-03  0.1600E+02  0.1600E+02
     36.430 -0.3422E-07 -0.2538E-04  0.1600E+02  0.1600E+02
     36.557 -0.2333E-09 -0.1134E-05  0.1600E+02  0.1600E+02
     36.685 -0.6831E-12 -0.2082E-07  0.1600E+02  0.1600E+02
     36.813 -0.8710E-15 -0.1625E-09  0.1600E+02  0.1600E+02
     36.941  0.0000E+00 -0.5470E-12  0.1600E+02  0.1600E+02
     37.068  0.0000E+00 -0.7994E-15  0.1600E+02  0.1600E+02
     37.196  0.0000E+00  0.0000E+00  0.1600E+02  0.1600E+02
     37.324  0.0000E+00  0.0000E+00  0.1600E+02  0.1600E+02
     37.452  0.0000E+00  0.0000E+00  0.1600E+02  0.1600E+02
     37.580  0.0000E+00  0.0000E+00  0.1600E+02  0.1600E+02
     37.707  0.0000E+00  0.0000E+00  0.1600E+02  0.1600E+02
     37.835  0.0000E+00  0.0000E+00  0.1600E+02  0.1600E+02
