    2    2    1    2
  0.2137190E+02  0.2470000E-09  0.2470000E-09  0.8090000E-09  0.5000000E-15
  1.000000000000000E-004
  CAR 
 Co fcc                                  
     18     21     16
 
  0.0000000E+00  0.0000000E+00  0.0000000E+00  0.6944444E-02
      1         -3.004937       -2.774104   1.000000   1.000000
      2         -2.545064       -2.130244   1.000000   1.000000
      3         -0.294659        1.492614   1.000000   1.000000
      4          0.716290        2.180677   1.000000   1.000000
      5          0.716290        2.566415   1.000000   1.003131
      6          0.717068        2.566416   1.000000   1.003131
      7          0.717068        2.567517   1.000000   1.003199
      8          0.729197        2.567517   1.000000   1.003199
      9          1.421743        2.702038   1.000000   1.023791
     10          1.421743        3.846187   1.000000  -0.000000
     11          1.424835        3.846188   1.000000  -0.000000
     12          1.424835        3.850294   1.000000  -0.000000
     13          2.135220        3.850295   1.000000  -0.000000
     14          6.411520        6.700396  -0.000000  -0.000000
     15         10.843793       11.196817   0.000000   0.000000
     16         18.799831       18.784797   0.000000   0.000000
 
  0.1666667E+00 -0.1387779E-16  0.0000000E+00  0.4166667E-01
      1         -2.039643       -1.780237   1.000000   1.000000
      2         -1.649163       -1.142351   1.000000   1.000000
      3         -0.002823        1.846979   1.000000   1.000000
      4          0.477876        1.986144   1.000000   1.000000
      5          0.487183        2.248219   1.000000   1.000000
      6          0.521316        2.264817   1.000000   1.000001
      7          0.800925        2.913323   1.000000   0.885037
      8          0.993855        2.946074   1.000000   0.786685
      9          1.126062        3.023789   1.000000   0.479335
     10          1.126939        3.025095   1.000000   0.473817
     11          1.341245        3.750014   1.000000  -0.000002
     12          1.347519        3.758787   1.000000  -0.000001
     13          3.726567        4.672546  -0.000003  -0.000000
     14          7.846253        8.392817  -0.000000  -0.000000
     15         11.469520       11.736986   0.000000   0.000000
     16         19.942206       19.975201   0.000000   0.000000
 
  0.3333333E+00 -0.2775558E-16  0.0000000E+00  0.4166667E-01
      1         -0.905096        0.179098   1.000000   1.000000
      2         -0.856188        0.404380   1.000000   1.000000
      3         -0.201318        1.624460   1.000000   1.000000
      4         -0.041489        1.968630   1.000000   1.000000
      5          0.618596        2.388786   1.000000   1.000039
      6          0.783615        2.763365   1.000000   1.035056
      7          1.183350        2.843057   1.000000   1.007634
      8          1.194046        3.537312   1.000000  -0.000760
      9          1.769881        3.562166   1.000000  -0.000417
     10          2.024279        3.577407   1.000000  -0.000284
     11          2.024826        4.041620   1.000000  -0.000000
     12          2.702060        4.042503   1.023796  -0.000000
     13          6.698635        7.168794  -0.000000  -0.000000
     14         11.072039       11.686830   0.000000   0.000000
     15         13.011173       13.193572   0.000000   0.000000
     16         14.215867       14.712533   0.000000   0.000000
 
  0.5000000E+00 -0.5551115E-16  0.0000000E+00  0.2083333E-01
      1         -1.044682        0.350868   1.000000   1.000000
      2         -1.041648        0.365428   1.000000   1.000000
      3         -0.443665        1.482617   1.000000   1.000000
      4         -0.377121        1.595967   1.000000   1.000000
      5          0.934378        3.186860   1.000000   0.000463
      6          1.029038        3.328006   1.000000  -0.025585
      7          1.105567        3.469903   1.000000  -0.003223
      8          1.118222        3.488028   1.000000  -0.002244
      9          2.523092        4.618558   1.001271  -0.000000
     10          2.523159        4.618644   1.001273  -0.000000
     11          5.237264        5.266973  -0.000000  -0.000000
     12          5.590891        5.645403  -0.000000  -0.000000
     13          9.218746       10.095125   0.000000   0.000000
     14         10.037641       10.738839   0.000000   0.000000
     15         10.440371       10.964835   0.000000   0.000000
     16         11.576369       11.849373   0.000000   0.000000
 
  0.1666667E+00  0.1666667E+00  0.0000000E+00  0.4166667E-01
      1         -0.530294       -0.033444   1.000000   1.000000
      2         -0.394141        0.493357   1.000000   1.000000
      3          0.013556        1.763172   1.000000   1.000000
      4          0.105071        1.769448   1.000000   1.000000
      5          0.109067        1.775878   1.000000   1.000000
      6          0.222260        2.265833   1.000000   1.000001
      7          0.514028        2.442171   1.000000   1.000176
      8          1.127082        3.227249   1.000000  -0.028933
      9          1.134958        3.486134   1.000000  -0.002333
     10          1.219702        3.498081   1.000000  -0.001821
     11          2.186320        4.005585   1.000000  -0.000000
     12          2.576132        4.140215   1.003774  -0.000000
     13          5.801518        6.388480  -0.000000  -0.000000
     14         10.148766       10.784547   0.000000   0.000000
     15         12.775971       12.912674   0.000000   0.000000
     16         18.267761       18.596846   0.000000   0.000000
 
  0.3333333E+00  0.1666667E+00  0.0000000E+00  0.8333333E-01
      1         -0.474809        0.947621   1.000000   1.000000
      2         -0.468313        0.982543   1.000000   1.000000
      3         -0.242452        1.701351   1.000000   1.000000
      4         -0.154064        1.868439   1.000000   1.000000
      5          0.825827        2.658622   1.000000   1.014378
      6          0.837968        2.729273   1.000000   1.029888
      7          0.851527        3.123009   1.000000   0.118836
      8          0.875420        3.127971   1.000000   0.106026
      9          1.359547        3.142227   1.000000   0.072669
     10          1.521643        3.452366   1.000000  -0.004488
     11          5.158035        6.108457  -0.000000  -0.000000
     12          5.977856        6.784085  -0.000000  -0.000000
     13          9.400001        9.759384   0.000000   0.000000
     14         11.324288       11.947281   0.000000   0.000000
     15         12.348925       12.994018   0.000000   0.000000
     16         13.403854       13.972658   0.000000   0.000000
 
  0.3333333E+00  0.3333333E+00  0.0000000E+00  0.1388889E-01
      1          0.173261        1.908582   1.000000   1.000000
      2          0.209961        1.939478   1.000000   1.000000
      3          0.209961        1.939478   1.000000   1.000000
      4          0.248894        1.977311   1.000000   1.000000
      5          0.443425        2.265787   1.000000   1.000001
      6          0.458744        2.327558   1.000000   1.000006
      7          0.458744        2.327558   1.000000   1.000006
      8          0.479843        2.394229   1.000000   1.000046
      9          0.963314        3.319339   1.000000  -0.027554
     10          0.963314        3.319339   1.000000  -0.027554
     11          9.682418       10.210426   0.000000   0.000000
     12          9.937619       10.508545   0.000000   0.000000
     13          9.937620       10.508546   0.000000   0.000000
     14         10.588889       11.205457   0.000000   0.000000
     15         12.041750       12.799336   0.000000   0.000000
     16         12.041751       12.799337   0.000000   0.000000
 
  0.0000000E+00  0.0000000E+00  0.2500000E+00  0.1388889E-01
      1         -2.940213       -2.693092   1.000000   1.000000
      2         -2.614292       -2.240755   1.000000   1.000000
      3         -0.229272        1.522540   1.000000   1.000000
      4          0.387237        1.868846   1.000000   1.000000
      5          0.716391        2.566563   1.000000   1.003140
      6          0.716391        2.566563   1.000000   1.003140
      7          0.716944        2.567342   1.000000   1.003188
      8          0.716944        2.567343   1.000000   1.003188
      9          1.422194        3.375712   1.000000  -0.015053
     10          1.422194        3.846784   1.000000  -0.000000
     11          1.424366        3.846785   1.000000  -0.000000
     12          1.424366        3.849676   1.000000  -0.000000
     13          2.805753        3.849676   1.030674  -0.000000
     14          5.579064        5.931812  -0.000000  -0.000000
     15         11.944804       12.244969   0.000000   0.000000
     16         16.851522       16.987296   0.000000   0.000000
 
  0.1666667E+00 -0.1387779E-16  0.2500000E+00  0.8333333E-01
      1         -1.981818       -1.700190   1.000000   1.000000
      2         -1.704474       -1.252201   1.000000   1.000000
      3          0.047979        1.856225   1.000000   1.000000
      4          0.414013        1.946155   1.000000   1.000000
      5          0.486848        2.253125   1.000000   1.000000
      6          0.488782        2.263602   1.000000   1.000001
      7          0.807747        2.927265   1.000000   0.846280
      8          0.910155        2.946366   1.000000   0.785699
      9          1.126179        3.023968   1.000000   0.478577
     10          1.126797        3.024888   1.000000   0.474689
     11          1.342169        3.751301   1.000000  -0.000001
     12          1.346601        3.757502   1.000000  -0.000001
     13          4.228306        5.064299  -0.000000  -0.000000
     14          6.912560        7.482412  -0.000000  -0.000000
     15         12.689680       12.955170   0.000000   0.000000
     16         17.761731       17.936821   0.000000   0.000000
 
  0.3333333E+00 -0.2775558E-16  0.2500000E+00  0.8333333E-01
      1         -0.897976        0.211136   1.000000   1.000000
      2         -0.863403        0.370293   1.000000   1.000000
      3         -0.184018        1.657454   1.000000   1.000000
      4         -0.073883        1.879023   1.000000   1.000000
      5          0.658775        2.540805   1.000000   1.001862
      6          0.771084        2.765194   1.000000   1.035179
      7          1.184914        2.850503   1.000000   1.000026
      8          1.192467        3.343339   1.000000  -0.022043
      9          1.863450        3.564389   1.000000  -0.000395
     10          2.024361        3.575157   1.000000  -0.000301
     11          2.024752        4.041755   1.000000  -0.000000
     12          2.506646        4.042385   1.000877  -0.000000
     13          7.167496        7.635893  -0.000000  -0.000000
     14          9.899900       10.383840   0.000000   0.000000
     15         13.919401       14.385300   0.000000   0.000000
     16         14.396006       14.874234   0.000000   0.000000
 
  0.5000000E+00 -0.5551115E-16  0.2500000E+00  0.4166667E-01
      1         -1.044433        0.352667   1.000000   1.000000
      2         -1.042260        0.362994   1.000000   1.000000
      3         -0.435152        1.496917   1.000000   1.000000
      4         -0.388216        1.576676   1.000000   1.000000
      5          0.951166        3.216551   1.000000  -0.023863
      6          1.018363        3.318776   1.000000  -0.027680
      7          1.107408        3.472541   1.000000  -0.003062
      8          1.116360        3.485361   1.000000  -0.002370
      9          2.523097        4.618566   1.001271  -0.000000
     10          2.523153        4.618637   1.001273  -0.000000
     11          5.279727        5.301409  -0.000000  -0.000000
     12          5.529491        5.570373  -0.000000  -0.000000
     13          9.221101       10.086135   0.000000   0.000000
     14          9.628307       10.372899   0.000000   0.000000
     15         11.072300       11.552113   0.000000   0.000000
     16         11.771688       12.052575   0.000000   0.000000
 
  0.1666667E+00  0.1666667E+00  0.2500000E+00  0.8333333E-01
      1         -0.508687        0.033369   1.000000   1.000000
      2         -0.412666        0.402698   1.000000   1.000000
      3          0.031569        1.764094   1.000000   1.000000
      4          0.105629        1.768189   1.000000   1.000000
      5          0.108623        1.833703   1.000000   1.000000
      6          0.163350        2.135843   1.000000   1.000000
      7          0.638057        2.601859   1.000000   1.006012
      8          1.121781        3.109188   1.000000   0.157737
      9          1.131685        3.488017   1.000000  -0.002245
     10          1.133802        3.496293   1.000000  -0.001890
     11          2.210460        4.011516   1.000000  -0.000000
     12          2.460761        4.090278   1.000287  -0.000000
     13          6.283912        6.860206  -0.000000  -0.000000
     14          9.036570        9.584348   0.000000   0.000000
     15         14.163553       14.399266   0.000000   0.000000
     16         18.360450       18.697808   0.000000   0.000000
 
  0.3333333E+00  0.1666667E+00  0.2500000E+00  0.1666667E+00
      1         -0.474203        0.952309   1.000000   1.000000
      2         -0.469704        0.976974   1.000000   1.000000
      3         -0.230993        1.721356   1.000000   1.000000
      4         -0.168902        1.837691   1.000000   1.000000
      5          0.827100        2.679325   1.000000   1.018639
      6          0.843706        2.726205   1.000000   1.029245
      7          0.851582        3.118644   1.000000   0.130615
      8          0.874988        3.137060   1.000000   0.084166
      9          1.382757        3.180131   1.000000   0.008399
     10          1.497951        3.405813   1.000000  -0.009820
     11          5.241424        6.168432  -0.000000  -0.000000
     12          5.802195        6.623684  -0.000000  -0.000000
     13          9.832594       10.202263   0.000000   0.000000
     14         11.364337       11.953106   0.000000   0.000000
     15         12.104501       12.691401   0.000000   0.000000
     16         12.665476       13.219034   0.000000   0.000000
 
  0.3333333E+00  0.3333333E+00  0.2500000E+00  0.2777778E-01
      1          0.183065        1.916410   1.000000   1.000000
      2          0.208459        1.940478   1.000000   1.000000
      3          0.208459        1.940478   1.000000   1.000000
      4          0.236105        1.964069   1.000000   1.000000
      5          0.450423        2.287607   1.000000   1.000001
      6          0.459925        2.324879   1.000000   1.000005
      7          0.459925        2.324879   1.000000   1.000005
      8          0.475724        2.377490   1.000000   1.000028
      9          0.964018        3.321914   1.000000  -0.026975
     10          0.964018        3.321914   1.000000  -0.026975
     11          9.786828       10.321488   0.000000   0.000000
     12          9.962834       10.526189   0.000000   0.000000
     13          9.962834       10.526190   0.000000   0.000000
     14         10.415596       11.007109   0.000000   0.000000
     15         11.792724       12.492997   0.000000   0.000000
     16         11.792724       12.492998   0.000000   0.000000
 
  0.0000000E+00  0.0000000E+00  0.5000000E+00  0.6944444E-02
      1         -2.779625       -2.481330   1.000000   1.000000
      2         -2.779625       -2.481330   1.000000   1.000000
      3         -0.012067        1.629667   1.000000   1.000000
      4         -0.012067        1.629667   1.000000   1.000000
      5          0.716671        2.566952   1.000000   1.003164
      6          0.716671        2.566952   1.000000   1.003164
      7          0.716671        2.566953   1.000000   1.003164
      8          0.716671        2.566953   1.000000   1.003164
      9          1.423295        3.848245   1.000000  -0.000000
     10          1.423295        3.848245   1.000000  -0.000000
     11          1.423295        3.848245   1.000000  -0.000000
     12          1.423295        3.848245   1.000000  -0.000000
     13          4.118988        4.578373  -0.000000  -0.000000
     14          4.118988        4.578373  -0.000000  -0.000000
     15         14.210870       14.436111   0.000000   0.000000
     16         14.210870       14.436111   0.000000   0.000000
 
  0.1666667E+00 -0.1387779E-16  0.5000000E+00  0.4166667E-01
      1         -1.841961       -1.490710   1.000000   1.000000
      2         -1.841961       -1.490710   1.000000   1.000000
      3          0.203617        1.888287   1.000000   1.000000
      4          0.203617        1.888287   1.000000   1.000000
      5          0.486574        2.259601   1.000000   1.000001
      6          0.486574        2.259601   1.000000   1.000001
      7          0.834714        2.942360   1.000000   0.799084
      8          0.834714        2.942360   1.000000   0.799084
      9          1.126472        3.024411   1.000000   0.476704
     10          1.126472        3.024411   1.000000   0.476704
     11          1.344396        3.754409   1.000000  -0.000001
     12          1.344396        3.754409   1.000000  -0.000001
     13          5.429869        6.102136  -0.000000  -0.000000
     14          5.429869        6.102136  -0.000000  -0.000000
     15         15.046730       15.278476   0.000000   0.000000
     16         15.046730       15.278476   0.000000   0.000000
 
  0.3333333E+00 -0.2775558E-16  0.5000000E+00  0.4166667E-01
      1         -0.880738        0.289701   1.000000   1.000000
      2         -0.880738        0.289701   1.000000   1.000000
      3         -0.135862        1.748955   1.000000   1.000000
      4         -0.135862        1.748955   1.000000   1.000000
      5          0.727980        2.740999   1.000000   1.032148
      6          0.727980        2.740999   1.000000   1.032148
      7          1.188684        2.988288   1.000000   0.627877
      8          1.188684        2.988288   1.000000   0.627877
      9          2.024553        3.569763   1.000000  -0.000345
     10          2.024553        3.569763   1.000000  -0.000345
     11          2.138481        4.042069   1.000000  -0.000000
     12          2.138481        4.042069   1.000000  -0.000000
     13          8.346709        8.810441  -0.000000   0.000000
     14          8.346709        8.810441  -0.000000   0.000000
     15         14.384100       14.940097   0.000000   0.000000
     16         14.384100       14.940097   0.000000   0.000000
 
  0.5000000E+00 -0.5551115E-16  0.5000000E+00  0.2083333E-01
      1         -1.043534        0.357501   1.000000   1.000000
      2         -1.043534        0.357501   1.000000   1.000000
      3         -0.412973        1.534325   1.000000   1.000000
      4         -0.412973        1.534325   1.000000   1.000000
      5          0.987829        3.277795   1.000000  -0.034778
      6          0.987829        3.277795   1.000000  -0.034778
      7          1.111889        3.478951   1.000000  -0.002697
      8          1.111889        3.478951   1.000000  -0.002697
      9          2.523115        4.618589   1.001272  -0.000000
     10          2.523115        4.618589   1.001272  -0.000000
     11          5.395162        5.415801  -0.000000  -0.000000
     12          5.395162        5.415801  -0.000000  -0.000000
     13          9.320980       10.144473   0.000000   0.000000
     14          9.320980       10.144473   0.000000   0.000000
     15         11.783641       12.146129   0.000000   0.000000
     16         11.783641       12.146129   0.000000   0.000000
 
  0.1666667E+00  0.1666667E+00  0.5000000E+00  0.4166667E-01
      1         -0.459111        0.206715   1.000000   1.000000
      2         -0.459111        0.206715   1.000000   1.000000
      3          0.083333        1.766222   1.000000   1.000000
      4          0.083333        1.766222   1.000000   1.000000
      5          0.107654        1.969145   1.000000   1.000000
      6          0.107654        1.969145   1.000000   1.000000
      7          0.888411        2.855736   1.000000   0.993989
      8          0.888411        2.855736   1.000000   0.993989
      9          1.131114        3.492135   1.000000  -0.002062
     10          1.131114        3.492135   1.000000  -0.002062
     11          2.296688        4.034934   1.000002  -0.000000
     12          2.296688        4.034934   1.000002  -0.000000
     13          7.481188        8.030834  -0.000000  -0.000000
     14          7.481188        8.030834  -0.000000  -0.000000
     15         16.523980       16.808297   0.000000   0.000000
     16         16.523980       16.808297   0.000000   0.000000
 
  0.3333333E+00  0.1666667E+00  0.5000000E+00  0.8333333E-01
      1         -0.472339        0.964201   1.000000   1.000000
      2         -0.472339        0.964201   1.000000   1.000000
      3         -0.201613        1.774466   1.000000   1.000000
      4         -0.201613        1.774466   1.000000   1.000000
      5          0.834740        2.710850   1.000000   1.025826
      6          0.834740        2.710850   1.000000   1.025826
      7          0.867194        3.127236   1.000000   0.107885
      8          0.867194        3.127236   1.000000   0.107885
      9          1.440178        3.292046   1.000000  -0.032949
     10          1.440178        3.292046   1.000000  -0.032949
     11          5.480398        6.351828  -0.000000  -0.000000
     12          5.480398        6.351828  -0.000000  -0.000000
     13         10.833411       11.235997   0.000000   0.000000
     14         10.833411       11.235997   0.000000   0.000000
     15         11.962673       12.588103   0.000000   0.000000
     16         11.962673       12.588103   0.000000   0.000000
 
  0.3333333E+00  0.3333333E+00  0.5000000E+00  0.1388889E-01
      1          0.206960        1.937715   1.000000   1.000000
      2          0.206960        1.937715   1.000000   1.000000
      3          0.208166        1.941471   1.000000   1.000000
      4          0.208166        1.941471   1.000000   1.000000
      5          0.461071        2.322186   1.000000   1.000005
      6          0.461071        2.322186   1.000000   1.000005
      7          0.464409        2.334876   1.000000   1.000007
      8          0.464409        2.334876   1.000000   1.000007
      9          0.964686        3.324458   1.000000  -0.026398
     10          0.964686        3.324458   1.000000  -0.026398
     11          9.990410       10.545191   0.000000   0.000000
     12          9.990410       10.545191   0.000000   0.000000
     13         10.069347       10.625043   0.000000   0.000000
     14         10.069347       10.625043   0.000000   0.000000
     15         11.607604       12.293376   0.000000   0.000000
     16         11.607604       12.293376   0.000000   0.000000
