    2    2    1    2
  0.1064014E+02  0.2472000E-09  0.2472000E-09  0.4021144E-09  0.5000000E-15
  1.000000000000000E-004
  CAR 
 Co fcc                                  
     18     70     16
 
  0.0000000E+00  0.0000000E+00  0.0000000E+00  0.1250000E-02
      1          1.501369        1.520519   1.000000   1.000000
      2          5.281166        6.254833   1.000000   1.000000
      3          7.827014        9.497414   1.000000   1.000000
      4          7.884674        9.567226   1.000000   1.000000
      5          7.884674        9.567226   1.000000   1.000000
      6          8.198836        9.935709   1.000000   1.000320
      7          8.198836        9.935709   1.000000   1.000320
      8          8.575309       10.332121   1.000000   0.986736
      9          8.575309       10.393640   1.000000   0.858769
     10          9.683179       10.393640   1.000000   0.858768
     11          9.683179       11.619678   1.000000  -0.000000
     12         10.373697       11.619679   0.910584  -0.000000
     13         16.949789       18.008187   0.000000   0.000000
     14         32.748718       32.488533   0.000000   0.000000
     15         35.548037       35.751664   0.000000   0.000000
     16         35.548175       35.835130   0.000000   0.000000
 
  0.1000000E+00 -0.6938894E-17  0.0000000E+00  0.7500000E-02
      1          1.856908        1.877669   1.000000   1.000000
      2          5.492874        6.496565   1.000000   1.000000
      3          7.581045        9.201212   1.000000   1.000000
      4          8.051991        9.473947   1.000000   1.000000
      5          8.061105        9.751350   1.000000   1.000001
      6          8.150024        9.763331   1.000000   1.000002
      7          8.305534        9.864708   1.000000   1.000046
      8          8.347321       10.099054   1.000000   1.009288
      9          8.473226       10.274340   1.000000   1.031337
     10          8.760699       10.299056   1.000000   1.019492
     11          9.724900       11.669330   1.000000  -0.000000
     12         11.803419       12.786592  -0.000000  -0.000000
     13         17.011396       18.035922   0.000000   0.000000
     14         30.227864       30.409090   0.000000   0.000000
     15         32.870333       33.152575   0.000000   0.000000
     16         33.088818       33.223643   0.000000   0.000000
 
  0.2000000E+00 -0.1387779E-16  0.0000000E+00  0.7500000E-02
      1          2.863270        2.899832   1.000000   1.000000
      2          5.951133        7.057725   1.000000   1.000000
      3          7.269230        8.481744   1.000000   1.000000
      4          7.347855        8.774309   1.000000   1.000000
      5          7.908173        9.549745   1.000000   1.000000
      6          8.238499       10.002314   1.000000   1.001531
      7          8.431304       10.064146   1.000000   1.005188
      8          8.505606       10.239680   1.000000   1.035366
      9          8.510755       10.260146   1.000000   1.034431
     10          8.750537       10.544187   1.000000   0.278243
     11          9.802965       11.760873   1.000007  -0.000000
     12         13.824821       14.682046  -0.000000  -0.000000
     13         17.237728       18.154522   0.000000   0.000000
     14         25.587477       26.001312   0.000000   0.000000
     15         30.053438       30.375125   0.000000   0.000000
     16         31.932753       32.085854   0.000000   0.000000
 
  0.3000000E+00  0.2775558E-16  0.0000000E+00  0.7500000E-02
      1          4.262334        4.401258   1.000000   1.000000
      2          6.076520        7.346525   1.000000   1.000000
      3          6.575028        7.767969   1.000000   1.000000
      4          7.249631        8.530786   1.000000   1.000000
      5          7.915691        9.493801   1.000000   1.000000
      6          7.986971        9.713045   1.000000   1.000000
      7          8.190435        9.780158   1.000000   1.000003
      8          9.122643       10.914294   1.000000  -0.005257
      9          9.184033       10.950261   1.000000  -0.002664
     10          9.286491       11.139457   1.000000  -0.000022
     11          9.863442       11.830600   1.000044  -0.000000
     12         16.115799       16.855772   0.000000   0.000000
     13         17.593027       18.322682   0.000000   0.000000
     14         21.422691       22.009744   0.000000   0.000000
     15         27.764469       28.029952   0.000000   0.000000
     16         28.871278       29.109154   0.000000   0.000000
 
  0.4000000E+00  0.5551115E-16  0.0000000E+00  0.7500000E-02
      1          5.346764        5.900417   1.000000   1.000000
      2          5.855101        7.132136   1.000000   1.000000
      3          6.110288        7.348502   1.000000   1.000000
      4          7.632328        8.551389   1.000000   1.000000
      5          7.802748        9.502204   1.000000   1.000000
      6          8.007599        9.554485   1.000000   1.000000
      7          8.171862        9.761813   1.000000   1.000002
      8          9.643589       11.548775   1.000000  -0.000000
      9          9.776980       11.692155   1.000003  -0.000000
     10          9.895109       11.866544   1.000109  -0.000000
     11         10.399093       11.980641   0.842890  -0.000000
     12         16.186906       16.929602   0.000000   0.000000
     13         18.575890       19.176460   0.000000   0.000000
     14         20.128021       20.705366   0.000000   0.000000
     15         25.454336       25.867327   0.000000   0.000000
     16         26.218384       26.416985   0.000000   0.000000
 
  0.5000000E+00  0.5551115E-16  0.0000000E+00  0.3750000E-02
      1          5.661430        6.608436   1.000000   1.000000
      2          5.704789        6.897398   1.000000   1.000000
      3          5.956056        7.211104   1.000000   1.000000
      4          7.735759        8.684081   1.000000   1.000000
      5          7.939210        9.425720   1.000000   1.000000
      6          7.981266        9.469054   1.000000   1.000000
      7          8.283515        9.891284   1.000000   1.000098
      8          9.841096       11.774864   1.000023  -0.000000
      9          9.904290       11.876850   1.000140  -0.000000
     10          9.989652       11.939285   1.001160  -0.000000
     11         11.877029       13.149008  -0.000000  -0.000000
     12         13.946195       14.953363  -0.000000  -0.000000
     13         20.322532       20.770099   0.000000   0.000000
     14         21.002788       21.420035   0.000000   0.000000
     15         23.394300       23.974143   0.000000   0.000000
     16         24.697286       25.291947   0.000000   0.000000
 
  0.1000000E+00  0.1000000E+00  0.0000000E+00  0.7500000E-02
      1          2.540872        2.569063   1.000000   1.000000
      2          5.847293        6.912747   1.000000   1.000000
      3          7.304869        8.738957   1.000000   1.000000
      4          7.635031        8.857861   1.000000   1.000000
      5          7.991236        9.656087   1.000000   1.000000
      6          8.190280        9.934163   1.000000   1.000307
      7          8.274486       10.001785   1.000000   1.001514
      8          8.393283       10.124656   1.000000   1.013502
      9          8.595484       10.279514   1.000000   1.029596
     10          8.682318       10.458697   1.000000   0.628999
     11          9.765679       11.716872   1.000002  -0.000000
     12         13.258727       14.149905  -0.000000  -0.000000
     13         17.161773       18.115755   0.000000   0.000000
     14         27.758140       28.053074   0.000000   0.000000
     15         28.445224       28.830745   0.000000   0.000000
     16         34.605686       34.533871   0.000000   0.000000
 
  0.2000000E+00  0.1000000E+00  0.0000000E+00  0.1500000E-01
      1          3.775616        3.847592   1.000000   1.000000
      2          6.226409        7.424158   1.000000   1.000000
      3          6.859205        8.026073   1.000000   1.000000
      4          7.025010        8.443874   1.000000   1.000000
      5          7.894022        9.493112   1.000000   1.000000
      6          7.915193        9.597055   1.000000   1.000000
      7          8.400347       10.067632   1.000000   1.005518
      8          8.627606       10.387272   1.000000   0.876393
      9          8.978506       10.771509   1.000000  -0.031416
     10          9.297102       11.096458   1.000000  -0.000077
     11          9.806988       11.764798   1.000008  -0.000000
     12         15.297425       16.088067  -0.000000   0.000000
     13         17.544486       18.352025   0.000000   0.000000
     14         23.508492       23.988293   0.000000   0.000000
     15         26.149373       26.523892   0.000000   0.000000
     16         30.899265       31.017813   0.000000   0.000000
 
  0.3000000E+00  0.1000000E+00  0.0000000E+00  0.1500000E-01
      1          5.114783        5.413326   1.000000   1.000000
      2          6.105641        7.404404   1.000000   1.000000
      3          6.307627        7.536106   1.000000   1.000000
      4          7.177251        8.343674   1.000000   1.000000
      5          7.737514        9.377941   1.000000   1.000000
      6          8.060428        9.641231   1.000000   1.000000
      7          8.143203        9.760357   1.000000   1.000002
      8          9.193888       10.997513   1.000000  -0.000968
      9          9.552365       11.422957   1.000000  -0.000000
     10          9.834826       11.796670   1.000019  -0.000000
     11         10.183137       11.913570   1.026193  -0.000000
     12         17.610383       18.253156   0.000000   0.000000
     13         17.651039       18.325730   0.000000   0.000000
     14         20.236865       20.863101   0.000000   0.000000
     15         24.554568       24.901260   0.000000   0.000000
     16         27.272349       27.582085   0.000000   0.000000
 
  0.4000000E+00  0.1000000E+00  0.0000000E+00  0.1500000E-01
      1          5.748535        6.581094   1.000000   1.000000
      2          5.897491        7.131987   1.000000   1.000000
      3          6.029311        7.294397   1.000000   1.000000
      4          7.634361        8.464663   1.000000   1.000000
      5          7.682128        9.328246   1.000000   1.000000
      6          7.939363        9.493506   1.000000   1.000000
      7          8.278416        9.891516   1.000000   1.000099
      8          9.724761       11.617738   1.000000  -0.000000
      9          9.846364       11.772769   1.000027  -0.000000
     10          9.852605       11.809583   1.000032  -0.000000
     11         11.672512       13.031806  -0.000000  -0.000000
     12         15.021143       15.907172  -0.000000  -0.000000
     13         20.053082       20.575688   0.000000   0.000000
     14         20.864114       21.333971   0.000000   0.000000
     15         23.519950       23.857398   0.000000   0.000000
     16         24.236507       24.735193   0.000000   0.000000
 
  0.2000000E+00  0.2000000E+00  0.0000000E+00  0.7500000E-02
      1          5.048185        5.239851   1.000000   1.000000
      2          6.435229        7.659590   1.000000   1.000000
      3          6.507373        7.763227   1.000000   1.000000
      4          6.675069        8.011564   1.000000   1.000000
      5          7.636980        9.261018   1.000000   1.000000
      6          8.024948        9.604032   1.000000   1.000000
      7          8.240212        9.875129   1.000000   1.000062
      8          8.831812       10.626084   1.000000   0.046394
      9          9.555595       11.416702   1.000000  -0.000000
     10          9.776064       11.729009   1.000003  -0.000000
     11         10.219970       11.952243   1.033487  -0.000000
     12         17.343583       18.051233   0.000000   0.000000
     13         18.190299       18.838874   0.000000   0.000000
     14         21.600660       22.115700   0.000000   0.000000
     15         22.215645       22.698991   0.000000   0.000000
     16         29.295668       29.384429   0.000000   0.000000
 
  0.3000000E+00  0.2000000E+00  0.0000000E+00  0.1500000E-01
      1          6.018058        6.615136   1.000000   1.000000
      2          6.167195        7.451461   1.000000   1.000000
      3          6.302852        7.571093   1.000000   1.000000
      4          6.931526        8.025452   1.000000   1.000000
      5          7.543549        9.130197   1.000000   1.000000
      6          7.975776        9.554847   1.000000   1.000000
      7          8.278077        9.891800   1.000000   1.000099
      8          9.231602       11.066480   1.000000  -0.000176
      9          9.749357       11.698246   1.000001  -0.000000
     10          9.850926       11.763366   1.000030  -0.000000
     11         11.632260       13.087518  -0.000000  -0.000000
     12         17.226740       17.895127   0.000000   0.000000
     13         19.745586       20.347882   0.000000   0.000000
     14         19.952433       20.489811   0.000000   0.000000
     15         21.303444       21.768669   0.000000   0.000000
     16         26.183369       26.554238   0.000000   0.000000
 
  0.4000000E+00  0.2000000E+00  0.0000000E+00  0.7500000E-02
      1          6.077200        7.181234   1.000000   1.000000
      2          6.184952        7.387120   1.000000   1.000000
      3          6.214026        7.414882   1.000000   1.000000
      4          7.239058        8.142796   1.000000   1.000000
      5          7.579522        9.181085   1.000000   1.000000
      6          7.802423        9.327184   1.000000   1.000000
      7          8.404189       10.044948   1.000000   1.003642
      8          9.588105       11.463152   1.000000  -0.000000
      9          9.739293       11.686533   1.000001  -0.000000
     10          9.790890       11.702452   1.000005  -0.000000
     11         13.340183       14.365386  -0.000000  -0.000000
     12         14.773084       15.758418  -0.000000  -0.000000
     13         19.971863       20.451878   0.000000   0.000000
     14         21.676847       22.153141   0.000000   0.000000
     15         21.997900       22.406294   0.000000   0.000000
     16         23.924102       24.452836   0.000000   0.000000
 
  0.3000000E+00  0.3000000E+00  0.0000000E+00  0.7500000E-02
      1          6.128968        7.441831   1.000000   1.000000
      2          6.418237        7.467442   1.000000   1.000000
      3          6.576731        7.753441   1.000000   1.000000
      4          6.809975        7.795973   1.000000   1.000000
      5          7.532151        9.078010   1.000000   1.000000
      6          7.729006        9.266875   1.000000   1.000000
      7          8.499896       10.147216   1.000000   1.018033
      8          9.415899       11.281550   1.000000  -0.000000
      9          9.685972       11.625859   1.000000  -0.000000
     10          9.744563       11.648404   1.000001  -0.000000
     11         13.764551       14.805750  -0.000000  -0.000000
     12         16.791373       17.503881   0.000000   0.000000
     13         16.826224       17.519204   0.000000   0.000000
     14         22.224925       22.742581   0.000000   0.000000
     15         22.484684       22.906346   0.000000   0.000000
     16         25.106040       25.561674   0.000000   0.000000
 
  0.0000000E+00  0.0000000E+00  0.1250000E+00  0.2500000E-02
      1          1.660045        1.679803   1.000000   1.000000
      2          5.250080        6.139602   1.000000   1.000000
      3          7.786410        9.444798   1.000000   1.000000
      4          7.844525        9.525733   1.000000   1.000000
      5          7.844525        9.525734   1.000000   1.000000
      6          8.156440        9.887246   1.000000   1.000087
      7          8.156440        9.887247   1.000000   1.000087
      8          8.671542        9.940252   1.000000   1.000359
      9          8.671542       10.498523   1.000000   0.462236
     10          9.674178       10.498523   1.000000   0.462234
     11          9.674178       11.611367   1.000000  -0.000000
     12          9.763785       11.611367   1.000002  -0.000000
     13         17.870940       18.795422   0.000000   0.000000
     14         32.675731       32.387904   0.000000   0.000000
     15         34.757524       34.775610   0.000000   0.000000
     16         35.561450       35.396759   0.000000   0.000000
 
  0.1000000E+00 -0.6938894E-17  0.1250000E+00  0.1500000E-01
      1          2.011922        2.033783   1.000000   1.000000
      2          5.473927        6.393482   1.000000   1.000000
      3          7.585103        9.205168   1.000000   1.000000
      4          7.947954        9.211818   1.000000   1.000000
      5          7.981312        9.638184   1.000000   1.000000
      6          7.993329        9.691632   1.000000   1.000000
      7          8.297100        9.890191   1.000000   1.000095
      8          8.434822       10.040750   1.000000   1.003361
      9          8.599295       10.411324   1.000000   0.804725
     10          8.740727       10.435366   1.000000   0.720352
     11          9.709904       11.653719   1.000000  -0.000000
     12         11.242196       12.490778  -0.000001  -0.000000
     13         18.005218       18.890571   0.000000   0.000000
     14         30.323721       30.485603   0.000000   0.000000
     15         33.027901       33.064805   0.000000   0.000000
     16         33.029371       33.378655   0.000000   0.000000
 
  0.2000000E+00 -0.1387779E-16  0.1250000E+00  0.1500000E-01
      1          3.002693        3.043838   1.000000   1.000000
      2          5.967142        6.995503   1.000000   1.000000
      3          7.210929        8.342571   1.000000   1.000000
      4          7.303762        8.803883   1.000000   1.000000
      5          7.838758        9.494842   1.000000   1.000000
      6          8.199524        9.891943   1.000000   1.000100
      7          8.295642        9.946529   1.000000   1.000420
      8          8.589257       10.351889   1.000000   0.955794
      9          8.704714       10.462983   1.000000   0.611482
     10          8.732826       10.532196   1.000000   0.324169
     11          9.776013       11.730625   1.000003  -0.000000
     12         12.931953       14.002636  -0.000000  -0.000000
     13         18.472383       19.243242   0.000000   0.000000
     14         25.722840       26.132276   0.000000   0.000000
     15         30.244718       30.569149   0.000000   0.000000
     16         31.208090       31.370493   0.000000   0.000000
 
  0.3000000E+00  0.2775558E-16  0.1250000E+00  0.1500000E-01
      1          4.349837        4.512216   1.000000   1.000000
      2          6.109570        7.321599   1.000000   1.000000
      3          6.548048        7.730521   1.000000   1.000000
      4          7.226862        8.559815   1.000000   1.000000
      5          7.824352        9.381457   1.000000   1.000000
      6          8.031371        9.760472   1.000000   1.000002
      7          8.330722        9.848223   1.000000   1.000028
      8          9.141763       10.942425   1.000000  -0.003110
      9          9.178166       10.968564   1.000000  -0.001828
     10          9.240900       11.093007   1.000000  -0.000085
     11          9.829621       11.790575   1.000016  -0.000000
     12         14.650066       15.544521  -0.000000  -0.000000
     13         19.266735       19.887822   0.000000   0.000000
     14         21.595993       22.171421   0.000000   0.000000
     15         27.646556       27.993121   0.000000   0.000000
     16         27.983813       28.257295   0.000000   0.000000
 
  0.4000000E+00  0.5551115E-16  0.1250000E+00  0.1500000E-01
      1          5.291872        5.920418   1.000000   1.000000
      2          5.848019        7.088748   1.000000   1.000000
      3          6.293966        7.473076   1.000000   1.000000
      4          7.221613        8.403761   1.000000   1.000000
      5          7.865923        9.571269   1.000000   1.000000
      6          8.166442        9.702896   1.000000   1.000000
      7          8.537706        9.858302   1.000000   1.000038
      8          9.643301       11.553754   1.000000  -0.000000
      9          9.692977       11.601245   1.000000  -0.000000
     10          9.889611       11.847623   1.000093  -0.000000
     11         10.314141       11.901749   1.007254  -0.000000
     12         15.473944       16.177301  -0.000000   0.000000
     13         18.368003       19.142902   0.000000   0.000000
     14         21.084914       21.537037   0.000000   0.000000
     15         24.534657       25.056752   0.000000   0.000000
     16         26.458476       26.670197   0.000000   0.000000
 
  0.5000000E+00  0.5551115E-16  0.1250000E+00  0.7500000E-02
      1          5.481341        6.476378   1.000000   1.000000
      2          5.693428        6.912110   1.000000   1.000000
      3          6.281923        7.471559   1.000000   1.000000
      4          7.247272        8.327042   1.000000   1.000000
      5          7.803827        9.500325   1.000000   1.000000
      6          8.287703        9.863746   1.000000   1.000045
      7          8.779778        9.977370   1.000000   1.000878
      8          9.766225       11.708153   1.000002  -0.000000
      9          9.884041       11.831018   1.000080  -0.000000
     10          9.985252       11.934370   1.001050  -0.000000
     11         11.759871       12.967589  -0.000000  -0.000000
     12         13.847754       14.819264  -0.000000  -0.000000
     13         19.760492       20.312881   0.000000   0.000000
     14         20.136376       20.712475   0.000000   0.000000
     15         24.554477       24.997048   0.000000   0.000000
     16         25.583146       26.091348   0.000000   0.000000
 
  0.1000000E+00  0.1000000E+00  0.1250000E+00  0.1500000E-01
      1          2.686616        2.717693   1.000000   1.000000
      2          5.853423        6.836833   1.000000   1.000000
      3          7.325073        8.565868   1.000000   1.000000
      4          7.454460        8.882279   1.000000   1.000000
      5          7.974306        9.663729   1.000000   1.000000
      6          8.060433        9.702209   1.000000   1.000000
      7          8.288527        9.982816   1.000000   1.000994
      8          8.445736       10.199149   1.000000   1.029720
      9          8.699493       10.449772   1.000000   0.664831
     10          8.709827       10.490651   1.000000   0.495502
     11          9.745771       11.693889   1.000001  -0.000000
     12         12.476255       13.590067  -0.000000  -0.000000
     13         18.312075       19.120727   0.000000   0.000000
     14         27.876987       28.164488   0.000000   0.000000
     15         28.593252       28.976468   0.000000   0.000000
     16         33.503187       33.526605   0.000000   0.000000
 
  0.2000000E+00  0.1000000E+00  0.1250000E+00  0.3000000E-01
      1          3.891956        3.975671   1.000000   1.000000
      2          6.271054        7.404394   1.000000   1.000000
      3          6.762791        7.926680   1.000000   1.000000
      4          7.064346        8.483216   1.000000   1.000000
      5          7.773188        9.402272   1.000000   1.000000
      6          8.019389        9.645355   1.000000   1.000000
      7          8.318548        9.991329   1.000000   1.001204
      8          8.682643       10.452137   1.000000   0.655429
      9          9.056134       10.853075   1.000000  -0.013770
     10          9.245738       11.055527   1.000000  -0.000234
     11          9.797567       11.743594   1.000006  -0.000000
     12         14.086867       15.059210  -0.000000  -0.000000
     13         19.038556       19.712294   0.000000   0.000000
     14         23.654590       24.131684   0.000000   0.000000
     15         26.306316       26.683272   0.000000   0.000000
     16         29.820588       30.045426   0.000000   0.000000
 
  0.3000000E+00  0.1000000E+00  0.1250000E+00  0.3000000E-01
      1          5.138289        5.487507   1.000000   1.000000
      2          6.137135        7.369596   1.000000   1.000000
      3          6.346449        7.567150   1.000000   1.000000
      4          7.103117        8.366756   1.000000   1.000000
      5          7.772650        9.345031   1.000000   1.000000
      6          8.091676        9.718013   1.000000   1.000000
      7          8.235077        9.756675   1.000000   1.000001
      8          9.179264       10.991533   1.000000  -0.001109
      9          9.595951       11.469597   1.000000  -0.000000
     10          9.703309       11.608139   1.000000  -0.000000
     11         10.218254       11.993566   1.033231  -0.000000
     12         15.679966       16.437563  -0.000000   0.000000
     13         19.221010       19.891472   0.000000   0.000000
     14         20.901034       21.432560   0.000000   0.000000
     15         24.694025       25.060178   0.000000   0.000000
     16         26.211633       26.609103   0.000000   0.000000
 
  0.4000000E+00  0.1000000E+00  0.1250000E+00  0.3000000E-01
      1          5.591618        6.514760   1.000000   1.000000
      2          5.885999        7.116851   1.000000   1.000000
      3          6.337738        7.506885   1.000000   1.000000
      4          7.174343        8.273578   1.000000   1.000000
      5          7.715687        9.359795   1.000000   1.000000
      6          8.311257        9.726348   1.000000   1.000000
      7          8.416099        9.924028   1.000000   1.000237
      8          9.676802       11.580551   1.000000  -0.000000
      9          9.771152       11.697520   1.000002  -0.000000
     10          9.879068       11.804545   1.000069  -0.000000
     11         11.655679       12.981216  -0.000000  -0.000000
     12         14.858667       15.696563  -0.000000  -0.000000
     13         19.085976       19.759475   0.000000   0.000000
     14         21.205656       21.663479   0.000000   0.000000
     15         23.631825       24.022483   0.000000   0.000000
     16         24.505464       24.947270   0.000000   0.000000
 
  0.2000000E+00  0.2000000E+00  0.1250000E+00  0.1500000E-01
      1          5.109815        5.333235   1.000000   1.000000
      2          6.351789        7.572560   1.000000   1.000000
      3          6.622481        7.835557   1.000000   1.000000
      4          6.703651        8.052060   1.000000   1.000000
      5          7.679105        9.257958   1.000000   1.000000
      6          8.007829        9.595458   1.000000   1.000000
      7          8.174225        9.806089   1.000000   1.000007
      8          8.864852       10.661415   1.000000  -0.003667
      9          9.613820       11.483349   1.000000  -0.000000
     10          9.634248       11.542302   1.000000  -0.000000
     11         10.288911       12.051533   1.025475  -0.000000
     12         15.644921       16.456922  -0.000000   0.000000
     13         20.075761       20.651418   0.000000   0.000000
     14         21.752959       22.268755   0.000000   0.000000
     15         22.410792       22.890797   0.000000   0.000000
     16         28.204402       28.427692   0.000000   0.000000
 
  0.3000000E+00  0.2000000E+00  0.1250000E+00  0.3000000E-01
      1          5.916758        6.636155   1.000000   1.000000
      2          6.285243        7.438727   1.000000   1.000000
      3          6.359051        7.627586   1.000000   1.000000
      4          6.891838        8.084422   1.000000   1.000000
      5          7.625022        9.156734   1.000000   1.000000
      6          7.949567        9.480882   1.000000   1.000000
      7          8.298323        9.912545   1.000000   1.000175
      8          9.240369       11.078386   1.000000  -0.000127
      9          9.626521       11.551282   1.000000  -0.000000
     10          9.890543       11.811627   1.000096  -0.000000
     11         11.696740       13.139696  -0.000000  -0.000000
     12         16.720682       17.364744   0.000000   0.000000
     13         18.890393       19.590180   0.000000   0.000000
     14         20.767732       21.285537   0.000000   0.000000
     15         22.111495       22.543416   0.000000   0.000000
     16         25.236310       25.690167   0.000000   0.000000
 
  0.4000000E+00  0.2000000E+00  0.1250000E+00  0.1500000E-01
      1          5.922867        7.048777   1.000000   1.000000
      2          6.233420        7.455611   1.000000   1.000000
      3          6.473495        7.639912   1.000000   1.000000
      4          7.025371        8.051481   1.000000   1.000000
      5          7.550442        9.135023   1.000000   1.000000
      6          7.966974        9.385149   1.000000   1.000000
      7          8.439351       10.078510   1.000000   1.006657
      8          9.591886       11.469034   1.000000  -0.000000
      9          9.605243       11.527452   1.000000  -0.000000
     10          9.823226       11.741161   1.000013  -0.000000
     11         13.433860       14.431751  -0.000000  -0.000000
     12         14.768460       15.729295  -0.000000  -0.000000
     13         19.889231       20.407573   0.000000   0.000000
     14         20.956185       21.493592   0.000000   0.000000
     15         21.243734       21.757850   0.000000   0.000000
     16         25.137847       25.574907   0.000000   0.000000
 
  0.3000000E+00  0.3000000E+00  0.1250000E+00  0.1500000E-01
      1          6.156330        7.470009   1.000000   1.000000
      2          6.437147        7.475164   1.000000   1.000000
      3          6.628352        7.809984   1.000000   1.000000
      4          6.776425        7.839190   1.000000   1.000000
      5          7.584119        9.078074   1.000000   1.000000
      6          7.676294        9.184818   1.000000   1.000000