 vasp.6.3.2 27Jun22 (build Aug 12 2022 00:53:59) complex                        
  
 executed on               tv2STD date 2024.12.02  16:49:11
 running   24 mpi-ranks, with    1 threads/rank
 distrk:  each k-point on   24 cores,    1 groups
 distr:  one band on NCORE=   6 cores,    4 groups


--------------------------------------------------------------------------------------------------------


 INCAR:
   SYSTEM = Co fcc
   NWRITE = 2    write-flag
   ISTART = 0    job   : 0-new, 1-cont, 2-samecut
   ICHARG = 2    charge: 0-wave, 1-file, 2-atom, >10-const
   INIWAV = 1    electr: 0-lowe 1-rand  2-diag
   ENCUT = 475     energy cutoff in eV
   PREC = Accurate      normal | accurate
   ADDGRID = .FALSE.  (use fine grid)
   NELM = 100     number of ELM steps
   EDIFF = 1E-06    energy stopping-criterion for ELM
   LREAL = .FALSE.      real-space projection (.FALSE., .TRUE., On, Auto)
   ALGO = Normal     Normal, Fast, Very_Fast
   LWAVE = .FALSE.
   LCHARG = .FALSE.
   NSW = 0       max number of geometry steps
   IBRION = -1     ionic relax: 0-MD, 1-quasi-Newton, 2-CG, 3-Damped MD
   EDIFFG = -0.02  force (eV/A) stopping-criterion for geometry steps
   ISIF = 2     (1:force\=y stress\=trace only ions\=y shape\=n volume\=n)
   ISYM = 1     (1-use symmetry, 0-no symmetry)
   ISMEAR = 1     (-1-Fermi, 1-Methfessel/Paxton)
   SIGMA = 0.2   broadening in eV
   NPAR = 4
   ISPIN = 2
   MAGMOM = 2*3

 POTCAR:    PAW_PBE Co 02Aug2007                  
 POTCAR:    PAW_PBE Co 02Aug2007                  
   SHA256 =  0e690c60710354995174544f52f9f2c30879afabeffe3b3fbd4001cb294e56d4 Co/POTCAR             
   COPYR  = (c) Copyright 02Aug2007 Georg Kresse                                                    
   COPYR  = This file is part of the software VASP. Any use, copying, and all other rights are regul
   COPYR  = If you do not have a valid VASP license, you may not use, copy or distribute this file. 
   VRHFIN =Co: d8 s1                                                                                
   LEXCH  = PE                                                                                      
   EATOM  =   813.3670 eV,   59.7808 Ry                                                             
                                                                                                    
   TITEL  = PAW_PBE Co 02Aug2007                                                                    
   LULTRA =        F    use ultrasoft PP ?                                                          
   IUNSCR =        1    unscreen: 0-lin 1-nonlin 2-no                                               
   RPACOR =    2.000    partial core radius                                                         
   POMASS =   58.933; ZVAL   =    9.000    mass and valenz                                          
   RCORE  =    2.300    outmost cutoff radius                                                       
   RWIGS  =    2.460; RWIGS  =    1.302    wigner-seitz radius (au A)                               
   ENMAX  =  267.968; ENMIN  =  200.976 eV                                                          
   RCLOC  =    1.203    cutoff for local pot                                                        
   LCOR   =        T    correct aug charges                                                         
   LPAW   =        T    paw PP                                                                      
   EAUG   =  477.818                                                                                
   DEXC   =    0.000                                                                                
   RMAX   =    2.360    core radius for proj-oper                                                   
   RAUG   =    1.300    factor for augmentation sphere                                              
   RDEP   =    2.393    radius for radial grids                                                     
   RDEPT  =    1.864    core radius for aug-charge                                                  
                                                                                                    
   Atomic configuration                                                                             
    9 entries                                                                                       
     n  l   j            E        occ.                                                              
     1  0  0.50     -7587.6674   2.0000                                                             
     2  0  0.50      -893.6084   2.0000                                                             
     2  1  1.50      -764.5805   6.0000                                                             
     3  0  0.50       -97.5973   2.0000                                                             
     3  1  1.50       -60.9648   6.0000                                                             
     3  2  2.50        -4.2382   8.0000                                                             
     4  0  0.50        -4.3746   1.0000                                                             
     4  1  1.50        -4.0817   0.0000                                                             
     4  3  2.50        -1.3606   0.0000                                                             
   Description                                                                                      
     l       E           TYP  RCUT    TYP  RCUT                                                     
     2     -4.2382362     23  2.300                                                                 
     2     -5.5988188     23  2.300                                                                 
     0     -4.3745797     23  2.300                                                                 
     0      5.7660125     23  2.300                                                                 
     1     -2.7211652     23  2.300                                                                 
     1     16.9860234     23  2.300                                                                 
  local pseudopotential read in
  partial core-charges read in
  partial kinetic energy density read in
  atomic valenz-charges read in
  non local Contribution for L=           2  read in
    real space projection operators read in
  non local Contribution for L=           2  read in
    real space projection operators read in
  non local Contribution for L=           0  read in
    real space projection operators read in
  non local Contribution for L=           0  read in
    real space projection operators read in
  non local Contribution for L=           1  read in
    real space projection operators read in
  non local Contribution for L=           1  read in
    real space projection operators read in
    PAW grid and wavefunctions read in
 
   number of l-projection  operators is LMAX  =           6
   number of lm-projection operators is LMMAX =          18
 
  PAW_PBE Co 02Aug2007                  :
 energy of atom  1       EATOM= -813.3670
 kinetic energy error for atom=    0.0029 (will be added to EATOM!!)
 
 
 POSCAR: Co hcp
  positions in direct lattice
  No initial velocities read in
 exchange correlation table for  LEXCH =        8
   RHO(1)=    0.500       N(1)  =     2000
   RHO(2)=  100.500       N(2)  =     4000
 


--------------------------------------------------------------------------------------------------------


 ion  position               nearest neighbor table
   1  0.333  0.667  0.250-   2 2.47   2 2.47   2 2.47   2 2.47   2 2.47   2 2.47
   2  0.667  0.333  0.750-   1 2.47   1 2.47   1 2.47   1 2.47   1 2.47   1 2.47
 
  LATTYP: Found a hexagonal cell.
 ALAT       =     2.4719999032
 C/A-ratio  =     1.6266764715
  
  Lattice vectors:
  
 A1 = (   1.2359999516,  -2.1408147143,   0.0000000000)
 A2 = (   1.2359999516,   2.1408147143,   0.0000000000)
 A3 = (   0.0000000000,   0.0000000000,   4.0211440800)


Analysis of symmetry for initial positions (statically):
=====================================================================
 Subroutine PRICEL returns:
 Original cell was already a primitive cell.
 

 Routine SETGRP: Setting up the symmetry group for a 
 hexagonal supercell.


 Subroutine GETGRP returns: Found 24 space group operations
 (whereof 12 operations were pure point group operations)
 out of a pool of 24 trial point group operations.


The static configuration has the point symmetry D_3d.
 The point group associated with its full space group is D_6h.


Analysis of symmetry for dynamics (positions and initial velocities):
=====================================================================
 Subroutine PRICEL returns:
 Original cell was already a primitive cell.
 

 Routine SETGRP: Setting up the symmetry group for a 
 hexagonal supercell.


 Subroutine GETGRP returns: Found 24 space group operations
 (whereof 12 operations were pure point group operations)
 out of a pool of 24 trial point group operations.


The dynamic configuration has the point symmetry D_3d.
 The point group associated with its full space group is D_6h.


Analysis of structural, dynamic, and magnetic symmetry:
=====================================================================
 Subroutine PRICEL returns:
 Original cell was already a primitive cell.
 

 Routine SETGRP: Setting up the symmetry group for a 
 hexagonal supercell.


 Subroutine GETGRP returns: Found 24 space group operations
 (whereof 12 operations were pure point group operations)
 out of a pool of 24 trial point group operations.


The overall configuration has the point symmetry D_3d.
 The point group associated with its full space group is D_6h.


 Subroutine INISYM returns: Found 24 space group operations
 (whereof 12 operations are pure point group operations),
 and found     1 'primitive' translations


----------------------------------------------------------------------------------------

                                     Primitive cell                                     

  volume of cell :      21.2803

  direct lattice vectors                    reciprocal lattice vectors
     1.235999952 -2.140814714  0.000000000     0.404530760 -0.233555943  0.000000000
     1.235999952  2.140814714  0.000000000     0.404530760  0.233555943  0.000000000
     0.000000000  0.000000000  4.021144080     0.000000000  0.000000000  0.248685444

  length of vectors
     2.471999903  2.471999903  4.021144080     0.467111887  0.467111887  0.248685444

  position of ions in fractional coordinates (direct lattice)
     0.333333333  0.666666667  0.250000000
     0.666666667  0.333333333  0.750000000

  ion indices of the primitive-cell ions
   primitive index   ion index
                 1           1
                 2           2

----------------------------------------------------------------------------------------

 
 
 KPOINTS: Automatic mesh                          

Automatic generation of k-mesh.
 Grid dimensions read from file:
 generate k-points for:   10   10    8

 Generating k-lattice:

  Cartesian coordinates                     Fractional coordinates (reciprocal lattice)
     0.040453076 -0.023355594  0.000000000     0.100000000  0.000000000  0.000000000
     0.040453076  0.023355594  0.000000000     0.000000000  0.100000000  0.000000000
     0.000000000  0.000000000  0.031085680     0.000000000  0.000000000  0.125000000

  Length of vectors
     0.046711189  0.046711189  0.031085680

  Shift w.r.t. Gamma in fractional coordinates (k-lattice)
     0.000000000  0.000000000  0.000000000

 
 Subroutine IBZKPT returns following result:
 ===========================================
 
 Found     70 irreducible k-points:
 
 Following reciprocal coordinates:
            Coordinates               Weight
  0.000000  0.000000  0.000000      1.000000
  0.100000 -0.000000  0.000000      6.000000
  0.200000 -0.000000  0.000000      6.000000
  0.300000  0.000000  0.000000      6.000000
  0.400000  0.000000  0.000000      6.000000
  0.500000  0.000000  0.000000      3.000000
  0.100000  0.100000  0.000000      6.000000
  0.200000  0.100000  0.000000     12.000000
  0.300000  0.100000  0.000000     12.000000
  0.400000  0.100000  0.000000     12.000000
  0.200000  0.200000  0.000000      6.000000
  0.300000  0.200000  0.000000     12.000000
  0.400000  0.200000  0.000000      6.000000
  0.300000  0.300000  0.000000      6.000000
  0.000000  0.000000  0.125000      2.000000
  0.100000 -0.000000  0.125000     12.000000
  0.200000 -0.000000  0.125000     12.000000
  0.300000  0.000000  0.125000     12.000000
  0.400000  0.000000  0.125000     12.000000
  0.500000  0.000000  0.125000      6.000000
  0.100000  0.100000  0.125000     12.000000
  0.200000  0.100000  0.125000     24.000000
  0.300000  0.100000  0.125000     24.000000
  0.400000  0.100000  0.125000     24.000000
  0.200000  0.200000  0.125000     12.000000
  0.300000  0.200000  0.125000     24.000000
  0.400000  0.200000  0.125000     12.000000
  0.300000  0.300000  0.125000     12.000000
  0.000000  0.000000  0.250000      2.000000
  0.100000 -0.000000  0.250000     12.000000
  0.200000 -0.000000  0.250000     12.000000
  0.300000  0.000000  0.250000     12.000000
  0.400000  0.000000  0.250000     12.000000
  0.500000  0.000000  0.250000      6.000000
  0.100000  0.100000  0.250000     12.000000
  0.200000  0.100000  0.250000     24.000000
  0.300000  0.100000  0.250000     24.000000
  0.400000  0.100000  0.250000     24.000000
  0.200000  0.200000  0.250000     12.000000
  0.300000  0.200000  0.250000     24.000000
  0.400000  0.200000  0.250000     12.000000
  0.300000  0.300000  0.250000     12.000000
  0.000000  0.000000  0.375000      2.000000
  0.100000 -0.000000  0.375000     12.000000
  0.200000 -0.000000  0.375000     12.000000
  0.300000  0.000000  0.375000     12.000000
  0.400000  0.000000  0.375000     12.000000
  0.500000  0.000000  0.375000      6.000000
  0.100000  0.100000  0.375000     12.000000
  0.200000  0.100000  0.375000     24.000000
  0.300000  0.100000  0.375000     24.000000
  0.400000  0.100000  0.375000     24.000000
  0.200000  0.200000  0.375000     12.000000
  0.300000  0.200000  0.375000     24.000000
  0.400000  0.200000  0.375000     12.000000
  0.300000  0.300000  0.375000     12.000000
  0.000000  0.000000  0.500000      1.000000
  0.100000 -0.000000  0.500000      6.000000
  0.200000 -0.000000  0.500000      6.000000
  0.300000  0.000000  0.500000      6.000000
  0.400000  0.000000  0.500000      6.000000
  0.500000  0.000000  0.500000      3.000000
  0.100000  0.100000  0.500000      6.000000
  0.200000  0.100000  0.500000     12.000000
  0.300000  0.100000  0.500000     12.000000
  0.400000  0.100000  0.500000     12.000000
  0.200000  0.200000  0.500000      6.000000
  0.300000  0.200000  0.500000     12.000000
  0.400000  0.200000  0.500000      6.000000
  0.300000  0.300000  0.500000      6.000000
 
 Following cartesian coordinates:
            Coordinates               Weight
  0.000000  0.000000  0.000000      1.000000
  0.040453 -0.023356  0.000000      6.000000
  0.080906 -0.046711  0.000000      6.000000
  0.121359 -0.070067  0.000000      6.000000
  0.161812 -0.093422  0.000000      6.000000
  0.202265 -0.116778  0.000000      3.000000
  0.080906  0.000000  0.000000      6.000000
  0.121359 -0.023356  0.000000     12.000000
  0.161812 -0.046711  0.000000     12.000000
  0.202265 -0.070067  0.000000     12.000000
  0.161812  0.000000  0.000000      6.000000
  0.202265 -0.023356  0.000000     12.000000
  0.242718 -0.046711  0.000000      6.000000
  0.242718  0.000000  0.000000      6.000000
  0.000000  0.000000  0.031086      2.000000
  0.040453 -0.023356  0.031086     12.000000
  0.080906 -0.046711  0.031086     12.000000
  0.121359 -0.070067  0.031086     12.000000
  0.161812 -0.093422  0.031086     12.000000
  0.202265 -0.116778  0.031086      6.000000
  0.080906  0.000000  0.031086     12.000000
  0.121359 -0.023356  0.031086     24.000000
  0.161812 -0.046711  0.031086     24.000000
  0.202265 -0.070067  0.031086     24.000000
  0.161812  0.000000  0.031086     12.000000
  0.202265 -0.023356  0.031086     24.000000
  0.242718 -0.046711  0.031086     12.000000
  0.242718  0.000000  0.031086     12.000000
  0.000000  0.000000  0.062171      2.000000
  0.040453 -0.023356  0.062171     12.000000
  0.080906 -0.046711  0.062171     12.000000
  0.121359 -0.070067  0.062171     12.000000
  0.161812 -0.093422  0.062171     12.000000
  0.202265 -0.116778  0.062171      6.000000
  0.080906  0.000000  0.062171     12.000000
  0.121359 -0.023356  0.062171     24.000000
  0.161812 -0.046711  0.062171     24.000000
  0.202265 -0.070067  0.062171     24.000000
  0.161812  0.000000  0.062171     12.000000
  0.202265 -0.023356  0.062171     24.000000
  0.242718 -0.046711  0.062171     12.000000
  0.242718  0.000000  0.062171     12.000000
  0.000000  0.000000  0.093257      2.000000
  0.040453 -0.023356  0.093257     12.000000
  0.080906 -0.046711  0.093257     12.000000
  0.121359 -0.070067  0.093257     12.000000
  0.161812 -0.093422  0.093257     12.000000
  0.202265 -0.116778  0.093257      6.000000
  0.080906  0.000000  0.093257     12.000000
  0.121359 -0.023356  0.093257     24.000000
  0.161812 -0.046711  0.093257     24.000000
  0.202265 -0.070067  0.093257     24.000000
  0.161812  0.000000  0.093257     12.000000
  0.202265 -0.023356  0.093257     24.000000
  0.242718 -0.046711  0.093257     12.000000
  0.242718  0.000000  0.093257     12.000000
  0.000000  0.000000  0.124343      1.000000
  0.040453 -0.023356  0.124343      6.000000
  0.080906 -0.046711  0.124343      6.000000
  0.121359 -0.070067  0.124343      6.000000
  0.161812 -0.093422  0.124343      6.000000
  0.202265 -0.116778  0.124343      3.000000
  0.080906  0.000000  0.124343      6.000000
  0.121359 -0.023356  0.124343     12.000000
  0.161812 -0.046711  0.124343     12.000000
  0.202265 -0.070067  0.124343     12.000000
  0.161812  0.000000  0.124343      6.000000
  0.202265 -0.023356  0.124343     12.000000
  0.242718 -0.046711  0.124343      6.000000
  0.242718  0.000000  0.124343      6.000000
 


--------------------------------------------------------------------------------------------------------




 Dimension of arrays:
   k-points           NKPTS =     70   k-points in BZ     NKDIM =     70   number of bands    NBANDS=     16
   number of dos      NEDOS =    301   number of ions     NIONS =      2
   non local maximal  LDIM  =      6   non local SUM 2l+1 LMDIM =     18
   total plane-waves  NPLWV =   9720
   max r-space proj   IRMAX =      1   max aug-charges    IRDMAX=  18212
   dimension x,y,z NGX =    18 NGY =   18 NGZ =   30
   dimension x,y,z NGXF=    36 NGYF=   36 NGZF=   60
   support grid    NGXF=    36 NGYF=   36 NGZF=   60
   ions per type =               2
   NGX,Y,Z   is equivalent  to a cutoff of  12.11, 12.11, 12.40 a.u.
   NGXF,Y,Z  is equivalent  to a cutoff of  24.21, 24.21, 24.81 a.u.

 SYSTEM =  Co fcc                                  
 POSCAR =  Co hcp                                  

 Startparameter for this run:
   NWRITE =      2    write-flag & timer
   PREC   = accura    normal or accurate (medium, high low for compatibility)
   ISTART =      0    job   : 0-new  1-cont  2-samecut
   ICHARG =      2    charge: 1-file 2-atom 10-const
   ISPIN  =      2    spin polarized calculation?
   LNONCOLLINEAR =      F non collinear calculations
   LSORBIT =      F    spin-orbit coupling
   INIWAV =      1    electr: 0-lowe 1-rand  2-diag
   LASPH  =      F    aspherical Exc in radial PAW
 Electronic Relaxation 1
   ENCUT  =  475.0 eV  34.91 Ry    5.91 a.u.   4.39  4.39  7.15*2*pi/ulx,y,z
   ENINI  =  475.0     initial cutoff
   ENAUG  =  477.8 eV  augmentation charge cutoff
   NELM   =    100;   NELMIN=  2; NELMDL= -5     # of ELM steps 
   EDIFF  = 0.1E-05   stopping-criterion for ELM
   LREAL  =      F    real-space projection
   NLSPLINE    = F    spline interpolate recip. space projectors
   LCOMPAT=      F    compatible to vasp.4.4
   GGA_COMPAT  = T    GGA compatible to vasp.4.4-vasp.4.6
   LMAXPAW     = -100 max onsite density
   LMAXMIX     =    2 max onsite mixed and CHGCAR
   VOSKOWN=      0    Vosko Wilk Nusair interpolation
   ROPT   =    0.00000
 Ionic relaxation
   EDIFFG = -.2E-01   stopping-criterion for IOM
   NSW    =      0    number of steps for IOM
   NBLOCK =      1;   KBLOCK =      1    inner block; outer block 
   IBRION =     -1    ionic relax: 0-MD 1-quasi-New 2-CG
   NFREE  =      0    steps in history (QN), initial steepest desc. (CG)
   ISIF   =      2    stress and relaxation
   IWAVPR =     10    prediction:  0-non 1-charg 2-wave 3-comb
   ISYM   =      1    0-nonsym 1-usesym 2-fastsym
   LCORR  =      T    Harris-Foulkes like correction to forces

   POTIM  = 0.5000    time-step for ionic-motion
   TEIN   =    0.0    initial temperature
   TEBEG  =    0.0;   TEEND  =   0.0 temperature during run
   SMASS  =  -3.00    Nose mass-parameter (am)
   estimated Nose-frequenzy (Omega)   =  0.10E-29 period in steps = 0.13E+47 mass=  -0.140E-27a.u.
   SCALEE = 1.0000    scale energy and forces
   NPACO  =    256;   APACO  = 10.0  distance and # of slots for P.C.
   PSTRESS=    0.0 pullay stress

  Mass of Ions in am
   POMASS =  58.93
  Ionic Valenz
   ZVAL   =   9.00
  Atomic Wigner-Seitz radii
   RWIGS  =  -1.00
  virtual crystal weights 
   VCA    =   1.00
   NELECT =      18.0000    total number of electrons
   NUPDOWN=      -1.0000    fix difference up-down

 DOS related values:
   EMIN   =  10.00;   EMAX   =-10.00  energy-range for DOS
   EFERMI =   0.00
   ISMEAR =     1;   SIGMA  =   0.20  broadening in eV -4-tet -1-fermi 0-gaus

 Electronic relaxation 2 (details)
   IALGO  =     38    algorithm
   LDIAG  =      T    sub-space diagonalisation (order eigenvalues)
   LSUBROT=      F    optimize rotation matrix (better conditioning)
   TURBO    =      0    0=normal 1=particle mesh
   IRESTART =      0    0=no restart 2=restart with 2 vectors
   NREBOOT  =      0    no. of reboots
   NMIN     =      0    reboot dimension
   EREF     =   0.00    reference energy to select bands
   IMIX   =      4    mixing-type and parameters
     AMIX     =   0.40;   BMIX     =  1.00
     AMIX_MAG =   1.60;   BMIX_MAG =  1.00
     AMIN     =   0.10
     WC   =   100.;   INIMIX=   1;  MIXPRE=   1;  MAXMIX= -45

 Intra band minimization:
   WEIMIN = 0.0000     energy-eigenvalue tresh-hold
   EBREAK =  0.16E-07  absolut break condition
   DEPER  =   0.30     relativ break condition  

   TIME   =   0.40     timestep for ELM

  volume/ion in A,a.u.               =      10.64        71.80
  Fermi-wavevector in a.u.,A,eV,Ry     =   1.548246  2.925761 32.614055  2.397065
  Thomas-Fermi vector in A             =   2.653224
 
 Write flags
   LWAVE        =      F    write WAVECAR
   LDOWNSAMPLE  =      F    k-point downsampling of WAVECAR
   LCHARG       =      F    write CHGCAR
   LVTOT        =      F    write LOCPOT, total local potential
   LVHAR        =      F    write LOCPOT, Hartree potential only
   LELF         =      F    write electronic localiz. function (ELF)
   LORBIT       =      0    0 simple, 1 ext, 2 COOP (PROOUT), +10 PAW based schemes


 Dipole corrections
   LMONO  =      F    monopole corrections only (constant potential shift)
   LDIPOL =      F    correct potential (dipole corrections)
   IDIPOL =      0    1-x, 2-y, 3-z, 4-all directions 
   EPSILON=  1.0000000 bulk dielectric constant

 Exchange correlation treatment:
   GGA     =    --    GGA type
   LEXCH   =     8    internal setting for exchange type
   LIBXC   =     F    Libxc                    
   VOSKOWN =     0    Vosko Wilk Nusair interpolation
   LHFCALC =     F    Hartree Fock is set to
   LHFONE  =     F    Hartree Fock one center treatment
   AEXX    =    0.0000 exact exchange contribution

 Linear response parameters
   LEPSILON=     F    determine dielectric tensor
   LRPA    =     F    only Hartree local field effects (RPA)
   LNABLA  =     F    use nabla operator in PAW spheres
   LVEL    =     F    velocity operator in full k-point grid
   CSHIFT  =0.1000    complex shift for real part using Kramers Kronig
   OMEGAMAX=  -1.0    maximum frequency
   DEG_THRESHOLD= 0.2000000E-02 threshold for treating states as degnerate
   RTIME   =   -0.100 relaxation time in fs
  (WPLASMAI=    0.000 imaginary part of plasma frequency in eV, 0.658/RTIME)
   DFIELD  = 0.0000000 0.0000000 0.0000000 field for delta impulse in time
 
  Optional k-point grid parameters
   LKPOINTS_OPT  =     F    use optional k-point grid
   KPOINTS_OPT_MODE=     1    mode for optional k-point grid
 
 Orbital magnetization related:
   ORBITALMAG=     F  switch on orbital magnetization
   LCHIMAG   =     F  perturbation theory with respect to B field
   DQ        =  0.001000  dq finite difference perturbation B field
   LLRAUG    =     F  two centre corrections for induced B field



--------------------------------------------------------------------------------------------------------


 Static calculation
 charge density and potential will be updated during run
 spin polarized calculation
 Variant of blocked Davidson
 Davidson routine will perform the subspace rotation
 perform sub-space diagonalisation
    after iterative eigenvector-optimisation
 modified Broyden-mixing scheme, WC =      100.0
 initial mixing is a Kerker type mixing with AMIX =  0.4000 and BMIX =      1.0000
 Hartree-type preconditioning will be used
 using additional bands            7
 reciprocal scheme for non local part
 use partial core corrections
 calculate Harris-corrections to forces 
   (improved forces if not selfconsistent)
 use gradient corrections 
 use of overlap-Matrix (Vanderbilt PP)
 Methfessel and Paxton  Order N= 1 SIGMA  =   0.20


--------------------------------------------------------------------------------------------------------


  energy-cutoff  :      475.00
  volume of cell :       21.28
      direct lattice vectors                 reciprocal lattice vectors
     1.235999952 -2.140814714  0.000000000     0.404530760 -0.233555943  0.000000000
     1.235999952  2.140814714  0.000000000     0.404530760  0.233555943  0.000000000
     0.000000000  0.000000000  4.021144080     0.000000000  0.000000000  0.248685444

  length of vectors
     2.471999903  2.471999903  4.021144080     0.467111887  0.467111887  0.248685444


 
 k-points in units of 2pi/SCALE and weight: Automatic mesh                          
   0.00000000  0.00000000  0.00000000       0.001
   0.04045308 -0.02335559  0.00000000       0.007
   0.08090615 -0.04671119  0.00000000       0.007
   0.12135923 -0.07006678  0.00000000       0.007
   0.16181230 -0.09342238  0.00000000       0.007
   0.20226538 -0.11677797  0.00000000       0.004
   0.08090615  0.00000000  0.00000000       0.007
   0.12135923 -0.02335559  0.00000000       0.015
   0.16181230 -0.04671119  0.00000000       0.015
   0.20226538 -0.07006678  0.00000000       0.015
   0.16181230  0.00000000  0.00000000       0.007
   0.20226538 -0.02335559  0.00000000       0.015
   0.24271846 -0.04671119  0.00000000       0.007
   0.24271846  0.00000000  0.00000000       0.007
   0.00000000  0.00000000  0.03108568       0.003
   0.04045308 -0.02335559  0.03108568       0.015
   0.08090615 -0.04671119  0.03108568       0.015
   0.12135923 -0.07006678  0.03108568       0.015
   0.16181230 -0.09342238  0.03108568       0.015
   0.20226538 -0.11677797  0.03108568       0.007
   0.08090615  0.00000000  0.03108568       0.015
   0.12135923 -0.02335559  0.03108568       0.030
   0.16181230 -0.04671119  0.03108568       0.030
   0.20226538 -0.07006678  0.03108568       0.030
   0.16181230  0.00000000  0.03108568       0.015
   0.20226538 -0.02335559  0.03108568       0.030
   0.24271846 -0.04671119  0.03108568       0.015
   0.24271846  0.00000000  0.03108568       0.015
   0.00000000  0.00000000  0.06217136       0.003
   0.04045308 -0.02335559  0.06217136       0.015
   0.08090615 -0.04671119  0.06217136       0.015
   0.12135923 -0.07006678  0.06217136       0.015
   0.16181230 -0.09342238  0.06217136       0.015
   0.20226538 -0.11677797  0.06217136       0.007
   0.08090615  0.00000000  0.06217136       0.015
   0.12135923 -0.02335559  0.06217136       0.030
   0.16181230 -0.04671119  0.06217136       0.030
   0.20226538 -0.07006678  0.06217136       0.030
   0.16181230  0.00000000  0.06217136       0.015
   0.20226538 -0.02335559  0.06217136       0.030
   0.24271846 -0.04671119  0.06217136       0.015
   0.24271846  0.00000000  0.06217136       0.015
   0.00000000  0.00000000  0.09325704       0.003
   0.04045308 -0.02335559  0.09325704       0.015
   0.08090615 -0.04671119  0.09325704       0.015
   0.12135923 -0.07006678  0.09325704       0.015
   0.16181230 -0.09342238  0.09325704       0.015
   0.20226538 -0.11677797  0.09325704       0.007
   0.08090615  0.00000000  0.09325704       0.015
   0.12135923 -0.02335559  0.09325704       0.030
   0.16181230 -0.04671119  0.09325704       0.030
   0.20226538 -0.07006678  0.09325704       0.030
   0.16181230  0.00000000  0.09325704       0.015
   0.20226538 -0.02335559  0.09325704       0.030
   0.24271846 -0.04671119  0.09325704       0.015
   0.24271846  0.00000000  0.09325704       0.015
   0.00000000  0.00000000  0.12434272       0.001
   0.04045308 -0.02335559  0.12434272       0.007
   0.08090615 -0.04671119  0.12434272       0.007
   0.12135923 -0.07006678  0.12434272       0.007
   0.16181230 -0.09342238  0.12434272       0.007
   0.20226538 -0.11677797  0.12434272       0.004
   0.08090615  0.00000000  0.12434272       0.007
   0.12135923 -0.02335559  0.12434272       0.015
   0.16181230 -0.04671119  0.12434272       0.015
   0.20226538 -0.07006678  0.12434272       0.015
   0.16181230  0.00000000  0.12434272       0.007
   0.20226538 -0.02335559  0.12434272       0.015
   0.24271846 -0.04671119  0.12434272       0.007
   0.24271846  0.00000000  0.12434272       0.007
 
 k-points in reciprocal lattice and weights: Automatic mesh                          
   0.00000000  0.00000000  0.00000000       0.001
   0.10000000 -0.00000000  0.00000000       0.007
   0.20000000 -0.00000000  0.00000000       0.007
   0.30000000  0.00000000  0.00000000       0.007
   0.40000000  0.00000000  0.00000000       0.007
   0.50000000  0.00000000  0.00000000       0.004
   0.10000000  0.10000000  0.00000000       0.007
   0.20000000  0.10000000  0.00000000       0.015
   0.30000000  0.10000000  0.00000000       0.015
   0.40000000  0.10000000  0.00000000       0.015
   0.20000000  0.20000000  0.00000000       0.007
   0.30000000  0.20000000  0.00000000       0.015
   0.40000000  0.20000000  0.00000000       0.007
   0.30000000  0.30000000  0.00000000       0.007
   0.00000000  0.00000000  0.12500000       0.003
   0.10000000 -0.00000000  0.12500000       0.015
   0.20000000 -0.00000000  0.12500000       0.015
   0.30000000  0.00000000  0.12500000       0.015
   0.40000000  0.00000000  0.12500000       0.015
   0.50000000  0.00000000  0.12500000       0.007
   0.10000000  0.10000000  0.12500000       0.015
   0.20000000  0.10000000  0.12500000       0.030
   0.30000000  0.10000000  0.12500000       0.030
   0.40000000  0.10000000  0.12500000       0.030
   0.20000000  0.20000000  0.12500000       0.015
   0.30000000  0.20000000  0.12500000       0.030
   0.40000000  0.20000000  0.12500000       0.015
   0.30000000  0.30000000  0.12500000       0.015
   0.00000000  0.00000000  0.25000000       0.003
   0.10000000 -0.00000000  0.25000000       0.015
   0.20000000 -0.00000000  0.25000000       0.015
   0.30000000  0.00000000  0.25000000       0.015
   0.40000000  0.00000000  0.25000000       0.015
   0.50000000  0.00000000  0.25000000       0.007
   0.10000000  0.10000000  0.25000000       0.015
   0.20000000  0.10000000  0.25000000       0.030
   0.30000000  0.10000000  0.25000000       0.030
   0.40000000  0.10000000  0.25000000       0.030
   0.20000000  0.20000000  0.25000000       0.015
   0.30000000  0.20000000  0.25000000       0.030
   0.40000000  0.20000000  0.25000000       0.015
   0.30000000  0.30000000  0.25000000       0.015
   0.00000000  0.00000000  0.37500000       0.003
   0.10000000 -0.00000000  0.37500000       0.015
   0.20000000 -0.00000000  0.37500000       0.015
   0.30000000  0.00000000  0.37500000       0.015
   0.40000000  0.00000000  0.37500000       0.015
   0.50000000  0.00000000  0.37500000       0.007
   0.10000000  0.10000000  0.37500000       0.015
   0.20000000  0.10000000  0.37500000       0.030
   0.30000000  0.10000000  0.37500000       0.030
   0.40000000  0.10000000  0.37500000       0.030
   0.20000000  0.20000000  0.37500000       0.015
   0.30000000  0.20000000  0.37500000       0.030
   0.40000000  0.20000000  0.37500000       0.015
   0.30000000  0.30000000  0.37500000       0.015
   0.00000000  0.00000000  0.50000000       0.001
   0.10000000 -0.00000000  0.50000000       0.007
   0.20000000 -0.00000000  0.50000000       0.007
   0.30000000  0.00000000  0.50000000       0.007
   0.40000000  0.00000000  0.50000000       0.007
   0.50000000  0.00000000  0.50000000       0.004
   0.10000000  0.10000000  0.50000000       0.007
   0.20000000  0.10000000  0.50000000       0.015
   0.30000000  0.10000000  0.50000000       0.015
   0.40000000  0.10000000  0.50000000       0.015
   0.20000000  0.20000000  0.50000000       0.007
   0.30000000  0.20000000  0.50000000       0.015
   0.40000000  0.20000000  0.50000000       0.007
   0.30000000  0.30000000  0.50000000       0.007
 
 position of ions in fractional coordinates (direct lattice) 
   0.33333333  0.66666667  0.25000000
   0.66666667  0.33333333  0.75000000
 
 position of ions in cartesian coordinates  (Angst):
   1.23599995  0.71360490  1.00528602
   1.23599995 -0.71360490  3.01585806
 


--------------------------------------------------------------------------------------------------------


 k-point   1 :   0.0000 0.0000 0.0000  plane waves:     525
 k-point   2 :   0.1000-0.0000 0.0000  plane waves:     511
 k-point   3 :   0.2000-0.0000 0.0000  plane waves:     502
 k-point   4 :   0.3000 0.0000 0.0000  plane waves:     492
 k-point   5 :   0.4000 0.0000 0.0000  plane waves:     488
 k-point   6 :   0.5000 0.0000 0.0000  plane waves:     488
 k-point   7 :   0.1000 0.1000 0.0000  plane waves:     511
 k-point   8 :   0.2000 0.1000 0.0000  plane waves:     502
 k-point   9 :   0.3000 0.1000 0.0000  plane waves:     503
 k-point  10 :   0.4000 0.1000 0.0000  plane waves:     496
 k-point  11 :   0.2000 0.2000 0.0000  plane waves:     504
 k-point  12 :   0.3000 0.2000 0.0000  plane waves:     498
 k-point  13 :   0.4000 0.2000 0.0000  plane waves:     498
 k-point  14 :   0.3000 0.3000 0.0000  plane waves:     496
 k-point  15 :   0.0000 0.0000 0.1250  plane waves:     531
 k-point  16 :   0.1000-0.0000 0.1250  plane waves:     515
 k-point  17 :   0.2000-0.0000 0.1250  plane waves:     509
 k-point  18 :   0.3000 0.0000 0.1250  plane waves:     497
 k-point  19 :   0.4000 0.0000 0.1250  plane waves:     490
 k-point  20 :   0.5000 0.0000 0.1250  plane waves:     488
 k-point  21 :   0.1000 0.1000 0.1250  plane waves:     512
 k-point  22 :   0.2000 0.1000 0.1250  plane waves:     500
 k-point  23 :   0.3000 0.1000 0.1250  plane waves:     495
 k-point  24 :   0.4000 0.1000 0.1250  plane waves:     494
 k-point  25 :   0.2000 0.2000 0.1250  plane waves:     497
 k-point  26 :   0.3000 0.2000 0.1250  plane waves:     499
 k-point  27 :   0.4000 0.2000 0.1250  plane waves:     496
 k-point  28 :   0.3000 0.3000 0.1250  plane waves:     495
 k-point  29 :   0.0000 0.0000 0.2500  plane waves:     518
 k-point  30 :   0.1000-0.0000 0.2500  plane waves:     515
 k-point  31 :   0.2000-0.0000 0.2500  plane waves:     506
 k-point  32 :   0.3000 0.0000 0.2500  plane waves:     495
 k-point  33 :   0.4000 0.0000 0.2500  plane waves:     496
 k-point  34 :   0.5000 0.0000 0.2500  plane waves:     500
 k-point  35 :   0.1000 0.1000 0.2500  plane waves:     510
 k-point  36 :   0.2000 0.1000 0.2500  plane waves:     504
 k-point  37 :   0.3000 0.1000 0.2500  plane waves:     495
 k-point  38 :   0.4000 0.1000 0.2500  plane waves:     495
 k-point  39 :   0.2000 0.2000 0.2500  plane waves:     497
 k-point  40 :   0.3000 0.2000 0.2500  plane waves:     500
 k-point  41 :   0.4000 0.2000 0.2500  plane waves:     497
 k-point  42 :   0.3000 0.3000 0.2500  plane waves:     499
 k-point  43 :   0.0000 0.0000 0.3750  plane waves:     500
 k-point  44 :   0.1000-0.0000 0.3750  plane waves:     508
 k-point  45 :   0.2000-0.0000 0.3750  plane waves:     500
 k-point  46 :   0.3000 0.0000 0.3750  plane waves:     504
 k-point  47 :   0.4000 0.0000 0.3750  plane waves:     496
 k-point  48 :   0.5000 0.0000 0.3750  plane waves:     500
 k-point  49 :   0.1000 0.1000 0.3750  plane waves:     506
 k-point  50 :   0.2000 0.1000 0.3750  plane waves:     499
 k-point  51 :   0.3000 0.1000 0.3750  plane waves:     501
 k-point  52 :   0.4000 0.1000 0.3750  plane waves:     496
 k-point  53 :   0.2000 0.2000 0.3750  plane waves:     508
 k-point  54 :   0.3000 0.2000 0.3750  plane waves:     502
 k-point  55 :   0.4000 0.2000 0.3750  plane waves:     497
 k-point  56 :   0.3000 0.3000 0.3750  plane waves:     499
 k-point  57 :   0.0000 0.0000 0.5000  plane waves:     494
 k-point  58 :   0.1000-0.0000 0.5000  plane waves:     508
 k-point  59 :   0.2000-0.0000 0.5000  plane waves:     504
 k-point  60 :   0.3000 0.0000 0.5000  plane waves:     512
 k-point  61 :   0.4000 0.0000 0.5000  plane waves:     494
 k-point  62 :   0.5000 0.0000 0.5000  plane waves:     504
 k-point  63 :   0.1000 0.1000 0.5000  plane waves:     500
 k-point  64 :   0.2000 0.1000 0.5000  plane waves:     500
 k-point  65 :   0.3000 0.1000 0.5000  plane waves:     498
 k-point  66 :   0.4000 0.1000 0.5000  plane waves:     498
 k-point  67 :   0.2000 0.2000 0.5000  plane waves:     504
 k-point  68 :   0.3000 0.2000 0.5000  plane waves:     500
 k-point  69 :   0.4000 0.2000 0.5000  plane waves:     502
 k-point  70 :   0.3000 0.3000 0.5000  plane waves:     506

 maximum and minimum number of plane-waves per node :        93       76

 maximum number of plane-waves:       531
 maximum index in each direction: 
   IXMAX=    4   IYMAX=    4   IZMAX=    7
   IXMIN=   -4   IYMIN=   -4   IZMIN=   -7


 parallel 3D FFT for wavefunctions:
    minimum data exchange during FFTs selected (reduces bandwidth)
 parallel 3D FFT for charge:
    minimum data exchange during FFTs selected (reduces bandwidth)


 total amount of memory used by VASP MPI-rank0    32526. kBytes
=======================================================================

   base      :      30000. kBytes
   nonl-proj :        889. kBytes
   fftplans  :        189. kBytes
   grid      :        450. kBytes
   one-center:         31. kBytes
   wavefun   :        967. kBytes
 
     INWAV:  cpu time      0.0000: real time      0.0003
 Broyden mixing: mesh for mixing (old mesh)
   NGX =  9   NGY =  9   NGZ = 15
  (NGX  = 36   NGY  = 36   NGZ  = 60)
  gives a total of   1215 points

 initial charge density was supplied:
 charge density of overlapping atoms calculated
 number of electron      18.0000000 magnetization       6.0000000
 keeping initial charge density in first step


--------------------------------------------------------------------------------------------------------


 Maximum index for augmentation-charges         1142 (set IRDMAX)


--------------------------------------------------------------------------------------------------------


 First call to EWALD:  gamma=   0.640
 Maximum number of real-space cells 3x 3x 2
 Maximum number of reciprocal cells 3x 3x 4

    FEWALD:  cpu time      0.0014: real time      0.0014


--------------------------------------- Iteration      1(   1)  ---------------------------------------


    POTLOK:  cpu time      0.0068: real time      0.0069
    SETDIJ:  cpu time      0.0053: real time      0.0054
     EDDAV:  cpu time      0.4237: real time      0.4265
       DOS:  cpu time      0.0025: real time      0.0025
    --------------------------------------------
      LOOP:  cpu time      0.4383: real time      0.4412

 eigenvalue-minimisations  :  4584
 total energy-change (2. order) : 0.7420520E+02  (-0.8104233E+03)
 number of electron      18.0000000 magnetization       6.0000000
 augmentation part       18.0000000 magnetization       6.0000000

 Free energy of the ion-electron system (eV)
  ---------------------------------------------------
  alpha Z        PSCENC =        79.61870385
  Ewald energy   TEWEN  =     -1531.60263765
  -Hartree energ DENC   =      -295.86427829
  -exchange      EXHF   =         0.00000000
  -V(xc)+E(xc)   XCENC  =        35.75670889
  PAW double counting   =      1439.98163886    -1545.88690193
  entropy T*S    EENTRO =         0.00160229
  eigenvalues    EBANDS =       265.47220719
  atomic energy  EATOM  =      1626.72815342
  Solvation  Ediel_sol  =         0.00000000
  ---------------------------------------------------
  free energy    TOTEN  =        74.20519663 eV

  energy without entropy =       74.20359434  energy(sigma->0) =       74.20466253


--------------------------------------------------------------------------------------------------------




--------------------------------------- Iteration      1(   2)  ---------------------------------------


     EDDAV:  cpu time      0.4037: real time      0.4063
       DOS:  cpu time      0.0022: real time      0.0022
    --------------------------------------------
      LOOP:  cpu time      0.4059: real time      0.4085

 eigenvalue-minimisations  :  4496
 total energy-change (2. order) :-0.8765063E+02  (-0.8076987E+02)
 number of electron      18.0000000 magnetization       6.0000000
 augmentation part       18.0000000 magnetization       6.0000000

 Free energy of the ion-electron system (eV)
  ---------------------------------------------------
  alpha Z        PSCENC =        79.61870385
  Ewald energy   TEWEN  =     -1531.60263765
  -Hartree energ DENC   =      -295.86427829
  -exchange      EXHF   =         0.00000000
  -V(xc)+E(xc)   XCENC  =        35.75670889
  PAW double counting   =      1439.98163886    -1545.88690193
  entropy T*S    EENTRO =        -0.00114512
  eigenvalues    EBANDS =       177.82432436
  atomic energy  EATOM  =      1626.72815342
  Solvation  Ediel_sol  =         0.00000000
  ---------------------------------------------------
  free energy    TOTEN  =       -13.44543361 eV

  energy without entropy =      -13.44428849  energy(sigma->0) =      -13.44505190


--------------------------------------------------------------------------------------------------------




--------------------------------------- Iteration      1(   3)  ---------------------------------------


     EDDAV:  cpu time      0.4889: real time      0.4919
       DOS:  cpu time      0.0022: real time      0.0022
    --------------------------------------------
      LOOP:  cpu time      0.4911: real time      0.4941

 eigenvalue-minimisations  :  5648
 total energy-change (2. order) :-0.2133248E+01  (-0.2097770E+01)
 number of electron      18.0000000 magnetization       6.0000000
 augmentation part       18.0000000 magnetization       6.0000000

 Free energy of the ion-electron system (eV)
  ---------------------------------------------------
  alpha Z        PSCENC =        79.61870385
  Ewald energy   TEWEN  =     -1531.60263765
  -Hartree energ DENC   =      -295.86427829
  -exchange      EXHF   =         0.00000000
  -V(xc)+E(xc)   XCENC  =        35.75670889
  PAW double counting   =      1439.98163886    -1545.88690193
  entropy T*S    EENTRO =         0.00033525
  eigenvalues    EBANDS =       175.68959587
  atomic energy  EATOM  =      1626.72815342
  Solvation  Ediel_sol  =         0.00000000
  ---------------------------------------------------
  free energy    TOTEN  =       -15.57868173 eV

  energy without entropy =      -15.57901698  energy(sigma->0) =      -15.57879348


--------------------------------------------------------------------------------------------------------




--------------------------------------- Iteration      1(   4)  ---------------------------------------


     EDDAV:  cpu time      0.5418: real time      0.5449
       DOS:  cpu time      0.0022: real time      0.0022
    --------------------------------------------
      LOOP:  cpu time      0.5440: real time      0.5471

 eigenvalue-minimisations  :  6264
 total energy-change (2. order) :-0.3322065E-01  (-0.3321399E-01)
 number of electron      18.0000000 magnetization       6.0000000
 augmentation part       18.0000000 magnetization       6.0000000

 Free energy of the ion-electron system (eV)
  ---------------------------------------------------
  alpha Z        PSCENC =        79.61870385
  Ewald energy   TEWEN  =     -1531.60263765
  -Hartree energ DENC   =      -295.86427829
  -exchange      EXHF   =         0.00000000
  -V(xc)+E(xc)   XCENC  =        35.75670889
  PAW double counting   =      1439.98163886    -1545.88690193
  entropy T*S    EENTRO =         0.00033836
  eigenvalues    EBANDS =       175.65637211
  atomic energy  EATOM  =      1626.72815342
  Solvation  Ediel_sol  =         0.00000000
  ---------------------------------------------------
  free energy    TOTEN  =       -15.61190237 eV

  energy without entropy =      -15.61224074  energy(sigma->0) =      -15.61201516


--------------------------------------------------------------------------------------------------------




--------------------------------------- Iteration      1(   5)  ---------------------------------------


     EDDAV:  cpu time      0.4998: real time      0.5029
       DOS:  cpu time      0.0022: real time      0.0022
    CHARGE:  cpu time      0.0262: real time      0.0263
    MIXING:  cpu time      0.0003: real time      0.0003
    --------------------------------------------
      LOOP:  cpu time      0.5285: real time      0.5317

 eigenvalue-minimisations  :  5792
 total energy-change (2. order) :-0.2298870E-03  (-0.2298859E-03)
 number of electron      17.9999991 magnetization       3.3952142
 augmentation part        9.1687944 magnetization       2.6477246

 Broyden mixing:
  rms(total) = 0.16513E+01    rms(broyden)= 0.16513E+01
  rms(prec ) = 0.27132E+01
  weight for this iteration     100.00

 Free energy of the ion-electron system (eV)
  ---------------------------------------------------
  alpha Z        PSCENC =        79.61870385
  Ewald energy   TEWEN  =     -1531.60263765
  -Hartree energ DENC   =      -295.86427829
  -exchange      EXHF   =         0.00000000
  -V(xc)+E(xc)   XCENC  =        35.75670889
  PAW double counting   =      1439.98163886    -1545.88690193
  entropy T*S    EENTRO =         0.00033875
  eigenvalues    EBANDS =       175.65614184
  atomic energy  EATOM  =      1626.72815342
  Solvation  Ediel_sol  =         0.00000000
  ---------------------------------------------------
  free energy    TOTEN  =       -15.61213226 eV

  energy without entropy =      -15.61247101  energy(sigma->0) =      -15.61224518


--------------------------------------------------------------------------------------------------------




--------------------------------------- Iteration      1(   6)  ---------------------------------------


    POTLOK:  cpu time      0.0053: real time      0.0055
    SETDIJ:  cpu time      0.0053: real time      0.0053
     EDDAV:  cpu time      0.4204: real time      0.4227
       DOS:  cpu time      0.0023: real time      0.0023
    CHARGE:  cpu time      0.0257: real time      0.0258
    MIXING:  cpu time      0.0003: real time      0.0003
    --------------------------------------------
      LOOP:  cpu time      0.4593: real time      0.4619

 eigenvalue-minimisations  :  4792
 total energy-change (2. order) : 0.1199169E+01  (-0.1058433E+01)
 number of electron      17.9999989 magnetization       3.2650661
 augmentation part       10.6676595 magnetization       2.8655828

 Broyden mixing:
  rms(total) = 0.63036E+00    rms(broyden)= 0.63034E+00
  rms(prec ) = 0.84097E+00
  weight for this iteration     100.00

 eigenvalues of (default mixing * dielectric matrix)
  average eigenvalue GAMMA=   0.8928
  0.8928

 Free energy of the ion-electron system (eV)
  ---------------------------------------------------
  alpha Z        PSCENC =        79.61870385
  Ewald energy   TEWEN  =     -1531.60263765
  -Hartree energ DENC   =      -259.22144813
  -exchange      EXHF   =         0.00000000
  -V(xc)+E(xc)   XCENC  =        32.71287284
  PAW double counting   =      1596.48498364    -1692.34339243
  entropy T*S    EENTRO =        -0.00080881
  eigenvalues    EBANDS =       133.21061042
  atomic energy  EATOM  =      1626.72815342
  Solvation  Ediel_sol  =         0.00000000
  ---------------------------------------------------
  free energy    TOTEN  =       -14.41296284 eV

  energy without entropy =      -14.41215403  energy(sigma->0) =      -14.41269324


--------------------------------------------------------------------------------------------------------




--------------------------------------- Iteration      1(   7)  ---------------------------------------


    POTLOK:  cpu time      0.0051: real time      0.0053
    SETDIJ:  cpu time      0.0049: real time      0.0049
     EDDAV:  cpu time      0.4449: real time      0.4475
       DOS:  cpu time      0.0023: real time      0.0023
    CHARGE:  cpu time      0.0252: real time      0.0252
    MIXING:  cpu time      0.0003: real time      0.0003
    --------------------------------------------
      LOOP:  cpu time      0.4826: real time      0.4856

 eigenvalue-minimisations  :  5160
 total energy-change (2. order) : 0.3109986E+00  (-0.1406221E+00)
 number of electron      17.9999990 magnetization       3.2795958
 augmentation part       10.1656086 magnetization       2.9190701

 Broyden mixing:
  rms(total) = 0.38483E+00    rms(broyden)= 0.38483E+00
  rms(prec ) = 0.45862E+00
  weight for this iteration     100.00

 eigenvalues of (default mixing * dielectric matrix)
  average eigenvalue GAMMA=   0.7483
  1.0084  0.4882

 Free energy of the ion-electron system (eV)
  ---------------------------------------------------
  alpha Z        PSCENC =        79.61870385
  Ewald energy   TEWEN  =     -1531.60263765
  -Hartree energ DENC   =      -266.77547342
  -exchange      EXHF   =         0.00000000
  -V(xc)+E(xc)   XCENC  =        33.22601890
  PAW double counting   =      1679.55873907    -1782.26683432
  entropy T*S    EENTRO =        -0.00016172
  eigenvalues    EBANDS =       147.41152758
  atomic energy  EATOM  =      1626.72815342
  Solvation  Ediel_sol  =         0.00000000
  ---------------------------------------------------
  free energy    TOTEN  =       -14.10196428 eV

  energy without entropy =      -14.10180257  energy(sigma->0) =      -14.10191038


--------------------------------------------------------------------------------------------------------




--------------------------------------- Iteration      1(   8)  ---------------------------------------


    POTLOK:  cpu time      0.0052: real time      0.0053
    SETDIJ:  cpu time      0.0048: real time      0.0049
     EDDAV:  cpu time      0.5441: real time      0.5470
       DOS:  cpu time      0.0023: real time      0.0023
    CHARGE:  cpu time      0.0260: real time      0.0261
    MIXING:  cpu time      0.0003: real time      0.0003
    --------------------------------------------
      LOOP:  cpu time      0.5827: real time      0.5860

 eigenvalue-minimisations  :  6352
 total energy-change (2. order) : 0.2272819E-01  (-0.1961290E-02)
 number of electron      17.9999990 magnetization       3.3235094
 augmentation part       10.2037293 magnetization       2.9812571

 Broyden mixing:
  rms(total) = 0.17751E+00    rms(broyden)= 0.17751E+00
  rms(prec ) = 0.22686E+00
  weight for this iteration     100.00

 eigenvalues of (default mixing * dielectric matrix)
  average eigenvalue GAMMA=   1.0518
  1.7983  0.7904  0.5667

 Free energy of the ion-electron system (eV)
  ---------------------------------------------------
  alpha Z        PSCENC =        79.61870385
  Ewald energy   TEWEN  =     -1531.60263765
  -Hartree energ DENC   =      -264.15149156
  -exchange      EXHF   =         0.00000000
  -V(xc)+E(xc)   XCENC  =        33.15880210
  PAW double counting   =      1737.28580402    -1841.20807944
  entropy T*S    EENTRO =         0.00009555
  eigenvalues    EBANDS =       146.09141361
  atomic energy  EATOM  =      1626.72815342
  Solvation  Ediel_sol  =         0.00000000
  ---------------------------------------------------
  free energy    TOTEN  =       -14.07923609 eV

  energy without entropy =      -14.07933164  energy(sigma->0) =      -14.07926794


--------------------------------------------------------------------------------------------------------




--------------------------------------- Iteration      1(   9)  ---------------------------------------


    POTLOK:  cpu time      0.0053: real time      0.0055
    SETDIJ:  cpu time      0.0050: real time      0.0050
     EDDAV:  cpu time      0.5611: real time      0.5643
       DOS:  cpu time      0.0023: real time      0.0023
    CHARGE:  cpu time      0.0253: real time      0.0254
    MIXING:  cpu time      0.0003: real time      0.0003
    --------------------------------------------
      LOOP:  cpu time      0.5993: real time      0.6028

 eigenvalue-minimisations  :  6688
 total energy-change (2. order) : 0.1475352E-01  (-0.5713675E-03)
 number of electron      17.9999990 magnetization       3.3344858
 augmentation part       10.2426191 magnetization       2.9996749

 Broyden mixing:
  rms(total) = 0.49137E-01    rms(broyden)= 0.49137E-01
  rms(prec ) = 0.55951E-01
  weight for this iteration     100.00

 eigenvalues of (default mixing * dielectric matrix)
  average eigenvalue GAMMA=   1.1124
  2.2327  0.8039  0.8039  0.6093

 Free energy of the ion-electron system (eV)
  ---------------------------------------------------
  alpha Z        PSCENC =        79.61870385
  Ewald energy   TEWEN  =     -1531.60263765
  -Hartree energ DENC   =      -261.30357875
  -exchange      EXHF   =         0.00000000
  -V(xc)+E(xc)   XCENC  =        33.07629258
  PAW double counting   =      1802.76594408    -1908.22736921
  entropy T*S    EENTRO =         0.00036093
  eigenvalues    EBANDS =       144.87964817
  atomic energy  EATOM  =      1626.72815342
  Solvation  Ediel_sol  =         0.00000000
  ---------------------------------------------------
  free energy    TOTEN  =       -14.06448257 eV

  energy without entropy =      -14.06484350  energy(sigma->0) =      -14.06460288


--------------------------------------------------------------------------------------------------------




--------------------------------------- Iteration      1(  10)  ---------------------------------------


    POTLOK:  cpu time      0.0051: real time      0.0053
    SETDIJ:  cpu time      0.0049: real time      0.0049
     EDDAV:  cpu time      0.5331: real time      0.5362
       DOS:  cpu time      0.0023: real time      0.0023
    CHARGE:  cpu time      0.0252: real time      0.0253
    MIXING:  cpu time      0.0003: real time      0.0003
    --------------------------------------------
      LOOP:  cpu time      0.5709: real time      0.5742

 eigenvalue-minimisations  :  6336
 total energy-change (2. order) : 0.6536338E-03  (-0.8369942E-04)
 number of electron      17.9999990 magnetization       3.3234745
 augmentation part       10.2455007 magnetization       2.9793665

 Broyden mixing:
  rms(total) = 0.85491E-02    rms(broyden)= 0.85491E-02
  rms(prec ) = 0.10068E-01
  weight for this iteration     100.00

 eigenvalues of (default mixing * dielectric matrix)
  average eigenvalue GAMMA=   1.1595
  2.3285  1.0730  1.0730  0.6616  0.6616

 Free energy of the ion-electron system (eV)
  ---------------------------------------------------
  alpha Z        PSCENC =        79.61870385
  Ewald energy   TEWEN  =     -1531.60263765
  -Hartree energ DENC   =      -260.56539939
  -exchange      EXHF   =         0.00000000
  -V(xc)+E(xc)   XCENC  =        33.02456236
  PAW double counting   =      1824.83827129    -1930.94403811
  entropy T*S    EENTRO =         0.00036108
  eigenvalues    EBANDS =       144.83819423
  atomic energy  EATOM  =      1626.72815342
  Solvation  Ediel_sol  =         0.00000000
  ---------------------------------------------------
  free energy    TOTEN  =       -14.06382894 eV

  energy without entropy =      -14.06419001  energy(sigma->0) =      -14.06394930


--------------------------------------------------------------------------------------------------------




--------------------------------------- Iteration      1(  11)  ---------------------------------------


    POTLOK:  cpu time      0.0051: real time      0.0053
    SETDIJ:  cpu time      0.0050: real time      0.0050
     EDDAV:  cpu time      0.5564: real time      0.5595
       DOS:  cpu time      0.0023: real time      0.0023
    CHARGE:  cpu time      0.0252: real time      0.0253
    MIXING:  cpu time      0.0003: real time      0.0003
    --------------------------------------------
      LOOP:  cpu time      0.5944: real time      0.5977

 eigenvalue-minimisations  :  6632
 total energy-change (2. order) :-0.2207994E-04  (-0.8849402E-05)
 number of electron      17.9999990 magnetization       3.3215877
 augmentation part       10.2461678 magnetization       2.9753653

 Broyden mixing:
  rms(total) = 0.25008E-02    rms(broyden)= 0.25007E-02
  rms(prec ) = 0.35128E-02
  weight for this iteration     100.00

 eigenvalues of (default mixing * dielectric matrix)
  average eigenvalue GAMMA=   1.0925
  2.3231  1.1023  1.1023  0.6157  0.7059  0.7059

 Free energy of the ion-electron system (eV)
  ---------------------------------------------------
  alpha Z        PSCENC =        79.61870385
  Ewald energy   TEWEN  =     -1531.60263765
  -Hartree energ DENC   =      -260.48569364
  -exchange      EXHF   =         0.00000000
  -V(xc)+E(xc)   XCENC  =        33.00753665
  PAW double counting   =      1827.28251426    -1933.46143737
  entropy T*S    EENTRO =         0.00029988
  eigenvalues    EBANDS =       144.84870959
  atomic energy  EATOM  =      1626.72815342
  Solvation  Ediel_sol  =         0.00000000
  ---------------------------------------------------
  free energy    TOTEN  =       -14.06385102 eV

  energy without entropy =      -14.06415090  energy(sigma->0) =      -14.06395098


--------------------------------------------------------------------------------------------------------




--------------------------------------- Iteration      1(  12)  ---------------------------------------


    POTLOK:  cpu time      0.0052: real time      0.0054
    SETDIJ:  cpu time      0.0049: real time      0.0049
     EDDAV:  cpu time      0.4349: real time      0.4375
       DOS:  cpu time      0.0023: real time      0.0023
    CHARGE:  cpu time      0.0252: real time      0.0253
    MIXING:  cpu time      0.0003: real time      0.0003
    --------------------------------------------
      LOOP:  cpu time      0.4728: real time      0.4757

 eigenvalue-minimisations  :  4952
 total energy-change (2. order) : 0.2799459E-05  (-0.6414533E-06)
 number of electron      17.9999990 magnetization       3.3216030
 augmentation part       10.2462946 magnetization       2.9752485

 Broyden mixing:
  rms(total) = 0.14529E-02    rms(broyden)= 0.14529E-02
  rms(prec ) = 0.22714E-02
  weight for this iteration     100.00

 eigenvalues of (default mixing * dielectric matrix)
  average eigenvalue GAMMA=   1.2137
  2.3772  1.9508  1.0876  1.0876  0.7104  0.6409  0.6409

 Free energy of the ion-electron system (eV)
  ---------------------------------------------------
  alpha Z        PSCENC =        79.61870385
  Ewald energy   TEWEN  =     -1531.60263765
  -Hartree energ DENC   =      -260.46434534
  -exchange      EXHF   =         0.00000000
  -V(xc)+E(xc)   XCENC  =        33.00519757
  PAW double counting   =      1827.95205931    -1934.14721881
  entropy T*S    EENTRO =         0.00029881
  eigenvalues    EBANDS =       144.84594061
  atomic energy  EATOM  =      1626.72815342
  Solvation  Ediel_sol  =         0.00000000
  ---------------------------------------------------
  free energy    TOTEN  =       -14.06384822 eV

  energy without entropy =      -14.06414703  energy(sigma->0) =      -14.06394782


--------------------------------------------------------------------------------------------------------




--------------------------------------- Iteration      1(  13)  ---------------------------------------


    POTLOK:  cpu time      0.0051: real time      0.0053
    SETDIJ:  cpu time      0.0049: real time      0.0049
     EDDAV:  cpu time      0.3239: real time      0.3257
       DOS:  cpu time      0.0023: real time      0.0023
    --------------------------------------------
      LOOP:  cpu time      0.3361: real time      0.3381

 eigenvalue-minimisations  :  3064
 total energy-change (2. order) : 0.3426821E-06  (-0.1211518E-06)
 number of electron      17.9999990 magnetization       3.3216030
 augmentation part       10.2462946 magnetization       2.9752485

 Free energy of the ion-electron system (eV)
  ---------------------------------------------------
  alpha Z        PSCENC =        79.61870385
  Ewald energy   TEWEN  =     -1531.60263765
  -Hartree energ DENC   =      -260.41696910
  -exchange      EXHF   =         0.00000000
  -V(xc)+E(xc)   XCENC  =        33.00305561
  PAW double counting   =      1829.36849409    -1935.59422329
  entropy T*S    EENTRO =         0.00029346
  eigenvalues    EBANDS =       144.83128174
  atomic energy  EATOM  =      1626.72815342
  Solvation  Ediel_sol  =         0.00000000
  ---------------------------------------------------
  free energy    TOTEN  =       -14.06384788 eV

  energy without entropy =      -14.06414133  energy(sigma->0) =      -14.06394569


--------------------------------------------------------------------------------------------------------




 average (electrostatic) potential at core
  the test charge radii are     1.0452
  (the norm of the test charge is              1.0000)
       1 -78.0391       2 -78.0391
 
 
 
 E-fermi :  10.4896     XC(G=0): -13.5205     alpha+bet :-18.0772

 Fermi energy:        10.4895883485

 spin component 1

 k-point     1 :       0.0000    0.0000    0.0000
  band No.  band energies     occupation 
      1       1.5014      1.00000
      2       5.2812      1.00000
      3       7.8270      1.00000
      4       7.8847      1.00000
      5       7.8847      1.00000
      6       8.1988      1.00000
      7       8.1988      1.00000
      8       8.5753      1.00000
      9       8.5753      1.00000
     10       9.6832      1.00000
     11       9.6832      1.00000
     12      10.3737      0.91058
     13      16.9498      0.00000
     14      32.7487      0.00000
     15      35.5480      0.00000
     16      35.5482      0.00000

 k-point     2 :       0.1000   -0.0000    0.0000
  band No.  band energies     occupation 
      1       1.8569      1.00000
      2       5.4929      1.00000
      3       7.5810      1.00000
      4       8.0520      1.00000
      5       8.0611      1.00000
      6       8.1500      1.00000
      7       8.3055      1.00000
      8       8.3473      1.00000
      9       8.4732      1.00000
     10       8.7607      1.00000
     11       9.7249      1.00000
     12      11.8034     -0.00000
     13      17.0114      0.00000
     14      30.2279      0.00000
     15      32.8703      0.00000
     16      33.0888      0.00000

 k-point     3 :       0.2000   -0.0000    0.0000
  band No.  band energies     occupation 
      1       2.8633      1.00000
      2       5.9511      1.00000
      3       7.2692      1.00000
      4       7.3479      1.00000
      5       7.9082      1.00000
      6       8.2385      1.00000
      7       8.4313      1.00000
      8       8.5056      1.00000
      9       8.5108      1.00000
     10       8.7505      1.00000
     11       9.8030      1.00001
     12      13.8248     -0.00000
     13      17.2377      0.00000
     14      25.5875      0.00000
     15      30.0534      0.00000
     16      31.9328      0.00000

 k-point     4 :       0.3000    0.0000    0.0000
  band No.  band energies     occupation 
      1       4.2623      1.00000
      2       6.0765      1.00000
      3       6.5750      1.00000
      4       7.2496      1.00000
      5       7.9157      1.00000
      6       7.9870      1.00000
      7       8.1904      1.00000
      8       9.1226      1.00000
      9       9.1840      1.00000
     10       9.2865      1.00000
     11       9.8634      1.00004
     12      16.1158      0.00000
     13      17.5930      0.00000
     14      21.4227      0.00000
     15      27.7645      0.00000
     16      28.8713      0.00000

 k-point     5 :       0.4000    0.0000    0.0000
  band No.  band energies     occupation 
      1       5.3468      1.00000
      2       5.8551      1.00000
      3       6.1103      1.00000
      4       7.6323      1.00000
      5       7.8027      1.00000
      6       8.0076      1.00000
      7       8.1719      1.00000
      8       9.6436      1.00000
      9       9.7770      1.00000
     10       9.8951      1.00011
     11      10.3991      0.84289
     12      16.1869      0.00000
     13      18.5759      0.00000
     14      20.1280      0.00000
     15      25.4543      0.00000
     16      26.2184      0.00000

 k-point     6 :       0.5000    0.0000    0.0000
  band No.  band energies     occupation 
      1       5.6614      1.00000
      2       5.7048      1.00000
      3       5.9561      1.00000
      4       7.7358      1.00000
      5       7.9392      1.00000
      6       7.9813      1.00000
      7       8.2835      1.00000
      8       9.8411      1.00002
      9       9.9043      1.00014
     10       9.9897      1.00116
     11      11.8770     -0.00000
     12      13.9462     -0.00000
     13      20.3225      0.00000
     14      21.0028      0.00000
     15      23.3943      0.00000
     16      24.6973      0.00000

 k-point     7 :       0.1000    0.1000    0.0000
  band No.  band energies     occupation 
      1       2.5409      1.00000
      2       5.8473      1.00000
      3       7.3049      1.00000
      4       7.6350      1.00000
      5       7.9912      1.00000
      6       8.1903      1.00000
      7       8.2745      1.00000
      8       8.3933      1.00000
      9       8.5955      1.00000
     10       8.6823      1.00000
     11       9.7657      1.00000
     12      13.2587     -0.00000
     13      17.1618      0.00000
     14      27.7581      0.00000
     15      28.4452      0.00000
     16      34.6057      0.00000

 k-point     8 :       0.2000    0.1000    0.0000
  band No.  band energies     occupation 
      1       3.7756      1.00000
      2       6.2264      1.00000
      3       6.8592      1.00000
      4       7.0250      1.00000
      5       7.8940      1.00000
      6       7.9152      1.00000
      7       8.4003      1.00000
      8       8.6276      1.00000
      9       8.9785      1.00000
     10       9.2971      1.00000
     11       9.8070      1.00001
     12      15.2974     -0.00000
     13      17.5445      0.00000
     14      23.5085      0.00000
     15      26.1494      0.00000
     16      30.8993      0.00000

 k-point     9 :       0.3000    0.1000    0.0000
  band No.  band energies     occupation 
      1       5.1148      1.00000
      2       6.1056      1.00000
      3       6.3076      1.00000
      4       7.1773      1.00000
      5       7.7375      1.00000
      6       8.0604      1.00000
      7       8.1432      1.00000
      8       9.1939      1.00000
      9       9.5524      1.00000
     10       9.8348      1.00002
     11      10.1831      1.02619
     12      17.6104      0.00000
     13      17.6510      0.00000
     14      20.2369      0.00000
     15      24.5546      0.00000
     16      27.2723      0.00000

 k-point    10 :       0.4000    0.1000    0.0000
  band No.  band energies     occupation 
      1       5.7485      1.00000
      2       5.8975      1.00000
      3       6.0293      1.00000
      4       7.6344      1.00000
      5       7.6821      1.00000
      6       7.9394      1.00000
      7       8.2784      1.00000
      8       9.7248      1.00000
      9       9.8464      1.00003
     10       9.8526      1.00003
     11      11.6725     -0.00000
     12      15.0211     -0.00000
     13      20.0531      0.00000
     14      20.8641      0.00000
     15      23.5199      0.00000
     16      24.2365      0.00000

 k-point    11 :       0.2000    0.2000    0.0000
  band No.  band energies     occupation 
      1       5.0482      1.00000
      2       6.4352      1.00000
      3       6.5074      1.00000
      4       6.6751      1.00000
      5       7.6370      1.00000
      6       8.0249      1.00000
      7       8.2402      1.00000
      8       8.8318      1.00000
      9       9.5556      1.00000
     10       9.7761      1.00000
     11      10.2200      1.03349
     12      17.3436      0.00000
     13      18.1903      0.00000
     14      21.6007      0.00000
     15      22.2156      0.00000
     16      29.2957      0.00000

 k-point    12 :       0.3000    0.2000    0.0000
  band No.  band energies     occupation 
      1       6.0181      1.00000
      2       6.1672      1.00000
      3       6.3029      1.00000
      4       6.9315      1.00000
      5       7.5435      1.00000
      6       7.9758      1.00000
      7       8.2781      1.00000
      8       9.2316      1.00000
      9       9.7494      1.00000
     10       9.8509      1.00003
     11      11.6323     -0.00000
     12      17.2267      0.00000
     13      19.7456      0.00000
     14      19.9524      0.00000
     15      21.3034      0.00000
     16      26.1834      0.00000

 k-point    13 :       0.4000    0.2000    0.0000
  band No.  band energies     occupation 
      1       6.0772      1.00000
      2       6.1850      1.00000
      3       6.2140      1.00000
      4       7.2391      1.00000
      5       7.5795      1.00000
      6       7.8024      1.00000
      7       8.4042      1.00000
      8       9.5881      1.00000
      9       9.7393      1.00000
     10       9.7909      1.00000
     11      13.3402     -0.00000
     12      14.7731     -0.00000
     13      19.9719      0.00000
     14      21.6768      0.00000
     15      21.9979      0.00000
     16      23.9241      0.00000

 k-point    14 :       0.3000    0.3000    0.0000
  band No.  band energies     occupation 
      1       6.1290      1.00000
      2       6.4182      1.00000
      3       6.5767      1.00000
      4       6.8100      1.00000
      5       7.5322      1.00000
      6       7.7290      1.00000
      7       8.4999      1.00000
      8       9.4159      1.00000
      9       9.6860      1.00000
     10       9.7446      1.00000
     11      13.7646     -0.00000
     12      16.7914      0.00000
     13      16.8262      0.00000
     14      22.2249      0.00000
     15      22.4847      0.00000
     16      25.1060      0.00000

 k-point    15 :       0.0000    0.0000    0.1250
  band No.  band energies     occupation 
      1       1.6600      1.00000
      2       5.2501      1.00000
      3       7.7864      1.00000
      4       7.8445      1.00000
      5       7.8445      1.00000
      6       8.1564      1.00000
      7       8.1564      1.00000
      8       8.6715      1.00000
      9       8.6715      1.00000
     10       9.6742      1.00000
     11       9.6742      1.00000
     12       9.7638      1.00000
     13      17.8709      0.00000
     14      32.6757      0.00000
     15      34.7575      0.00000
     16      35.5615      0.00000

 k-point    16 :       0.1000   -0.0000    0.1250
  band No.  band energies     occupation 
      1       2.0119      1.00000
      2       5.4739      1.00000
      3       7.5851      1.00000
      4       7.9480      1.00000
      5       7.9813      1.00000
      6       7.9933      1.00000
      7       8.2971      1.00000
      8       8.4348      1.00000
      9       8.5993      1.00000
     10       8.7407      1.00000
     11       9.7099      1.00000
     12      11.2422     -0.00000
     13      18.0052      0.00000
     14      30.3237      0.00000
     15      33.0279      0.00000
     16      33.0294      0.00000

 k-point    17 :       0.2000   -0.0000    0.1250
  band No.  band energies     occupation 
      1       3.0027      1.00000
      2       5.9671      1.00000
      3       7.2109      1.00000
      4       7.3038      1.00000
      5       7.8388      1.00000
      6       8.1995      1.00000
      7       8.2956      1.00000
      8       8.5893      1.00000
      9       8.7047      1.00000
     10       8.7328      1.00000
     11       9.7760      1.00000
     12      12.9320     -0.00000
     13      18.4724      0.00000
     14      25.7228      0.00000
     15      30.2447      0.00000
     16      31.2081      0.00000

 k-point    18 :       0.3000    0.0000    0.1250
  band No.  band energies     occupation 
      1       4.3498      1.00000
      2       6.1096      1.00000
      3       6.5480      1.00000
      4       7.2269      1.00000
      5       7.8244      1.00000
      6       8.0314      1.00000
      7       8.3307      1.00000
      8       9.1418      1.00000
      9       9.1782      1.00000
     10       9.2409      1.00000
     11       9.8296      1.00002
     12      14.6501     -0.00000
     13      19.2667      0.00000
     14      21.5960      0.00000
     15      27.6466      0.00000
     16      27.9838      0.00000

 k-point    19 :       0.4000    0.0000    0.1250
  band No.  band energies     occupation 
      1       5.2919      1.00000
      2       5.8480      1.00000
      3       6.2940      1.00000
      4       7.2216      1.00000
      5       7.8659      1.00000
      6       8.1664      1.00000
      7       8.5377      1.00000
      8       9.6433      1.00000
      9       9.6930      1.00000
     10       9.8896      1.00009
     11      10.3141      1.00725
     12      15.4739     -0.00000
     13      18.3680      0.00000
     14      21.0849      0.00000
     15      24.5347      0.00000
     16      26.4585      0.00000

 k-point    20 :       0.5000    0.0000    0.1250
  band No.  band energies     occupation 
      1       5.4813      1.00000
      2       5.6934      1.00000
      3       6.2819      1.00000
      4       7.2473      1.00000
      5       7.8038      1.00000
      6       8.2877      1.00000
      7       8.7798      1.00000
      8       9.7662      1.00000
      9       9.8840      1.00008
     10       9.9853      1.00105
     11      11.7599     -0.00000
     12      13.8478     -0.00000
     13      19.7605      0.00000
     14      20.1364      0.00000
     15      24.5545      0.00000
     16      25.5831      0.00000

 k-point    21 :       0.1000    0.1000    0.1250
  band No.  band energies     occupation 
      1       2.6866      1.00000
      2       5.8534      1.00000
      3       7.3251      1.00000
      4       7.4545      1.00000
      5       7.9743      1.00000
      6       8.0604      1.00000
      7       8.2885      1.00000
      8       8.4457      1.00000
      9       8.6995      1.00000
     10       8.7098      1.00000
     11       9.7458      1.00000
     12      12.4763     -0.00000
     13      18.3121      0.00000
     14      27.8770      0.00000
     15      28.5933      0.00000
     16      33.5032      0.00000

 k-point    22 :       0.2000    0.1000    0.1250
  band No.  band energies     occupation 
      1       3.8920      1.00000
      2       6.2711      1.00000
      3       6.7628      1.00000
      4       7.0643      1.00000
      5       7.7732      1.00000
      6       8.0194      1.00000
      7       8.3185      1.00000
      8       8.6826      1.00000
      9       9.0561      1.00000
     10       9.2457      1.00000
     11       9.7976      1.00001
     12      14.0869     -0.00000
     13      19.0386      0.00000
     14      23.6546      0.00000
     15      26.3063      0.00000
     16      29.8206      0.00000

 k-point    23 :       0.3000    0.1000    0.1250
  band No.  band energies     occupation 
      1       5.1383      1.00000
      2       6.1371      1.00000
      3       6.3464      1.00000
      4       7.1031      1.00000
      5       7.7727      1.00000
      6       8.0917      1.00000
      7       8.2351      1.00000
      8       9.1793      1.00000
      9       9.5960      1.00000
     10       9.7033      1.00000
     11      10.2183      1.03323
     12      15.6800     -0.00000
     13      19.2210      0.00000
     14      20.9010      0.00000
     15      24.6940      0.00000
     16      26.2116      0.00000

 k-point    24 :       0.4000    0.1000    0.1250
  band No.  band energies     occupation 
      1       5.5916      1.00000
      2       5.8860      1.00000
      3       6.3377      1.00000
      4       7.1743      1.00000
      5       7.7157      1.00000
      6       8.3113      1.00000
      7       8.4161      1.00000
      8       9.6768      1.00000
      9       9.7712      1.00000
     10       9.8791      1.00007
     11      11.6557     -0.00000
     12      14.8587     -0.00000
     13      19.0860      0.00000
     14      21.2057      0.00000
     15      23.6318      0.00000
     16      24.5055      0.00000

 k-point    25 :       0.2000    0.2000    0.1250
  band No.  band energies     occupation 
      1       5.1098      1.00000
      2       6.3518      1.00000
      3       6.6225      1.00000
      4       6.7037      1.00000
      5       7.6791      1.00000
      6       8.0078      1.00000
      7       8.1742      1.00000
      8       8.8649      1.00000
      9       9.6138      1.00000
     10       9.6342      1.00000
     11      10.2889      1.02548
     12      15.6449     -0.00000
     13      20.0758      0.00000
     14      21.7530      0.00000
     15      22.4108      0.00000
     16      28.2044      0.00000

 k-point    26 :       0.3000    0.2000    0.1250
  band No.  band energies     occupation 
      1       5.9168      1.00000
      2       6.2852      1.00000
      3       6.3591      1.00000
      4       6.8918      1.00000
      5       7.6250      1.00000
      6       7.9496      1.00000
      7       8.2983      1.00000
      8       9.2404      1.00000
      9       9.6265      1.00000
     10       9.8905      1.00010
     11      11.6967     -0.00000
     12      16.7207      0.00000
     13      18.8904      0.00000
     14      20.7677      0.00000
     15      22.1115      0.00000
     16      25.2363      0.00000

 k-point    27 :       0.4000    0.2000    0.1250
  band No.  band energies     occupation 
      1       5.9229      1.00000
      2       6.2334      1.00000
      3       6.4735      1.00000
      4       7.0254      1.00000
      5       7.5504      1.00000
      6       7.9670      1.00000
      7       8.4394      1.00000
      8       9.5919      1.00000
      9       9.6052      1.00000
     10       9.8232      1.00001
     11      13.4339     -0.00000
     12      14.7685     -0.00000
     13      19.8892      0.00000
     14      20.9562      0.00000
     15      21.2437      0.00000
     16      25.1378      0.00000

 k-point    28 :       0.3000    0.3000    0.1250
  band No.  band energies     occupation 
      1       6.1563      1.00000
[...]
      2       5.9274      1.00000
      3       8.3378      1.00000
      4       8.3378      1.00000
      5       9.4586      1.00000
      6       9.4586      1.00000
      7      10.3761      0.90488
      8      10.3761      0.90488
      9      11.3714     -0.00000
     10      11.3714     -0.00000
     11      11.9553     -0.00000
     12      11.9553     -0.00000
     13      23.8239      0.00000
     14      23.8239      0.00000
     15      28.2878      0.00000
     16      28.2878      0.00000

 k-point    61 :       0.4000    0.0000    0.5000
  band No.  band energies     occupation 
      1       6.4033      1.00000
      2       6.4033      1.00000
      3       8.1657      1.00000
      4       8.1657      1.00000
      5      10.2842      1.02768
      6      10.2842      1.02768
      7      10.4863      0.51387
      8      10.4863      0.51387
      9      11.7009     -0.00000
     10      11.7009     -0.00000
     11      12.3900     -0.00000
     12      12.3900     -0.00000
     13      20.4722      0.00000
     14      20.4722      0.00000
     15      29.5709      0.00000
     16      29.5709      0.00000

 k-point    62 :       0.5000    0.0000    0.5000
  band No.  band energies     occupation 
      1       6.4890      1.00000
      2       6.4890      1.00000
      3       8.0994      1.00000
      4       8.0994      1.00000
      5      10.4944      0.47964
      6      10.4944      0.47964
      7      10.8037     -0.02443
      8      10.8037     -0.02443
      9      11.8740     -0.00000
     10      11.8740     -0.00000
     11      12.8008     -0.00000
     12      12.8008     -0.00000
     13      18.9072      0.00000
     14      18.9072      0.00000
     15      29.4924      0.00000
     16      29.4924      0.00000

 k-point    63 :       0.1000    0.1000    0.5000
  band No.  band energies     occupation 
      1       4.7328      1.00000
      2       4.7328      1.00000
      3       8.6309      1.00000
      4       8.6309      1.00000
      5       9.3112      1.00000
      6       9.3112      1.00000
      7       9.9288      1.00027
      8       9.9288      1.00027
      9      11.2385     -0.00000
     10      11.2385     -0.00000
     11      11.5470     -0.00000
     12      11.5470     -0.00000
     13      26.7409      0.00000
     14      26.7409      0.00000
     15      29.6773      0.00000
     16      29.6773      0.00000

 k-point    64 :       0.2000    0.1000    0.5000
  band No.  band energies     occupation 
      1       5.6639      1.00000
      2       5.6639      1.00000
      3       8.4478      1.00000
      4       8.4478      1.00000
      5       9.1598      1.00000
      6       9.1598      1.00000
      7      10.2694      1.03268
      8      10.2694      1.03268
      9      11.3834     -0.00000
     10      11.3834     -0.00000
     11      11.8496     -0.00000
     12      11.8496     -0.00000
     13      25.9041      0.00000
     14      25.9041      0.00000
     15      27.7202      0.00000
     16      27.7202      0.00000

 k-point    65 :       0.3000    0.1000    0.5000
  band No.  band energies     occupation 
      1       6.4102      1.00000
      2       6.4102      1.00000
      3       8.3015      1.00000
      4       8.3015      1.00000
      5       9.4453      1.00000
      6       9.4453      1.00000
      7      10.4223      0.76761
      8      10.4223      0.76761
      9      11.7034     -0.00000
     10      11.7034     -0.00000
     11      12.4243     -0.00000
     12      12.4243     -0.00000
     13      22.1861      0.00000
     14      22.1861      0.00000
     15      27.5280      0.00000
     16      27.5280      0.00000

 k-point    66 :       0.4000    0.1000    0.5000
  band No.  band energies     occupation 
      1       6.6484      1.00000
      2       6.6484      1.00000
      3       8.2047      1.00000
      4       8.2047      1.00000
      5       9.8471      1.00003
      6       9.8471      1.00003
      7      10.7172     -0.03416
      8      10.7172     -0.03416
      9      11.7552     -0.00000
     10      11.7552     -0.00000
     11      13.3956     -0.00000
     12      13.3956     -0.00000
     13      19.4304      0.00000
     14      19.4304      0.00000
     15      26.8679      0.00000
     16      26.8679      0.00000

 k-point    67 :       0.2000    0.2000    0.5000
  band No.  band energies     occupation 
      1       6.4817      1.00000
      2       6.4817      1.00000
      3       8.4199      1.00000
      4       8.4199      1.00000
      5       8.9855      1.00000
      6       8.9855      1.00000
      7      10.2906      1.02458
      8      10.2906      1.02458
      9      11.7687     -0.00000
     10      11.7687     -0.00000
     11      12.5099     -0.00000
     12      12.5099     -0.00000
     13      24.1579      0.00000
     14      24.1579      0.00000
     15      25.0650      0.00000
     16      25.0650      0.00000

 k-point    68 :       0.3000    0.2000    0.5000
  band No.  band energies     occupation 
      1       7.0025      1.00000
      2       7.0025      1.00000
      3       8.3956      1.00000
      4       8.3956      1.00000
      5       9.0356      1.00000
      6       9.0356      1.00000
      7      10.3508      0.95770
      8      10.3508      0.95770
      9      11.7927     -0.00000
     10      11.7927     -0.00000
     11      13.9791     -0.00000
     12      13.9791     -0.00000
     13      20.9701      0.00000
     14      20.9701      0.00000
     15      23.7735      0.00000
     16      23.7735      0.00000

 k-point    69 :       0.4000    0.2000    0.5000
  band No.  band energies     occupation 
      1       7.1368      1.00000
      2       7.1368      1.00000
      3       8.3875      1.00000
      4       8.3875      1.00000
      5       9.0590      1.00000
      6       9.0590      1.00000
      7      10.5328      0.32165
      8      10.5328      0.32165
      9      11.7004     -0.00000
     10      11.7004     -0.00000
     11      15.1506     -0.00000
     12      15.1506     -0.00000
     13      19.1074      0.00000
     14      19.1074      0.00000
     15      23.4174      0.00000
     16      23.4174      0.00000

 k-point    70 :       0.3000    0.3000    0.5000
  band No.  band energies     occupation 
      1       7.5774      1.00000
      2       7.5774      1.00000
      3       8.2614      1.00000
      4       8.2614      1.00000
      5       8.7770      1.00000
      6       8.7770      1.00000
      7      10.3475      0.96348
      8      10.3475      0.96348
      9      11.6818     -0.00000
     10      11.6818     -0.00000
     11      16.1205      0.00000
     12      16.1205      0.00000
     13      19.5182      0.00000
     14      19.5182      0.00000
     15      21.3857      0.00000
     16      21.3857      0.00000


--------------------------------------------------------------------------------------------------------


 soft charge-density along one line, spin component           1
         0         1         2         3         4         5         6         7         8         9
 total charge-density along one line
 
 soft charge-density along one line, spin component           2
         0         1         2         3         4         5         6         7         8         9
 total charge-density along one line
 
 pseudopotential strength for first ion, spin component:           1
 -0.463  -0.000  -0.000   0.000   0.000  -1.102  -0.000  -0.000
 -0.000  -0.473   0.000  -0.000  -0.000  -0.000  -1.112   0.000
 -0.000   0.000  -0.465  -0.000   0.000  -0.000   0.000  -1.105
  0.000  -0.000  -0.000  -0.473  -0.000   0.000   0.000  -0.000
  0.000  -0.000   0.000  -0.000  -0.463   0.000  -0.000   0.000
 -1.102  -0.000  -0.000   0.000   0.000  -1.682  -0.000  -0.000
 -0.000  -1.112   0.000   0.000  -0.000  -0.000  -1.692   0.000
 -0.000   0.000  -1.105  -0.000   0.000  -0.000   0.000  -1.684
  0.000   0.000  -0.000  -1.112  -0.000   0.000   0.000  -0.000
  0.000  -0.000   0.000  -0.000  -1.102   0.000  -0.000   0.000
 -0.000  -0.000   0.001   0.000   0.000  -0.000  -0.000   0.001
 -0.000  -0.000   0.002   0.000   0.000  -0.000  -0.000   0.002
 -0.000  -0.000  -0.000  -0.000   0.001  -0.000  -0.000  -0.000
 -0.000   0.000  -0.000  -0.000   0.000  -0.000   0.000  -0.000
  0.001  -0.000   0.000   0.000  -0.000   0.001  -0.000   0.000
 -0.000  -0.000  -0.000  -0.000   0.001  -0.000  -0.000  -0.000
 -0.000   0.000  -0.000  -0.000   0.000  -0.000   0.000  -0.000
  0.001  -0.000   0.000  -0.000  -0.000   0.001  -0.000   0.000
 pseudopotential strength for first ion, spin component:           2
  0.903  -0.000  -0.000   0.000   0.000   0.207  -0.000  -0.000
 -0.000   0.912   0.000  -0.000  -0.000  -0.000   0.215   0.000
 -0.000   0.000   0.889  -0.000   0.000  -0.000   0.000   0.193
  0.000  -0.000  -0.000   0.912  -0.000   0.000   0.000  -0.000
  0.000  -0.000   0.000  -0.000   0.903   0.000  -0.000   0.000
  0.207  -0.000  -0.000   0.000   0.000  -0.429  -0.000  -0.000
 -0.000   0.215   0.000   0.000  -0.000  -0.000  -0.421   0.000
 -0.000   0.000   0.193  -0.000   0.000  -0.000   0.000  -0.442
  0.000   0.000  -0.000   0.215  -0.000   0.000   0.000  -0.000
  0.000  -0.000   0.000  -0.000   0.207   0.000  -0.000   0.000
 -0.000  -0.000   0.000   0.000   0.000  -0.000  -0.000   0.000
 -0.000  -0.000   0.000   0.000   0.000  -0.000  -0.000   0.000
 -0.000  -0.000  -0.000  -0.000   0.000  -0.000  -0.000  -0.000
 -0.000   0.000  -0.000  -0.000   0.000  -0.000   0.000  -0.000
  0.000  -0.000   0.000   0.000  -0.000   0.000  -0.000   0.000
 -0.000  -0.000  -0.000  -0.000   0.000  -0.000  -0.000  -0.000
 -0.000   0.000  -0.000  -0.000   0.000  -0.000   0.000  -0.000
  0.000  -0.000   0.000   0.000  -0.000   0.000  -0.000   0.000
 total augmentation occupancy for first ion, spin component:           1
  2.987  -0.000   0.000   0.000   0.000  -1.666  -0.000   0.000  -0.000   0.000   0.000  -0.000  -0.000   0.000  -0.044   0.000
 -0.000   3.100   0.000  -0.000   0.000   0.000  -1.714  -0.000   0.000   0.000  -0.000  -0.000  -0.000  -0.000   0.000   0.000
  0.000   0.000   2.843  -0.000   0.000   0.000  -0.000  -1.606  -0.000  -0.000  -0.019   0.000   0.000  -0.000  -0.000   0.000
  0.000   0.000   0.000   3.100  -0.000  -0.000   0.000   0.000  -1.714  -0.000   0.000   0.000   0.000  -0.000   0.000  -0.000
  0.000  -0.000   0.000   0.000   2.987  -0.000   0.000  -0.000  -0.000  -1.666   0.000  -0.000  -0.044   0.000   0.000   0.003
 -1.666   0.000   0.000   0.000   0.000   1.899   0.000   0.000   0.000   0.000   0.000   0.000   0.000  -0.000   0.060   0.000
 -0.000  -1.714   0.000   0.000   0.000   0.000   1.875   0.000   0.000  -0.000   0.000   0.000  -0.000   0.000  -0.000  -0.000
  0.000   0.000  -1.606  -0.000  -0.000   0.000  -0.000   1.923   0.000   0.000   0.015  -0.000   0.000  -0.000   0.000   0.000
  0.000   0.000   0.000  -1.714  -0.000   0.000   0.000   0.000   1.875   0.000  -0.000  -0.000  -0.000   0.000   0.000  -0.000
  0.000  -0.000  -0.000   0.000  -1.666   0.000   0.000   0.000   0.000   1.899  -0.000   0.000   0.060   0.000   0.000  -0.005
  0.000  -0.000  -0.019   0.000  -0.000   0.000   0.000   0.015   0.000  -0.000   2.348  -0.277   0.000  -0.000   0.000   0.000
 -0.000   0.000   0.000  -0.000  -0.000   0.000  -0.000  -0.000   0.000   0.000  -0.277   0.041  -0.000   0.000   0.000  -0.000
 -0.000  -0.000  -0.000   0.000  -0.044  -0.000   0.000  -0.000  -0.000   0.060  -0.000   0.000   0.325  -0.000   0.000  -0.031
  0.000  -0.000   0.000  -0.000   0.000   0.000   0.000  -0.000  -0.000  -0.000   0.000   0.000  -0.000   0.329   0.000  -0.000
 -0.044  -0.000   0.000   0.000   0.000   0.060   0.000   0.000   0.000   0.000   0.000   0.000  -0.000  -0.000   0.325  -0.000
 -0.000   0.000   0.000   0.000   0.003   0.000   0.000   0.000   0.000  -0.005   0.000  -0.000  -0.031  -0.000   0.000   0.003
  0.000   0.000  -0.000  -0.000  -0.000   0.000   0.000   0.000   0.000  -0.000   0.000  -0.000   0.000  -0.031   0.000   0.000
  0.003   0.000   0.000   0.000   0.000  -0.005  -0.000   0.000   0.000   0.000   0.000   0.000  -0.000   0.000  -0.031   0.000
 total augmentation occupancy for first ion, spin component:           2
  2.149  -0.000  -0.000   0.000   0.000  -1.036   0.000  -0.000  -0.000  -0.000   0.000   0.000   0.000  -0.000   0.004   0.000
 -0.000   2.183  -0.000   0.000   0.000   0.000  -1.053   0.000  -0.000   0.000   0.000   0.000   0.000  -0.000  -0.000  -0.000
 -0.000   0.000   2.151   0.000   0.000   0.000   0.000  -1.036  -0.000  -0.000  -0.001  -0.000  -0.000   0.000  -0.000   0.000
  0.000   0.000   0.000   2.183  -0.000   0.000   0.000   0.000  -1.053  -0.000   0.000  -0.000  -0.000   0.000   0.000  -0.000
  0.000   0.000   0.000   0.000   2.149   0.000  -0.000  -0.000  -0.000  -1.036  -0.000   0.000   0.004   0.000   0.000  -0.000
 -1.036  -0.000  -0.000   0.000  -0.000   0.302   0.000   0.000   0.000  -0.000  -0.000   0.000   0.000  -0.000  -0.008   0.000
  0.000  -1.053  -0.000   0.000  -0.000   0.000   0.319   0.000   0.000   0.000  -0.000   0.000   0.000   0.000   0.000  -0.000
  0.000   0.000  -1.036   0.000  -0.000   0.000   0.000   0.289   0.000  -0.000  -0.000   0.000   0.000  -0.000   0.000  -0.000
  0.000   0.000   0.000  -1.053   0.000   0.000   0.000  -0.000   0.319  -0.000   0.000   0.000   0.000   0.000  -0.000  -0.000
  0.000  -0.000  -0.000   0.000  -1.036   0.000   0.000   0.000  -0.000   0.302  -0.000  -0.000  -0.008  -0.000  -0.000   0.000
  0.000   0.000  -0.001  -0.000  -0.000   0.000  -0.000  -0.000   0.000   0.000  -0.304   0.094  -0.000  -0.000   0.000  -0.000
  0.000   0.000  -0.000   0.000   0.000   0.000  -0.000   0.000   0.000  -0.000   0.094  -0.016  -0.000   0.000  -0.000   0.000
  0.000   0.000   0.000   0.000   0.004   0.000  -0.000   0.000  -0.000  -0.008  -0.000  -0.000  -0.033  -0.000   0.000   0.005
  0.000  -0.000  -0.000  -0.000   0.000  -0.000   0.000   0.000   0.000   0.000   0.000   0.000  -0.000  -0.038   0.000   0.000
  0.004  -0.000   0.000  -0.000   0.000  -0.008   0.000   0.000   0.000   0.000   0.000  -0.000  -0.000   0.000  -0.033   0.000
  0.000  -0.000   0.000   0.000  -0.000   0.000  -0.000   0.000  -0.000   0.000  -0.000  -0.000   0.005  -0.000   0.000  -0.001
  0.000   0.000   0.000  -0.000  -0.000  -0.000  -0.000  -0.000  -0.000   0.000   0.000  -0.000   0.000   0.005   0.000   0.000
 -0.000   0.000   0.000   0.000   0.000   0.000   0.000   0.000  -0.000   0.000   0.000  -0.000  -0.000   0.000   0.005   0.000


------------------------ aborting loop because EDIFF is reached ----------------------------------------


    CHARGE:  cpu time      0.0253: real time      0.0254
    FORLOC:  cpu time      0.0001: real time      0.0001
    FORNL :  cpu time      0.0204: real time      0.0205
    STRESS:  cpu time      0.0580: real time      0.0582
    FORCOR:  cpu time      0.0048: real time      0.0048
    FORHAR:  cpu time      0.0005: real time      0.0005
    MIXING:  cpu time      0.0003: real time      0.0003
    OFIELD:  cpu time      0.0000: real time      0.0000

  FORCE on cell =-STRESS in cart. coord.  units (eV):
  Direction    XX          YY          ZZ          XY          YZ          ZX
  --------------------------------------------------------------------------------------
  Alpha Z    79.61870    79.61870    79.61870
  Ewald    -511.71047  -511.71047  -508.18277     0.00000     0.00000    -0.00000
  Hartree    86.27440    86.27440    87.87294     0.00000     0.00000    -0.00000
  E(xc)     -92.70789   -92.70788   -92.70038     0.00000     0.00000    -0.00000
  Local     -15.53123   -15.53113   -20.17777    -0.00000    -0.00000    -0.00000
  n-local   -14.15899    -3.07516    -8.79248     3.33923    -0.63569     2.38006
  augment   310.87161   310.87153   310.61098    -0.00000    -0.00000    -0.00000
  Kinetic   155.61820   149.42415   152.21724    -3.42001    -0.62054     0.58695
  Fock        0.00000     0.00000     0.00000     0.00000     0.00000     0.00000
  -------------------------------------------------------------------------------------
  Total       0.71924     0.71924     0.46646    -0.00000     0.00000    -0.00000
  in kB      54.15074    54.15074    35.11951    -0.00000     0.00000    -0.00000
  external pressure =       47.81 kB  Pullay stress =        0.00 kB


 VOLUME and BASIS-vectors are now :
 -----------------------------------------------------------------------------
  energy-cutoff  :      475.00
  volume of cell :       21.28
      direct lattice vectors                 reciprocal lattice vectors
     1.235999952 -2.140814714  0.000000000     0.404530760 -0.233555943  0.000000000
     1.235999952  2.140814714  0.000000000     0.404530760  0.233555943  0.000000000
     0.000000000  0.000000000  4.021144080     0.000000000  0.000000000  0.248685444

  length of vectors
     2.471999903  2.471999903  4.021144080     0.467111887  0.467111887  0.248685444


 FORCES acting on ions
    electron-ion (+dipol)            ewald-force                    non-local-force                 convergence-correction
 -----------------------------------------------------------------------------------------------
   0.286E-12 -.862E-07 -.859E-12   -.138E-13 0.239E-11 -.240E-13   -.173E-17 0.278E-16 -.239E-17   -.720E-14 -.230E-08 0.795E-14
   0.707E-12 0.862E-07 -.523E-11   0.114E-13 -.239E-11 0.240E-13   -.104E-16 -.139E-16 0.282E-17   0.229E-14 0.230E-08 -.382E-13
 -----------------------------------------------------------------------------------------------
   0.993E-12 0.345E-10 -.609E-11   -.234E-14 0.772E-15 0.000E+00   -.121E-16 0.139E-16 0.434E-18   -.492E-14 -.292E-13 -.303E-13
 
 
 POSITION                                       TOTAL-FORCE (eV/Angst)
 -----------------------------------------------------------------------------------
      1.23600      0.71360      1.00529        -0.000000      0.000000      0.000000
      1.23600     -0.71360      3.01586         0.000000     -0.000000     -0.000000
 -----------------------------------------------------------------------------------
    total drift:                                0.000000      0.000000     -0.000000


--------------------------------------------------------------------------------------------------------



  FREE ENERGIE OF THE ION-ELECTRON SYSTEM (eV)
  ---------------------------------------------------
  free  energy   TOTEN  =       -14.06384788 eV

  energy  without entropy=      -14.06414133  energy(sigma->0) =      -14.06394569
 


--------------------------------------------------------------------------------------------------------


    POTLOK:  cpu time      0.0103: real time      0.0103


--------------------------------------------------------------------------------------------------------


     LOOP+:  cpu time      6.6360: real time      6.6784
    4ORBIT:  cpu time      0.0000: real time      0.0000

 total amount of memory used by VASP MPI-rank0    32526. kBytes
=======================================================================

   base      :      30000. kBytes
   nonl-proj :        889. kBytes
   fftplans  :        189. kBytes
   grid      :        450. kBytes
   one-center:         31. kBytes
   wavefun   :        967. kBytes
 
  
  
 General timing and accounting informations for this job:
 ========================================================
  
                  Total CPU time used (sec):        7.418
                            User time (sec):        6.941
                          System time (sec):        0.477
                         Elapsed time (sec):        8.556
  
                   Maximum memory used (kb):      225168.
                   Average memory used (kb):          N/A
  
                          Minor page faults:        21288
                          Major page faults:           69
                 Voluntary context switches:         2206
