<?xml version="1.0" encoding="ISO-8859-1"?>
<modeling>
 <generator>
  <i name="program" type="string">vasp </i>
  <i name="version" type="string">6.3.2  </i>
  <i name="subversion" type="string">27Jun22 (build Aug 12 2022 00:53:59) complex                          parallel </i>
  <i name="platform" type="string">tv2STD </i>
  <i name="date" type="string">2024 11 30 </i>
  <i name="time" type="string">15:14:33 </i>
 </generator>
 <incar>
  <i type="string" name="SYSTEM">Co fcc</i>
  <i type="int" name="ISTART">     0</i>
  <i type="string" name="PREC">Accurate      normal | accurate</i>
  <i type="string" name="ALGO">Normal     Normal, Fast, Very_Fast</i>
  <i type="logical" name="ADDGRID"> F  </i>
  <i type="int" name="ISPIN">     2</i>
  <i type="int" name="ICHARG">     2</i>
  <i type="int" name="INIWAV">     1</i>
  <i type="int" name="NELM">   100</i>
  <i type="int" name="IBRION">    -1</i>
  <i name="EDIFF">      0.00000100</i>
  <i name="EDIFFG">     -0.02000000</i>
  <i type="int" name="NSW">     0</i>
  <i type="int" name="ISIF">     2</i>
  <i type="int" name="ISYM">     1</i>
  <i name="ENCUT">    475.00000000</i>
  <v name="MAGMOM">      3.00000000      3.00000000</v>
  <i type="logical" name="LREAL"> F  </i>
  <i type="int" name="ISMEAR">     1</i>
  <i name="SIGMA">      0.20000000</i>
  <i type="int" name="NWRITE">     2</i>
  <i type="logical" name="LWAVE"> F  </i>
  <i type="logical" name="LCHARG"> F  </i>
 </incar>
 <primitive_cell>
  <structure name="primitive_cell" >
   <crystal>
    <varray name="basis" >
     <v>       2.47000000       0.00000000       0.00000000 </v>
     <v>      -1.23500000       2.13908275       0.00000000 </v>
     <v>       0.00000000       0.00000000       8.09000000 </v>
    </varray>
    <i name="volume">     42.74379318 </i>
    <varray name="rec_basis" >
     <v>       0.40485830       0.23374505       0.00000000 </v>
     <v>       0.00000000       0.46749010       0.00000000 </v>
     <v>       0.00000000       0.00000000       0.12360939 </v>
    </varray>
   </crystal>
   <varray name="positions" >
    <v>       0.00000000       0.00000000       0.00000000 </v>
    <v>       0.33333333       0.66666667       0.50000000 </v>
   </varray>
  </structure>
  <varray name="primitive_index" >
   <v type="int" >        1 </v>
   <v type="int" >        2 </v>
  </varray>
 </primitive_cell>
 <kpoints>
  <generation param="Gamma">
   <v type="int" name="divisions">       6        6        4 </v>
   <v name="usershift">      0.00000000       0.00000000       0.00000000 </v>
   <v name="genvec1">      0.16666667       0.00000000       0.00000000 </v>
   <v name="genvec2">      0.00000000       0.16666667       0.00000000 </v>
   <v name="genvec3">      0.00000000       0.00000000       0.25000000 </v>
   <v name="shift">      0.00000000       0.00000000       0.00000000 </v>
  </generation>
  <varray name="kpointlist" >
   <v>       0.00000000       0.00000000       0.00000000 </v>
   <v>       0.16666667      -0.00000000       0.00000000 </v>
   <v>       0.33333333      -0.00000000       0.00000000 </v>
   <v>       0.50000000      -0.00000000       0.00000000 </v>
   <v>       0.16666667       0.16666667       0.00000000 </v>
   <v>       0.33333333       0.16666667       0.00000000 </v>
   <v>       0.33333333       0.33333333       0.00000000 </v>
   <v>       0.00000000       0.00000000       0.25000000 </v>
   <v>       0.16666667      -0.00000000       0.25000000 </v>
   <v>       0.33333333      -0.00000000       0.25000000 </v>
   <v>       0.50000000      -0.00000000       0.25000000 </v>
   <v>       0.16666667       0.16666667       0.25000000 </v>
   <v>       0.33333333       0.16666667       0.25000000 </v>
   <v>       0.33333333       0.33333333       0.25000000 </v>
   <v>       0.00000000       0.00000000       0.50000000 </v>
   <v>       0.16666667      -0.00000000       0.50000000 </v>
   <v>       0.33333333      -0.00000000       0.50000000 </v>
   <v>       0.50000000      -0.00000000       0.50000000 </v>
   <v>       0.16666667       0.16666667       0.50000000 </v>
   <v>       0.33333333       0.16666667       0.50000000 </v>
   <v>       0.33333333       0.33333333       0.50000000 </v>
  </varray>
  <varray name="weights" >
   <v>       0.00694444 </v>
   <v>       0.04166667 </v>
   <v>       0.04166667 </v>
   <v>       0.02083333 </v>
   <v>       0.04166667 </v>
   <v>       0.08333333 </v>
   <v>       0.01388889 </v>
   <v>       0.01388889 </v>
   <v>       0.08333333 </v>
   <v>       0.08333333 </v>
   <v>       0.04166667 </v>
   <v>       0.08333333 </v>
   <v>       0.16666667 </v>
   <v>       0.02777778 </v>
   <v>       0.00694444 </v>
   <v>       0.04166667 </v>
   <v>       0.04166667 </v>
   <v>       0.02083333 </v>
   <v>       0.04166667 </v>
   <v>       0.08333333 </v>
   <v>       0.01388889 </v>
  </varray>
 </kpoints>
 <parameters>
  <separator name="general" >
   <i type="string" name="SYSTEM">Co fcc</i>
   <i type="logical" name="LCOMPAT"> F  </i>
  </separator>
  <separator name="electronic" >
   <i type="string" name="PREC">accura</i>
   <i name="ENMAX">    475.00000000</i>
   <i name="ENAUG">    477.81800000</i>
   <i name="EDIFF">      0.00000100</i>
   <i type="int" name="IALGO">    38</i>
   <i type="int" name="IWAVPR">    10</i>
   <i type="int" name="NBANDS">    16</i>
   <i type="int" name="NBANDSLOW">    -1</i>
   <i type="int" name="NBANDSHIGH">    -1</i>
   <i name="NELECT">     18.00000000</i>
   <i type="int" name="TURBO">     0</i>
   <i type="int" name="IRESTART">     0</i>
   <i type="int" name="NREBOOT">     0</i>
   <i type="int" name="NMIN">     0</i>
   <i name="EREF">      0.00000000</i>
   <separator name="electronic smearing" >
    <i type="int" name="ISMEAR">     1</i>
    <i name="SIGMA">      0.20000000</i>
    <i name="KSPACING">      0.50000000</i>
    <i type="logical" name="KGAMMA"> T  </i>
    <i type="logical" name="KBLOWUP"> T  </i>
   </separator>
   <separator name="electronic projectors" >
    <i type="logical" name="LREAL"> F  </i>
    <v name="ROPT">      0.00000000</v>
    <i type="int" name="LMAXPAW">  -100</i>
    <i type="int" name="LMAXMIX">     2</i>
    <i type="logical" name="NLSPLINE"> F  </i>
   </separator>
   <separator name="electronic startup" >
    <i type="int" name="ISTART">     0</i>
    <i type="int" name="ICHARG">     2</i>
    <i type="int" name="INIWAV">     1</i>
   </separator>
   <separator name="electronic spin" >
    <i type="int" name="ISPIN">     2</i>
    <i type="logical" name="LNONCOLLINEAR"> F  </i>
    <v name="MAGMOM">      3.00000000      3.00000000</v>
    <i name="NUPDOWN">     -1.00000000</i>
    <i type="logical" name="LSORBIT"> F  </i>
    <v name="SAXIS">      0.00000000      0.00000000      1.00000000</v>
    <i type="logical" name="LSPIRAL"> F  </i>
    <v name="QSPIRAL">      0.00000000      0.00000000      0.00000000</v>
    <i type="logical" name="LZEROZ"> F  </i>
   </separator>
   <separator name="electronic exchange-correlation" >
    <i type="logical" name="LASPH"> F  </i>
    <i type="logical" name="LMETAGGA"> F  </i>
   </separator>
   <separator name="electronic convergence" >
    <i type="int" name="NELM">   100</i>
    <i type="int" name="NELMDL">    -5</i>
    <i type="int" name="NELMIN">     2</i>
    <i name="ENINI">    475.00000000</i>
    <separator name="electronic convergence detail" >
     <i type="logical" name="LDIAG"> T  </i>
     <i type="logical" name="LSUBROT"> F  </i>
     <i name="WEIMIN">      0.00000000</i>
     <i name="EBREAK">      0.00000002</i>
     <i name="DEPER">      0.30000000</i>
     <i type="int" name="NRMM">     4</i>
     <i name="TIME">      0.40000000</i>
    </separator>
   </separator>
   <separator name="electronic mixer" >
    <i name="AMIX">      0.40000000</i>
    <i name="BMIX">      1.00000000</i>
    <i name="AMIN">      0.10000000</i>
    <i name="AMIX_MAG">      1.60000000</i>
    <i name="BMIX_MAG">      1.00000000</i>
    <separator name="electronic mixer details" >
     <i type="int" name="IMIX">     4</i>
     <i type="logical" name="MIXFIRST"> F  </i>
     <i type="int" name="MAXMIX">   -45</i>
     <i name="WC">    100.00000000</i>
     <i type="int" name="INIMIX">     1</i>
     <i type="int" name="MIXPRE">     1</i>
     <i type="int" name="MREMOVE">     5</i>
    </separator>
   </separator>
   <separator name="electronic dipolcorrection" >
    <i type="logical" name="LDIPOL"> F  </i>
    <i type="logical" name="LMONO"> F  </i>
    <i type="int" name="IDIPOL">     0</i>
    <i name="EPSILON">      1.00000000</i>
    <v name="DIPOL">   -100.00000000   -100.00000000   -100.00000000</v>
    <i name="EFIELD">      0.00000000</i>
   </separator>
  </separator>
  <separator name="grids" >
   <i type="int" name="NGX">    18</i>
   <i type="int" name="NGY">    18</i>
   <i type="int" name="NGZ">    60</i>
   <i type="int" name="NGXF">    36</i>
   <i type="int" name="NGYF">    36</i>
   <i type="int" name="NGZF">   120</i>
   <i type="logical" name="ADDGRID"> F  </i>
  </separator>
  <separator name="ionic" >
   <i type="int" name="NSW">     0</i>
   <i type="int" name="IBRION">    -1</i>
   <i type="int" name="MDALGO">     0</i>
   <i type="int" name="ISIF">     2</i>
   <i name="PSTRESS">      0.00000000</i>
   <i name="EDIFFG">     -0.02000000</i>
   <i type="int" name="NFREE">     0</i>
   <i name="POTIM">      0.50000000</i>
   <i name="SMASS">     -3.00000000</i>
   <i name="SCALEE">      1.00000000</i>
  </separator>
  <separator name="ionic md" >
   <i name="TEBEG">      0.00010000</i>
   <i name="TEEND">      0.00010000</i>
   <i type="int" name="NBLOCK">     1</i>
   <i type="int" name="KBLOCK">     1</i>
   <i type="int" name="NPACO">   256</i>
   <i name="APACO">     10.00000000</i>
  </separator>
  <separator name="symmetry" >
   <i type="int" name="ISYM">     1</i>
   <i name="SYMPREC">      0.00001000</i>
  </separator>
  <separator name="dos" >
   <i type="int" name="LORBIT">     0</i>
   <v name="RWIGS">     -1.00000000</v>
   <i type="int" name="NEDOS">   301</i>
   <i name="EMIN">     10.00000000</i>
   <i name="EMAX">    -10.00000000</i>
   <i name="EFERMI">      0.00000000</i>
  </separator>
  <separator name="writing" >
   <i type="int" name="NWRITE">     2</i>
   <i type="logical" name="LWAVE"> F  </i>
   <i type="logical" name="LDOWNSAMPLE"> F  </i>
   <i type="logical" name="LCHARG"> F  </i>
   <i type="logical" name="LPARD"> F  </i>
   <i type="logical" name="LVTOT"> F  </i>
   <i type="logical" name="LVHAR"> F  </i>
   <i type="logical" name="LELF"> F  </i>
   <i type="logical" name="LOPTICS"> F  </i>
   <v name="STM">      0.00000000      0.00000000      0.00000000      0.00000000      0.00000000      0.00000000      0.00000000</v>
  </separator>
  <separator name="performance" >
   <i type="int" name="NPAR">     4</i>
   <i type="int" name="NSIM">     4</i>
   <i type="int" name="NBLK">    -1</i>
   <i type="logical" name="LPLANE"> T  </i>
   <i type="logical" name="LSCALAPACK"> T  </i>
   <i type="logical" name="LSCAAWARE"> F  </i>
   <i type="logical" name="LSCALU"> F  </i>
   <i type="logical" name="LASYNC"> F  </i>
   <i type="logical" name="LORBITALREAL"> F  </i>
  </separator>
  <separator name="miscellaneous" >
   <i type="int" name="IDIOT">     3</i>
   <i type="int" name="PHON_NSTRUCT">    -1</i>
   <i type="logical" name="LMUSIC"> F  </i>
   <v name="POMASS">     58.93300000</v>
   <v name="DARWINR">      0.00000000</v>
   <v name="DARWINV">      1.00000000</v>
   <i type="logical" name="LCORR"> T  </i>
  </separator>
  <i type="logical" name="GGA_COMPAT"> T  </i>
  <i type="logical" name="LBERRY"> F  </i>
  <i type="int" name="ICORELEVEL">     0</i>
  <i type="logical" name="LDAU"> F  </i>
  <i type="int" name="I_CONSTRAINED_M">     0</i>
  <separator name="electronic exchange-correlation" >
   <i type="string" name="GGA">--</i>
   <i type="int" name="VOSKOWN">     0</i>
   <i type="logical" name="LHFCALC"> F  </i>
   <i type="string" name="PRECFOCK"></i>
   <i type="logical" name="LSYMGRAD"> F  </i>
   <i type="logical" name="LHFONE"> F  </i>
   <i type="logical" name="LRHFCALC"> F  </i>
   <i type="logical" name="LTHOMAS"> F  </i>
   <i type="logical" name="LMODELHF"> F  </i>
   <i type="logical" name="LFOCKACE"> F  </i>
   <i name="ENCUT4O">     -1.00000000</i>
   <i type="int" name="EXXOEP">     0</i>
   <i type="int" name="FOURORBIT">     0</i>
   <i name="AEXX">      0.00000000</i>
   <i name="HFALPHA">      0.00000000</i>
   <i name="MCALPHA">      0.00000000</i>
   <i name="ALDAX">      1.00000000</i>
   <i name="AGGAX">      1.00000000</i>
   <i name="ALDAC">      1.00000000</i>
   <i name="AGGAC">      1.00000000</i>
   <i type="int" name="NKREDX">     1</i>
   <i type="int" name="NKREDY">     1</i>
   <i type="int" name="NKREDZ">     1</i>
   <i type="logical" name="SHIFTRED"> F  </i>
   <i type="logical" name="ODDONLY"> F  </i>
   <i type="logical" name="EVENONLY"> F  </i>
   <i type="int" name="LMAXFOCK">     0</i>
   <i type="int" name="NMAXFOCKAE">     0</i>
   <i type="logical" name="LFOCKAEDFT"> F  </i>
   <i name="HFSCREEN">      0.00000000</i>
   <i name="HFSCREENC">      0.00000000</i>
   <i type="int" name="NBANDSGWLOW">     0</i>
  </separator>
  <separator name="vdW DFT" >
   <i type="logical" name="LUSE_VDW"> F  </i>
   <i name="Zab_VDW">     -0.84910000</i>
   <i name="PARAM1">      0.12340000</i>
   <i name="PARAM2">      1.00000000</i>
   <i name="PARAM3">      0.00000000</i>
  </separator>
  <separator name="model GW" >
   <i type="int" name="MODEL_GW">     0</i>
   <i name="MODEL_EPS0">     12.82313795</i>
   <i name="MODEL_ALPHA">      1.00000000</i>
  </separator>
  <separator name="linear response parameters" >
   <i type="logical" name="LEPSILON"> F  </i>
   <i type="logical" name="LRPA"> F  </i>
   <i type="logical" name="LNABLA"> F  </i>
   <i type="logical" name="LVEL"> F  </i>
   <i name="CSHIFT">      0.10000000</i>
   <i name="OMEGAMAX">     -1.00000000</i>
   <i name="DEG_THRESHOLD">      0.00200000</i>
   <i name="RTIME">     -0.10000000</i>
   <i name="WPLASMAI">      0.00000000</i>
   <v name="DFIELD">      0.00000000      0.00000000      0.00000000</v>
   <v name="WPLASMA">      0.00000000      0.00000000      0.00000000      0.00000000      0.00000000      0.00000000      0.00000000      0.00000000      0.00000000</v>
  </separator>
  <separator name="orbital magnetization" >
   <i type="logical" name="NUCIND"> F  </i>
   <v name="MAGPOS">      0.00000000      0.00000000      0.00000000</v>
   <i type="logical" name="LNICSALL"> T  </i>
   <i type="logical" name="ORBITALMAG"> F  </i>
   <i type="logical" name="LMAGBLOCH"> F  </i>
   <i type="logical" name="LCHIMAG"> F  </i>
   <i type="logical" name="LGAUGE"> T  </i>
   <i type="int" name="MAGATOM">     0</i>
   <v name="MAGDIPOL">      0.00000000      0.00000000      0.00000000</v>
   <v name="AVECCONST">      0.00000000      0.00000000      0.00000000</v>
  </separator>
  <separator name="response functions" >
   <i type="logical" name="LFINITE_TEMPERATURE"> F  </i>
   <i type="logical" name="LADDER"> F  </i>
   <i type="logical" name="LRPAFORCE"> F  </i>
   <i type="logical" name="LFXC"> F  </i>
   <i type="logical" name="LHARTREE"> T  </i>
   <i type="int" name="IBSE">     0</i>
   <v type="int" name="KPOINT">    -1     0     0     0</v>
   <i type="logical" name="LTCTC"> F  </i>
   <i type="logical" name="LTCTE"> F  </i>
   <i type="logical" name="LTETE"> F  </i>
   <i type="logical" name="LTRIPLET"> F  </i>
   <i type="logical" name="LFXCEPS"> F  </i>
   <i type="logical" name="LFXHEG"> F  </i>
   <i type="int" name="NATURALO">     2</i>
   <i type="logical" name="LHOLEGF"> F  </i>
   <i type="logical" name="L2ORDER"> F  </i>
   <i type="logical" name="LDMP1"> F  </i>
   <i type="logical" name="LMP2LT"> F  </i>
   <i type="logical" name="LSMP2LT"> F  </i>
   <i type="logical" name="LGWLF"> F  </i>
   <i name="ENCUTGW">     -2.00000000</i>
   <i name="ENCUTGWSOFT">     -2.00000000</i>
   <i name="ENCUTLF">     -1.00000000</i>
   <i type="logical" name="LESF_SPLINES"> F  </i>
   <i type="int" name="LMAXMP2">    -1</i>
   <i name="SCISSOR">      0.00000000</i>
   <i type="int" name="NOMEGA">     0</i>
   <i type="int" name="NOMEGAR">     0</i>
   <i type="int" name="NBANDSGW">    -1</i>
   <i type="int" name="NBANDSO">    -1</i>
   <i type="int" name="NBANDSV">    -1</i>
   <i type="int" name="NELMGW">     1</i>
   <i type="int" name="NELMHF">     1</i>
   <i type="int" name="DIM">     3</i>
   <i type="int" name="IESPILON">     4</i>
   <i type="int" name="ANTIRES">     0</i>
   <i name="OMEGAMAX">    -30.00000000</i>
   <i name="OMEGAMIN">    -30.00000000</i>
   <i name="OMEGATL">   -200.00000000</i>
   <i type="int" name="OMEGAGRID">     0</i>
   <i name="CSHIFT">     -0.10000000</i>
   <i type="logical" name="LSELFENERGY"> F  </i>
   <i type="logical" name="LSPECTRAL"> F  </i>
   <i type="logical" name="LSPECTRALGW"> F  </i>
   <i type="logical" name="LSINGLES"> F  </i>
   <i type="logical" name="LFERMIGW"> F  </i>
   <i type="logical" name="ODDONLYGW"> F  </i>
   <i type="logical" name="EVENONLYGW"> F  </i>
   <i type="int" name="NKREDLFX">     1</i>
   <i type="int" name="NKREDLFY">     1</i>
   <i type="int" name="NKREDLFZ">     1</i>
   <i type="int" name="MAXMEM">  2800</i>
   <i type="int" name="TELESCOPE">     0</i>
   <i type="int" name="NTAUPAR">    -1</i>
   <i type="int" name="NOMEGAPAR">    -1</i>
   <i name="DAMP_NEWTON">      0.80000001</i>
   <i name="LAMBDA">      1.00000000</i>
  </separator>
  <separator name="External order field" >
   <i name="OFIELD_KAPPA">      0.00000000</i>
   <v name="OFIELD_K">      0.00000000      0.00000000      0.00000000</v>
   <i name="OFIELD_Q6_NEAR">      0.00000000</i>
   <i name="OFIELD_Q6_FAR">      0.00000000</i>
   <i name="OFIELD_A">      0.00000000</i>
  </separator>
  <separator name="optional k-points parameters" >
   <i type="int" name="KPOINTS_OPT_MODE">     1</i>
   <i type="logical" name="LKPOINTS_OPT"> F  </i>
  </separator>
 </parameters>
 <atominfo>
  <atoms>       2 </atoms>
  <types>       1 </types>
  <array name="atoms" >
   <dimension dim="1">ion</dimension>
   <field type="string">element</field>
   <field type="int">atomtype</field>
   <set>
    <rc><c>Co</c><c>   1</c></rc>
    <rc><c>Co</c><c>   1</c></rc>
   </set>
  </array>
  <array name="atomtypes" >
   <dimension dim="1">type</dimension>
   <field type="int">atomspertype</field>
   <field type="string">element</field>
   <field>mass</field>
   <field>valence</field>
   <field type="string">pseudopotential</field>
   <set>
    <rc><c>   2</c><c>Co</c><c>     58.93300000</c><c>      9.00000000</c><c>  PAW_PBE Co 02Aug2007                  </c></rc>
   </set>
  </array>
 </atominfo>
 <structure name="initialpos" >
  <crystal>
   <varray name="basis" >
    <v>       2.47000000       0.00000000       0.00000000 </v>
    <v>      -1.23500000       2.13908275       0.00000000 </v>
    <v>       0.00000000       0.00000000       8.09000000 </v>
   </varray>
   <i name="volume">     42.74379318 </i>
   <varray name="rec_basis" >
    <v>       0.40485830       0.23374505       0.00000000 </v>
    <v>       0.00000000       0.46749010       0.00000000 </v>
    <v>       0.00000000       0.00000000       0.12360939 </v>
   </varray>
  </crystal>
  <varray name="positions" >
   <v>       0.00000000       0.00000000       0.00000000 </v>
   <v>       0.33333333       0.66666667       0.50000000 </v>
  </varray>
 </structure>
 <calculation>
  <scstep>
   <time name="dav">    0.15    0.15</time>
   <time name="total">    0.17    0.17</time>
   <energy>
    <i name="alphaZ">     39.63868225 </i>
    <i name="ewald">  -1054.56880693 </i>
    <i name="hartreedc">   -595.60964207 </i>
    <i name="XCdc">     33.36922033 </i>
    <i name="pawpsdc">   1439.98163886 </i>
    <i name="pawaedc">  -1545.88690193 </i>
    <i name="eentropy">     -0.00610521 </i>
    <i name="bandstr">    137.93013834 </i>
    <i name="atom">   1626.72815342 </i>
    <i name="e_fr_energy">     81.57637707 </i>
    <i name="e_wo_entrp">     81.58248228 </i>
    <i name="e_0_energy">     81.57841214 </i>
   </energy>
  </scstep>
  <scstep>
   <time name="dav">    0.15    0.15</time>
   <time name="total">    0.15    0.15</time>
   <energy>
    <i name="e_fr_energy">    -10.43086041 </i>
    <i name="e_wo_entrp">    -10.43376197 </i>
    <i name="e_0_energy">    -10.43182760 </i>
   </energy>
  </scstep>
  <scstep>
   <time name="dav">    0.18    0.18</time>
   <time name="total">    0.18    0.18</time>
   <energy>
    <i name="e_fr_energy">    -12.72347834 </i>
    <i name="e_wo_entrp">    -12.71574241 </i>
    <i name="e_0_energy">    -12.72089969 </i>
   </energy>
  </scstep>
  <scstep>
   <time name="dav">    0.18    0.18</time>
   <time name="total">    0.18    0.19</time>
   <energy>
    <i name="e_fr_energy">    -12.76021325 </i>
    <i name="e_wo_entrp">    -12.75241031 </i>
    <i name="e_0_energy">    -12.75761227 </i>
   </energy>
  </scstep>
  <scstep>
   <time name="dav">    0.17    0.17</time>
   <time name="total">    0.20    0.21</time>
   <energy>
    <i name="e_fr_energy">    -12.76047630 </i>
    <i name="e_wo_entrp">    -12.75267038 </i>
    <i name="e_0_energy">    -12.75787432 </i>
   </energy>
  </scstep>
  <scstep>
   <time name="dav">    0.16    0.16</time>
   <time name="total">    0.21    0.21</time>
   <energy>
    <i name="e_fr_energy">    -12.67300124 </i>
    <i name="e_wo_entrp">    -12.68119776 </i>
    <i name="e_0_energy">    -12.67573341 </i>
   </energy>
  </scstep>
  <scstep>
   <time name="dav">    0.16    0.16</time>
   <time name="total">    0.21    0.21</time>
   <energy>
    <i name="e_fr_energy">    -11.18648950 </i>
    <i name="e_wo_entrp">    -11.17841521 </i>
    <i name="e_0_energy">    -11.18379807 </i>
   </energy>
  </scstep>
  <scstep>
   <time name="dav">    0.18    0.19</time>
   <time name="total">    0.23    0.23</time>
   <energy>
    <i name="e_fr_energy">    -11.21548964 </i>
    <i name="e_wo_entrp">    -11.20449247 </i>
    <i name="e_0_energy">    -11.21182392 </i>
   </energy>
  </scstep>
  <scstep>
   <time name="dav">    0.17    0.17</time>
   <time name="total">    0.21    0.22</time>
   <energy>
    <i name="e_fr_energy">    -11.23659466 </i>
    <i name="e_wo_entrp">    -11.23009264 </i>
    <i name="e_0_energy">    -11.23442732 </i>
   </energy>
  </scstep>
  <scstep>
   <time name="dav">    0.16    0.16</time>
   <time name="total">    0.21    0.21</time>
   <energy>
    <i name="e_fr_energy">    -11.23922550 </i>
    <i name="e_wo_entrp">    -11.23642899 </i>
    <i name="e_0_energy">    -11.23829333 </i>
   </energy>
  </scstep>
  <scstep>
   <time name="dav">    0.17    0.17</time>
   <time name="total">    0.22    0.22</time>
   <energy>
    <i name="e_fr_energy">    -11.23554083 </i>
    <i name="e_wo_entrp">    -11.23010573 </i>
    <i name="e_0_energy">    -11.23372913 </i>
   </energy>
  </scstep>
  <scstep>
   <time name="dav">    0.16    0.16</time>
   <time name="total">    0.21    0.21</time>
   <energy>
    <i name="e_fr_energy">    -11.23497407 </i>
    <i name="e_wo_entrp">    -11.22973395 </i>
    <i name="e_0_energy">    -11.23322736 </i>
   </energy>
  </scstep>
  <scstep>
   <time name="dav">    0.16    0.16</time>
   <time name="total">    0.21    0.21</time>
   <energy>
    <i name="e_fr_energy">    -11.23524776 </i>
    <i name="e_wo_entrp">    -11.23032893 </i>
    <i name="e_0_energy">    -11.23360815 </i>
   </energy>
  </scstep>
  <scstep>
   <time name="dav">    0.17    0.17</time>
   <time name="total">    0.22    0.22</time>
   <energy>
    <i name="e_fr_energy">    -11.23535129 </i>
    <i name="e_wo_entrp">    -11.23062220 </i>
    <i name="e_0_energy">    -11.23377493 </i>
   </energy>
  </scstep>
  <scstep>
   <time name="dav">    0.16    0.16</time>
   <time name="total">    0.21    0.21</time>
   <energy>
    <i name="e_fr_energy">    -11.23535531 </i>
    <i name="e_wo_entrp">    -11.23068521 </i>
    <i name="e_0_energy">    -11.23379861 </i>
   </energy>
  </scstep>
  <scstep>
   <time name="dav">    0.15    0.15</time>
   <time name="total">    0.20    0.20</time>
   <energy>
    <i name="e_fr_energy">    -11.23536530 </i>
    <i name="e_wo_entrp">    -11.23080899 </i>
    <i name="e_0_energy">    -11.23384653 </i>
   </energy>
  </scstep>
  <scstep>
   <time name="dav">    0.14    0.14</time>
   <time name="total">    0.15    0.15</time>
   <energy>
    <i name="alphaZ">     39.63868225 </i>
    <i name="ewald">  -1054.56880693 </i>
    <i name="hartreedc">   -566.55319583 </i>
    <i name="XCdc">     31.45268958 </i>
    <i name="pawpsdc">   1612.27019262 </i>
    <i name="pawaedc">  -1718.16719140 </i>
    <i name="eentropy">     -0.00451966 </i>
    <i name="bandstr">     17.96862999 </i>
    <i name="atom">   1626.72815342 </i>
    <i name="e_fr_energy">    -11.23536596 </i>
    <i name="e_wo_entrp">    -11.23084630 </i>
    <i name="e_0_energy">    -11.23385941 </i>
   </energy>
  </scstep>
  <structure>
   <crystal>
    <varray name="basis" >
     <v>       2.47000000       0.00000000       0.00000000 </v>
     <v>      -1.23500000       2.13908275       0.00000000 </v>
     <v>       0.00000000       0.00000000       8.09000000 </v>
    </varray>
    <i name="volume">     42.74379318 </i>
    <varray name="rec_basis" >
     <v>       0.40485830       0.23374505       0.00000000 </v>
     <v>       0.00000000       0.46749010       0.00000000 </v>
     <v>       0.00000000       0.00000000       0.12360939 </v>
    </varray>
   </crystal>
   <varray name="positions" >
    <v>       0.00000000       0.00000000       0.00000000 </v>
    <v>       0.33333333       0.66666667       0.50000000 </v>
   </varray>
  </structure>
  <varray name="forces" >
   <v>      -0.00000000       0.00000000       0.00000000 </v>
   <v>       0.00000000       0.00000000       0.00000000 </v>
  </varray>
  <varray name="stress" >
   <v>    -107.38162051       0.00000000       0.00000000 </v>
   <v>       0.00000000    -107.38162051       0.00000000 </v>
   <v>       0.00000000      -0.00000000     -48.19986661 </v>
  </varray>
  <energy>
   <i name="e_fr_energy">    -11.23536596 </i>
   <i name="e_wo_entrp">    -11.23084630 </i>
   <i name="e_0_energy">    -11.23385941 </i>
  </energy>
  <time name="totalsc">    3.49    3.53</time>
  <eigenvalues>
   <array>
    <dimension dim="1">band</dimension>
    <dimension dim="2">kpoint</dimension>
    <dimension dim="3">spin</dimension>
    <field>eigene</field>
    <field>occ</field>
    <set>
     <set comment="spin 1">
      <set comment="kpoint 1">
       <r>   -3.0049    1.0000 </r>
       <r>   -2.5451    1.0000 </r>
       <r>   -0.2947    1.0000 </r>
       <r>    0.7163    1.0000 </r>
       <r>    0.7163    1.0000 </r>
       <r>    0.7171    1.0000 </r>
       <r>    0.7171    1.0000 </r>
       <r>    0.7292    1.0000 </r>
       <r>    1.4217    1.0000 </r>
       <r>    1.4217    1.0000 </r>
       <r>    1.4248    1.0000 </r>
       <r>    1.4248    1.0000 </r>
       <r>    2.1352    1.0000 </r>
       <r>    6.4115   -0.0000 </r>
       <r>   10.8438    0.0000 </r>
       <r>   18.7998    0.0000 </r>
      </set>
      <set comment="kpoint 2">
       <r>   -2.0396    1.0000 </r>
       <r>   -1.6492    1.0000 </r>
       <r>   -0.0028    1.0000 </r>
       <r>    0.4779    1.0000 </r>
       <r>    0.4872    1.0000 </r>
       <r>    0.5213    1.0000 </r>
       <r>    0.8009    1.0000 </r>
       <r>    0.9939    1.0000 </r>
       <r>    1.1261    1.0000 </r>
       <r>    1.1269    1.0000 </r>
       <r>    1.3412    1.0000 </r>
       <r>    1.3475    1.0000 </r>
       <r>    3.7266   -0.0000 </r>
       <r>    7.8463   -0.0000 </r>
       <r>   11.4695    0.0000 </r>
       <r>   19.9422    0.0000 </r>
      </set>
      <set comment="kpoint 3">
       <r>   -0.9051    1.0000 </r>
       <r>   -0.8562    1.0000 </r>
       <r>   -0.2013    1.0000 </r>
       <r>   -0.0415    1.0000 </r>
       <r>    0.6186    1.0000 </r>
       <r>    0.7836    1.0000 </r>
       <r>    1.1833    1.0000 </r>
       <r>    1.1940    1.0000 </r>
       <r>    1.7699    1.0000 </r>
       <r>    2.0243    1.0000 </r>
       <r>    2.0248    1.0000 </r>
       <r>    2.7021    1.0238 </r>
       <r>    6.6986   -0.0000 </r>
       <r>   11.0720    0.0000 </r>
       <r>   13.0112    0.0000 </r>
       <r>   14.2159    0.0000 </r>
      </set>
      <set comment="kpoint 4">
       <r>   -1.0447    1.0000 </r>
       <r>   -1.0416    1.0000 </r>
       <r>   -0.4437    1.0000 </r>
       <r>   -0.3771    1.0000 </r>
       <r>    0.9344    1.0000 </r>
       <r>    1.0290    1.0000 </r>
       <r>    1.1056    1.0000 </r>
       <r>    1.1182    1.0000 </r>
       <r>    2.5231    1.0013 </r>
       <r>    2.5232    1.0013 </r>
       <r>    5.2373   -0.0000 </r>
       <r>    5.5909   -0.0000 </r>
       <r>    9.2187    0.0000 </r>
       <r>   10.0376    0.0000 </r>
       <r>   10.4404    0.0000 </r>
       <r>   11.5764    0.0000 </r>
      </set>
      <set comment="kpoint 5">
       <r>   -0.5303    1.0000 </r>
       <r>   -0.3941    1.0000 </r>
       <r>    0.0136    1.0000 </r>
       <r>    0.1051    1.0000 </r>
       <r>    0.1091    1.0000 </r>
       <r>    0.2223    1.0000 </r>
       <r>    0.5140    1.0000 </r>
       <r>    1.1271    1.0000 </r>
       <r>    1.1350    1.0000 </r>
       <r>    1.2197    1.0000 </r>
       <r>    2.1863    1.0000 </r>
       <r>    2.5761    1.0038 </r>
       <r>    5.8015   -0.0000 </r>
       <r>   10.1488    0.0000 </r>
       <r>   12.7760    0.0000 </r>
       <r>   18.2678    0.0000 </r>
      </set>
      <set comment="kpoint 6">
       <r>   -0.4748    1.0000 </r>
       <r>   -0.4683    1.0000 </r>
       <r>   -0.2425    1.0000 </r>
       <r>   -0.1541    1.0000 </r>
       <r>    0.8258    1.0000 </r>
       <r>    0.8380    1.0000 </r>
       <r>    0.8515    1.0000 </r>
       <r>    0.8754    1.0000 </r>
       <r>    1.3595    1.0000 </r>
       <r>    1.5216    1.0000 </r>
       <r>    5.1580   -0.0000 </r>
       <r>    5.9779   -0.0000 </r>
       <r>    9.4000    0.0000 </r>
       <r>   11.3243    0.0000 </r>
       <r>   12.3489    0.0000 </r>
       <r>   13.4039    0.0000 </r>
      </set>
      <set comment="kpoint 7">
       <r>    0.1733    1.0000 </r>
       <r>    0.2100    1.0000 </r>
       <r>    0.2100    1.0000 </r>
       <r>    0.2489    1.0000 </r>
       <r>    0.4434    1.0000 </r>
       <r>    0.4587    1.0000 </r>
       <r>    0.4587    1.0000 </r>
       <r>    0.4798    1.0000 </r>
       <r>    0.9633    1.0000 </r>
       <r>    0.9633    1.0000 </r>
       <r>    9.6824    0.0000 </r>
       <r>    9.9376    0.0000 </r>
       <r>    9.9376    0.0000 </r>
       <r>   10.5889    0.0000 </r>
       <r>   12.0417    0.0000 </r>
       <r>   12.0418    0.0000 </r>
      </set>
      <set comment="kpoint 8">
       <r>   -2.9402    1.0000 </r>
       <r>   -2.6143    1.0000 </r>
       <r>   -0.2293    1.0000 </r>
       <r>    0.3872    1.0000 </r>
       <r>    0.7164    1.0000 </r>
       <r>    0.7164    1.0000 </r>
       <r>    0.7169    1.0000 </r>
       <r>    0.7169    1.0000 </r>
       <r>    1.4222    1.0000 </r>
       <r>    1.4222    1.0000 </r>
       <r>    1.4244    1.0000 </r>
       <r>    1.4244    1.0000 </r>
       <r>    2.8058    1.0307 </r>
       <r>    5.5791   -0.0000 </r>
       <r>   11.9448    0.0000 </r>
       <r>   16.8515    0.0000 </r>
      </set>
      <set comment="kpoint 9">
       <r>   -1.9818    1.0000 </r>
       <r>   -1.7045    1.0000 </r>
       <r>    0.0480    1.0000 </r>
       <r>    0.4140    1.0000 </r>
       <r>    0.4868    1.0000 </r>
       <r>    0.4888    1.0000 </r>
       <r>    0.8077    1.0000 </r>
       <r>    0.9102    1.0000 </r>
       <r>    1.1262    1.0000 </r>
       <r>    1.1268    1.0000 </r>
       <r>    1.3422    1.0000 </r>
       <r>    1.3466    1.0000 </r>
       <r>    4.2283   -0.0000 </r>
       <r>    6.9126   -0.0000 </r>
       <r>   12.6897    0.0000 </r>
       <r>   17.7617    0.0000 </r>
      </set>
      <set comment="kpoint 10">
       <r>   -0.8980    1.0000 </r>
       <r>   -0.8634    1.0000 </r>
       <r>   -0.1840    1.0000 </r>
       <r>   -0.0739    1.0000 </r>
       <r>    0.6588    1.0000 </r>
       <r>    0.7711    1.0000 </r>
       <r>    1.1849    1.0000 </r>
       <r>    1.1925    1.0000 </r>
       <r>    1.8635    1.0000 </r>
       <r>    2.0244    1.0000 </r>
       <r>    2.0248    1.0000 </r>
       <r>    2.5066    1.0009 </r>
       <r>    7.1675   -0.0000 </r>
       <r>    9.8999    0.0000 </r>
       <r>   13.9194    0.0000 </r>
       <r>   14.3960    0.0000 </r>
      </set>
      <set comment="kpoint 11">
       <r>   -1.0444    1.0000 </r>
       <r>   -1.0423    1.0000 </r>
       <r>   -0.4352    1.0000 </r>
       <r>   -0.3882    1.0000 </r>
       <r>    0.9512    1.0000 </r>
       <r>    1.0184    1.0000 </r>
       <r>    1.1074    1.0000 </r>
       <r>    1.1164    1.0000 </r>
       <r>    2.5231    1.0013 </r>
       <r>    2.5232    1.0013 </r>
       <r>    5.2797   -0.0000 </r>
       <r>    5.5295   -0.0000 </r>
       <r>    9.2211    0.0000 </r>
       <r>    9.6283    0.0000 </r>
       <r>   11.0723    0.0000 </r>
       <r>   11.7717    0.0000 </r>
      </set>
      <set comment="kpoint 12">
       <r>   -0.5087    1.0000 </r>
       <r>   -0.4127    1.0000 </r>
       <r>    0.0316    1.0000 </r>
       <r>    0.1056    1.0000 </r>
       <r>    0.1086    1.0000 </r>
       <r>    0.1633    1.0000 </r>
       <r>    0.6381    1.0000 </r>
       <r>    1.1218    1.0000 </r>
       <r>    1.1317    1.0000 </r>
       <r>    1.1338    1.0000 </r>
       <r>    2.2105    1.0000 </r>
       <r>    2.4608    1.0003 </r>
       <r>    6.2839   -0.0000 </r>
       <r>    9.0366    0.0000 </r>
       <r>   14.1636    0.0000 </r>
       <r>   18.3604    0.0000 </r>
      </set>
      <set comment="kpoint 13">
       <r>   -0.4742    1.0000 </r>
       <r>   -0.4697    1.0000 </r>
       <r>   -0.2310    1.0000 </r>
       <r>   -0.1689    1.0000 </r>
       <r>    0.8271    1.0000 </r>
       <r>    0.8437    1.0000 </r>
       <r>    0.8516    1.0000 </r>
       <r>    0.8750    1.0000 </r>
       <r>    1.3828    1.0000 </r>
       <r>    1.4980    1.0000 </r>
       <r>    5.2414   -0.0000 </r>
       <r>    5.8022   -0.0000 </r>
       <r>    9.8326    0.0000 </r>
       <r>   11.3643    0.0000 </r>
       <r>   12.1045    0.0000 </r>
       <r>   12.6655    0.0000 </r>
      </set>
      <set comment="kpoint 14">
       <r>    0.1831    1.0000 </r>
       <r>    0.2085    1.0000 </r>
       <r>    0.2085    1.0000 </r>
       <r>    0.2361    1.0000 </r>
       <r>    0.4504    1.0000 </r>
       <r>    0.4599    1.0000 </r>
       <r>    0.4599    1.0000 </r>
       <r>    0.4757    1.0000 </r>
       <r>    0.9640    1.0000 </r>
       <r>    0.9640    1.0000 </r>
       <r>    9.7868    0.0000 </r>
       <r>    9.9628    0.0000 </r>
       <r>    9.9628    0.0000 </r>
       <r>   10.4156    0.0000 </r>
       <r>   11.7927    0.0000 </r>
       <r>   11.7927    0.0000 </r>
      </set>
      <set comment="kpoint 15">
       <r>   -2.7796    1.0000 </r>
       <r>   -2.7796    1.0000 </r>
       <r>   -0.0121    1.0000 </r>
       <r>   -0.0121    1.0000 </r>
       <r>    0.7167    1.0000 </r>
       <r>    0.7167    1.0000 </r>
       <r>    0.7167    1.0000 </r>
       <r>    0.7167    1.0000 </r>
       <r>    1.4233    1.0000 </r>
       <r>    1.4233    1.0000 </r>
       <r>    1.4233    1.0000 </r>
       <r>    1.4233    1.0000 </r>
       <r>    4.1190   -0.0000 </r>
       <r>    4.1190   -0.0000 </r>
       <r>   14.2109    0.0000 </r>
       <r>   14.2109    0.0000 </r>
      </set>
      <set comment="kpoint 16">
       <r>   -1.8420    1.0000 </r>
       <r>   -1.8420    1.0000 </r>
       <r>    0.2036    1.0000 </r>
       <r>    0.2036    1.0000 </r>
       <r>    0.4866    1.0000 </r>
       <r>    0.4866    1.0000 </r>
       <r>    0.8347    1.0000 </r>
       <r>    0.8347    1.0000 </r>
       <r>    1.1265    1.0000 </r>
       <r>    1.1265    1.0000 </r>
       <r>    1.3444    1.0000 </r>
       <r>    1.3444    1.0000 </r>
       <r>    5.4299   -0.0000 </r>
       <r>    5.4299   -0.0000 </r>
       <r>   15.0467    0.0000 </r>
       <r>   15.0467    0.0000 </r>
      </set>
      <set comment="kpoint 17">
       <r>   -0.8807    1.0000 </r>
       <r>   -0.8807    1.0000 </r>
       <r>   -0.1359    1.0000 </r>
       <r>   -0.1359    1.0000 </r>
       <r>    0.7280    1.0000 </r>
       <r>    0.7280    1.0000 </r>
       <r>    1.1887    1.0000 </r>
       <r>    1.1887    1.0000 </r>
       <r>    2.0246    1.0000 </r>
       <r>    2.0246    1.0000 </r>
       <r>    2.1385    1.0000 </r>
       <r>    2.1385    1.0000 </r>
       <r>    8.3467   -0.0000 </r>
       <r>    8.3467   -0.0000 </r>
       <r>   14.3841    0.0000 </r>
       <r>   14.3841    0.0000 </r>
      </set>
      <set comment="kpoint 18">
       <r>   -1.0435    1.0000 </r>
       <r>   -1.0435    1.0000 </r>
       <r>   -0.4130    1.0000 </r>
       <r>   -0.4130    1.0000 </r>
       <r>    0.9878    1.0000 </r>
       <r>    0.9878    1.0000 </r>
       <r>    1.1119    1.0000 </r>
       <r>    1.1119    1.0000 </r>
       <r>    2.5231    1.0013 </r>
       <r>    2.5231    1.0013 </r>
       <r>    5.3952   -0.0000 </r>
       <r>    5.3952   -0.0000 </r>
       <r>    9.3210    0.0000 </r>
       <r>    9.3210    0.0000 </r>
       <r>   11.7836    0.0000 </r>
       <r>   11.7836    0.0000 </r>
      </set>
      <set comment="kpoint 19">
       <r>   -0.4591    1.0000 </r>
       <r>   -0.4591    1.0000 </r>
       <r>    0.0833    1.0000 </r>
       <r>    0.0833    1.0000 </r>
       <r>    0.1077    1.0000 </r>
       <r>    0.1077    1.0000 </r>
       <r>    0.8884    1.0000 </r>
       <r>    0.8884    1.0000 </r>
       <r>    1.1311    1.0000 </r>
       <r>    1.1311    1.0000 </r>
       <r>    2.2967    1.0000 </r>
       <r>    2.2967    1.0000 </r>
       <r>    7.4812   -0.0000 </r>
       <r>    7.4812   -0.0000 </r>
       <r>   16.5240    0.0000 </r>
       <r>   16.5240    0.0000 </r>
      </set>
      <set comment="kpoint 20">
       <r>   -0.4723    1.0000 </r>
       <r>   -0.4723    1.0000 </r>
       <r>   -0.2016    1.0000 </r>
       <r>   -0.2016    1.0000 </r>
       <r>    0.8347    1.0000 </r>
       <r>    0.8347    1.0000 </r>
       <r>    0.8672    1.0000 </r>
       <r>    0.8672    1.0000 </r>
       <r>    1.4402    1.0000 </r>
       <r>    1.4402    1.0000 </r>
       <r>    5.4804   -0.0000 </r>
       <r>    5.4804   -0.0000 </r>
       <r>   10.8334    0.0000 </r>
       <r>   10.8334    0.0000 </r>
       <r>   11.9627    0.0000 </r>
       <r>   11.9627    0.0000 </r>
      </set>
      <set comment="kpoint 21">
       <r>    0.2070    1.0000 </r>
       <r>    0.2070    1.0000 </r>
       <r>    0.2082    1.0000 </r>
       <r>    0.2082    1.0000 </r>
       <r>    0.4611    1.0000 </r>
       <r>    0.4611    1.0000 </r>
       <r>    0.4644    1.0000 </r>
       <r>    0.4644    1.0000 </r>
       <r>    0.9647    1.0000 </r>
       <r>    0.9647    1.0000 </r>
       <r>    9.9904    0.0000 </r>
       <r>    9.9904    0.0000 </r>
       <r>   10.0693    0.0000 </r>
       <r>   10.0693    0.0000 </r>
       <r>   11.6076    0.0000 </r>
       <r>   11.6076    0.0000 </r>
      </set>
     </set>
     <set comment="spin 2">
      <set comment="kpoint 1">
       <r>   -2.7741    1.0000 </r>
       <r>   -2.1302    1.0000 </r>
       <r>    1.4926    1.0000 </r>
       <r>    2.1807    1.0000 </r>
       <r>    2.5664    1.0031 </r>
       <r>    2.5664    1.0031 </r>
       <r>    2.5675    1.0032 </r>
       <r>    2.5675    1.0032 </r>
       <r>    2.7020    1.0238 </r>
       <r>    3.8462   -0.0000 </r>
       <r>    3.8462   -0.0000 </r>
       <r>    3.8503   -0.0000 </r>
       <r>    3.8503   -0.0000 </r>
       <r>    6.7004   -0.0000 </r>
       <r>   11.1968    0.0000 </r>
       <r>   18.7848    0.0000 </r>
      </set>
      <set comment="kpoint 2">
       <r>   -1.7802    1.0000 </r>
       <r>   -1.1424    1.0000 </r>
       <r>    1.8470    1.0000 </r>
       <r>    1.9861    1.0000 </r>
       <r>    2.2482    1.0000 </r>
       <r>    2.2648    1.0000 </r>
       <r>    2.9133    0.8850 </r>
       <r>    2.9461    0.7867 </r>
       <r>    3.0238    0.4793 </r>
       <r>    3.0251    0.4738 </r>
       <r>    3.7500   -0.0000 </r>
       <r>    3.7588   -0.0000 </r>
       <r>    4.6725   -0.0000 </r>
       <r>    8.3928   -0.0000 </r>
       <r>   11.7370    0.0000 </r>
       <r>   19.9752    0.0000 </r>
      </set>
      <set comment="kpoint 3">
       <r>    0.1791    1.0000 </r>
       <r>    0.4044    1.0000 </r>
       <r>    1.6245    1.0000 </r>
       <r>    1.9686    1.0000 </r>
       <r>    2.3888    1.0000 </r>
       <r>    2.7634    1.0351 </r>
       <r>    2.8431    1.0076 </r>
       <r>    3.5373   -0.0008 </r>
       <r>    3.5622   -0.0004 </r>
       <r>    3.5774   -0.0003 </r>
       <r>    4.0416   -0.0000 </r>
       <r>    4.0425   -0.0000 </r>
       <r>    7.1688   -0.0000 </r>
       <r>   11.6868    0.0000 </r>
       <r>   13.1936    0.0000 </r>
       <r>   14.7125    0.0000 </r>
      </set>
      <set comment="kpoint 4">
       <r>    0.3509    1.0000 </r>
       <r>    0.3654    1.0000 </r>
       <r>    1.4826    1.0000 </r>
       <r>    1.5960    1.0000 </r>
       <r>    3.1869    0.0005 </r>
       <r>    3.3280   -0.0256 </r>
       <r>    3.4699   -0.0032 </r>
       <r>    3.4880   -0.0022 </r>
       <r>    4.6186   -0.0000 </r>
       <r>    4.6186   -0.0000 </r>
       <r>    5.2670   -0.0000 </r>
       <r>    5.6454   -0.0000 </r>
       <r>   10.0951    0.0000 </r>
       <r>   10.7388    0.0000 </r>
       <r>   10.9648    0.0000 </r>
       <r>   11.8494    0.0000 </r>
      </set>
      <set comment="kpoint 5">
       <r>   -0.0334    1.0000 </r>
       <r>    0.4934    1.0000 </r>
       <r>    1.7632    1.0000 </r>
       <r>    1.7694    1.0000 </r>
       <r>    1.7759    1.0000 </r>
       <r>    2.2658    1.0000 </r>
       <r>    2.4422    1.0002 </r>
       <r>    3.2272   -0.0289 </r>
       <r>    3.4861   -0.0023 </r>
       <r>    3.4981   -0.0018 </r>
       <r>    4.0056   -0.0000 </r>
       <r>    4.1402   -0.0000 </r>
       <r>    6.3885   -0.0000 </r>
       <r>   10.7845    0.0000 </r>
       <r>   12.9127    0.0000 </r>
       <r>   18.5968    0.0000 </r>
      </set>
      <set comment="kpoint 6">
       <r>    0.9476    1.0000 </r>
       <r>    0.9825    1.0000 </r>
       <r>    1.7014    1.0000 </r>
       <r>    1.8684    1.0000 </r>
       <r>    2.6586    1.0144 </r>
       <r>    2.7293    1.0299 </r>
       <r>    3.1230    0.1188 </r>
       <r>    3.1280    0.1060 </r>
       <r>    3.1422    0.0727 </r>
       <r>    3.4524   -0.0045 </r>
       <r>    6.1085   -0.0000 </r>
       <r>    6.7841   -0.0000 </r>
       <r>    9.7594    0.0000 </r>
       <r>   11.9473    0.0000 </r>
       <r>   12.9940    0.0000 </r>
       <r>   13.9727    0.0000 </r>
      </set>
      <set comment="kpoint 7">
       <r>    1.9086    1.0000 </r>
       <r>    1.9395    1.0000 </r>
       <r>    1.9395    1.0000 </r>
       <r>    1.9773    1.0000 </r>
       <r>    2.2658    1.0000 </r>
       <r>    2.3276    1.0000 </r>
       <r>    2.3276    1.0000 </r>
       <r>    2.3942    1.0000 </r>
       <r>    3.3193   -0.0276 </r>
       <r>    3.3193   -0.0276 </r>
       <r>   10.2104    0.0000 </r>
       <r>   10.5085    0.0000 </r>
       <r>   10.5085    0.0000 </r>
       <r>   11.2055    0.0000 </r>
       <r>   12.7993    0.0000 </r>
       <r>   12.7993    0.0000 </r>
      </set>
      <set comment="kpoint 8">
       <r>   -2.6931    1.0000 </r>
       <r>   -2.2408    1.0000 </r>
       <r>    1.5225    1.0000 </r>
       <r>    1.8688    1.0000 </r>
       <r>    2.5666    1.0031 </r>
       <r>    2.5666    1.0031 </r>
       <r>    2.5673    1.0032 </r>
       <r>    2.5673    1.0032 </r>
       <r>    3.3757   -0.0151 </r>
       <r>    3.8468   -0.0000 </r>
       <r>    3.8468   -0.0000 </r>
       <r>    3.8497   -0.0000 </r>
       <r>    3.8497   -0.0000 </r>
       <r>    5.9318   -0.0000 </r>
       <r>   12.2450    0.0000 </r>
       <r>   16.9873    0.0000 </r>
      </set>
      <set comment="kpoint 9">
       <r>   -1.7002    1.0000 </r>
       <r>   -1.2522    1.0000 </r>
       <r>    1.8562    1.0000 </r>
       <r>    1.9462    1.0000 </r>
       <r>    2.2531    1.0000 </r>
       <r>    2.2636    1.0000 </r>
       <r>    2.9273    0.8463 </r>
       <r>    2.9464    0.7857 </r>
       <r>    3.0240    0.4786 </r>
       <r>    3.0249    0.4747 </r>
       <r>    3.7513   -0.0000 </r>
       <r>    3.7575   -0.0000 </r>
       <r>    5.0643   -0.0000 </r>
       <r>    7.4824   -0.0000 </r>
       <r>   12.9552    0.0000 </r>
       <r>   17.9368    0.0000 </r>
      </set>
      <set comment="kpoint 10">
       <r>    0.2111    1.0000 </r>
       <r>    0.3703    1.0000 </r>
       <r>    1.6575    1.0000 </r>
       <r>    1.8790    1.0000 </r>
       <r>    2.5408    1.0019 </r>
       <r>    2.7652    1.0352 </r>
       <r>    2.8505    1.0000 </r>
       <r>    3.3433   -0.0220 </r>
       <r>    3.5644   -0.0004 </r>
       <r>    3.5752   -0.0003 </r>
       <r>    4.0418   -0.0000 </r>
       <r>    4.0424   -0.0000 </r>
       <r>    7.6359   -0.0000 </r>
       <r>   10.3838    0.0000 </r>
       <r>   14.3853    0.0000 </r>
       <r>   14.8742    0.0000 </r>
      </set>
      <set comment="kpoint 11">
       <r>    0.3527    1.0000 </r>
       <r>    0.3630    1.0000 </r>
       <r>    1.4969    1.0000 </r>
       <r>    1.5767    1.0000 </r>
       <r>    3.2166   -0.0239 </r>
       <r>    3.3188   -0.0277 </r>
       <r>    3.4725   -0.0031 </r>
       <r>    3.4854   -0.0024 </r>
       <r>    4.6186   -0.0000 </r>
       <r>    4.6186   -0.0000 </r>
       <r>    5.3014   -0.0000 </r>
       <r>    5.5704   -0.0000 </r>
       <r>   10.0861    0.0000 </r>
       <r>   10.3729    0.0000 </r>
       <r>   11.5521    0.0000 </r>
       <r>   12.0526    0.0000 </r>
      </set>
      <set comment="kpoint 12">
       <r>    0.0334    1.0000 </r>
       <r>    0.4027    1.0000 </r>
       <r>    1.7641    1.0000 </r>
       <r>    1.7682    1.0000 </r>
       <r>    1.8337    1.0000 </r>
       <r>    2.1358    1.0000 </r>
       <r>    2.6019    1.0060 </r>
       <r>    3.1092    0.1577 </r>
       <r>    3.4880   -0.0022 </r>
       <r>    3.4963   -0.0019 </r>
       <r>    4.0115   -0.0000 </r>
       <r>    4.0903   -0.0000 </r>
       <r>    6.8602   -0.0000 </r>
       <r>    9.5843    0.0000 </r>
       <r>   14.3993    0.0000 </r>
       <r>   18.6978    0.0000 </r>
      </set>
      <set comment="kpoint 13">
       <r>    0.9523    1.0000 </r>
       <r>    0.9770    1.0000 </r>
       <r>    1.7214    1.0000 </r>
       <r>    1.8377    1.0000 </r>
       <r>    2.6793    1.0186 </r>
       <r>    2.7262    1.0292 </r>
       <r>    3.1186    0.1306 </r>
       <r>    3.1371    0.0842 </r>
       <r>    3.1801    0.0084 </r>
       <r>    3.4058   -0.0098 </r>
       <r>    6.1684   -0.0000 </r>
       <r>    6.6237   -0.0000 </r>
       <r>   10.2023    0.0000 </r>
       <r>   11.9531    0.0000 </r>
       <r>   12.6914    0.0000 </r>
       <r>   13.2190    0.0000 </r>
      </set>
      <set comment="kpoint 14">
       <r>    1.9164    1.0000 </r>
       <r>    1.9405    1.0000 </r>
       <r>    1.9405    1.0000 </r>
       <r>    1.9641    1.0000 </r>
       <r>    2.2876    1.0000 </r>
       <r>    2.3249    1.0000 </r>
       <r>    2.3249    1.0000 </r>
       <r>    2.3775    1.0000 </r>
       <r>    3.3219   -0.0270 </r>
       <r>    3.3219   -0.0270 </r>
       <r>   10.3215    0.0000 </r>
       <r>   10.5262    0.0000 </r>
       <r>   10.5262    0.0000 </r>
       <r>   11.0071    0.0000 </r>
       <r>   12.4930    0.0000 </r>
       <r>   12.4930    0.0000 </r>
      </set>
      <set comment="kpoint 15">
       <r>   -2.4813    1.0000 </r>
       <r>   -2.4813    1.0000 </r>
       <r>    1.6297    1.0000 </r>
       <r>    1.6297    1.0000 </r>
       <r>    2.5670    1.0032 </r>
       <r>    2.5670    1.0032 </r>
       <r>    2.5670    1.0032 </r>
       <r>    2.5670    1.0032 </r>
       <r>    3.8482   -0.0000 </r>
       <r>    3.8482   -0.0000 </r>
       <r>    3.8482   -0.0000 </r>
       <r>    3.8482   -0.0000 </r>
       <r>    4.5784   -0.0000 </r>
       <r>    4.5784   -0.0000 </r>
       <r>   14.4361    0.0000 </r>
       <r>   14.4361    0.0000 </r>
      </set>
      <set comment="kpoint 16">
       <r>   -1.4907    1.0000 </r>
       <r>   -1.4907    1.0000 </r>
       <r>    1.8883    1.0000 </r>
       <r>    1.8883    1.0000 </r>
       <r>    2.2596    1.0000 </r>
       <r>    2.2596    1.0000 </r>
       <r>    2.9424    0.7991 </r>
       <r>    2.9424    0.7991 </r>
       <r>    3.0244    0.4767 </r>
       <r>    3.0244    0.4767 </r>
       <r>    3.7544   -0.0000 </r>
       <r>    3.7544   -0.0000 </r>
       <r>    6.1021   -0.0000 </r>
       <r>    6.1021   -0.0000 </r>
       <r>   15.2785    0.0000 </r>
       <r>   15.2785    0.0000 </r>
      </set>
      <set comment="kpoint 17">
       <r>    0.2897    1.0000 </r>
       <r>    0.2897    1.0000 </r>
       <r>    1.7490    1.0000 </r>
       <r>    1.7490    1.0000 </r>
       <r>    2.7410    1.0321 </r>
       <r>    2.7410    1.0321 </r>
       <r>    2.9883    0.6279 </r>
       <r>    2.9883    0.6279 </r>
       <r>    3.5698   -0.0003 </r>
       <r>    3.5698   -0.0003 </r>
       <r>    4.0421   -0.0000 </r>
       <r>    4.0421   -0.0000 </r>
       <r>    8.8104    0.0000 </r>
       <r>    8.8104    0.0000 </r>
       <r>   14.9401    0.0000 </r>
       <r>   14.9401    0.0000 </r>
      </set>
      <set comment="kpoint 18">
       <r>    0.3575    1.0000 </r>
       <r>    0.3575    1.0000 </r>
       <r>    1.5343    1.0000 </r>
       <r>    1.5343    1.0000 </r>
       <r>    3.2778   -0.0348 </r>
       <r>    3.2778   -0.0348 </r>
       <r>    3.4790   -0.0027 </r>
       <r>    3.4790   -0.0027 </r>
       <r>    4.6186   -0.0000 </r>
       <r>    4.6186   -0.0000 </r>
       <r>    5.4158   -0.0000 </r>
       <r>    5.4158   -0.0000 </r>
       <r>   10.1445    0.0000 </r>
       <r>   10.1445    0.0000 </r>
       <r>   12.1461    0.0000 </r>
       <r>   12.1461    0.0000 </r>
      </set>
      <set comment="kpoint 19">
       <r>    0.2067    1.0000 </r>
       <r>    0.2067    1.0000 </r>
       <r>    1.7662    1.0000 </r>
       <r>    1.7662    1.0000 </r>
       <r>    1.9691    1.0000 </r>
       <r>    1.9691    1.0000 </r>
       <r>    2.8557    0.9940 </r>
       <r>    2.8557    0.9940 </r>
       <r>    3.4921   -0.0021 </r>
       <r>    3.4921   -0.0021 </r>
       <r>    4.0349   -0.0000 </r>
       <r>    4.0349   -0.0000 </r>
       <r>    8.0308   -0.0000 </r>
       <r>    8.0308   -0.0000 </r>
       <r>   16.8083    0.0000 </r>
       <r>   16.8083    0.0000 </r>
      </set>
      <set comment="kpoint 20">
       <r>    0.9642    1.0000 </r>
       <r>    0.9642    1.0000 </r>
       <r>    1.7745    1.0000 </r>
       <r>    1.7745    1.0000 </r>
       <r>    2.7109    1.0258 </r>
       <r>    2.7109    1.0258 </r>
       <r>    3.1272    0.1079 </r>
       <r>    3.1272    0.1079 </r>
       <r>    3.2920   -0.0329 </r>
       <r>    3.2920   -0.0329 </r>
       <r>    6.3518   -0.0000 </r>
       <r>    6.3518   -0.0000 </r>
       <r>   11.2360    0.0000 </r>
       <r>   11.2360    0.0000 </r>
       <r>   12.5881    0.0000 </r>
       <r>   12.5881    0.0000 </r>
      </set>
      <set comment="kpoint 21">
       <r>    1.9377    1.0000 </r>
       <r>    1.9377    1.0000 </r>
       <r>    1.9415    1.0000 </r>
       <r>    1.9415    1.0000 </r>
       <r>    2.3222    1.0000 </r>
       <r>    2.3222    1.0000 </r>
       <r>    2.3349    1.0000 </r>
       <r>    2.3349    1.0000 </r>
       <r>    3.3245   -0.0264 </r>
       <r>    3.3245   -0.0264 </r>
       <r>   10.5452    0.0000 </r>
       <r>   10.5452    0.0000 </r>
       <r>   10.6250    0.0000 </r>
       <r>   10.6250    0.0000 </r>
       <r>   12.2934    0.0000 </r>
       <r>   12.2934    0.0000 </r>
      </set>
     </set>
    </set>
   </array>
  </eigenvalues>
  <separator name="orbital magnetization" >
   <v name="MAGDIPOLOUT">      0.00000000      0.00000000      0.00000000</v>
  </separator>
  <dos>
   <i name="efermi">      3.01890357 </i>
   <total>
    <array>
     <dimension dim="1">gridpoints</dimension>
     <dimension dim="2">spin</dimension>
     <field>energy</field>
     <field>total</field>
     <field>integrated</field>
     <set>
      <set comment="spin 1">
       <r>    -5.0049     0.0000     0.0000 </r>
       <r>    -4.9150     0.0000     0.0000 </r>
       <r>    -4.8251     0.0000     0.0000 </r>
       <r>    -4.7351     0.0000     0.0000 </r>
       <r>    -4.6452    -0.0000    -0.0000 </r>
       <r>    -4.5553    -0.0000    -0.0000 </r>
       <r>    -4.4653    -0.0000    -0.0000 </r>
       <r>    -4.3754    -0.0000    -0.0000 </r>
       <r>    -4.2855    -0.0000    -0.0000 </r>
       <r>    -4.1955    -0.0000    -0.0000 </r>
       <r>    -4.1056    -0.0000    -0.0000 </r>
       <r>    -4.0157    -0.0000    -0.0000 </r>
       <r>    -3.9257    -0.0000    -0.0000 </r>
       <r>    -3.8358    -0.0000    -0.0000 </r>
       <r>    -3.7459    -0.0000    -0.0000 </r>
       <r>    -3.6559    -0.0000    -0.0000 </r>
       <r>    -3.5660    -0.0000    -0.0000 </r>
       <r>    -3.4761    -0.0002    -0.0000 </r>
       <r>    -3.3861    -0.0011    -0.0001 </r>
       <r>    -3.2962    -0.0034    -0.0004 </r>
       <r>    -3.2063    -0.0033    -0.0007 </r>
       <r>    -3.1163     0.0114     0.0003 </r>
       <r>    -3.0264     0.0479     0.0046 </r>
       <r>    -2.9365     0.0859     0.0123 </r>
       <r>    -2.8465     0.0993     0.0213 </r>
       <r>    -2.7566     0.0955     0.0299 </r>
       <r>    -2.6667     0.0958     0.0385 </r>
       <r>    -2.5767     0.0942     0.0470 </r>
       <r>    -2.4868     0.0678     0.0531 </r>
       <r>    -2.3969     0.0194     0.0548 </r>
       <r>    -2.3069    -0.0228     0.0527 </r>
       <r>    -2.2170    -0.0142     0.0515 </r>
       <r>    -2.1271     0.1178     0.0621 </r>
       <r>    -2.0371     0.3758     0.0959 </r>
       <r>    -1.9472     0.6035     0.1501 </r>
       <r>    -1.8573     0.6882     0.2120 </r>
       <r>    -1.7673     0.6977     0.2748 </r>
       <r>    -1.6774     0.6515     0.3334 </r>
       <r>    -1.5875     0.4615     0.3749 </r>
       <r>    -1.4975     0.1844     0.3915 </r>
       <r>    -1.4076    -0.0093     0.3906 </r>
       <r>    -1.3177    -0.0770     0.3837 </r>
       <r>    -1.2277    -0.0295     0.3810 </r>
       <r>    -1.1378     0.2312     0.4018 </r>
       <r>    -1.0479     0.7617     0.4703 </r>
       <r>    -0.9579     1.3568     0.5924 </r>
       <r>    -0.8680     1.5520     0.7319 </r>
       <r>    -0.7780     1.0313     0.8247 </r>
       <r>    -0.6881     0.4217     0.8626 </r>
       <r>    -0.5982     1.0680     0.9587 </r>
       <r>    -0.5082     3.0753     1.2352 </r>
       <r>    -0.4183     4.4966     1.6396 </r>
       <r>    -0.3284     4.2450     2.0214 </r>
       <r>    -0.2384     3.7300     2.3569 </r>
       <r>    -0.1485     3.7083     2.6904 </r>
       <r>    -0.0586     3.5152     3.0065 </r>
       <r>     0.0314     3.4016     3.3124 </r>
       <r>     0.1213     3.6277     3.6387 </r>
       <r>     0.2112     3.3121     3.9365 </r>
       <r>     0.3012     2.3754     4.1502 </r>
       <r>     0.3911     2.0725     4.3365 </r>
       <r>     0.4810     2.5770     4.5683 </r>
       <r>     0.5710     2.7477     4.8154 </r>
       <r>     0.6609     2.9808     5.0835 </r>
       <r>     0.7508     4.8782     5.5222 </r>
       <r>     0.8408     7.4929     6.1961 </r>
       <r>     0.9307     7.9168     6.9081 </r>
       <r>     1.0206     6.3461     7.4788 </r>
       <r>     1.1106     5.4481     7.9688 </r>
       <r>     1.2005     5.3176     8.4470 </r>
       <r>     1.2904     4.7946     8.8782 </r>
       <r>     1.3804     4.2788     9.2630 </r>
       <r>     1.4703     3.7333     9.5987 </r>
       <r>     1.5602     2.4525     9.8193 </r>
       <r>     1.6502     0.9447     9.9043 </r>
       <r>     1.7401     0.1913     9.9215 </r>
       <r>     1.8300     0.2911     9.9477 </r>
       <r>     1.9200     0.8476    10.0239 </r>
       <r>     2.0099     1.5068    10.1594 </r>
       <r>     2.0998     1.8335    10.3243 </r>
       <r>     2.1898     1.6067    10.4688 </r>
       <r>     2.2797     1.1350    10.5709 </r>
       <r>     2.3696     0.9308    10.6546 </r>
       <r>     2.4596     1.2037    10.7628 </r>
       <r>     2.5495     1.4833    10.8962 </r>
       <r>     2.6394     1.2072    11.0048 </r>
       <r>     2.7294     0.6045    11.0592 </r>
       <r>     2.8193     0.1898    11.0762 </r>
       <r>     2.9092     0.0344    11.0793 </r>
       <r>     2.9992    -0.0084    11.0786 </r>
       <r>     3.0891    -0.0139    11.0773 </r>
       <r>     3.1790    -0.0077    11.0766 </r>
       <r>     3.2690    -0.0035    11.0763 </r>
       <r>     3.3589    -0.0052    11.0759 </r>
       <r>     3.4488    -0.0089    11.0750 </r>
       <r>     3.5388     0.0067    11.0757 </r>
       <r>     3.6287     0.0708    11.0820 </r>
       <r>     3.7186     0.1514    11.0956 </r>
       <r>     3.8086     0.1552    11.1096 </r>
       <r>     3.8985     0.0715    11.1160 </r>
       <r>     3.9884     0.0147    11.1173 </r>
       <r>     4.0784     0.0888    11.1253 </r>
       <r>     4.1683     0.2686    11.1495 </r>
       <r>     4.2582     0.3780    11.1835 </r>
       <r>     4.3482     0.2845    11.2091 </r>
       <r>     4.4381     0.1000    11.2181 </r>
       <r>     4.5280    -0.0042    11.2177 </r>
       <r>     4.6180    -0.0183    11.2160 </r>
       <r>     4.7079    -0.0109    11.2150 </r>
       <r>     4.7978    -0.0193    11.2133 </r>
       <r>     4.8878    -0.0473    11.2091 </r>
       <r>     4.9777    -0.0337    11.2060 </r>
       <r>     5.0676     0.1876    11.2229 </r>
       <r>     5.1576     0.6885    11.2848 </r>
       <r>     5.2475     1.1878    11.3916 </r>
       <r>     5.3374     1.4090    11.5184 </r>
       <r>     5.4274     1.4662    11.6502 </r>
       <r>     5.5173     1.3692    11.7734 </r>
       <r>     5.6073     0.9909    11.8625 </r>
       <r>     5.6972     0.6846    11.9240 </r>
       <r>     5.7871     0.7730    11.9936 </r>
       <r>     5.8771     0.9032    12.0748 </r>
       <r>     5.9670     0.7255    12.1400 </r>
       <r>     6.0569     0.3992    12.1759 </r>
       <r>     6.1469     0.2091    12.1947 </r>
       <r>     6.2368     0.2442    12.2167 </r>
       <r>     6.3267     0.3268    12.2461 </r>
       <r>     6.4167     0.2540    12.2689 </r>
       <r>     6.5066     0.1023    12.2781 </r>
       <r>     6.5965     0.0553    12.2831 </r>
       <r>     6.6865     0.1251    12.2944 </r>
       <r>     6.7764     0.2250    12.3146 </r>
       <r>     6.8663     0.3158    12.3430 </r>
       <r>     6.9563     0.3561    12.3750 </r>
       <r>     7.0462     0.3359    12.4052 </r>
       <r>     7.1361     0.3314    12.4350 </r>
       <r>     7.2261     0.3142    12.4633 </r>
       <r>     7.3160     0.2396    12.4848 </r>
       <r>     7.4059     0.2364    12.5061 </r>
       <r>     7.4959     0.3106    12.5340 </r>
       <r>     7.5858     0.2743    12.5587 </r>
       <r>     7.6757     0.1397    12.5713 </r>
       <r>     7.7657     0.0953    12.5798 </r>
       <r>     7.8556     0.1440    12.5928 </r>
       <r>     7.9455     0.1376    12.6052 </r>
       <r>     8.0355     0.0517    12.6098 </r>
       <r>     8.1254    -0.0014    12.6097 </r>
       <r>     8.2153     0.0736    12.6163 </r>
       <r>     8.3053     0.2480    12.6386 </r>
       <r>     8.3952     0.3416    12.6693 </r>
       <r>     8.4851     0.2390    12.6908 </r>
       <r>     8.5751     0.0694    12.6971 </r>
       <r>     8.6650    -0.0192    12.6954 </r>
       <r>     8.7549    -0.0346    12.6922 </r>
       <r>     8.8449    -0.0024    12.6920 </r>
       <r>     8.9348     0.1148    12.7023 </r>
       <r>     9.0247     0.2894    12.7284 </r>
       <r>     9.1147     0.4058    12.7649 </r>
       <r>     9.2046     0.4618    12.8064 </r>
       <r>     9.2945     0.5391    12.8549 </r>
       <r>     9.3845     0.5716    12.9063 </r>
       <r>     9.4744     0.4449    12.9463 </r>
       <r>     9.5643     0.2603    12.9697 </r>
       <r>     9.6543     0.2659    12.9936 </r>
       <r>     9.7442     0.6047    13.0480 </r>
       <r>     9.8341     1.1369    13.1502 </r>
       <r>     9.9241     1.4348    13.2793 </r>
       <r>    10.0140     1.2368    13.3905 </r>
       <r>    10.1039     0.7654    13.4593 </r>
       <r>    10.1939     0.3575    13.4915 </r>
       <r>    10.2838     0.1495    13.5049 </r>
       <r>    10.3737     0.1301    13.5166 </r>
       <r>    10.4637     0.1720    13.5321 </r>
       <r>    10.5536     0.1447    13.5451 </r>
       <r>    10.6435     0.1259    13.5564 </r>
       <r>    10.7335     0.3078    13.5841 </r>
       <r>    10.8234     0.6151    13.6394 </r>
       <r>    10.9133     0.7082    13.7031 </r>
       <r>    11.0033     0.5313    13.7509 </r>
       <r>    11.0932     0.3481    13.7822 </r>
       <r>    11.1831     0.3464    13.8134 </r>
       <r>    11.2731     0.6311    13.8701 </r>
       <r>    11.3630     1.0183    13.9617 </r>
       <r>    11.4529     1.0368    14.0550 </r>
       <r>    11.5429     0.6683    14.1151 </r>
       <r>    11.6328     0.3834    14.1495 </r>
       <r>    11.7227     0.4267    14.1879 </r>
       <r>    11.8127     0.6650    14.2477 </r>
       <r>    11.9026     0.9440    14.3326 </r>
       <r>    11.9925     1.1978    14.4403 </r>
       <r>    12.0825     1.2495    14.5527 </r>
       <r>    12.1724     0.9638    14.6394 </r>
       <r>    12.2624     0.5622    14.6900 </r>
       <r>    12.3523     0.3211    14.7188 </r>
       <r>    12.4422     0.2230    14.7389 </r>
       <r>    12.5322     0.3157    14.7673 </r>
       <r>    12.6221     0.7304    14.8330 </r>
       <r>    12.7120     1.0989    14.9318 </r>
       <r>    12.8020     0.9299    15.0154 </r>
       <r>    12.8919     0.4521    15.0561 </r>
       <r>    12.9818     0.1709    15.0715 </r>
       <r>    13.0718     0.1080    15.0812 </r>
       <r>    13.1617     0.0665    15.0872 </r>
       <r>    13.2516     0.0714    15.0936 </r>
       <r>    13.3416     0.2044    15.1120 </r>
       <r>    13.4315     0.3305    15.1417 </r>
       <r>    13.5214     0.2684    15.1658 </r>
       <r>    13.6114     0.0887    15.1738 </r>
       <r>    13.7013    -0.0088    15.1730 </r>
       <r>    13.7912     0.0587    15.1783 </r>
       <r>    13.8812     0.2228    15.1983 </r>
       <r>    13.9711     0.3320    15.2282 </r>
       <r>    14.0610     0.3717    15.2616 </r>
       <r>    14.1510     0.4805    15.3048 </r>
       <r>    14.2409     0.6557    15.3638 </r>
       <r>    14.3308     0.7909    15.4349 </r>
       <r>    14.4208     0.7798    15.5051 </r>
       <r>    14.5107     0.5252    15.5523 </r>
       <r>    14.6006     0.1749    15.5680 </r>
       <r>    14.6906    -0.0228    15.5660 </r>
       <r>    14.7805    -0.0527    15.5612 </r>
       <r>    14.8704     0.0098    15.5621 </r>
       <r>    14.9604     0.1617    15.5767 </r>
       <r>    15.0503     0.3198    15.6054 </r>
       <r>    15.1402     0.3119    15.6335 </r>
       <r>    15.2302     0.1506    15.6470 </r>
       <r>    15.3201     0.0173    15.6486 </r>
       <r>    15.4100    -0.0177    15.6470 </r>
       <r>    15.5000    -0.0099    15.6461 </r>
       <r>    15.5899    -0.0025    15.6459 </r>
       <r>    15.6798    -0.0004    15.6458 </r>
       <r>    15.7698    -0.0000    15.6458 </r>
       <r>    15.8597    -0.0000    15.6458 </r>
       <r>    15.9496    -0.0002    15.6458 </r>
       <r>    16.0396    -0.0013    15.6457 </r>
       <r>    16.1295    -0.0066    15.6451 </r>
       <r>    16.2194    -0.0166    15.6436 </r>
       <r>    16.3094    -0.0042    15.6432 </r>
       <r>    16.3993     0.0931    15.6516 </r>
       <r>    16.4892     0.2630    15.6753 </r>
       <r>    16.5792     0.3385    15.7057 </r>
       <r>    16.6691     0.2296    15.7264 </r>
       <r>    16.7590     0.0871    15.7342 </r>
       <r>    16.8490     0.0400    15.7378 </r>
       <r>    16.9389     0.0386    15.7413 </r>
       <r>    17.0288     0.0223    15.7433 </r>
       <r>    17.1188     0.0029    15.7435 </r>
       <r>    17.2087    -0.0033    15.7432 </r>
       <r>    17.2986    -0.0038    15.7429 </r>
       <r>    17.3886    -0.0093    15.7421 </r>
       <r>    17.4785    -0.0178    15.7405 </r>
       <r>    17.5684     0.0092    15.7413 </r>
       <r>    17.6584     0.1317    15.7531 </r>
       <r>    17.7483     0.2985    15.7800 </r>
       <r>    17.8382     0.3271    15.8094 </r>
       <r>    17.9282     0.1743    15.8251 </r>
       <r>    18.0181     0.0142    15.8263 </r>
       <r>    18.1080    -0.0113    15.8253 </r>
       <r>    18.1980     0.1259    15.8366 </r>
       <r>    18.2879     0.3561    15.8687 </r>
       <r>    18.3778     0.4762    15.9115 </r>
       <r>    18.4678     0.3514    15.9431 </r>
       <r>    18.5577     0.1252    15.9544 </r>
       <r>    18.6477     0.0018    15.9545 </r>
       <r>    18.7376    -0.0039    15.9542 </r>
       <r>    18.8275     0.0190    15.9559 </r>
       <r>    18.9175     0.0211    15.9578 </r>
       <r>    19.0074     0.0085    15.9585 </r>
       <r>    19.0973    -0.0001    15.9585 </r>
       <r>    19.1873    -0.0014    15.9584 </r>
       <r>    19.2772    -0.0006    15.9583 </r>
       <r>    19.3671    -0.0002    15.9583 </r>
       <r>    19.4571    -0.0007    15.9583 </r>
       <r>    19.5470    -0.0033    15.9580 </r>
       <r>    19.6369    -0.0083    15.9572 </r>
       <r>    19.7269    -0.0023    15.9570 </r>
       <r>    19.8168     0.0461    15.9612 </r>
       <r>    19.9067     0.1317    15.9730 </r>
       <r>    19.9967     0.1708    15.9884 </r>
       <r>    20.0866     0.1140    15.9986 </r>
       <r>    20.1765     0.0314    16.0015 </r>
       <r>    20.2665    -0.0060    16.0009 </r>
       <r>    20.3564    -0.0073    16.0003 </r>
       <r>    20.4463    -0.0024    16.0000 </r>
       <r>    20.5363    -0.0004    16.0000 </r>
       <r>    20.6262    -0.0000    16.0000 </r>
       <r>    20.7161    -0.0000    16.0000 </r>
       <r>    20.8061    -0.0000    16.0000 </r>
       <r>    20.8960    -0.0000    16.0000 </r>
       <r>    20.9859    -0.0000    16.0000 </r>
       <r>    21.0759    -0.0000    16.0000 </r>
       <r>    21.1658    -0.0000    16.0000 </r>
       <r>    21.2557     0.0000    16.0000 </r>
       <r>    21.3457     0.0000    16.0000 </r>
       <r>    21.4356     0.0000    16.0000 </r>
       <r>    21.5255     0.0000    16.0000 </r>
       <r>    21.6155     0.0000    16.0000 </r>
       <r>    21.7054     0.0000    16.0000 </r>
       <r>    21.7953     0.0000    16.0000 </r>
       <r>    21.8853     0.0000    16.0000 </r>
       <r>    21.9752     0.0000    16.0000 </r>
      </set>
      <set comment="spin 2">
       <r>    -5.0049     0.0000     0.0000 </r>
       <r>    -4.9150     0.0000     0.0000 </r>
       <r>    -4.8251     0.0000     0.0000 </r>
       <r>    -4.7351     0.0000     0.0000 </r>
       <r>    -4.6452     0.0000     0.0000 </r>
       <r>    -4.5553     0.0000     0.0000 </r>
       <r>    -4.4653     0.0000     0.0000 </r>
       <r>    -4.3754    -0.0000    -0.0000 </r>
       <r>    -4.2855    -0.0000    -0.0000 </r>
       <r>    -4.1955    -0.0000    -0.0000 </r>
       <r>    -4.1056    -0.0000    -0.0000 </r>
       <r>    -4.0157    -0.0000    -0.0000 </r>
       <r>    -3.9257    -0.0000    -0.0000 </r>
       <r>    -3.8358    -0.0000    -0.0000 </r>
       <r>    -3.7459    -0.0000    -0.0000 </r>
       <r>    -3.6559    -0.0000    -0.0000 </r>
       <r>    -3.5660    -0.0000    -0.0000 </r>
       <r>    -3.4761    -0.0000    -0.0000 </r>
       <r>    -3.3861    -0.0000    -0.0000 </r>
       <r>    -3.2962    -0.0001    -0.0000 </r>
       <r>    -3.2063    -0.0004    -0.0000 </r>
       <r>    -3.1163    -0.0017    -0.0002 </r>
       <r>    -3.0264    -0.0036    -0.0005 </r>
       <r>    -2.9365     0.0005    -0.0005 </r>
       <r>    -2.8465     0.0228     0.0016 </r>
       <r>    -2.7566     0.0597     0.0069 </r>
       <r>    -2.6667     0.0827     0.0144 </r>
       <r>    -2.5767     0.0789     0.0215 </r>
       <r>    -2.4868     0.0667     0.0275 </r>
       <r>    -2.3969     0.0586     0.0327 </r>
       <r>    -2.3069     0.0603     0.0382 </r>
       <r>    -2.2170     0.0704     0.0445 </r>
       <r>    -2.1271     0.0607     0.0499 </r>
       <r>    -2.0371     0.0212     0.0519 </r>
       <r>    -1.9472     0.0120     0.0529 </r>
       <r>    -1.8573     0.1261     0.0643 </r>
       <r>    -1.7673     0.3463     0.0954 </r>
       <r>    -1.6774     0.4951     0.1400 </r>
       <r>    -1.5875     0.4803     0.1832 </r>
       <r>    -1.4975     0.4068     0.2197 </r>
       <r>    -1.4076     0.3563     0.2518 </r>
       <r>    -1.3177     0.3681     0.2849 </r>
       <r>    -1.2277     0.4390     0.3244 </r>
       <r>    -1.1378     0.4236     0.3625 </r>
       <r>    -1.0479     0.2553     0.3854 </r>
       <r>    -0.9579     0.0729     0.3920 </r>
       <r>    -0.8680    -0.0096     0.3911 </r>
       <r>    -0.7780    -0.0165     0.3896 </r>
       <r>    -0.6881    -0.0066     0.3890 </r>
       <r>    -0.5982    -0.0016     0.3889 </r>
       <r>    -0.5082    -0.0014     0.3888 </r>
       <r>    -0.4183    -0.0065     0.3882 </r>
       <r>    -0.3284    -0.0200     0.3864 </r>
       <r>    -0.2384    -0.0257     0.3841 </r>
       <r>    -0.1485     0.0394     0.3876 </r>
       <r>    -0.0586     0.2245     0.4078 </r>
       <r>     0.0314     0.4844     0.4514 </r>
       <r>     0.1213     0.8181     0.5249 </r>
       <r>     0.2112     1.3429     0.6457 </r>
       <r>     0.3012     1.9567     0.8217 </r>
       <r>     0.3911     2.1654     1.0164 </r>
       <r>     0.4810     1.6120     1.1614 </r>
       <r>     0.5710     0.6573     1.2205 </r>
       <r>     0.6609    -0.0357     1.2173 </r>
       <r>     0.7508    -0.0974     1.2086 </r>
       <r>     0.8408     0.7151     1.2729 </r>
       <r>     0.9307     2.1049     1.4622 </r>
       <r>     1.0206     2.7084     1.7058 </r>
       <r>     1.1106     1.7845     1.8662 </r>
       <r>     1.2005     0.4541     1.9071 </r>
       <r>     1.2904    -0.1575     1.8929 </r>
       <r>     1.3804    -0.1173     1.8824 </r>
       <r>     1.4703     0.2382     1.9038 </r>
       <r>     1.5602     0.9787     1.9918 </r>
       <r>     1.6502     2.4904     2.2158 </r>
       <r>     1.7401     4.6853     2.6371 </r>
       <r>     1.8300     6.2701     3.2010 </r>
       <r>     1.9200     5.8830     3.7301 </r>
       <r>     2.0099     3.8358     4.0751 </r>
       <r>     2.0998     1.9273     4.2484 </r>
       <r>     2.1898     1.5532     4.3881 </r>
       <r>     2.2797     2.1665     4.5829 </r>
       <r>     2.3696     2.2643     4.7866 </r>
       <r>     2.4596     1.7273     4.9419 </r>
       <r>     2.5495     1.7916     5.1030 </r>
       <r>     2.6394     2.9227     5.3659 </r>
       <r>     2.7294     4.0346     5.7287 </r>
       <r>     2.8193     4.1097     6.0983 </r>
       <r>     2.9092     3.7907     6.4393 </r>
       <r>     2.9992     4.2772     6.8239 </r>
       <r>     3.0891     5.3612     7.3061 </r>
       <r>     3.1790     5.7173     7.8203 </r>
       <r>     3.2690     4.9311     8.2637 </r>
       <r>     3.3589     4.1857     8.6402 </r>
       <r>     3.4488     4.2664     9.0239 </r>
       <r>     3.5388     4.2984     9.4104 </r>
       <r>     3.6287     3.4379     9.7196 </r>
       <r>     3.7186     2.3168     9.9280 </r>
       <r>     3.8086     1.7197    10.0826 </r>
       <r>     3.8985     1.7003    10.2355 </r>
       <r>     3.9884     2.2226    10.4354 </r>
       <r>     4.0784     2.6385    10.6727 </r>
       <r>     4.1683     2.0105    10.8535 </r>
       <r>     4.2582     0.7619    10.9220 </r>
       <r>     4.3482    -0.0205    10.9202 </r>
       <r>     4.4381    -0.0742    10.9135 </r>
       <r>     4.5280     0.3251    10.9428 </r>
       <r>     4.6180     0.7849    11.0134 </r>
       <r>     4.7079     0.8343    11.0884 </r>
       <r>     4.7978     0.4451    11.1284 </r>
       <r>     4.8878     0.1064    11.1380 </r>
       <r>     4.9777     0.1107    11.1479 </r>
       <r>     5.0676     0.2787    11.1730 </r>
       <r>     5.1576     0.3541    11.2049 </r>
       <r>     5.2475     0.3438    11.2358 </r>
       <r>     5.3374     0.3522    11.2675 </r>
       <r>     5.4274     0.3573    11.2996 </r>
       <r>     5.5173     0.3331    11.3295 </r>
       <r>     5.6073     0.2896    11.3556 </r>
       <r>     5.6972     0.1933    11.3730 </r>
       <r>     5.7871     0.0538    11.3778 </r>
       <r>     5.8771    -0.0118    11.3767 </r>
       <r>     5.9670     0.1778    11.3927 </r>
       <r>     6.0569     0.7075    11.4564 </r>
       <r>     6.1469     1.2643    11.5701 </r>
       <r>     6.2368     1.4063    11.6965 </r>
       <r>     6.3267     1.1942    11.8039 </r>
       <r>     6.4167     0.9032    11.8852 </r>
       <r>     6.5066     0.6755    11.9459 </r>
       <r>     6.5965     0.6742    12.0066 </r>
       <r>     6.6865     0.8310    12.0813 </r>
       <r>     6.7764     0.8870    12.1611 </r>
       <r>     6.8663     0.7447    12.2280 </r>
       <r>     6.9563     0.4520    12.2687 </r>
       <r>     7.0462     0.1900    12.2858 </r>
       <r>     7.1361     0.1096    12.2956 </r>
       <r>     7.2261     0.1179    12.3062 </r>
       <r>     7.3160     0.1178    12.3168 </r>
       <r>     7.4059     0.2002    12.3348 </r>
       <r>     7.4959     0.3915    12.3700 </r>
       <r>     7.5858     0.5252    12.4173 </r>
       <r>     7.6757     0.4610    12.4587 </r>
       <r>     7.7657     0.2470    12.4809 </r>
       <r>     7.8556     0.0922    12.4892 </r>
       <r>     7.9455     0.1500    12.5027 </r>
       <r>     8.0355     0.2978    12.5295 </r>
       <r>     8.1254     0.2955    12.5561 </r>
       <r>     8.2153     0.1586    12.5703 </r>
       <r>     8.3053     0.0965    12.5790 </r>
       <r>     8.3952     0.1369    12.5913 </r>
       <r>     8.4851     0.1324    12.6032 </r>
       <r>     8.5751     0.0618    12.6088 </r>
       <r>     8.6650     0.0700    12.6151 </r>
       <r>     8.7549     0.2171    12.6346 </r>
       <r>     8.8449     0.3364    12.6649 </r>
       <r>     8.9348     0.2640    12.6886 </r>
       <r>     9.0247     0.0936    12.6970 </r>
       <r>     9.1147    -0.0059    12.6965 </r>
       <r>     9.2046    -0.0250    12.6942 </r>
       <r>     9.2945    -0.0261    12.6919 </r>
       <r>     9.3845    -0.0055    12.6914 </r>
       <r>     9.4744     0.1015    12.7005 </r>
       <r>     9.5643     0.2964    12.7272 </r>
       <r>     9.6543     0.4590    12.7685 </r>
       <r>     9.7442     0.4767    12.8113 </r>
       <r>     9.8341     0.3318    12.8412 </r>
       <r>     9.9241     0.1517    12.8548 </r>
       <r>    10.0140     0.2125    12.8739 </r>
       <r>    10.1039     0.6241    12.9300 </r>
       <r>    10.1939     1.0741    13.0266 </r>
       <r>    10.2838     1.1985    13.1344 </r>
       <r>    10.3737     1.0564    13.2294 </r>
       <r>    10.4637     0.8902    13.3095 </r>
       <r>    10.5536     0.7364    13.3757 </r>
       <r>    10.6435     0.5511    13.4253 </r>
       <r>    10.7335     0.3862    13.4600 </r>
       <r>    10.8234     0.2847    13.4856 </r>
       <r>    10.9133     0.2196    13.5054 </r>
       <r>    11.0033     0.2009    13.5234 </r>
       <r>    11.0932     0.3180    13.5520 </r>
       <r>    11.1831     0.5946    13.6055 </r>
       <r>    11.2731     0.7579    13.6737 </r>
       <r>    11.3630     0.5534    13.7234 </r>
       <r>    11.4529     0.2348    13.7446 </r>
       <r>    11.5429     0.1519    13.7582 </r>
       <r>    11.6328     0.2566    13.7813 </r>
       <r>    11.7227     0.3773    13.8152 </r>
       <r>    11.8127     0.5738    13.8668 </r>
       <r>    11.9026     0.9493    13.9522 </r>
       <r>    11.9925     1.2196    14.0619 </r>
       <r>    12.0825     1.0316    14.1547 </r>
       <r>    12.1724     0.5856    14.2073 </r>
       <r>    12.2624     0.2647    14.2311 </r>
       <r>    12.3523     0.1597    14.2455 </r>
       <r>    12.4422     0.3090    14.2733 </r>
       <r>    12.5322     0.7524    14.3410 </r>
       <r>    12.6221     1.2151    14.4502 </r>
       <r>    12.7120     1.2741    14.5648 </r>
       <r>    12.8020     0.9730    14.6523 </r>
       <r>    12.8919     0.7739    14.7219 </r>
       <r>    12.9818     0.8010    14.7940 </r>
       <r>    13.0718     0.8298    14.8686 </r>
       <r>    13.1617     0.8657    14.9465 </r>
       <r>    13.2516     0.8703    15.0247 </r>
       <r>    13.3416     0.6058    15.0792 </r>
       <r>    13.4315     0.2015    15.0973 </r>
       <r>    13.5214    -0.0204    15.0955 </r>
       <r>    13.6114    -0.0515    15.0909 </r>
       <r>    13.7013    -0.0336    15.0878 </r>
       <r>    13.7912     0.0157    15.0892 </r>
       <r>    13.8812     0.1526    15.1030 </r>
       <r>    13.9711     0.3052    15.1304 </r>
       <r>    14.0610     0.2889    15.1564 </r>
       <r>    14.1510     0.1304    15.1681 </r>
       <r>    14.2409     0.1291    15.1797 </r>
       <r>    14.3308     0.4279    15.2182 </r>
       <r>    14.4208     0.7041    15.2815 </r>
       <r>    14.5107     0.5905    15.3347 </r>
       <r>    14.6006     0.2674    15.3587 </r>
       <r>    14.6906     0.1495    15.3721 </r>
       <r>    14.7805     0.3228    15.4012 </r>
       <r>    14.8704     0.5884    15.4541 </r>
       <r>    14.9604     0.6584    15.5133 </r>
       <r>    15.0503     0.4357    15.5525 </r>
       <r>    15.1402     0.2084    15.5712 </r>
       <r>    15.2302     0.2248    15.5915 </r>
       <r>    15.3201     0.3141    15.6197 </r>
       <r>    15.4100     0.2414    15.6414 </r>
       <r>    15.5000     0.0800    15.6486 </r>
       <r>    15.5899    -0.0076    15.6479 </r>
       <r>    15.6798    -0.0160    15.6465 </r>
       <r>    15.7698    -0.0059    15.6460 </r>
       <r>    15.8597    -0.0012    15.6458 </r>
       <r>    15.9496    -0.0001    15.6458 </r>
       <r>    16.0396    -0.0000    15.6458 </r>
       <r>    16.1295    -0.0000    15.6458 </r>
       <r>    16.2194    -0.0001    15.6458 </r>
       <r>    16.3094    -0.0010    15.6457 </r>
       <r>    16.3993    -0.0053    15.6453 </r>
       <r>    16.4892    -0.0154    15.6439 </r>
       <r>    16.5792    -0.0112    15.6429 </r>
       <r>    16.6691     0.0678    15.6490 </r>
       <r>    16.7590     0.2364    15.6702 </r>
       <r>    16.8490     0.3546    15.7021 </r>
       <r>    16.9389     0.2940    15.7286 </r>
       <r>    17.0288     0.1409    15.7412 </r>
       <r>    17.1188     0.0351    15.7444 </r>
       <r>    17.2087    -0.0023    15.7442 </r>
       <r>    17.2986    -0.0073    15.7435 </r>
       <r>    17.3886    -0.0042    15.7431 </r>
       <r>    17.4785    -0.0034    15.7428 </r>
       <r>    17.5684    -0.0095    15.7420 </r>
       <r>    17.6584    -0.0178    15.7404 </r>
       <r>    17.7483     0.0129    15.7415 </r>
       <r>    17.8382     0.1408    15.7542 </r>
       <r>    17.9282     0.3054    15.7817 </r>
       <r>    18.0181     0.3252    15.8109 </r>
       <r>    18.1080     0.1740    15.8266 </r>
       <r>    18.1980     0.0251    15.8288 </r>
       <r>    18.2879    -0.0304    15.8261 </r>
       <r>    18.3778    -0.0301    15.8234 </r>
       <r>    18.4678     0.0281    15.8259 </r>
       <r>    18.5577     0.1962    15.8436 </r>
       <r>    18.6477     0.4136    15.8808 </r>
       <r>    18.7376     0.4802    15.9240 </r>
       <r>    18.8275     0.3183    15.9526 </r>
       <r>    18.9175     0.1006    15.9616 </r>
       <r>    19.0074    -0.0074    15.9610 </r>
       <r>    19.0973    -0.0194    15.9592 </r>
       <r>    19.1873    -0.0079    15.9585 </r>
       <r>    19.2772    -0.0017    15.9584 </r>
       <r>    19.3671    -0.0003    15.9583 </r>
       <r>    19.4571    -0.0003    15.9583 </r>
       <r>    19.5470    -0.0019    15.9581 </r>
       <r>    19.6369    -0.0065    15.9575 </r>
       <r>    19.7269    -0.0076    15.9569 </r>
       <r>    19.8168     0.0220    15.9588 </r>
       <r>    19.9067     0.1002    15.9678 </r>
       <r>    19.9967     0.1677    15.9829 </r>
       <r>    20.0866     0.1434    15.9958 </r>
       <r>    20.1765     0.0584    16.0011 </r>
       <r>    20.2665     0.0017    16.0012 </r>
       <r>    20.3564    -0.0087    16.0004 </r>
       <r>    20.4463    -0.0040    16.0001 </r>
       <r>    20.5363    -0.0009    16.0000 </r>
       <r>    20.6262    -0.0001    16.0000 </r>
       <r>    20.7161    -0.0000    16.0000 </r>
       <r>    20.8061    -0.0000    16.0000 </r>
       <r>    20.8960    -0.0000    16.0000 </r>
       <r>    20.9859    -0.0000    16.0000 </r>
       <r>    21.0759    -0.0000    16.0000 </r>
       <r>    21.1658    -0.0000    16.0000 </r>
       <r>    21.2557    -0.0000    16.0000 </r>
       <r>    21.3457     0.0000    16.0000 </r>
       <r>    21.4356     0.0000    16.0000 </r>
       <r>    21.5255     0.0000    16.0000 </r>
       <r>    21.6155     0.0000    16.0000 </r>
       <r>    21.7054     0.0000    16.0000 </r>
       <r>    21.7953     0.0000    16.0000 </r>
       <r>    21.8853     0.0000    16.0000 </r>
       <r>    21.9752     0.0000    16.0000 </r>
      </set>
     </set>
    </array>
   </total>
  </dos>
 </calculation>
 <structure name="finalpos" >
  <crystal>
   <varray name="basis" >
    <v>       2.47000000       0.00000000       0.00000000 </v>
    <v>      -1.23500000       2.13908275       0.00000000 </v>
    <v>       0.00000000       0.00000000       8.09000000 </v>
   </varray>
   <i name="volume">     42.74379318 </i>
   <varray name="rec_basis" >
    <v>       0.40485830       0.23374505       0.00000000 </v>
    <v>       0.00000000       0.46749010       0.00000000 </v>
    <v>       0.00000000       0.00000000       0.12360939 </v>
   </varray>
  </crystal>
  <varray name="positions" >
   <v>       0.00000000       0.00000000       0.00000000 </v>
   <v>       0.33333333       0.66666667       0.50000000 </v>
  </varray>
 </structure>
</modeling>
