Pt-fcc                                  
   1.00000000000000     
     0.000000    1.879906    1.879906
     1.879906    0.000000    1.879906
     1.879906    1.879906    0.000000
   Pt
     1
Direct
  0.000000  0.000000  0.000000
 
   36   36   36
  116.36      116.25      115.56      113.40      108.71      100.74      89.428      75.569      60.594      46.173    
  33.729      24.074      17.295      12.883      10.020      8.1442      7.0051      6.4046      6.2183      6.4046    
  7.0051      8.1442      10.020      12.883      17.295      24.074      33.729      46.173      60.594      75.569    
  89.428      100.74      108.71      113.40      115.56      116.25      116.25      115.84      114.40      110.92    
  104.48      94.690      81.931      67.360      52.571      39.138      28.178      20.115      14.698      11.216    
  8.9116      7.4513      6.6126      6.2344      6.2344      6.6126      7.4513      8.9116      11.216      14.698    
  20.115      28.178      39.138      52.571      67.360      81.931      94.690      104.48      110.92      114.40    
  115.84      116.25      115.56      114.40      111.60      106.24      97.756      86.208      72.424      57.805    
  43.921      32.069      22.952      16.586      12.440      9.7192      7.9353      6.8521      6.2807      6.1035    
  6.2807      6.8521      7.9353      9.7192      12.440      16.586      22.952      32.069      43.921      57.805    
  72.424      86.208      97.756      106.24      111.60      114.40      115.56      115.84      113.40      110.92    
  106.24      98.757      88.341      75.536      61.488      47.652      35.374      25.541      18.406      13.635    
  10.519      8.4320      7.1109      6.3517      6.0089      6.0089      6.3517      7.1109      8.4320      10.519    
  13.635      18.406      25.541      35.374      47.652      61.488      75.536      88.341      98.757      106.24    
  110.92      113.40      114.40      114.40      108.71      104.48      97.756      88.341      76.582      63.384    
  50.016      37.771      27.619      19.985      14.722      11.254      8.9090      7.3724      6.4386      5.9450    
  5.7916      5.9450      6.4386      7.3724      8.9090      11.254      14.722      19.985      27.619      37.771    
  50.016      63.384      76.582      88.341      97.756      104.48      108.71      110.92      111.60      110.92    
  100.74      94.690      86.208      75.536      63.384      50.825      39.029      28.963      21.151      15.598    
  11.870      9.3303      7.6164      6.5309      5.9049      5.6213      5.6213      5.9049      6.5309      7.6164    
  9.3303      11.870      15.598      21.151      28.963      39.029      50.825      63.384      75.536      86.208    
  94.690      100.74      104.48      106.24      106.24      104.48      89.428      81.931      72.424      61.488    
  50.016      39.029      29.428      21.771      16.168      12.316      9.6611      7.8223      6.6175      5.8818    
  5.4906      5.3685      5.4906      5.8818      6.6175      7.8223      9.6611      12.316      16.168      21.771    
  29.428      39.029      50.016      61.488      72.424      81.931      89.428      94.690      97.756      98.757    
  97.756      94.690      75.569      67.360      57.805      47.652      37.771      28.963      21.771      16.367    
  12.552      9.8723      7.9715      6.6879      5.8697      5.3934      5.1759      5.1759      5.3934      5.8697    
  6.6879      7.9715      9.8723      12.552      16.367      21.771      28.963      37.771      47.652      57.805    
  67.360      75.569      81.931      86.208      88.341      88.341      86.208      81.931      60.594      52.571    
  43.921      35.374      27.619      21.151      16.168      12.552      9.9449      8.0499      6.7338      5.8641    
  5.3259      5.0358      4.9446      5.0358      5.3259      5.8641      6.7338      8.0499      9.9449      12.552    
  16.168      21.151      27.619      35.374      43.921      52.571      60.594      67.360      72.424      75.536    
  76.582      75.536      72.424      67.360      46.173      39.138      32.069      25.541      19.985      15.598    
  12.316      9.8723      8.0499      6.7498      5.8619      5.2859      4.9440      4.7855      4.7855      4.9440    
  5.2859      5.8619      6.7498      8.0499      9.8723      12.316      15.598      19.985      25.541      32.069    
  39.138      46.173      52.571      57.805      61.488      63.384      63.384      61.488      57.805      52.571    
  33.729      28.178      22.952      18.406      14.722      11.870      9.6611      7.9715      6.7338      5.8619    
  5.2726      4.8984      4.6921      4.6262      4.6921      4.8984      5.2726      5.8619      6.7338      7.9715    
  9.6611      11.870      14.722      18.406      22.952      28.178      33.729      39.138      43.921      47.652    
  50.016      50.825      50.016      47.652      43.921      39.138      24.074      20.115      16.586      13.635    
  11.254      9.3303      7.8223      6.6879      5.8641      5.2859      4.8984      4.6612      4.5487      4.5487    
  4.6612      4.8984      5.2859      5.8641      6.6879      7.8223      9.3303      11.254      13.635      16.586    
  20.115      24.074      28.178      32.069      35.374      37.771      39.029      39.029      37.771      35.374    
  32.069      28.178      17.295      14.698      12.440      10.519      8.9090      7.6164      6.6175      5.8697    
  5.3259      4.9440      4.6921      4.5487      4.5021      4.5487      4.6921      4.9440      5.3259      5.8697    
  6.6175      7.6164      8.9090      10.519      12.440      14.698      17.295      20.115      22.952      25.541    
  27.619      28.963      29.428      28.963      27.619      25.541      22.952      20.115      12.883      11.216    
  9.7192      8.4320      7.3724      6.5309      5.8818      5.3934      5.0358      4.7855      4.6262      4.5487    
  4.5487      4.6262      4.7855      5.0358      5.3934      5.8818      6.5309      7.3724      8.4320      9.7192    
  11.216      12.883      14.698      16.586      18.406      19.985      21.151      21.771      21.771      21.151    
  19.985      18.406      16.586      14.698      10.020      8.9116      7.9353      7.1109      6.4386      5.9049    
  5.4906      5.1759      4.9446      4.7855      4.6921      4.6612      4.6921      4.7855      4.9446      5.1759    
  5.4906      5.9049      6.4386      7.1109      7.9353      8.9116      10.020      11.216      12.440      13.635    
  14.722      15.598      16.168      16.367      16.168      15.598      14.722      13.635      12.440      11.216    
  8.1442      7.4513      6.8521      6.3517      5.9450      5.6213      5.3685      5.1759      5.0358      4.9440    
  4.8984      4.8984      4.9440      5.0358      5.1759      5.3685      5.6213      5.9450      6.3517      6.8521    
  7.4513      8.1442      8.9116      9.7192      10.519      11.254      11.870      12.316      12.552      12.552    
  12.316      11.870      11.254      10.519      9.7192      8.9116      7.0051      6.6126      6.2807      6.0089    
  5.7916      5.6213      5.4906      5.3934      5.3259      5.2859      5.2726      5.2859      5.3259      5.3934    
  5.4906      5.6213      5.7916      6.0089      6.2807      6.6126      7.0051      7.4513      7.9353      8.4320    
  8.9090      9.3303      9.6611      9.8723      9.9449      9.8723      9.6611      9.3303      8.9090      8.4320    
  7.9353      7.4513      6.4046      6.2344      6.1035      6.0089      5.9450      5.9049      5.8818      5.8697    
  5.8641      5.8619      5.8619      5.8641      5.8697      5.8818      5.9049      5.9450      6.0089      6.1034    
  6.2344      6.4046      6.6126      6.8521      7.1109      7.3724      7.6164      7.8223      7.9715      8.0499    
  8.0499      7.9715      7.8223      7.6164      7.3724      7.1109      6.8521      6.6126      6.2183      6.2344    
  6.2807      6.3517      6.4386      6.5309      6.6175      6.6879      6.7338      6.7498      6.7338      6.6879    
  6.6175      6.5309      6.4386      6.3517      6.2807      6.2344      6.2183      6.2344      6.2807      6.3517    
  6.4386      6.5309      6.6175      6.6879      6.7338      6.7498      6.7338      6.6879      6.6175      6.5309    
  6.4386      6.3517      6.2807      6.2344      6.4046      6.6126      6.8521      7.1109      7.3724      7.6164    
  7.8223      7.9715      8.0499      8.0499      7.9715      7.8223      7.6164      7.3724      7.1109      6.8521    
  6.6126      6.4046      6.2344      6.1034      6.0089      5.9450      5.9049      5.8818      5.8697      5.8641    
  5.8619      5.8619      5.8641      5.8697      5.8818      5.9049      5.9450      6.0089      6.1035      6.2344    
  7.0051      7.4513      7.9353      8.4320      8.9090      9.3303      9.6611      9.8723      9.9449      9.8723    
  9.6611      9.3303      8.9090      8.4320      7.9353      7.4513      7.0051      6.6126      6.2807      6.0089    
  5.7916      5.6213      5.4906      5.3934      5.3259      5.2859      5.2726      5.2859      5.3259      5.3934    
  5.4906      5.6213      5.7916      6.0089      6.2807      6.6126      8.1442      8.9116      9.7192      10.519    
  11.254      11.870      12.316      12.552      12.552      12.316      11.870      11.254      10.519      9.7192    
  8.9116      8.1442      7.4513      6.8521      6.3517      5.9450      5.6213      5.3685      5.1759      5.0358    
  4.9440      4.8984      4.8984      4.9440      5.0358      5.1759      5.3685      5.6213      5.9450      6.3517    
  6.8521      7.4513      10.020      11.216      12.440      13.635      14.722      15.598      16.168      16.367    
  16.168      15.598      14.722      13.635      12.440      11.216      10.020      8.9116      7.9353      7.1109    
  6.4386      5.9049      5.4906      5.1759      4.9446      4.7855      4.6921      4.6612      4.6921      4.7855    
  4.9446      5.1759      5.4906      5.9049      6.4386      7.1109      7.9353      8.9116      12.883      14.698    
  16.586      18.406      19.985      21.151      21.771      21.771      21.151      19.985      18.406      16.586    
  14.698      12.883      11.216      9.7192      8.4320      7.3724      6.5309      5.8818      5.3934      5.0358    
  4.7855      4.6262      4.5487      4.5487      4.6262      4.7855      5.0358      5.3934      5.8818      6.5309    
  7.3724      8.4320      9.7192      11.216      17.295      20.115      22.952      25.541      27.619      28.963    
  29.428      28.963      27.619      25.541      22.952      20.115      17.295      14.698      12.440      10.519    
  8.9090      7.6164      6.6175      5.8697      5.3259      4.9440      4.6921      4.5487      4.5021      4.5487    
  4.6921      4.9440      5.3259      5.8697      6.6175      7.6164      8.9090      10.519      12.440      14.698    
  24.074      28.178      32.069      35.374      37.771      39.029      39.029      37.771      35.374      32.069    
  28.178      24.074      20.115      16.586      13.635      11.254      9.3303      7.8223      6.6879      5.8641    
  5.2859      4.8984      4.6612      4.5487      4.5487      4.6612      4.8984      5.2859      5.8641      6.6879    
  7.8223      9.3303      11.254      13.635      16.586      20.115      33.729      39.138      43.921      47.652    
  50.016      50.825      50.016      47.652      43.921      39.138      33.729      28.178      22.952      18.406    
  14.722      11.870      9.6611      7.9715      6.7338      5.8619      5.2726      4.8984      4.6921      4.6262    
  4.6921      4.8984      5.2726      5.8619      6.7338      7.9715      9.6611      11.870      14.722      18.406    
  22.952      28.178      46.173      52.571      57.805      61.488      63.384      63.384      61.488      57.805    
  52.571      46.173      39.138      32.069      25.541      19.985      15.598      12.316      9.8723      8.0499    
  6.7498      5.8619      5.2859      4.9440      4.7855      4.7855      4.9440      5.2859      5.8619      6.7498    
  8.0499      9.8723      12.316      15.598      19.985      25.541      32.069      39.138      60.594      67.360    
  72.424      75.536      76.582      75.536      72.424      67.360      60.594      52.571      43.921      35.374    
  27.619      21.151      16.168      12.552      9.9449      8.0499      6.7338      5.8641      5.3259      5.0358    
  4.9446      5.0358      5.3259      5.8641      6.7338      8.0499      9.9449      12.552      16.168      21.151    
  27.619      35.374      43.921      52.571      75.569      81.931      86.208      88.341      88.341      86.208    
  81.931      75.569      67.360      57.805      47.652      37.771      28.963      21.771      16.367      12.552    
  9.8723      7.9715      6.6879      5.8697      5.3934      5.1759      5.1759      5.3934      5.8697      6.6879    
  7.9715      9.8723      12.552      16.367      21.771      28.963      37.771      47.652      57.805      67.360    
  89.428      94.690      97.756      98.757      97.756      94.690      89.428      81.931      72.424      61.488    
  50.016      39.029      29.428      21.771      16.168      12.316      9.6611      7.8223      6.6175      5.8818    
  5.4906      5.3685      5.4906      5.8818      6.6175      7.8223      9.6611      12.316      16.168      21.771    
  29.428      39.029      50.016      61.488      72.424      81.931      100.74      104.48      106.24      106.24    
  104.48      100.74      94.690      86.208      75.536      63.384      50.825      39.029      28.963      21.151    
  15.598      11.870      9.3303      7.6164      6.5309      5.9049      5.6213      5.6213      5.9049      6.5309    
  7.6164      9.3303      11.870      15.598      21.151      28.963      39.029      50.825      63.384      75.536    
  86.208      94.690      108.71      110.92      111.60      110.92      108.71      104.48      97.756      88.341    
  76.582      63.384      50.016      37.771      27.619      19.985      14.722      11.254      8.9090      7.3724    
  6.4386      5.9450      5.7916      5.9450      6.4386      7.3724      8.9090      11.254      14.722      19.985    
  27.619      37.771      50.016      63.384      76.582      88.341      97.756      104.48      113.40      114.40    
  114.40      113.40      110.92      106.24      98.757      88.341      75.536      61.488      47.652      35.374    
  25.541      18.406      13.635      10.519      8.4320      7.1109      6.3517      6.0089      6.0089      6.3517    
  7.1109      8.4320      10.519      13.635      18.406      25.541      35.374      47.652      61.488      75.536    
  88.341      98.757      106.24      110.92      115.56      115.84      115.56      114.40      111.60      106.24    
  97.756      86.208      72.424      57.805      43.921      32.069      22.952      16.586      12.440      9.7192    
  7.9353      6.8521      6.2807      6.1035      6.2807      6.8521      7.9353      9.7192      12.440      16.586    
  22.952      32.069      43.921      57.805      72.424      86.208      97.756      106.24      111.60      114.40    
  116.25      116.25      115.84      114.40      110.92      104.48      94.690      81.931      67.360      52.571    
  39.138      28.178      20.115      14.698      11.216      8.9116      7.4513      6.6126      6.2344      6.2344    
  6.6126      7.4513      8.9116      11.216      14.698      20.115      28.178      39.138      52.571      67.360    
  81.931      94.690      104.48      110.92      114.40      115.84      116.25      115.84      114.40      110.92    
  104.48      94.690      81.931      67.360      52.571      39.138      28.178      20.115      14.698      11.216    
  8.9116      7.4513      6.6126      6.2344      6.2344      6.6126      7.4513      8.9116      11.216      14.698    
  20.115      28.178      39.138      52.571      67.360      81.931      94.690      104.48      110.92      114.40    
  115.84      116.25      115.84      114.79      112.12      106.91      98.548      87.062      73.266      58.563    
  44.546      32.539      23.275      16.794      12.573      9.8123      8.0025      6.9033      6.3236      6.1438    
  6.3236      6.9033      8.0025      9.8123      12.573      16.794      23.275      32.539      44.546      58.563    
  73.266      87.062      98.548      106.91      112.12      114.79      115.84      116.09      114.40      112.12    
  107.67      100.39      90.085      77.271      63.083      48.999      36.419      26.284      18.895      13.945    
  10.728      8.5808      7.2209      6.4394      6.0867      6.0867      6.4394      7.2209      8.5808      10.728    
  13.945      18.895      26.284      36.419      48.999      63.083      77.271      90.085      100.39      107.67    
  112.12      114.40      115.29      115.29      110.92      106.91      100.39      91.079      79.280      65.873    
  52.149      39.460      28.850      20.813      15.249      11.599      9.1524      7.5479      6.5731      6.0582    
  5.8982      6.0582      6.5731      7.5479      9.1524      11.599      15.249      20.813      28.850      39.460    
  52.149      65.873      79.280      91.079      100.39      106.91      110.92      112.97      113.58      112.97    
  104.48      98.548      90.085      79.280      66.815      53.776      41.393      30.717      22.355      16.373    
  12.368      9.6773      7.8624      6.7132      6.0514      5.7519      5.7519      6.0514      6.7132      7.8624    
  9.6773      12.368      16.373      22.355      30.717      41.393      53.776      66.815      79.280      90.085    
  98.548      104.48      108.11      109.78      109.78      108.11      94.690      87.062      77.271      65.873    
  53.776      42.056      31.699      23.354      17.202      12.977      10.115      8.1402      6.8469      6.0586    
  5.6404      5.5101      5.6404      6.0586      6.8469      8.1402      10.115      12.977      17.202      23.354    
  31.699      42.056      53.776      65.873      77.271      87.062      94.690      99.985      103.04      104.03    
  103.04      99.985      81.931      73.266      63.083      52.149      41.393      31.699      23.699      17.642    
  13.371      10.429      8.3583      6.9609      6.0727      5.5574      5.3228      5.3228      5.5575      6.0727    
  6.9609      8.3583      10.429      13.371      17.642      23.699      31.699      41.393      52.149      63.083    
  73.266      81.931      88.591      93.036      95.243      95.243      93.036      88.591      67.360      58.563    
  48.999      39.460      30.717      23.354      17.642      13.507      10.594      8.4975      7.0440      6.0872    
  5.4983      5.1825      5.0834      5.1825      5.4983      6.0872      7.0440      8.4975      10.594      13.507    
  17.642      23.354      30.717      39.460      48.999      58.563      67.360      74.726      80.209      83.565    
  84.691      83.565      80.209      74.726      52.571      44.546      36.419      28.850      22.355      17.202    
  13.371      10.594      8.5454      7.0878      6.0978      5.4600      5.0843      4.9110      4.9110      5.0843    
  5.4600      6.0978      7.0878      8.5454      10.594      13.371      17.202      22.355      28.850      36.419    
  44.546      52.571      59.822      65.725      69.866      71.992      71.992      69.866      65.725      59.822    
  39.138      32.539      26.284      20.813      16.373      12.977      10.429      8.4975      7.0878      6.1017    
  5.4412      5.0259      4.7988      4.7267      4.7988      5.0259      5.4412      6.1017      7.0878      8.4975    
  10.429      12.977      16.373      20.813      26.284      32.539      39.138      45.531      51.156      55.530    
  58.295      59.241      58.295      55.530      51.156      45.531      28.178      23.275      18.895      15.249    
  12.368      10.115      8.3583      7.0440      6.0978      5.4412      5.0064      4.7433      4.6194      4.6194    
  4.7433      5.0064      5.4412      6.0978      7.0440      8.3583      10.115      12.368      15.249      18.895    
  23.275      28.178      33.242      38.021      42.067      44.996      46.531      46.531      44.996      42.067    
  38.021      33.242      20.115      16.794      13.945      11.599      9.6773      8.1402      6.9609      6.0872    
  5.4600      5.0259      4.7433      4.5842      4.5328      4.5842      4.7433      5.0259      5.4600      6.0872    
  6.9609      8.1402      9.6773      11.599      13.945      16.794      20.115      23.736      27.373      30.688    
  33.342      35.058      35.651      35.058      33.342      30.688      27.373      23.736      14.698      12.573    
  10.728      9.1524      7.8624      6.8469      6.0727      5.4983      5.0843      4.7988      4.6194      4.5328    
  4.5328      4.6194      4.7988      5.0843      5.4983      6.0727      6.8469      7.8624      9.1524      10.728    
  12.573      14.698      17.077      19.581      22.007      24.114      25.671      26.498      26.498      25.671    
  24.114      22.007      19.581      17.077      11.216      9.8123      8.5808      7.5479      6.7132      6.0586    
  5.5574      5.1825      4.9110      4.7267      4.6194      4.5842      4.6194      4.7267      4.9110      5.1825    
  5.5574      6.0586      6.7132      7.5479      8.5808      9.8123      11.216      12.744      14.361      15.982    
  17.476      18.689      19.483      19.759      19.483      18.689      17.476      15.982      14.361      12.744    
  8.9116      8.0025      7.2209      6.5731      6.0514      5.6404      5.3228      5.0834      4.9110      4.7988    
  4.7433      4.7433      4.7988      4.9110      5.0834      5.3228      5.6404      6.0514      6.5731      7.2209    
  8.0025      8.9116      9.9231      10.991      12.052      13.045      13.898      14.528      14.863      14.863    
  14.528      13.898      13.045      12.052      10.991      9.9231      7.4513      6.9033      6.4394      6.0582    
  5.7519      5.5101      5.3228      5.1825      5.0843      5.0259      5.0064      5.0259      5.0843      5.1825    
  5.3228      5.5101      5.7518      6.0582      6.4394      6.9033      7.4513      8.0745      8.7512      9.4467    
  10.116      10.707      11.172      11.469      11.572      11.469      11.172      10.707      10.116      9.4467    
  8.7512      8.0745      6.6126      6.3236      6.0867      5.8982      5.7519      5.6404      5.5575      5.4983    
  5.4600      5.4412      5.4412      5.4600      5.4983      5.5574      5.6404      5.7518      5.8982      6.0867    
  6.3236      6.6126      6.9520      7.3330      7.7388      8.1455      8.5235      8.8419      9.0724      9.1934    
  9.1934      9.0724      8.8419      8.5235      8.1455      7.7388      7.3330      6.9520      6.2344      6.1438    
  6.0867      6.0582      6.0514      6.0586      6.0727      6.0872      6.0978      6.1017      6.0978      6.0872    
  6.0727      6.0586      6.0514      6.0582      6.0867      6.1438      6.2344      6.3602      6.5184      6.7020    
  6.8990      7.0940      7.2700      7.4102      7.5005      7.5317      7.5005      7.4102      7.2700      7.0940    
  6.8990      6.7020      6.5185      6.3602      6.2344      6.3236      6.4394      6.5731      6.7132      6.8469    
  6.9609      7.0440      7.0878      7.0878      7.0440      6.9609      6.8469      6.7132      6.5731      6.4394    
  6.3236      6.2344      6.1766      6.1510      6.1549      6.1821      6.2247      6.2733      6.3191      6.3544    
  6.3735      6.3735      6.3544      6.3191      6.2733      6.2247      6.1821      6.1549      6.1510      6.1766    
  6.6126      6.9033      7.2209      7.5479      7.8624      8.1402      8.3583      8.4975      8.5454      8.4975    
  8.3583      8.1402      7.8624      7.5479      7.2209      6.9033      6.6126      6.3602      6.1510      5.9851    
  5.8582      5.7645      5.6972      5.6506      5.6203      5.6031      5.5976      5.6031      5.6203      5.6506    
  5.6972      5.7645      5.8582      5.9851      6.1510      6.3602      7.4513      8.0025      8.5808      9.1524    
  9.6773      10.115      10.429      10.594      10.594      10.429      10.115      9.6773      9.1524      8.5808    
  8.0025      7.4513      6.9520      6.5184      6.1549      5.8582      5.6213      5.4356      5.2938      5.1905    
  5.1227      5.0890      5.0890      5.1227      5.1905      5.2938      5.4356      5.6213      5.8582      6.1549    
  6.5185      6.9520      8.9116      9.8123      10.728      11.599      12.368      12.977      13.371      13.507    
  13.371      12.977      12.368      11.599      10.728      9.8123      8.9116      8.0745      7.3330      6.7020    
  6.1821      5.7645      5.4356      5.1821      4.9933      4.8619      4.7841      4.7584      4.7841      4.8619    
  4.9933      5.1821      5.4356      5.7645      6.1821      6.7020      7.3330      8.0745      11.216      12.573    
  13.945      15.249      16.373      17.202      17.642      17.642      17.202      16.373      15.249      13.945    
  12.573      11.216      9.9231      8.7512      7.7388      6.8990      6.2247      5.6972      5.2938      4.9933    
  4.7795      4.6417      4.5741      4.5741      4.6417      4.7795      4.9933      5.2938      5.6972      6.2247    
  6.8990      7.7388      8.7512      9.9231      14.698      16.794      18.895      20.813      22.355      23.354    
  23.699      23.354      22.355      20.813      18.895      16.794      14.698      12.744      10.991      9.4467    
  8.1455      7.0940      6.2733      5.6506      5.1905      4.8619      4.6417      4.5149      4.4735      4.5149    
  4.6417      4.8619      5.1905      5.6506      6.2733      7.0940      8.1455      9.4467      10.991      12.744    
  20.115      23.275      26.284      28.850      30.717      31.699      31.699      30.717      28.850      26.284    
  23.275      20.115      17.077      14.361      12.052      10.116      8.5235      7.2700      6.3191      5.6203    
  5.1227      4.7841      4.5741      4.4735      4.4735      4.5741      4.7841      5.1227      5.6203      6.3191    
  7.2700      8.5235      10.116      12.052      14.361      17.077      28.178      32.539      36.419      39.460    
  41.393      42.056      41.393      39.460      36.419      32.539      28.178      23.736      19.581      15.982    
  13.045      10.707      8.8419      7.4102      6.3544      5.6031      5.0890      4.7584      4.5741      4.5149    
  4.5741      4.7584      5.0890      5.6031      6.3544      7.4102      8.8419      10.707      13.045      15.982    
  19.581      23.736      39.138      44.546      48.999      52.149      53.776      53.776      52.149      48.999    
  44.546      39.138      33.242      27.373      22.007      17.476      13.898      11.172      9.0724      7.5005    
  6.3735      5.5976      5.0890      4.7841      4.6417      4.6417      4.7841      5.0890      5.5976      6.3735    
  7.5005      9.0724      11.172      13.898      17.476      22.007      27.373      33.242      52.571      58.563    
  63.083      65.873      66.815      65.873      63.083      58.563      52.571      45.531      38.021      30.688    
  24.114      18.689      14.528      11.469      9.1934      7.5317      6.3735      5.6031      5.1227      4.8619    
  4.7795      4.8619      5.1227      5.6031      6.3735      7.5317      9.1934      11.469      14.528      18.689    
  24.114      30.688      38.021      45.531      67.360      73.266      77.271      79.280      79.280      77.271    
  73.266      67.360      59.822      51.156      42.067      33.342      25.671      19.483      14.863      11.572    
  9.1934      7.5005      6.3544      5.6203      5.1905      4.9933      4.9933      5.1905      5.6203      6.3544    
  7.5005      9.1934      11.572      14.863      19.483      25.671      33.342      42.067      51.156      59.822    
  81.931      87.062      90.085      91.079      90.085      87.062      81.931      74.726      65.725      55.530    
  44.996      35.058      26.498      19.759      14.863      11.469      9.0724      7.4102      6.3191      5.6506    
  5.2938      5.1821      5.2938      5.6506      6.3191      7.4102      9.0724      11.469      14.863      19.759    
  26.498      35.058      44.996      55.530      65.725      74.726      94.690      98.548      100.39      100.39    
  98.548      94.690      88.591      80.209      69.866      58.295      46.531      35.651      26.498      19.483    
  14.528      11.172      8.8419      7.2700      6.2733      5.6972      5.4356      5.4356      5.6972      6.2733    
  7.2700      8.8419      11.172      14.528      19.483      26.498      35.651      46.531      58.295      69.866    
  80.209      88.591      104.48      106.91      107.67      106.91      104.48      99.985      93.036      83.565    
  71.992      59.241      46.531      35.058      25.671      18.689      13.898      10.707      8.5235      7.0940    
  6.2247      5.7645      5.6213      5.7645      6.2247      7.0940      8.5235      10.707      13.898      18.689    
  25.671      35.058      46.531      59.241      71.992      83.565      93.036      99.985      110.92      112.12    