Pt-fcc                                  
   1.00000000000000     
     0.000000    1.945302    1.945302
     1.945302    0.000000    1.945302
     1.945302    1.945302    0.000000
   Pt
     1
Direct
  0.000000  0.000000  0.000000
 
   36   36   36
 0.12885181040E+03 0.12871458917E+03 0.12786475836E+03 0.12518359607E+03 0.11938317554E+03
 0.10962904601E+03 0.96013334474E+02 0.79668094609E+02 0.62461804130E+02 0.46412027089E+02
 0.33073788833E+02 0.23154233103E+02 0.16471014850E+02 0.12202759295E+02 0.93926896930E+01
 0.75959923111E+01 0.65282878385E+01 0.59735160942E+01 0.58027084526E+01 0.59735160942E+01
 0.65282878385E+01 0.75959923111E+01 0.93926896930E+01 0.12202759295E+02 0.16471014850E+02
 0.23154233103E+02 0.33073788833E+02 0.46412027089E+02 0.62461804130E+02 0.79668094609E+02
 0.96013334474E+02 0.10962904601E+03 0.11938317554E+03 0.12518359607E+03 0.12786475836E+03
 0.12871458917E+03 0.12871458917E+03 0.12821763373E+03 0.12642694571E+03 0.12211310005E+03
 0.11419804906E+03 0.10231863411E+03 0.87124889586E+02 0.70174286835E+02 0.53463371883E+02
 0.38804857708E+02 0.27318208981E+02 0.19223170487E+02 0.13963536867E+02 0.10561716019E+02
 0.83259474903E+01 0.69440379921E+01 0.61644384659E+01 0.58166111487E+01 0.58166118317E+01
 0.61644400896E+01 0.69440395493E+01 0.83259479521E+01 0.10561714977E+02 0.13963534797E+02
 0.19223168544E+02 0.27318208310E+02 0.38804858675E+02 0.53463373562E+02 0.70174287131E+02
 0.87124886010E+02 0.10231862486E+03 0.11419803416E+03 0.12211308161E+03 0.12642692766E+03
 0.12821762055E+03 0.12871458434E+03 0.12786475836E+03 0.12642694571E+03 0.12294600805E+03
 0.11635093055E+03 0.10601806167E+03 0.92183234665E+02 0.76016606579E+02 0.59317352281E+02
 0.43960636221E+02 0.31340128193E+02 0.22033026696E+02 0.15786696539E+02 0.11770591539E+02
 0.91036251641E+01 0.73988054533E+01 0.63845926705E+01 0.58568158819E+01 0.56941489288E+01
 0.58568180690E+01 0.63845956977E+01 0.73988074001E+01 0.91036246560E+01 0.11770588615E+02
 0.15786692727E+02 0.22033024213E+02 0.31340128608E+02 0.43960639254E+02 0.59317355381E+02
 0.76016605678E+02 0.92183225847E+02 0.10601804309E+03 0.11635090380E+03 0.12294597816E+03
 0.12642691981E+03 0.12786474332E+03 0.12821762055E+03 0.12518359607E+03 0.12211310005E+03
 0.11635093055E+03 0.10722940220E+03 0.94719634561E+02 0.79633241431E+02 0.63479950636E+02
 0.48035394065E+02 0.34808754026E+02 0.24637181604E+02 0.17554444136E+02 0.12939504396E+02
 0.98836251748E+01 0.78703548211E+01 0.66241593307E+01 0.59189262899E+01 0.56033471837E+01
 0.56033485868E+01 0.59189296520E+01 0.66241625747E+01 0.78703558406E+01 0.98836230687E+01
 0.12939500114E+02 0.17554440068E+02 0.24637180315E+02 0.34808756650E+02 0.48035399285E+02
 0.63479954759E+02 0.79633239730E+02 0.94719623375E+02 0.10722938088E+03 0.11635090237E+03
 0.12211307149E+03 0.12518357483E+03 0.12642691981E+03 0.12642692766E+03 0.11938317554E+03
 0.11419804906E+03 0.10601806167E+03 0.94719634561E+02 0.80854467419E+02 0.65635500375E+02
 0.50639628380E+02 0.37352471424E+02 0.26752549102E+02 0.19100959070E+02 0.13991795331E+02
 0.10609704892E+02 0.83282465037E+01 0.68684221510E+01 0.59959980591E+01 0.55395181959E+01
 0.53983095845E+01 0.55395206009E+01 0.59960014417E+01 0.68684244458E+01 0.83282461801E+01
 0.10609701880E+02 0.13991791198E+02 0.19100956307E+02 0.26752549804E+02 0.37352476034E+02
 0.50639635107E+02 0.65635505718E+02 0.80854467553E+02 0.94719627118E+02 0.10601804706E+03
 0.11419803062E+03 0.11938315859E+03 0.12211307149E+03 0.12294597816E+03 0.12211308161E+03
 0.10962904601E+03 0.10231863411E+03 0.92183234665E+02 0.79633241431E+02 0.65635500375E+02
 0.51534303167E+02 0.38696526038E+02 0.28132741506E+02 0.20252651073E+02 0.14839280791E+02
 0.11221993914E+02 0.87370056132E+01 0.70988986906E+01 0.60791329899E+01 0.54972029508E+01
 0.52348961176E+01 0.52348970551E+01 0.54972052425E+01 0.60791353618E+01 0.70988997720E+01
 0.87370047060E+01 0.11221991415E+02 0.14839278112E+02 0.20252650015E+02 0.28132743414E+02
 0.38696531117E+02 0.51534310258E+02 0.65635507431E+02 0.79633246305E+02 0.92183236069E+02
 0.10231863218E+03 0.10962904221E+03 0.11419803062E+03 0.11635090237E+03 0.11635090380E+03
 0.11419803416E+03 0.96013334474E+02 0.87124889586E+02 0.76016606579E+02 0.63479950636E+02
 0.50639628380E+02 0.38696526038E+02 0.28612175405E+02 0.20867963451E+02 0.15392180725E+02
 0.11665581765E+02 0.90608485345E+01 0.72954481860E+01 0.61583520237E+01 0.54709968645E+01
 0.51070698555E+01 0.49936373498E+01 0.51070706359E+01 0.54709980949E+01 0.61583531772E+01
 0.72954487516E+01 0.90608482408E+01 0.11665580737E+02 0.15392179502E+02 0.20867962886E+02
 0.28612176405E+02 0.38696529369E+02 0.50639634347E+02 0.63479959040E+02 0.76016616652E+02
 0.87124900115E+02 0.96013344064E+02 0.10231863218E+03 0.10601804706E+03 0.10722938088E+03
 0.10601804309E+03 0.10231862486E+03 0.79668094609E+02 0.70174286835E+02 0.59317352281E+02
 0.48035394065E+02 0.37352471424E+02 0.28132741506E+02 0.20867963451E+02 0.15584527735E+02
 0.11898652768E+02 0.92690584819E+01 0.74390835964E+01 0.62237506523E+01 0.54560669863E+01
 0.50104799190E+01 0.48068518365E+01 0.48068516903E+01 0.50104796500E+01 0.54560669536E+01
 0.62237511484E+01 0.74390845499E+01 0.92690593994E+01 0.11898652939E+02 0.15584526665E+02
 0.20867961330E+02 0.28132739368E+02 0.37352471016E+02 0.48035397179E+02 0.59317360013E+02
 0.70174298953E+02 0.79668109254E+02 0.87124900115E+02 0.92183236069E+02 0.94719627118E+02
 0.94719623375E+02 0.92183225847E+02 0.87124886010E+02 0.62461804130E+02 0.53463371883E+02
 0.43960636221E+02 0.34808754026E+02 0.26752549102E+02 0.20252651073E+02 0.15392180725E+02
 0.11898652768E+02 0.93409019919E+01 0.75149727233E+01 0.62668454626E+01 0.54484730815E+01
 0.49425548638E+01 0.46690355235E+01 0.45826900270E+01 0.46690344097E+01 0.49425533834E+01
 0.54484722762E+01 0.62668459991E+01 0.75149744091E+01 0.93409037047E+01 0.11898652987E+02
 0.15392178283E+02 0.20252646004E+02 0.26752542796E+02 0.34808748984E+02 0.43960635011E+02
 0.53463375986E+02 0.62461813236E+02 0.70174298953E+02 0.76016616652E+02 0.79633246305E+02
 0.80854467553E+02 0.79633239730E+02 0.76016605678E+02 0.70174287131E+02 0.46412027089E+02
 0.38804857708E+02 0.31340128193E+02 0.24637181604E+02 0.19100959070E+02 0.14839280791E+02
 0.11665581765E+02 0.92690584819E+01 0.75149727233E+01 0.62818891377E+01 0.54454095778E+01
 0.49020784484E+01 0.45776350177E+01 0.44261583647E+01 0.44261574899E+01 0.45776328946E+01
 0.49020763074E+01 0.54454086884E+01 0.62818900413E+01 0.75149748367E+01 0.92690602092E+01
 0.11665581253E+02 0.14839276740E+02 0.19100951576E+02 0.24637172175E+02 0.31340119277E+02
 0.38804851787E+02 0.46412025486E+02 0.53463375986E+02 0.59317360013E+02 0.63479959040E+02
 0.65635507431E+02 0.65635505718E+02 0.63479954759E+02 0.59317355381E+02 0.53463373562E+02
 0.33073788833E+02 0.27318208981E+02 0.22033026696E+02 0.17554444136E+02 0.13991795331E+02
 0.11221993914E+02 0.90608485345E+01 0.74390835964E+01 0.62668454626E+01 0.54454095778E+01
 0.48886167563E+01 0.45319395688E+01 0.43331766995E+01 0.42693228107E+01 0.43331750678E+01
 0.45319371464E+01 0.48886147876E+01 0.54454090959E+01 0.62668466805E+01 0.74390857663E+01
 0.90608501006E+01 0.11221993259E+02 0.13991791322E+02 0.17554436730E+02 0.22033016959E+02
 0.27318198580E+02 0.33073779591E+02 0.38804851787E+02 0.43960635011E+02 0.48035397179E+02
 0.50639634347E+02 0.51534310258E+02 0.50639635107E+02 0.48035399285E+02 0.43960639254E+02
 0.38804858675E+02 0.23154233103E+02 0.19223170487E+02 0.15786696539E+02 0.12939504396E+02
 0.10609704892E+02 0.87370056132E+01 0.72954481860E+01 0.62237506523E+01 0.54484730815E+01
 0.49020784484E+01 0.45319395688E+01 0.43022831557E+01 0.41921419515E+01 0.41921413486E+01
 0.43022816042E+01 0.45319377987E+01 0.49020772896E+01 0.54484731897E+01 0.62237521229E+01
 0.72954505701E+01 0.87370078970E+01 0.10609705922E+02 0.12939503174E+02 0.15786692463E+02
 0.19223163737E+02 0.23154224308E+02 0.27318198580E+02 0.31340119277E+02 0.34808748984E+02
 0.37352471016E+02 0.38696529369E+02 0.38696531117E+02 0.37352476034E+02 0.34808756650E+02
 0.31340128608E+02 0.27318208310E+02 0.16471014850E+02 0.13963536867E+02 0.11770591539E+02
 0.98836251748E+01 0.83282465037E+01 0.70988986906E+01 0.61583520237E+01 0.54560669863E+01
 0.49425548638E+01 0.45776350177E+01 0.43331766995E+01 0.41921419515E+01 0.41459725493E+01
 0.41921416292E+01 0.43331761428E+01 0.45776344462E+01 0.49425546267E+01 0.54560675427E+01
 0.61583537696E+01 0.70989017950E+01 0.83282507031E+01 0.98836296316E+01 0.11770595159E+02
 0.13963538300E+02 0.16471013213E+02 0.19223163737E+02 0.22033016959E+02 0.24637172175E+02
 0.26752542796E+02 0.28132739368E+02 0.28612176405E+02 0.28132743414E+02 0.26752549804E+02
 0.24637180315E+02 0.22033024213E+02 0.19223168544E+02 0.12202759295E+02 0.10561716019E+02
 0.91036251641E+01 0.78703548211E+01 0.68684221510E+01 0.60791329899E+01 0.54709968645E+01
 0.50104799190E+01 0.46690355235E+01 0.44261583647E+01 0.42693228107E+01 0.41921413486E+01
 0.41921416292E+01 0.42693234847E+01 0.44261590352E+01 0.46690358877E+01 0.50104800576E+01
 0.54709973851E+01 0.60791348128E+01 0.68684260903E+01 0.78703611532E+01 0.91036331822E+01
 0.10561724281E+02 0.12202765992E+02 0.13963538300E+02 0.15786692463E+02 0.17554436730E+02
 0.19100951576E+02 0.20252646004E+02 0.20867961330E+02 0.20867962886E+02 0.20252650015E+02
 0.19100956307E+02 0.17554440068E+02 0.15786692727E+02 0.13963534797E+02 0.93926896930E+01
 0.83259474903E+01 0.73988054533E+01 0.66241593307E+01 0.59959980591E+01 0.54972029508E+01
 0.51070698555E+01 0.48068518365E+01 0.45826900270E+01 0.44261574899E+01 0.43331750678E+01
 0.43022816042E+01 0.43331761428E+01 0.44261590352E+01 0.45826911832E+01 0.48068520456E+01
 0.51070692519E+01 0.54972024804E+01 0.59959991235E+01 0.66241631359E+01 0.73988124795E+01
 0.83259570551E+01 0.93927001240E+01 0.10561724281E+02 0.11770595159E+02 0.12939503174E+02
 0.13991791322E+02 0.14839276740E+02 0.15392178283E+02 0.15584526665E+02 0.15392179502E+02
 0.14839278112E+02 0.13991791198E+02 0.12939500114E+02 0.11770588615E+02 0.10561714977E+02
 0.75959923111E+01 0.69440379921E+01 0.63845926705E+01 0.59189262899E+01 0.55395181959E+01
 0.52348961176E+01 0.49936373498E+01 0.48068516903E+01 0.46690344097E+01 0.45776328946E+01
 0.45319371464E+01 0.45319377987E+01 0.45776344462E+01 0.46690358877E+01 0.48068520456E+01
 0.49936360746E+01 0.52348935757E+01 0.55395155926E+01 0.59189252467E+01 0.63845944808E+01
 0.69440431373E+01 0.75960001881E+01 0.83259570551E+01 0.91036331822E+01 0.98836296316E+01
 0.10609705922E+02 0.11221993259E+02 0.11665581253E+02 0.11898652987E+02 0.11898652939E+02
 0.11665580737E+02 0.11221991415E+02 0.10609701880E+02 0.98836230687E+01 0.91036246560E+01
 0.83259479521E+01 0.65282878385E+01 0.61644384659E+01 0.58568158819E+01 0.56033471837E+01
 0.53983095845E+01 0.52348970551E+01 0.51070706359E+01 0.50104796500E+01 0.49425533834E+01
 0.49020763074E+01 0.48886147876E+01 0.49020772896E+01 0.49425546267E+01 0.50104800576E+01
 0.51070692519E+01 0.52348935757E+01 0.53983045544E+01 0.56033418267E+01 0.58568117203E+01
 0.61644366922E+01 0.65282889221E+01 0.69440431373E+01 0.73988124795E+01 0.78703611532E+01
 0.83282507031E+01 0.87370078970E+01 0.90608501006E+01 0.92690602092E+01 0.93409037047E+01
 0.92690593994E+01 0.90608482408E+01 0.87370047060E+01 0.83282461801E+01 0.78703558406E+01
 0.73988074001E+01 0.69440395493E+01 0.59735160942E+01 0.58166111487E+01 0.56941489288E+01
 0.56033485868E+01 0.55395206009E+01 0.54972052425E+01 0.54709980949E+01 0.54560669536E+01
 0.54484722762E+01 0.54454086884E+01 0.54454090959E+01 0.54484731897E+01 0.54560675427E+01
 0.54709973851E+01 0.54972024804E+01 0.55395155926E+01 0.56033418267E+01 0.56941414069E+01
 0.58166040937E+01 0.59735105695E+01 0.61644366922E+01 0.63845944808E+01 0.66241631359E+01
 0.68684260903E+01 0.70989017950E+01 0.72954505701E+01 0.74390857663E+01 0.75149748367E+01
 0.75149744091E+01 0.74390845499E+01 0.72954487516E+01 0.70988997720E+01 0.68684244458E+01
 0.66241625747E+01 0.63845956977E+01 0.61644400896E+01 0.58027084526E+01 0.58166118317E+01
 0.58568180690E+01 0.59189296520E+01 0.59960014417E+01 0.60791353618E+01 0.61583531772E+01
 0.62237511484E+01 0.62668459991E+01 0.62818900413E+01 0.62668466805E+01 0.62237521229E+01
 0.61583537696E+01 0.60791348128E+01 0.59959991235E+01 0.59189252467E+01 0.58568117203E+01
 0.58166040937E+01 0.58027002081E+01 0.58166040937E+01 0.58568117203E+01 0.59189252467E+01
 0.59959991235E+01 0.60791348128E+01 0.61583537696E+01 0.62237521229E+01 0.62668466805E+01
 0.62818900413E+01 0.62668459991E+01 0.62237511484E+01 0.61583531772E+01 0.60791353618E+01
 0.59960014417E+01 0.59189296520E+01 0.58568180690E+01 0.58166118317E+01 0.59735160942E+01
 0.61644400896E+01 0.63845956977E+01 0.66241625747E+01 0.68684244458E+01 0.70988997720E+01
 0.72954487516E+01 0.74390845499E+01 0.75149744091E+01 0.75149748367E+01 0.74390857663E+01
 0.72954505701E+01 0.70989017950E+01 0.68684260903E+01 0.66241631359E+01 0.63845944808E+01
 0.61644366922E+01 0.59735105695E+01 0.58166040937E+01 0.56941414069E+01 0.56033418267E+01
 0.55395155926E+01 0.54972024804E+01 0.54709973851E+01 0.54560675427E+01 0.54484731897E+01
 0.54454090959E+01 0.54454086884E+01 0.54484722762E+01 0.54560669536E+01 0.54709980949E+01
 0.54972052425E+01 0.55395206009E+01 0.56033485868E+01 0.56941489288E+01 0.58166111487E+01
 0.65282878385E+01 0.69440395493E+01 0.73988074001E+01 0.78703558406E+01 0.83282461801E+01
 0.87370047060E+01 0.90608482408E+01 0.92690593994E+01 0.93409037047E+01 0.92690602092E+01
 0.90608501006E+01 0.87370078970E+01 0.83282507031E+01 0.78703611532E+01 0.73988124795E+01
 0.69440431373E+01 0.65282889221E+01 0.61644366922E+01 0.58568117203E+01 0.56033418267E+01
 0.53983045544E+01 0.52348935757E+01 0.51070692519E+01 0.50104800576E+01 0.49425546267E+01
 0.49020772896E+01 0.48886147876E+01 0.49020763074E+01 0.49425533834E+01 0.50104796500E+01
 0.51070706359E+01 0.52348970551E+01 0.53983095845E+01 0.56033471837E+01 0.58568158819E+01
 0.61644384659E+01 0.75959923111E+01 0.83259479521E+01 0.91036246560E+01 0.98836230687E+01
 0.10609701880E+02 0.11221991415E+02 0.11665580737E+02 0.11898652939E+02 0.11898652987E+02
 0.11665581253E+02 0.11221993259E+02 0.10609705922E+02 0.98836296316E+01 0.91036331822E+01
 0.83259570551E+01 0.75960001881E+01 0.69440431373E+01 0.63845944808E+01 0.59189252467E+01
 0.55395155926E+01 0.52348935757E+01 0.49936360746E+01 0.48068520456E+01 0.46690358877E+01
 0.45776344462E+01 0.45319377987E+01 0.45319371464E+01 0.45776328946E+01 0.46690344097E+01
 0.48068516903E+01 0.49936373498E+01 0.52348961176E+01 0.55395181959E+01 0.59189262899E+01
 0.63845926705E+01 0.69440379921E+01 0.93926896930E+01 0.10561714977E+02 0.11770588615E+02
 0.12939500114E+02 0.13991791198E+02 0.14839278112E+02 0.15392179502E+02 0.15584526665E+02
 0.15392178283E+02 0.14839276740E+02 0.13991791322E+02 0.12939503174E+02 0.11770595159E+02
 0.10561724281E+02 0.93927001240E+01 0.83259570551E+01 0.73988124795E+01 0.66241631359E+01
 0.59959991235E+01 0.54972024804E+01 0.51070692519E+01 0.48068520456E+01 0.45826911832E+01
 0.44261590352E+01 0.43331761428E+01 0.43022816042E+01 0.43331750678E+01 0.44261574899E+01
 0.45826900270E+01 0.48068518365E+01 0.51070698555E+01 0.54972029508E+01 0.59959980591E+01
 0.66241593307E+01 0.73988054533E+01 0.83259474903E+01 0.12202759295E+02 0.13963534797E+02
 0.15786692727E+02 0.17554440068E+02 0.19100956307E+02 0.20252650015E+02 0.20867962886E+02
 0.20867961330E+02 0.20252646004E+02 0.19100951576E+02 0.17554436730E+02 0.15786692463E+02
 0.13963538300E+02 0.12202765992E+02 0.10561724281E+02 0.91036331822E+01 0.78703611532E+01
 0.68684260903E+01 0.60791348128E+01 0.54709973851E+01 0.50104800576E+01 0.46690358877E+01
 0.44261590352E+01 0.42693234847E+01 0.41921416292E+01 0.41921413486E+01 0.42693228107E+01
 0.44261583647E+01 0.46690355235E+01 0.50104799190E+01 0.54709968645E+01 0.60791329899E+01
 0.68684221510E+01 0.78703548211E+01 0.91036251641E+01 0.10561716019E+02 0.16471014850E+02
 0.19223168544E+02 0.22033024213E+02 0.24637180315E+02 0.26752549804E+02 0.28132743414E+02
 0.28612176405E+02 0.28132739368E+02 0.26752542796E+02 0.24637172175E+02 0.22033016959E+02
 0.19223163737E+02 0.16471013213E+02 0.13963538300E+02 0.11770595159E+02 0.98836296316E+01
 0.83282507031E+01 0.70989017950E+01 0.61583537696E+01 0.54560675427E+01 0.49425546267E+01
 0.45776344462E+01 0.43331761428E+01 0.41921416292E+01 0.41459725493E+01 0.41921419515E+01
 0.43331766995E+01 0.45776350177E+01 0.49425548638E+01 0.54560669863E+01 0.61583520237E+01
 0.70988986906E+01 0.83282465037E+01 0.98836251748E+01 0.11770591539E+02 0.13963536867E+02
 0.23154233103E+02 0.27318208310E+02 0.31340128608E+02 0.34808756650E+02 0.37352476034E+02
 0.38696531117E+02 0.38696529369E+02 0.37352471016E+02 0.34808748984E+02 0.31340119277E+02
 0.27318198580E+02 0.23154224308E+02 0.19223163737E+02 0.15786692463E+02 0.12939503174E+02
 0.10609705922E+02 0.87370078970E+01 0.72954505701E+01 0.62237521229E+01 0.54484731897E+01
 0.49020772896E+01 0.45319377987E+01 0.43022816042E+01 0.41921413486E+01 0.41921419515E+01
 0.43022831557E+01 0.45319395688E+01 0.49020784484E+01 0.54484730815E+01 0.62237506523E+01
 0.72954481860E+01 0.87370056132E+01 0.10609704892E+02 0.12939504396E+02 0.15786696539E+02
 0.19223170487E+02 0.33073788833E+02 0.38804858675E+02 0.43960639254E+02 0.48035399285E+02
 0.50639635107E+02 0.51534310258E+02 0.50639634347E+02 0.48035397179E+02 0.43960635011E+02
 0.38804851787E+02 0.33073779591E+02 0.27318198580E+02 0.22033016959E+02 0.17554436730E+02
 0.13991791322E+02 0.11221993259E+02 0.90608501006E+01 0.74390857663E+01 0.62668466805E+01
 0.54454090959E+01 0.48886147876E+01 0.45319371464E+01 0.43331750678E+01 0.42693228107E+01
 0.43331766995E+01 0.45319395688E+01 0.48886167563E+01 0.54454095778E+01 0.62668454626E+01
 0.74390835964E+01 0.90608485345E+01 0.11221993914E+02 0.13991795331E+02 0.17554444136E+02
 0.22033026696E+02 0.27318208981E+02 0.46412027089E+02 0.53463373562E+02 0.59317355381E+02
 0.63479954759E+02 0.65635505718E+02 0.65635507431E+02 0.63479959040E+02 0.59317360013E+02
 0.53463375986E+02 0.46412025486E+02 0.38804851787E+02 0.31340119277E+02 0.24637172175E+02
 0.19100951576E+02 0.14839276740E+02 0.11665581253E+02 0.92690602092E+01 0.75149748367E+01
 0.62818900413E+01 0.54454086884E+01 0.49020763074E+01 0.45776328946E+01 0.44261574899E+01
 0.44261583647E+01 0.45776350177E+01 0.49020784484E+01 0.54454095778E+01 0.62818891377E+01
 0.75149727233E+01 0.92690584819E+01 0.11665581765E+02 0.14839280791E+02 0.19100959070E+02
 0.24637181604E+02 0.31340128193E+02 0.38804857708E+02 0.62461804130E+02 0.70174287131E+02
 0.76016605678E+02 0.79633239730E+02 0.80854467553E+02 0.79633246305E+02 0.76016616652E+02
 0.70174298953E+02 0.62461813236E+02 0.53463375986E+02 0.43960635011E+02 0.34808748984E+02
 0.26752542796E+02 0.20252646004E+02 0.15392178283E+02 0.11898652987E+02 0.93409037047E+01
 0.75149744091E+01 0.62668459991E+01 0.54484722762E+01 0.49425533834E+01 0.46690344097E+01
 0.45826900270E+01 0.46690355235E+01 0.49425548638E+01 0.54484730815E+01 0.62668454626E+01
 0.75149727233E+01 0.93409019919E+01 0.11898652768E+02 0.15392180725E+02 0.20252651073E+02
 0.26752549102E+02 0.34808754026E+02 0.43960636221E+02 0.53463371883E+02 0.79668094609E+02
 0.87124886010E+02 0.92183225847E+02 0.94719623375E+02 0.94719627118E+02 0.92183236069E+02
 0.87124900115E+02 0.79668109254E+02 0.70174298953E+02 0.59317360013E+02 0.48035397179E+02
 0.37352471016E+02 0.28132739368E+02 0.20867961330E+02 0.15584526665E+02 0.11898652939E+02
 0.92690593994E+01 0.74390845499E+01 0.62237511484E+01 0.54560669536E+01 0.50104796500E+01
 0.48068516903E+01 0.48068518365E+01 0.50104799190E+01 0.54560669863E+01 0.62237506523E+01
 0.74390835964E+01 0.92690584819E+01 0.11898652768E+02 0.15584527735E+02 0.20867963451E+02
 0.28132741506E+02 0.37352471424E+02 0.48035394065E+02 0.59317352281E+02 0.70174286835E+02
 0.96013334474E+02 0.10231862486E+03 0.10601804309E+03 0.10722938088E+03 0.10601804706E+03
 0.10231863218E+03 0.96013344064E+02 0.87124900115E+02 0.76016616652E+02 0.63479959040E+02
 0.50639634347E+02 0.38696529369E+02 0.28612176405E+02 0.20867962886E+02 0.15392179502E+02
 0.11665580737E+02 0.90608482408E+01 0.72954487516E+01 0.61583531772E+01 0.54709980949E+01
 0.51070706359E+01 0.49936373498E+01 0.51070698555E+01 0.54709968645E+01 0.61583520237E+01
 0.72954481860E+01 0.90608485345E+01 0.11665581765E+02 0.15392180725E+02 0.20867963451E+02
 0.28612175405E+02 0.38696526038E+02 0.50639628380E+02 0.63479950636E+02 0.76016606579E+02
 0.87124889586E+02 0.10962904601E+03 0.11419803416E+03 0.11635090380E+03 0.11635090237E+03
 0.11419803062E+03 0.10962904221E+03 0.10231863218E+03 0.92183236069E+02 0.79633246305E+02
 0.65635507431E+02 0.51534310258E+02 0.38696531117E+02 0.28132743414E+02 0.20252650015E+02
 0.14839278112E+02 0.11221991415E+02 0.87370047060E+01 0.70988997720E+01 0.60791353618E+01
 0.54972052425E+01 0.52348970551E+01 0.52348961176E+01 0.54972029508E+01 0.60791329899E+01
 0.70988986906E+01 0.87370056132E+01 0.11221993914E+02 0.14839280791E+02 0.20252651073E+02
 0.28132741506E+02 0.38696526038E+02 0.51534303167E+02 0.65635500375E+02 0.79633241431E+02
 0.92183234665E+02 0.10231863411E+03 0.11938317554E+03 0.12211308161E+03 0.12294597816E+03
 0.12211307149E+03 0.11938315859E+03 0.11419803062E+03 0.10601804706E+03 0.94719627118E+02
 0.80854467553E+02 0.65635505718E+02 0.50639635107E+02 0.37352476034E+02 0.26752549804E+02
 0.19100956307E+02 0.13991791198E+02 0.10609701880E+02 0.83282461801E+01 0.68684244458E+01
 0.59960014417E+01 0.55395206009E+01 0.53983095845E+01 0.55395181959E+01 0.59959980591E+01
 0.68684221510E+01 0.83282465037E+01 0.10609704892E+02 0.13991795331E+02 0.19100959070E+02
 0.26752549102E+02 0.37352471424E+02 0.50639628380E+02 0.65635500375E+02 0.80854467419E+02
 0.94719634561E+02 0.10601806167E+03 0.11419804906E+03 0.12518359607E+03 0.12642692766E+03
 0.12642691981E+03 0.12518357483E+03 0.12211307149E+03 0.11635090237E+03 0.10722938088E+03
 0.94719623375E+02 0.79633239730E+02 0.63479954759E+02 0.48035399285E+02 0.34808756650E+02
 0.24637180315E+02 0.17554440068E+02 0.12939500114E+02 0.98836230687E+01 0.78703558406E+01
 0.66241625747E+01 0.59189296520E+01 0.56033485868E+01 0.56033471837E+01 0.59189262899E+01
 0.66241593307E+01 0.78703548211E+01 0.98836251748E+01 0.12939504396E+02 0.17554444136E+02
 0.24637181604E+02 0.34808754026E+02 0.48035394065E+02 0.63479950636E+02 0.79633241431E+02
 0.94719634561E+02 0.10722940220E+03 0.11635093055E+03 0.12211310005E+03 0.12786475836E+03
 0.12821762055E+03 0.12786474332E+03 0.12642691981E+03 0.12294597816E+03 0.11635090380E+03
 0.10601804309E+03 0.92183225847E+02 0.76016605678E+02 0.59317355381E+02 0.43960639254E+02
 0.31340128608E+02 0.22033024213E+02 0.15786692727E+02 0.11770588615E+02 0.91036246560E+01
 0.73988074001E+01 0.63845956977E+01 0.58568180690E+01 0.56941489288E+01 0.58568158819E+01
 0.63845926705E+01 0.73988054533E+01 0.91036251641E+01 0.11770591539E+02 0.15786696539E+02
 0.22033026696E+02 0.31340128193E+02 0.43960636221E+02 0.59317352281E+02 0.76016606579E+02
 0.92183234665E+02 0.10601806167E+03 0.11635093055E+03 0.12294600805E+03 0.12642694571E+03
 0.12871458917E+03 0.12871458434E+03 0.12821762055E+03 0.12642692766E+03 0.12211308161E+03
 0.11419803416E+03 0.10231862486E+03 0.87124886010E+02 0.70174287131E+02 0.53463373562E+02
 0.38804858675E+02 0.27318208310E+02 0.19223168544E+02 0.13963534797E+02 0.10561714977E+02
 0.83259479521E+01 0.69440395493E+01 0.61644400896E+01 0.58166118317E+01 0.58166111487E+01
 0.61644384659E+01 0.69440379921E+01 0.83259474903E+01 0.10561716019E+02 0.13963536867E+02
 0.19223170487E+02 0.27318208981E+02 0.38804857708E+02 0.53463371883E+02 0.70174286835E+02
 0.87124889586E+02 0.10231863411E+03 0.11419804906E+03 0.12211310005E+03 0.12642694571E+03
 0.12821763373E+03 0.12871458917E+03 0.12821763373E+03 0.12642694571E+03 0.12211310005E+03
 0.11419804906E+03 0.10231863411E+03 0.87124889586E+02 0.70174286835E+02 0.53463371883E+02
 0.38804857708E+02 0.27318208981E+02 0.19223170487E+02 0.13963536867E+02 0.10561716019E+02
 0.83259474903E+01 0.69440379921E+01 0.61644384659E+01 0.58166111487E+01 0.58166118317E+01
 0.61644400896E+01 0.69440395493E+01 0.83259479521E+01 0.10561714977E+02 0.13963534797E+02
 0.19223168544E+02 0.27318208310E+02 0.38804858675E+02 0.53463373562E+02 0.70174287131E+02
 0.87124886010E+02 0.10231862486E+03 0.11419803416E+03 0.12211308161E+03 0.12642692766E+03
 0.12821762055E+03 0.12871458434E+03 0.12821763373E+03 0.12690362203E+03 0.12359501978E+03
 0.11717707833E+03 0.10697958369E+03 0.93201779996E+02 0.76998108202E+02 0.60177223651E+02
 0.44644543529E+02 0.31833528545E+02 0.22357745766E+02 0.15988023391E+02 0.11900923653E+02
 0.91935196598E+01 0.74625444760E+01 0.64330581245E+01 0.58975720560E+01 0.57325822918E+01
 0.58975744070E+01 0.64330613760E+01 0.74625465644E+01 0.91935191147E+01 0.11900920527E+02
 0.15988019328E+02 0.22357743144E+02 0.31833528976E+02 0.44644546608E+02 0.60177226500E+02
 0.76998106350E+02 0.93201769174E+02 0.10697956198E+03 0.11717704763E+03 0.12359498576E+03
 0.12690359269E+03 0.12821761673E+03 0.12852562817E+03 0.12642694571E+03 0.12359501978E+03
 0.11810554163E+03 0.10921047488E+03 0.96808587967E+02 0.81669017583E+02 0.65302342252E+02
 0.49527026675E+02 0.35921140626E+02 0.25393449614E+02 0.18031309227E+02 0.13238240812E+02
 0.10087636818E+02 0.80122981241E+01 0.67281606047E+01 0.60021465733E+01 0.56775717193E+01
 0.56775733548E+01 0.60021504840E+01 0.67281643581E+01 0.80122992654E+01 0.10087634328E+02
 0.13238235837E+02 0.18031304560E+02 0.25393448155E+02 0.35921143490E+02 0.49527031999E+02
 0.65302345360E+02 0.81669012701E+02 0.96808570817E+02 0.10921044499E+03 0.11810550349E+03
 0.12359498179E+03 0.12642691765E+03 0.12753240683E+03 0.12753241718E+03 0.12211310005E+03
 0.11717707833E+03 0.10921047488E+03 0.97997420227E+02 0.84025142700E+02 0.68492149943E+02
 0.53016744496E+02 0.39167743998E+02 0.28020726640E+02 0.19918118447E+02 0.14499777722E+02
 0.10949078102E+02 0.85618033518E+01 0.70347249677E+01 0.61234487385E+01 0.56474933559E+01
 0.55004385772E+01 0.56474964550E+01 0.61234530554E+01 0.70347278006E+01 0.85618027425E+01
 0.10949074046E+02 0.14499772358E+02 0.19918114983E+02 0.28020727588E+02 0.39167749447E+02
 0.53016751493E+02 0.68492153296E+02 0.84025137115E+02 0.97997402829E+02 0.10921044696E+03
 0.11717704562E+03 0.12211307101E+03 0.12464957126E+03 0.12541015918E+03 0.12464958833E+03
 0.11419804906E+03 0.10697958369E+03 0.96808587967E+02 0.84025142700E+02 0.69572258370E+02
 0.54829492607E+02 0.41249644263E+02 0.29953167571E+02 0.21450146382E+02 0.15587890241E+02
 0.11711499435E+02 0.90721929140E+01 0.73326010609E+01 0.62518233591E+01 0.56368292825E+01
 0.53603041604E+01 0.53603055833E+01 0.56368327127E+01 0.62518267607E+01 0.73326023114E+01
 0.90721910468E+01 0.11711495276E+02 0.15587886149E+02 0.21450145071E+02 0.29953170662E+02
 0.41249651180E+02 0.54829500513E+02 0.69572263176E+02 0.84025140818E+02 0.96808578087E+02
 0.10697956758E+03 0.11419803127E+03 0.11863740236E+03 0.12070252978E+03 0.12070253498E+03
 0.11863741617E+03 0.10231863411E+03 0.93201779996E+02 0.81669017583E+02 0.68492149943E+02
 0.54829492607E+02 0.41966068992E+02 0.30976169966E+02 0.22450269008E+02 0.16392671933E+02
 0.12311026617E+02 0.95020588993E+01 0.75985525220E+01 0.63756698292E+01 0.56394519252E+01
 0.52512549452E+01 0.51305735370E+01 0.52512566878E+01 0.56394544603E+01 0.63756717491E+01
 0.75985526984E+01 0.95020571261E+01 0.12311023790E+02 0.16392669738E+02 0.22450269156E+02
 0.30976173426E+02 0.41966075462E+02 0.54829500601E+02 0.68492157385E+02 0.81669022648E+02
 0.93201781866E+02 0.10231863327E+03 0.10871320163E+03 0.11243062494E+03 0.11364141197E+03
 0.11243062655E+03 0.10871320370E+03 0.87124889586E+02 0.76998108202E+02 0.65302342252E+02
 0.53016744496E+02 0.41249644263E+02 0.30976169966E+02 0.22797839019E+02 0.16821353710E+02
 0.12695782934E+02 0.98133030031E+01 0.78092559246E+01 0.64827015956E+01 0.56492808269E+01
 0.51684446640E+01 0.49497582022E+01 0.49497585460E+01 0.51684455694E+01 0.56492819370E+01
 0.64827024618E+01 0.78092561456E+01 0.98133024247E+01 0.12695781732E+02 0.16821352455E+02
 0.22797838566E+02 0.30976171275E+02 0.41249648150E+02 0.53016751311E+02 0.65302351762E+02
 0.76998119467E+02 0.87124901094E+02 0.95010505004E+02 0.10032298572E+03 0.10297477767E+03
 0.10297477526E+03 0.10032297893E+03 0.95010495026E+02 0.70174286835E+02 0.60177223651E+02
 0.49527026675E+02 0.39167743998E+02 0.29953167571E+02 0.22450269008E+02 0.16821353710E+02
 0.12828664689E+02 0.99768012935E+01 0.79447240714E+01 0.65615334797E+01 0.56608247461E+01
 0.51084957472E+01 0.48120620757E+01 0.47188931359E+01 0.48120616739E+01 0.51084953136E+01
 0.56608247567E+01 0.65615341540E+01 0.79447251102E+01 0.99768019517E+01 0.12828664130E+02
 0.16821351565E+02 0.22450265806E+02 0.29953164767E+02 0.39167743636E+02 0.49527030501E+02
 0.60177232370E+02 0.70174299546E+02 0.78680453642E+02 0.85087726843E+02 0.89038829173E+02
 0.90370382251E+02 0.89038822085E+02 0.85087714599E+02 0.78680439458E+02 0.53463371883E+02
 0.44644543529E+02 0.35921140626E+02 0.28020726640E+02 0.21450146382E+02 0.16392671933E+02
 0.12695782934E+02 0.99768012935E+01 0.79914680242E+01 0.66033563244E+01 0.56696753773E+01
 0.50693742249E+01 0.47144621263E+01 0.45499701124E+01 0.45499694513E+01 0.47144605545E+01
 0.50693727673E+01 0.56696750112E+01 0.66033573775E+01 0.79914698057E+01 0.99768023516E+01
 0.12695781718E+02 0.16392667653E+02 0.21450139647E+02 0.28020719345E+02 0.35921135450E+02
 0.44644542719E+02 0.53463376258E+02 0.61583275711E+02 0.68289871941E+02 0.73041840132E+02
 0.75497519897E+02 0.75497516931E+02 0.73041832293E+02 0.68289862059E+02 0.61583267218E+02
 0.38804857708E+02 0.31833528545E+02 0.25393449614E+02 0.19918118447E+02 0.15587890241E+02
 0.12311026617E+02 0.98133030031E+01 0.79447240714E+01 0.66033563244E+01 0.56729590652E+01