Pt-fcc                                  
   1.00000000000000     
     0.000000    1.879906    1.879906
     1.879906    0.000000    1.879906
     1.879906    1.879906    0.000000
   Pt
     1
Direct
  0.000000  0.000000  0.000000
 
   36   36   36
 0.11636023647E+03 0.11624718166E+03 0.11556033482E+03 0.11340245125E+03 0.10871089811E+03
 0.10073627850E+03 0.89428171634E+02 0.75568676733E+02 0.60593572543E+02 0.46173490836E+02
 0.33729375641E+02 0.24073707962E+02 0.17294811638E+02 0.12883164708E+02 0.10019798338E+02
 0.81441897247E+01 0.70051159053E+01 0.64045747026E+01 0.62183122217E+01 0.64045747026E+01
 0.70051159053E+01 0.81441897247E+01 0.10019798338E+02 0.12883164708E+02 0.17294811638E+02
 0.24073707962E+02 0.33729375641E+02 0.46173490836E+02 0.60593572543E+02 0.75568676733E+02
 0.89428171634E+02 0.10073627850E+03 0.10871089811E+03 0.11340245125E+03 0.11556033482E+03
 0.11624718166E+03 0.11624718166E+03 0.11584467743E+03 0.11440345914E+03 0.11092354001E+03
 0.10448468245E+03 0.94690194242E+02 0.81931470993E+02 0.67359517055E+02 0.52570874446E+02
 0.39138345001E+02 0.28178450839E+02 0.20115458230E+02 0.14698459888E+02 0.11216065090E+02
 0.89116226942E+01 0.74513138953E+01 0.66126365662E+01 0.62344065911E+01 0.62344070496E+01
 0.66126376485E+01 0.74513149075E+01 0.89116229450E+01 0.11216064338E+02 0.14698458517E+02
 0.20115457086E+02 0.28178450711E+02 0.39138346073E+02 0.52570875917E+02 0.67359517304E+02
 0.81931468109E+02 0.94690186932E+02 0.10448467077E+03 0.11092352563E+03 0.11440344513E+03
 0.11584466720E+03 0.11624717791E+03 0.11556033482E+03 0.11440345914E+03 0.11159688166E+03
 0.10624266944E+03 0.97756364922E+02 0.86207953918E+02 0.72424479011E+02 0.57804815782E+02
 0.43920644525E+02 0.32068887534E+02 0.22951581769E+02 0.16586312940E+02 0.12439823284E+02
 0.97191764521E+01 0.79353013837E+01 0.68520839831E+01 0.62807346606E+01 0.61034536100E+01
 0.62807361411E+01 0.68520860036E+01 0.79353026186E+01 0.97191759961E+01 0.12439821253E+02
 0.16586310497E+02 0.22951580524E+02 0.32068888527E+02 0.43920647374E+02 0.57804818399E+02
 0.72424478240E+02 0.86207946773E+02 0.97756350101E+02 0.10624264827E+03 0.11159685814E+03
 0.11440343883E+03 0.11556032305E+03 0.11584466720E+03 0.11340245125E+03 0.11092354001E+03
 0.10624266944E+03 0.98756961318E+02 0.88340618580E+02 0.75535632883E+02 0.61488416095E+02
 0.47651663336E+02 0.35373579692E+02 0.25541029049E+02 0.18406478872E+02 0.13635412873E+02
 0.10518880790E+02 0.84319889769E+01 0.71109259206E+01 0.63516648326E+01 0.60088568611E+01
 0.60088578375E+01 0.63516671510E+01 0.71109281055E+01 0.84319895563E+01 0.10518879209E+02
 0.13635409929E+02 0.18406476381E+02 0.25541028857E+02 0.35373582495E+02 0.47651667925E+02
 0.61488419460E+02 0.75535631313E+02 0.88340609275E+02 0.98756943903E+02 0.10624264661E+03
 0.11092351700E+03 0.11340243418E+03 0.11440343883E+03 0.11440344513E+03 0.10871089811E+03
 0.10448468245E+03 0.97756364922E+02 0.88340618580E+02 0.76582136151E+02 0.63384293917E+02
 0.50015870973E+02 0.37770649286E+02 0.27618808601E+02 0.19985087801E+02 0.14721607915E+02
 0.11254322379E+02 0.89089980175E+01 0.73723504256E+01 0.64385717047E+01 0.59449901895E+01
 0.57915855218E+01 0.59449919402E+01 0.64385741347E+01 0.73723520031E+01 0.89089976462E+01
 0.11254320099E+02 0.14721605016E+02 0.19985086218E+02 0.27618809880E+02 0.37770653593E+02
 0.50015876698E+02 0.63384298122E+02 0.76582135723E+02 0.88340611704E+02 0.97756352058E+02
 0.10448466652E+03 0.10871088360E+03 0.11092351700E+03 0.11159685814E+03 0.11092352563E+03
 0.10073627850E+03 0.94690194242E+02 0.86207953918E+02 0.75535632883E+02 0.63384293917E+02
 0.50824629148E+02 0.39028879260E+02 0.28962966114E+02 0.21151374218E+02 0.15597658947E+02
 0.11869689583E+02 0.93303239081E+01 0.76163842036E+01 0.65309017939E+01 0.59049457344E+01
 0.56213343291E+01 0.56213350845E+01 0.59049475656E+01 0.65309036425E+01 0.76163849519E+01
 0.93303230278E+01 0.11869687475E+02 0.15597656854E+02 0.21151373644E+02 0.28962968112E+02
 0.39028883816E+02 0.50824635088E+02 0.63384299320E+02 0.75535635856E+02 0.86207953475E+02
 0.94690190733E+02 0.10073627352E+03 0.10448466652E+03 0.10624264661E+03 0.10624264827E+03
 0.10448467077E+03 0.89428171634E+02 0.81931470993E+02 0.72424479011E+02 0.61488416095E+02
 0.50015870973E+02 0.39028879260E+02 0.29427857467E+02 0.21771168732E+02 0.16168419161E+02
 0.12316241397E+02 0.96610778749E+01 0.78223273250E+01 0.66174889272E+01 0.58818328953E+01
 0.54906033272E+01 0.53685087412E+01 0.54906041458E+01 0.58818341328E+01 0.66174899677E+01
 0.78223276174E+01 0.96610772132E+01 0.12316240038E+02 0.16168417788E+02 0.21771168202E+02
 0.29427858550E+02 0.39028882343E+02 0.50015875941E+02 0.61488422415E+02 0.72424485837E+02
 0.81931477457E+02 0.89428177011E+02 0.94690190733E+02 0.97756352058E+02 0.98756943903E+02
 0.97756350101E+02 0.94690186932E+02 0.75568676733E+02 0.67359517055E+02 0.57804815782E+02
 0.47651663336E+02 0.37770649286E+02 0.28962966114E+02 0.21771168732E+02 0.16366720164E+02
 0.12551870572E+02 0.98722997453E+01 0.79715149243E+01 0.66879307929E+01 0.58697047138E+01
 0.53934184852E+01 0.51758709970E+01 0.51758710542E+01 0.53934186865E+01 0.58697050841E+01
 0.66879312882E+01 0.79715153284E+01 0.98722997381E+01 0.12551869836E+02 0.16366718652E+02
 0.21771166806E+02 0.28962964618E+02 0.37770649355E+02 0.47651665986E+02 0.57804821534E+02
 0.67359525541E+02 0.75568686634E+02 0.81931477457E+02 0.86207953475E+02 0.88340611704E+02
 0.88340609275E+02 0.86207946773E+02 0.81931468109E+02 0.60593572543E+02 0.52570874446E+02
 0.43920644525E+02 0.35373579692E+02 0.27618808601E+02 0.21151374218E+02 0.16168419161E+02
 0.12551870572E+02 0.99449214332E+01 0.80498802231E+01 0.67338310580E+01 0.58640520622E+01
 0.53258666341E+01 0.50358356859E+01 0.49445694137E+01 0.50358351410E+01 0.53258659502E+01
 0.58640517760E+01 0.67338314679E+01 0.80498810865E+01 0.99449220042E+01 0.12551869897E+02
 0.16168416632E+02 0.21151370002E+02 0.27618803779E+02 0.35373576019E+02 0.43920643679E+02
 0.52570877389E+02 0.60593578959E+02 0.67359525541E+02 0.72424485837E+02 0.75535635856E+02
 0.76582135723E+02 0.75535631313E+02 0.72424478240E+02 0.67359517304E+02 0.46173490836E+02
 0.39138345001E+02 0.32068887534E+02 0.25541029049E+02 0.19985087801E+02 0.15597658947E+02
 0.12316241397E+02 0.98722997453E+01 0.80498802231E+01 0.67497568826E+01 0.58619385529E+01
 0.52858786878E+01 0.49440095672E+01 0.47854789260E+01 0.47854783777E+01 0.49440082423E+01
 0.52858774083E+01 0.58619381117E+01 0.67497575965E+01 0.80498815941E+01 0.98723006502E+01
 0.12316240515E+02 0.15597655439E+02 0.19985081800E+02 0.25541021669E+02 0.32068880626E+02
 0.39138340310E+02 0.46173489327E+02 0.52570877389E+02 0.57804821534E+02 0.61488422415E+02
 0.63384299320E+02 0.63384298122E+02 0.61488419460E+02 0.57804818399E+02 0.52570875917E+02
 0.33729375641E+02 0.28178450839E+02 0.22951581769E+02 0.18406478872E+02 0.14721607915E+02
 0.11869689583E+02 0.96610778749E+01 0.79715149243E+01 0.67338310580E+01 0.58619385529E+01
 0.52726160221E+01 0.48984114317E+01 0.46920515939E+01 0.46262191310E+01 0.46920504551E+01
 0.48984097742E+01 0.52726147772E+01 0.58619384600E+01 0.67338322552E+01 0.79715167789E+01
 0.96610791878E+01 0.11869689081E+02 0.14721604710E+02 0.18406472982E+02 0.22951573948E+02
 0.28178442454E+02 0.33729368091E+02 0.39138340310E+02 0.43920643679E+02 0.47651665986E+02
 0.50015875941E+02 0.50824635088E+02 0.50015876698E+02 0.47651667925E+02 0.43920647374E+02
 0.39138346073E+02 0.24073707962E+02 0.20115458230E+02 0.16586312940E+02 0.13635412873E+02
 0.11254322379E+02 0.93303239081E+01 0.78223273250E+01 0.66879307929E+01 0.58640520622E+01
 0.52858786878E+01 0.48984114317E+01 0.46611965141E+01 0.45486636746E+01 0.45486632058E+01
 0.46611953533E+01 0.48984101695E+01 0.52858780482E+01 0.58640525515E+01 0.66879324886E+01
 0.78223297742E+01 0.93303262174E+01 0.11254323556E+02 0.13635411988E+02 0.16586309588E+02
 0.20115452511E+02 0.24073700463E+02 0.28178442454E+02 0.32068880626E+02 0.35373576019E+02
 0.37770649355E+02 0.39028882343E+02 0.39028883816E+02 0.37770653593E+02 0.35373582495E+02
 0.32068888527E+02 0.28178450711E+02 0.17294811638E+02 0.14698459888E+02 0.12439823284E+02
 0.10518880790E+02 0.89089980175E+01 0.76163842036E+01 0.66174889272E+01 0.58697047138E+01
 0.53258666341E+01 0.49440095672E+01 0.46920515939E+01 0.45486636746E+01 0.45020991132E+01
 0.45486633441E+01 0.46920510731E+01 0.49440091316E+01 0.53258666543E+01 0.58697055947E+01
 0.66174909326E+01 0.76163873814E+01 0.89090019447E+01 0.10518884751E+02 0.12439826215E+02
 0.14698460735E+02 0.17294809804E+02 0.20115452511E+02 0.22951573948E+02 0.25541021669E+02
 0.27618803779E+02 0.28962964618E+02 0.29427858550E+02 0.28962968112E+02 0.27618809880E+02
 0.25541028857E+02 0.22951580524E+02 0.20115457086E+02 0.12883164708E+02 0.11216065090E+02
 0.97191764521E+01 0.84319889769E+01 0.73723504256E+01 0.65309017939E+01 0.58818328953E+01
 0.53934184852E+01 0.50358356859E+01 0.47854789260E+01 0.46262191310E+01 0.45486632058E+01
 0.45486633441E+01 0.46262194411E+01 0.47854791911E+01 0.50358357869E+01 0.53934185912E+01
 0.58818335385E+01 0.65309036598E+01 0.73723540973E+01 0.84319944793E+01 0.97191831155E+01
 0.11216071711E+02 0.12883169716E+02 0.14698460735E+02 0.16586309588E+02 0.18406472982E+02
 0.19985081800E+02 0.21151370002E+02 0.21771166806E+02 0.21771168202E+02 0.21151373644E+02
 0.19985086218E+02 0.18406476381E+02 0.16586310497E+02 0.14698458517E+02 0.10019798338E+02
 0.89116226942E+01 0.79353013837E+01 0.71109259206E+01 0.64385717047E+01 0.59049457344E+01
 0.54906033272E+01 0.51758709970E+01 0.49445694137E+01 0.47854783777E+01 0.46920504551E+01
 0.46611953533E+01 0.46920510731E+01 0.47854791911E+01 0.49445698404E+01 0.51758707002E+01
 0.54906025113E+01 0.59049452204E+01 0.64385725885E+01 0.71109291543E+01 0.79353072502E+01
 0.89116305178E+01 0.10019806748E+02 0.11216071711E+02 0.12439826215E+02 0.13635411988E+02
 0.14721604710E+02 0.15597655439E+02 0.16168416632E+02 0.16366718652E+02 0.16168417788E+02
 0.15597656854E+02 0.14721605016E+02 0.13635409929E+02 0.12439821253E+02 0.11216064338E+02
 0.81441897247E+01 0.74513138953E+01 0.68520839831E+01 0.63516648326E+01 0.59449901895E+01
 0.56213343291E+01 0.53685087412E+01 0.51758710542E+01 0.50358351410E+01 0.49440082423E+01
 0.48984097742E+01 0.48984101695E+01 0.49440091316E+01 0.50358357869E+01 0.51758707002E+01
 0.53685070724E+01 0.56213317175E+01 0.59449876913E+01 0.63516637527E+01 0.68520853778E+01
 0.74513181455E+01 0.81441962779E+01 0.89116305178E+01 0.97191831155E+01 0.10518884751E+02
 0.11254323556E+02 0.11869689081E+02 0.12316240515E+02 0.12551869897E+02 0.12551869836E+02
 0.12316240038E+02 0.11869687475E+02 0.11254320099E+02 0.10518879209E+02 0.97191759961E+01
 0.89116229450E+01 0.70051159053E+01 0.66126365662E+01 0.62807346606E+01 0.60088568611E+01
 0.57915855218E+01 0.56213350845E+01 0.54906041458E+01 0.53934186865E+01 0.53258659502E+01
 0.52858774083E+01 0.52726147772E+01 0.52858780482E+01 0.53258666543E+01 0.53934185912E+01
 0.54906025113E+01 0.56213317175E+01 0.57915809041E+01 0.60088520793E+01 0.62807309967E+01
 0.66126350153E+01 0.70051168883E+01 0.74513181455E+01 0.79353072502E+01 0.84319944793E+01
 0.89090019447E+01 0.93303262174E+01 0.96610791878E+01 0.98723006502E+01 0.99449220042E+01
 0.98722997381E+01 0.96610772132E+01 0.93303230278E+01 0.89089976462E+01 0.84319895563E+01
 0.79353026186E+01 0.74513149075E+01 0.64045747026E+01 0.62344065911E+01 0.61034536100E+01
 0.60088578375E+01 0.59449919402E+01 0.59049475656E+01 0.58818341328E+01 0.58697050841E+01
 0.58640517760E+01 0.58619381117E+01 0.58619384600E+01 0.58640525515E+01 0.58697055947E+01
 0.58818335385E+01 0.59049452204E+01 0.59449876913E+01 0.60088520793E+01 0.61034472080E+01
 0.62344006394E+01 0.64045701389E+01 0.66126350153E+01 0.68520853778E+01 0.71109291543E+01
 0.73723540973E+01 0.76163873814E+01 0.78223297742E+01 0.79715167789E+01 0.80498815941E+01
 0.80498810865E+01 0.79715153284E+01 0.78223276174E+01 0.76163849519E+01 0.73723520031E+01
 0.71109281055E+01 0.68520860036E+01 0.66126376485E+01 0.62183122217E+01 0.62344070496E+01
 0.62807361411E+01 0.63516671510E+01 0.64385741347E+01 0.65309036425E+01 0.66174899677E+01
 0.66879312882E+01 0.67338314679E+01 0.67497575965E+01 0.67338322552E+01 0.66879324886E+01
 0.66174909326E+01 0.65309036598E+01 0.64385725885E+01 0.63516637527E+01 0.62807309967E+01
 0.62344006394E+01 0.62183053462E+01 0.62344006394E+01 0.62807309967E+01 0.63516637527E+01
 0.64385725885E+01 0.65309036598E+01 0.66174909326E+01 0.66879324886E+01 0.67338322552E+01
 0.67497575965E+01 0.67338314679E+01 0.66879312882E+01 0.66174899677E+01 0.65309036425E+01
 0.64385741347E+01 0.63516671510E+01 0.62807361411E+01 0.62344070496E+01 0.64045747026E+01
 0.66126376485E+01 0.68520860036E+01 0.71109281055E+01 0.73723520031E+01 0.76163849519E+01
 0.78223276174E+01 0.79715153284E+01 0.80498810865E+01 0.80498815941E+01 0.79715167789E+01
 0.78223297742E+01 0.76163873814E+01 0.73723540973E+01 0.71109291543E+01 0.68520853778E+01
 0.66126350153E+01 0.64045701389E+01 0.62344006394E+01 0.61034472080E+01 0.60088520793E+01
 0.59449876913E+01 0.59049452204E+01 0.58818335385E+01 0.58697055947E+01 0.58640525515E+01
 0.58619384600E+01 0.58619381117E+01 0.58640517760E+01 0.58697050841E+01 0.58818341328E+01
 0.59049475656E+01 0.59449919402E+01 0.60088578375E+01 0.61034536100E+01 0.62344065911E+01
 0.70051159053E+01 0.74513149075E+01 0.79353026186E+01 0.84319895563E+01 0.89089976462E+01
 0.93303230278E+01 0.96610772132E+01 0.98722997381E+01 0.99449220042E+01 0.98723006502E+01
 0.96610791878E+01 0.93303262174E+01 0.89090019447E+01 0.84319944793E+01 0.79353072502E+01
 0.74513181455E+01 0.70051168883E+01 0.66126350153E+01 0.62807309967E+01 0.60088520793E+01
 0.57915809041E+01 0.56213317175E+01 0.54906025113E+01 0.53934185912E+01 0.53258666543E+01
 0.52858780482E+01 0.52726147772E+01 0.52858774083E+01 0.53258659502E+01 0.53934186865E+01
 0.54906041458E+01 0.56213350845E+01 0.57915855218E+01 0.60088568611E+01 0.62807346606E+01
 0.66126365662E+01 0.81441897247E+01 0.89116229450E+01 0.97191759961E+01 0.10518879209E+02
 0.11254320099E+02 0.11869687475E+02 0.12316240038E+02 0.12551869836E+02 0.12551869897E+02
 0.12316240515E+02 0.11869689081E+02 0.11254323556E+02 0.10518884751E+02 0.97191831155E+01
 0.89116305178E+01 0.81441962779E+01 0.74513181455E+01 0.68520853778E+01 0.63516637527E+01
 0.59449876913E+01 0.56213317175E+01 0.53685070724E+01 0.51758707002E+01 0.50358357869E+01
 0.49440091316E+01 0.48984101695E+01 0.48984097742E+01 0.49440082423E+01 0.50358351410E+01
 0.51758710542E+01 0.53685087412E+01 0.56213343291E+01 0.59449901895E+01 0.63516648326E+01
 0.68520839831E+01 0.74513138953E+01 0.10019798338E+02 0.11216064338E+02 0.12439821253E+02
 0.13635409929E+02 0.14721605016E+02 0.15597656854E+02 0.16168417788E+02 0.16366718652E+02
 0.16168416632E+02 0.15597655439E+02 0.14721604710E+02 0.13635411988E+02 0.12439826215E+02
 0.11216071711E+02 0.10019806748E+02 0.89116305178E+01 0.79353072502E+01 0.71109291543E+01
 0.64385725885E+01 0.59049452204E+01 0.54906025113E+01 0.51758707002E+01 0.49445698404E+01
 0.47854791911E+01 0.46920510731E+01 0.46611953533E+01 0.46920504551E+01 0.47854783777E+01
 0.49445694137E+01 0.51758709970E+01 0.54906033272E+01 0.59049457344E+01 0.64385717047E+01
 0.71109259206E+01 0.79353013837E+01 0.89116226942E+01 0.12883164708E+02 0.14698458517E+02
 0.16586310497E+02 0.18406476381E+02 0.19985086218E+02 0.21151373644E+02 0.21771168202E+02
 0.21771166806E+02 0.21151370002E+02 0.19985081800E+02 0.18406472982E+02 0.16586309588E+02
 0.14698460735E+02 0.12883169716E+02 0.11216071711E+02 0.97191831155E+01 0.84319944793E+01
 0.73723540973E+01 0.65309036598E+01 0.58818335385E+01 0.53934185912E+01 0.50358357869E+01
 0.47854791911E+01 0.46262194411E+01 0.45486633441E+01 0.45486632058E+01 0.46262191310E+01
 0.47854789260E+01 0.50358356859E+01 0.53934184852E+01 0.58818328953E+01 0.65309017939E+01
 0.73723504256E+01 0.84319889769E+01 0.97191764521E+01 0.11216065090E+02 0.17294811638E+02
 0.20115457086E+02 0.22951580524E+02 0.25541028857E+02 0.27618809880E+02 0.28962968112E+02
 0.29427858550E+02 0.28962964618E+02 0.27618803779E+02 0.25541021669E+02 0.22951573948E+02
 0.20115452511E+02 0.17294809804E+02 0.14698460735E+02 0.12439826215E+02 0.10518884751E+02
 0.89090019447E+01 0.76163873814E+01 0.66174909326E+01 0.58697055947E+01 0.53258666543E+01
 0.49440091316E+01 0.46920510731E+01 0.45486633441E+01 0.45020991132E+01 0.45486636746E+01
 0.46920515939E+01 0.49440095672E+01 0.53258666341E+01 0.58697047138E+01 0.66174889272E+01
 0.76163842036E+01 0.89089980175E+01 0.10518880790E+02 0.12439823284E+02 0.14698459888E+02
 0.24073707962E+02 0.28178450711E+02 0.32068888527E+02 0.35373582495E+02 0.37770653593E+02
 0.39028883816E+02 0.39028882343E+02 0.37770649355E+02 0.35373576019E+02 0.32068880626E+02
 0.28178442454E+02 0.24073700463E+02 0.20115452511E+02 0.16586309588E+02 0.13635411988E+02
 0.11254323556E+02 0.93303262174E+01 0.78223297742E+01 0.66879324886E+01 0.58640525515E+01
 0.52858780482E+01 0.48984101695E+01 0.46611953533E+01 0.45486632058E+01 0.45486636746E+01
 0.46611965141E+01 0.48984114317E+01 0.52858786878E+01 0.58640520622E+01 0.66879307929E+01
 0.78223273250E+01 0.93303239081E+01 0.11254322379E+02 0.13635412873E+02 0.16586312940E+02
 0.20115458230E+02 0.33729375641E+02 0.39138346073E+02 0.43920647374E+02 0.47651667925E+02
 0.50015876698E+02 0.50824635088E+02 0.50015875941E+02 0.47651665986E+02 0.43920643679E+02
 0.39138340310E+02 0.33729368091E+02 0.28178442454E+02 0.22951573948E+02 0.18406472982E+02
 0.14721604710E+02 0.11869689081E+02 0.96610791878E+01 0.79715167789E+01 0.67338322552E+01
 0.58619384600E+01 0.52726147772E+01 0.48984097742E+01 0.46920504551E+01 0.46262191310E+01
 0.46920515939E+01 0.48984114317E+01 0.52726160221E+01 0.58619385529E+01 0.67338310580E+01
 0.79715149243E+01 0.96610778749E+01 0.11869689583E+02 0.14721607915E+02 0.18406478872E+02
 0.22951581769E+02 0.28178450839E+02 0.46173490836E+02 0.52570875917E+02 0.57804818399E+02
 0.61488419460E+02 0.63384298122E+02 0.63384299320E+02 0.61488422415E+02 0.57804821534E+02
 0.52570877389E+02 0.46173489327E+02 0.39138340310E+02 0.32068880626E+02 0.25541021669E+02
 0.19985081800E+02 0.15597655439E+02 0.12316240515E+02 0.98723006502E+01 0.80498815941E+01
 0.67497575965E+01 0.58619381117E+01 0.52858774083E+01 0.49440082423E+01 0.47854783777E+01
 0.47854789260E+01 0.49440095672E+01 0.52858786878E+01 0.58619385529E+01 0.67497568826E+01
 0.80498802231E+01 0.98722997453E+01 0.12316241397E+02 0.15597658947E+02 0.19985087801E+02
 0.25541029049E+02 0.32068887534E+02 0.39138345001E+02 0.60593572543E+02 0.67359517304E+02
 0.72424478240E+02 0.75535631313E+02 0.76582135723E+02 0.75535635856E+02 0.72424485837E+02
 0.67359525541E+02 0.60593578959E+02 0.52570877389E+02 0.43920643679E+02 0.35373576019E+02
 0.27618803779E+02 0.21151370002E+02 0.16168416632E+02 0.12551869897E+02 0.99449220042E+01
 0.80498810865E+01 0.67338314679E+01 0.58640517760E+01 0.53258659502E+01 0.50358351410E+01
 0.49445694137E+01 0.50358356859E+01 0.53258666341E+01 0.58640520622E+01 0.67338310580E+01
 0.80498802231E+01 0.99449214332E+01 0.12551870572E+02 0.16168419161E+02 0.21151374218E+02
 0.27618808601E+02 0.35373579692E+02 0.43920644525E+02 0.52570874446E+02 0.75568676733E+02
 0.81931468109E+02 0.86207946773E+02 0.88340609275E+02 0.88340611704E+02 0.86207953475E+02
 0.81931477457E+02 0.75568686634E+02 0.67359525541E+02 0.57804821534E+02 0.47651665986E+02
 0.37770649355E+02 0.28962964618E+02 0.21771166806E+02 0.16366718652E+02 0.12551869836E+02
 0.98722997381E+01 0.79715153284E+01 0.66879312882E+01 0.58697050841E+01 0.53934186865E+01
 0.51758710542E+01 0.51758709970E+01 0.53934184852E+01 0.58697047138E+01 0.66879307929E+01
 0.79715149243E+01 0.98722997453E+01 0.12551870572E+02 0.16366720164E+02 0.21771168732E+02
 0.28962966114E+02 0.37770649286E+02 0.47651663336E+02 0.57804815782E+02 0.67359517055E+02
 0.89428171634E+02 0.94690186932E+02 0.97756350101E+02 0.98756943903E+02 0.97756352058E+02
 0.94690190733E+02 0.89428177011E+02 0.81931477457E+02 0.72424485837E+02 0.61488422415E+02
 0.50015875941E+02 0.39028882343E+02 0.29427858550E+02 0.21771168202E+02 0.16168417788E+02
 0.12316240038E+02 0.96610772132E+01 0.78223276174E+01 0.66174899677E+01 0.58818341328E+01
 0.54906041458E+01 0.53685087412E+01 0.54906033272E+01 0.58818328953E+01 0.66174889272E+01
 0.78223273250E+01 0.96610778749E+01 0.12316241397E+02 0.16168419161E+02 0.21771168732E+02
 0.29427857467E+02 0.39028879260E+02 0.50015870973E+02 0.61488416095E+02 0.72424479011E+02
 0.81931470993E+02 0.10073627850E+03 0.10448467077E+03 0.10624264827E+03 0.10624264661E+03
 0.10448466652E+03 0.10073627352E+03 0.94690190733E+02 0.86207953475E+02 0.75535635856E+02
 0.63384299320E+02 0.50824635088E+02 0.39028883816E+02 0.28962968112E+02 0.21151373644E+02
 0.15597656854E+02 0.11869687475E+02 0.93303230278E+01 0.76163849519E+01 0.65309036425E+01
 0.59049475656E+01 0.56213350845E+01 0.56213343291E+01 0.59049457344E+01 0.65309017939E+01
 0.76163842036E+01 0.93303239081E+01 0.11869689583E+02 0.15597658947E+02 0.21151374218E+02
 0.28962966114E+02 0.39028879260E+02 0.50824629148E+02 0.63384293917E+02 0.75535632883E+02
 0.86207953918E+02 0.94690194242E+02 0.10871089811E+03 0.11092352563E+03 0.11159685814E+03
 0.11092351700E+03 0.10871088360E+03 0.10448466652E+03 0.97756352058E+02 0.88340611704E+02
 0.76582135723E+02 0.63384298122E+02 0.50015876698E+02 0.37770653593E+02 0.27618809880E+02
 0.19985086218E+02 0.14721605016E+02 0.11254320099E+02 0.89089976462E+01 0.73723520031E+01
 0.64385741347E+01 0.59449919402E+01 0.57915855218E+01 0.59449901895E+01 0.64385717047E+01
 0.73723504256E+01 0.89089980175E+01 0.11254322379E+02 0.14721607915E+02 0.19985087801E+02
 0.27618808601E+02 0.37770649286E+02 0.50015870973E+02 0.63384293917E+02 0.76582136151E+02
 0.88340618580E+02 0.97756364922E+02 0.10448468245E+03 0.11340245125E+03 0.11440344513E+03
 0.11440343883E+03 0.11340243418E+03 0.11092351700E+03 0.10624264661E+03 0.98756943903E+02
 0.88340609275E+02 0.75535631313E+02 0.61488419460E+02 0.47651667925E+02 0.35373582495E+02
 0.25541028857E+02 0.18406476381E+02 0.13635409929E+02 0.10518879209E+02 0.84319895563E+01
 0.71109281055E+01 0.63516671510E+01 0.60088578375E+01 0.60088568611E+01 0.63516648326E+01
 0.71109259206E+01 0.84319889769E+01 0.10518880790E+02 0.13635412873E+02 0.18406478872E+02
 0.25541029049E+02 0.35373579692E+02 0.47651663336E+02 0.61488416095E+02 0.75535632883E+02
 0.88340618580E+02 0.98756961318E+02 0.10624266944E+03 0.11092354001E+03 0.11556033482E+03
 0.11584466720E+03 0.11556032305E+03 0.11440343883E+03 0.11159685814E+03 0.10624264827E+03
 0.97756350101E+02 0.86207946773E+02 0.72424478240E+02 0.57804818399E+02 0.43920647374E+02
 0.32068888527E+02 0.22951580524E+02 0.16586310497E+02 0.12439821253E+02 0.97191759961E+01
 0.79353026186E+01 0.68520860036E+01 0.62807361411E+01 0.61034536100E+01 0.62807346606E+01
 0.68520839831E+01 0.79353013837E+01 0.97191764521E+01 0.12439823284E+02 0.16586312940E+02
 0.22951581769E+02 0.32068887534E+02 0.43920644525E+02 0.57804815782E+02 0.72424479011E+02
 0.86207953918E+02 0.97756364922E+02 0.10624266944E+03 0.11159688166E+03 0.11440345914E+03
 0.11624718166E+03 0.11624717791E+03 0.11584466720E+03 0.11440344513E+03 0.11092352563E+03
 0.10448467077E+03 0.94690186932E+02 0.81931468109E+02 0.67359517304E+02 0.52570875917E+02
 0.39138346073E+02 0.28178450711E+02 0.20115457086E+02 0.14698458517E+02 0.11216064338E+02
 0.89116229450E+01 0.74513149075E+01 0.66126376485E+01 0.62344070496E+01 0.62344065911E+01
 0.66126365662E+01 0.74513138953E+01 0.89116226942E+01 0.11216065090E+02 0.14698459888E+02
 0.20115458230E+02 0.28178450839E+02 0.39138345001E+02 0.52570874446E+02 0.67359517055E+02
 0.81931470993E+02 0.94690194242E+02 0.10448468245E+03 0.11092354001E+03 0.11440345914E+03
 0.11584467743E+03 0.11624718166E+03 0.11584467743E+03 0.11440345914E+03 0.11092354001E+03
 0.10448468245E+03 0.94690194242E+02 0.81931470993E+02 0.67359517055E+02 0.52570874446E+02
 0.39138345001E+02 0.28178450839E+02 0.20115458230E+02 0.14698459888E+02 0.11216065090E+02
 0.89116226942E+01 0.74513138953E+01 0.66126365662E+01 0.62344065911E+01 0.62344070496E+01
 0.66126376485E+01 0.74513149075E+01 0.89116229450E+01 0.11216064338E+02 0.14698458517E+02
 0.20115457086E+02 0.28178450711E+02 0.39138346073E+02 0.52570875917E+02 0.67359517304E+02
 0.81931468109E+02 0.94690186932E+02 0.10448467077E+03 0.11092352563E+03 0.11440344513E+03
 0.11584466720E+03 0.11624717791E+03 0.11584467743E+03 0.11478728617E+03 0.11212106406E+03
 0.10691496671E+03 0.98548430971E+02 0.87061512933E+02 0.73265781926E+02 0.58563261819E+02
 0.44545542290E+02 0.32539046157E+02 0.23275496277E+02 0.16794435281E+02 0.12572853697E+02
 0.98123053889E+01 0.80024522993E+01 0.69033239009E+01 0.63236352221E+01 0.61437858601E+01
 0.63236367960E+01 0.69033260478E+01 0.80024536106E+01 0.98123049048E+01 0.12572851547E+02
 0.16794432704E+02 0.23275494950E+02 0.32539047132E+02 0.44545545077E+02 0.58563264102E+02
 0.73265780271E+02 0.87061504130E+02 0.98548413714E+02 0.10691494256E+03 0.11212103747E+03
 0.11478726334E+03 0.11584466422E+03 0.11609316316E+03 0.11440345914E+03 0.11212106406E+03
 0.10767043004E+03 0.10038654459E+03 0.90085385491E+02 0.77270850879E+02 0.63082613244E+02
 0.48999353484E+02 0.36418615103E+02 0.26283778070E+02 0.18894703765E+02 0.13944515434E+02
 0.10728135935E+02 0.85808003042E+01 0.72208657259E+01 0.64393869711E+01 0.60866629690E+01
 0.60866640749E+01 0.64393895909E+01 0.72208681804E+01 0.85808009267E+01 0.10728134116E+02
 0.13944512098E+02 0.18894700962E+02 0.26283777815E+02 0.36418618000E+02 0.48999357894E+02
 0.63082615472E+02 0.77270846527E+02 0.90085371384E+02 0.10038652058E+03 0.10767039975E+03
 0.11212103408E+03 0.11440343708E+03 0.11529220071E+03 0.11529220882E+03 0.11092354001E+03
 0.10691496671E+03 0.10038654459E+03 0.91078729605E+02 0.79280022608E+02 0.65873267978E+02
 0.52149398898E+02 0.39459918683E+02 0.28849747722E+02 0.20813099683E+02 0.15248823642E+02
 0.11599257528E+02 0.91523749418E+01 0.75478818797E+01 0.65730769487E+01 0.60581589904E+01
 0.58982086678E+01 0.60581611168E+01 0.65730798695E+01 0.75478837037E+01 0.91523743518E+01
 0.11599254640E+02 0.15248820090E+02 0.20813097816E+02 0.28849749249E+02 0.39459923427E+02
 0.52149404388E+02 0.65873270108E+02 0.79280017348E+02 0.91078714859E+02 0.10038652160E+03
 0.10691494013E+03 0.11092351656E+03 0.11297189943E+03 0.11358451149E+03 0.11297191316E+03
 0.10448468245E+03 0.98548430971E+02 0.90085385491E+02 0.79280022608E+02 0.66814542437E+02
 0.53775536183E+02 0.41393269292E+02 0.30716872171E+02 0.22354804542E+02 0.16373096991E+02
 0.12367943550E+02 0.96773289594E+01 0.78623759758E+01 0.67132452771E+01 0.60513729492E+01
 0.57518520853E+01 0.57518531033E+01 0.60513753900E+01 0.67132476394E+01 0.78623767314E+01
 0.96773274625E+01 0.12367940516E+02 0.16373094241E+02 0.22354804094E+02 0.30716875120E+02
 0.41393274984E+02 0.53775542224E+02 0.66814545513E+02 0.79280019952E+02 0.90085376202E+02
 0.98548416701E+02 0.10448466706E+03 0.10810590006E+03 0.10978237701E+03 0.10978238145E+03
 0.10810591190E+03 0.94690194242E+02 0.87061512933E+02 0.77270850879E+02 0.65873267978E+02
 0.53775536183E+02 0.42055693559E+02 0.31698824825E+02 0.23353592086E+02 0.17201669031E+02
 0.12977387739E+02 0.10114996985E+02 0.81402275389E+01 0.68468632158E+01 0.60586442476E+01
 0.56403950492E+01 0.55100615383E+01 0.56403964079E+01 0.60586461948E+01 0.68468646208E+01
 0.81402275205E+01 0.10114995423E+02 0.12977385421E+02 0.17201667351E+02 0.23353592400E+02
 0.31698827801E+02 0.42055698772E+02 0.53775542255E+02 0.65873273083E+02 0.77270853541E+02
 0.87061512649E+02 0.94690191718E+02 0.99984629527E+02 0.10304110084E+03 0.10403315183E+03
 0.10304110301E+03 0.99984632741E+02 0.81931470993E+02 0.73265781926E+02 0.63082613244E+02
 0.52149398898E+02 0.41393269292E+02 0.31698824825E+02 0.23699310983E+02 0.17641614551E+02
 0.13370889195E+02 0.10429328945E+02 0.83582967181E+01 0.69609217572E+01 0.60726545609E+01
 0.55574494948E+01 0.53228281368E+01 0.53228284934E+01 0.55574504016E+01 0.60726555949E+01
 0.69609224093E+01 0.83582966120E+01 0.10429328011E+02 0.13370887742E+02 0.17641613221E+02
 0.23699310551E+02 0.31698826014E+02 0.41393272513E+02 0.52149404155E+02 0.63082620110E+02
 0.73265789586E+02 0.81931478449E+02 0.88591155002E+02 0.93036322347E+02 0.95242925925E+02
 0.95242924480E+02 0.93036318218E+02 0.88591148776E+02 0.67359517055E+02 0.58563261819E+02
 0.48999353484E+02 0.39459918683E+02 0.30716872171E+02 0.23353592086E+02 0.17641614551E+02
 0.13507080311E+02 0.10593583379E+02 0.84975094148E+01 0.70440363353E+01 0.60872318869E+01
 0.54982961926E+01 0.51824938328E+01 0.50834220539E+01 0.51824937674E+01 0.54982962013E+01
 0.60872321142E+01 0.70440367629E+01 0.84975097565E+01 0.10593583173E+02 0.13507079132E+02
 0.17641612370E+02 0.23353589426E+02 0.30716870155E+02 0.39459918672E+02 0.48999356570E+02
 0.58563268347E+02 0.67359526255E+02 0.74725698703E+02 0.80209433627E+02 0.83564838267E+02
 0.84691260172E+02 0.83564833318E+02 0.80209425016E+02 0.74725688624E+02 0.52570874446E+02
 0.44545542290E+02 0.36418615103E+02 0.28849747722E+02 0.22354804542E+02 0.17201669031E+02
 0.13370889195E+02 0.10593583379E+02 0.85453624888E+01 0.70878137311E+01 0.60978164389E+01
 0.54600232775E+01 0.50842803155E+01 0.49110112894E+01 0.49110109066E+01 0.50842794183E+01
 0.54600224828E+01 0.60978163105E+01 0.70878143919E+01 0.85453633994E+01 0.10593583554E+02
 0.13370887620E+02 0.17201665314E+02 0.22354799201E+02 0.28849742218E+02 0.36418611347E+02
 0.44545541816E+02 0.52570877793E+02 0.59822111077E+02 0.65725379229E+02 0.69865667748E+02
 0.71992249915E+02 0.71992247750E+02 0.69865662026E+02 0.65725371958E+02 0.59822104762E+02
 0.39138345001E+02 0.32539046157E+02 0.26283778070E+02 0.20813099683E+02 0.16373096991E+02
 0.12977387739E+02 0.10429328945E+02 0.84975094148E+01 0.70878137311E+01 0.61016507106E+01