   1   1   1   0
  0.1472283E+02  0.2751073E-09  0.2751073E-09  0.2751073E-09  0.5000000E-15
  1.000000000000000E-004
  CAR 
 Pt-fcc                                  
     71.41263383    -45.90442676  301     12.57085252      1.00000000
    -45.904  0.0000E+00  0.0000E+00
    -45.513  0.0000E+00  0.0000E+00
    -45.122  0.0000E+00  0.0000E+00
    -44.731  0.0000E+00  0.0000E+00
    -44.340  0.0000E+00  0.0000E+00
    -43.949  0.0000E+00  0.0000E+00
    -43.558  0.0000E+00  0.0000E+00
    -43.167  0.0000E+00  0.0000E+00
    -42.776  0.0000E+00  0.0000E+00
    -42.385  0.0000E+00  0.0000E+00
    -41.994  0.0000E+00  0.0000E+00
    -41.603  0.0000E+00  0.0000E+00
    -41.212  0.0000E+00  0.0000E+00
    -40.821  0.3673E-15  0.1436E-15
    -40.430  0.3403E-01  0.1331E-01
    -40.039  0.1147E+00  0.5968E-01
    -39.648  0.0000E+00  0.6000E-01
    -39.256  0.0000E+00  0.6000E-01
    -38.865  0.0000E+00  0.6000E-01
    -38.474  0.0000E+00  0.6000E-01
    -38.083  0.0000E+00  0.6000E-01
    -37.692  0.0000E+00  0.6000E-01
    -37.301  0.0000E+00  0.6000E-01
    -36.910  0.0000E+00  0.6000E-01
    -36.519  0.0000E+00  0.6000E-01
    -36.128  0.0000E+00  0.6000E-01
    -35.737  0.0000E+00  0.6000E-01
    -35.346  0.0000E+00  0.6000E-01
    -34.955  0.0000E+00  0.6000E-01
    -34.564  0.0000E+00  0.6000E-01
    -34.173  0.0000E+00  0.6000E-01
    -33.782  0.0000E+00  0.6000E-01
    -33.391  0.0000E+00  0.6000E-01
    -33.000  0.0000E+00  0.6000E-01
    -32.608  0.0000E+00  0.6000E-01
    -32.217  0.0000E+00  0.6000E-01
    -31.826  0.0000E+00  0.6000E-01
    -31.435  0.0000E+00  0.6000E-01
    -31.044  0.0000E+00  0.6000E-01
    -30.653  0.0000E+00  0.6000E-01
    -30.262  0.0000E+00  0.6000E-01
    -29.871  0.0000E+00  0.6000E-01
    -29.480  0.0000E+00  0.6000E-01
    -29.089  0.0000E+00  0.6000E-01
    -28.698  0.0000E+00  0.6000E-01
    -28.307  0.0000E+00  0.6000E-01
    -27.916  0.0000E+00  0.6000E-01
    -27.525  0.0000E+00  0.6000E-01
    -27.134  0.0000E+00  0.6000E-01
    -26.743  0.0000E+00  0.6000E-01
    -26.352  0.0000E+00  0.6000E-01
    -25.961  0.0000E+00  0.6000E-01
    -25.569  0.0000E+00  0.6000E-01
    -25.178  0.0000E+00  0.6000E-01
    -24.787  0.0000E+00  0.6000E-01
    -24.396  0.0000E+00  0.6000E-01
    -24.005  0.0000E+00  0.6000E-01
    -23.614  0.0000E+00  0.6000E-01
    -23.223  0.0000E+00  0.6000E-01
    -22.832  0.0000E+00  0.6000E-01
    -22.441  0.0000E+00  0.6000E-01
    -22.050  0.0000E+00  0.6000E-01
    -21.659  0.0000E+00  0.6000E-01
    -21.268  0.0000E+00  0.6000E-01
    -20.877  0.0000E+00  0.6000E-01
    -20.486  0.0000E+00  0.6000E-01
    -20.095  0.0000E+00  0.6000E-01
    -19.704  0.0000E+00  0.6000E-01
    -19.313  0.0000E+00  0.6000E-01
    -18.922  0.0000E+00  0.6000E-01
    -18.530  0.0000E+00  0.6000E-01
    -18.139  0.0000E+00  0.6000E-01
    -17.748  0.0000E+00  0.6000E-01
    -17.357  0.0000E+00  0.6000E-01
    -16.966  0.0000E+00  0.6000E-01
    -16.575  0.0000E+00  0.6000E-01
    -16.184  0.0000E+00  0.6000E-01
    -15.793  0.0000E+00  0.6000E-01
    -15.402  0.0000E+00  0.6000E-01
    -15.011  0.0000E+00  0.6000E-01
    -14.620  0.0000E+00  0.6000E-01
    -14.229  0.0000E+00  0.6000E-01
    -13.838  0.0000E+00  0.6000E-01
    -13.447  0.0000E+00  0.6000E-01
    -13.056  0.0000E+00  0.6000E-01
    -12.665  0.0000E+00  0.6000E-01
    -12.274  0.0000E+00  0.6000E-01
    -11.882  0.0000E+00  0.6000E-01
    -11.491  0.0000E+00  0.6000E-01
    -11.100  0.0000E+00  0.6000E-01
    -10.709  0.0000E+00  0.6000E-01
    -10.318  0.0000E+00  0.6000E-01
     -9.927  0.0000E+00  0.6000E-01
     -9.536  0.0000E+00  0.6000E-01
     -9.145  0.0000E+00  0.6000E-01
     -8.754  0.0000E+00  0.6000E-01
     -8.363  0.0000E+00  0.6000E-01
     -7.972  0.0000E+00  0.6000E-01
     -7.581  0.0000E+00  0.6000E-01
     -7.190  0.0000E+00  0.6000E-01
     -6.799  0.0000E+00  0.6000E-01
     -6.408  0.0000E+00  0.6000E-01
     -6.017  0.0000E+00  0.6000E-01
     -5.626  0.0000E+00  0.6000E-01
     -5.235  0.0000E+00  0.6000E-01
     -4.843  0.0000E+00  0.6000E-01
     -4.452  0.0000E+00  0.6000E-01
     -4.061  0.0000E+00  0.6000E-01
     -3.670  0.0000E+00  0.6000E-01
     -3.279  0.0000E+00  0.6000E-01
     -2.888  0.0000E+00  0.6000E-01
     -2.497  0.0000E+00  0.6000E-01
     -2.106  0.0000E+00  0.6000E-01
     -1.715  0.0000E+00  0.6000E-01
     -1.324  0.0000E+00  0.6000E-01
     -0.933  0.0000E+00  0.6000E-01
     -0.542  0.0000E+00  0.6000E-01
     -0.151  0.0000E+00  0.6000E-01
      0.240  0.0000E+00  0.6000E-01
      0.631  0.0000E+00  0.6000E-01
      1.022  0.0000E+00  0.6000E-01
      1.413  0.0000E+00  0.6000E-01
      1.805  0.0000E+00  0.6000E-01
      2.196  0.9933E-04  0.6004E-01
      2.587  0.3111E-03  0.6016E-01
      2.978  0.6818E-03  0.6043E-01
      3.369  0.7014E-03  0.6071E-01
      3.760  0.8644E-03  0.6105E-01
      4.151  0.1278E-02  0.6155E-01
      4.542  0.1634E-02  0.6220E-01
      4.933  0.2155E-02  0.6306E-01
      5.324  0.5685E-02  0.6528E-01
      5.715  0.8679E-02  0.6878E-01
      6.106  0.1323E-01  0.7407E-01
      6.497  0.1297E-01  0.7922E-01
      6.888  0.1212E-01  0.8409E-01
      7.279  0.7862E-02  0.8741E-01
      7.670  0.1264E-01  0.9251E-01
      8.061  0.1260E-01  0.9754E-01
      8.452  0.1470E-01  0.1035E+00
      8.844  0.1771E-01  0.1105E+00
      9.235  0.2022E-01  0.1187E+00
      9.626  0.1203E-01  0.1235E+00
     10.017  0.1085E-01  0.1278E+00
     10.408  0.1156E-01  0.1325E+00
     10.799  0.1294E-01  0.1377E+00
     11.190  0.1374E-01  0.1431E+00
     11.581  0.8362E-02  0.1464E+00
     11.972  0.1096E-01  0.1508E+00
     12.363  0.1453E-01  0.1566E+00
     12.754  0.1734E-01  0.1635E+00
     13.145  0.6577E-02  0.1663E+00
     13.536  0.1640E-02  0.1670E+00
     13.927  0.4497E-02  0.1687E+00
     14.318  0.1260E-02  0.1692E+00
     14.709  0.3455E-02  0.1706E+00
     15.100  0.3024E-02  0.1718E+00
     15.492  0.2448E-02  0.1728E+00
     15.883  0.1310E-02  0.1733E+00
     16.274  0.3602E-02  0.1747E+00
     16.665  0.2135E-02  0.1756E+00
     17.056  0.2410E-02  0.1765E+00
     17.447  0.2263E-02  0.1774E+00
     17.838  0.1436E-02  0.1780E+00
     18.229  0.1965E-02  0.1788E+00
     18.620  0.5008E-02  0.1808E+00
     19.011  0.1266E-02  0.1813E+00
     19.402  0.4808E-02  0.1832E+00
     19.793  0.2427E-02  0.1842E+00
     20.184  0.2879E-02  0.1853E+00
     20.575  0.4416E-02  0.1870E+00
     20.966  0.1426E-02  0.1876E+00
     21.357  0.3890E-02  0.1891E+00
     21.748  0.3787E-02  0.1907E+00
     22.139  0.1225E-02  0.1912E+00
     22.531  0.2077E-02  0.1920E+00
     22.922  0.4143E-02  0.1937E+00
     23.313  0.4366E-02  0.1954E+00
     23.704  0.2265E-02  0.1963E+00
     24.095  0.4841E-02  0.1982E+00
     24.486  0.2308E-02  0.1992E+00
     24.877  0.4324E-02  0.2009E+00
     25.268  0.6057E-02  0.2032E+00
     25.659  0.4138E-02  0.2049E+00
     26.050  0.4663E-02  0.2067E+00
     26.441  0.4558E-02  0.2086E+00
     26.832  0.5974E-02  0.2109E+00
     27.223  0.4321E-02  0.2127E+00
     27.614  0.9259E-02  0.2165E+00
     28.005  0.4426E-02  0.2184E+00
     28.396  0.8807E-02  0.2220E+00
     28.787  0.7185E-02  0.2248E+00
     29.178  0.5645E-02  0.2271E+00
     29.570  0.6941E-02  0.2298E+00
     29.961  0.6292E-02  0.2323E+00
     30.352  0.4107E-02  0.2340E+00
     30.743  0.3193E-02  0.2353E+00
     31.134  0.1662E-02  0.2361E+00
     31.525  0.5722E-02  0.2383E+00
     31.916  0.5236E-02  0.2404E+00
     32.307  0.5418E-02  0.2426E+00
     32.698  0.9997E-02  0.2465E+00
     33.089  0.5288E-02  0.2488E+00
     33.480  0.7069E-02  0.2515E+00
     33.871  0.7085E-02  0.2543E+00
     34.262  0.6244E-02  0.2568E+00
     34.653  0.3826E-02  0.2583E+00
     35.044  0.1985E-02  0.2591E+00
     35.435  0.3038E-02  0.2604E+00
     35.826  0.4843E-02  0.2623E+00
     36.218  0.2604E-02  0.2635E+00
     36.609  0.5518E-02  0.2657E+00
     37.000  0.4630E-02  0.2675E+00
     37.391  0.3572E-02  0.2690E+00
     37.782  0.8692E-02  0.2724E+00
     38.173  0.4665E-02  0.2743E+00
     38.564  0.5134E-02  0.2764E+00
     38.955  0.3249E-02  0.2778E+00
     39.346  0.6169E-02  0.2802E+00
     39.737  0.8259E-02  0.2836E+00
     40.128  0.6534E-02  0.2863E+00
     40.519  0.1136E-01  0.2908E+00
     40.910  0.1152E-01  0.2954E+00
     41.301  0.1021E-01  0.2996E+00
     41.692  0.8374E-02  0.3029E+00
     42.083  0.8935E-02  0.3065E+00
     42.474  0.5316E-02  0.3086E+00
     42.865  0.4764E-02  0.3106E+00
     43.257  0.4775E-02  0.3125E+00
     43.648  0.7467E-02  0.3156E+00
     44.039  0.6831E-02  0.3184E+00
     44.430  0.8809E-02  0.3219E+00
     44.821  0.7392E-02  0.3248E+00
     45.212  0.8260E-02  0.3283E+00
     45.603  0.4529E-02  0.3301E+00
     45.994  0.8924E-02  0.3336E+00
     46.385  0.5454E-02  0.3358E+00
     46.776  0.4150E-02  0.3374E+00
     47.167  0.5588E-02  0.3397E+00
     47.558  0.5216E-02  0.3418E+00
     47.949  0.8815E-02  0.3454E+00
     48.340  0.5003E-02  0.3474E+00
     48.731  0.9289E-02  0.3511E+00
     49.122  0.1115E-01  0.3556E+00
     49.513  0.9429E-02  0.3593E+00
     49.905  0.1154E-01  0.3639E+00
     50.296  0.8308E-02  0.3672E+00
     50.687  0.1062E-01  0.3715E+00
     51.078  0.7897E-02  0.3748E+00
     51.469  0.9562E-02  0.3786E+00
     51.860  0.8651E-02  0.3821E+00
     52.251  0.5350E-02  0.3842E+00
     52.642  0.5014E-02  0.3862E+00
     53.033  0.6727E-02  0.3889E+00
     53.424  0.5837E-01  0.4119E+00
     53.815  0.7687E-02  0.4149E+00
     54.206  0.9471E-02  0.4186E+00
     54.597  0.5270E-02  0.4207E+00
     54.988  0.1112E-01  0.4252E+00
     55.379  0.7811E-02  0.4285E+00
     55.770  0.7797E-02  0.4315E+00
     56.161  0.5981E-02  0.4340E+00
     56.552  0.8471E-02  0.4373E+00
     56.944  0.7904E-02  0.4405E+00
     57.335  0.6273E-02  0.4431E+00
     57.726  0.8933E-02  0.4467E+00
     58.117  0.9234E-02  0.4503E+00
     58.508  0.7981E-02  0.4536E+00
     58.899  0.8566E-02  0.4570E+00
     59.290  0.7830E-02  0.4602E+00
     59.681  0.8992E-02  0.4638E+00
     60.072  0.7424E-02  0.4668E+00
     60.463  0.5354E-02  0.4690E+00
     60.854  0.5446E-02  0.4713E+00
     61.245  0.7165E-02  0.4742E+00
     61.636  0.2199E-02  0.4752E+00
     62.027  0.2507E-02  0.4763E+00
     62.418  0.1868E-02  0.4770E+00
     62.809  0.1830E-02  0.4777E+00
     63.200  0.2150E-02  0.4786E+00
     63.591  0.1517E-02  0.4792E+00
     63.983  0.3446E-03  0.4793E+00
     64.374  0.8828E-03  0.4796E+00
     64.765  0.9906E-11  0.4796E+00
     65.156  0.6009E-03  0.4799E+00
     65.547  0.0000E+00  0.4799E+00
     65.938  0.8850E-08  0.4799E+00
     66.329  0.3069E-03  0.4800E+00
     66.720  0.0000E+00  0.4800E+00
     67.111  0.0000E+00  0.4800E+00
     67.502  0.0000E+00  0.4800E+00
     67.893  0.0000E+00  0.4800E+00
     68.284  0.0000E+00  0.4800E+00
     68.675  0.0000E+00  0.4800E+00
     69.066  0.0000E+00  0.4800E+00
     69.457  0.0000E+00  0.4800E+00
     69.848  0.0000E+00  0.4800E+00
     70.239  0.0000E+00  0.4800E+00
     70.631  0.0000E+00  0.4800E+00
     71.022  0.0000E+00  0.4800E+00
     71.413  0.0000E+00  0.4800E+00
     71.41263383    -45.90442676  301     12.57085252      1.00000000
    -45.904  0.0000E+00  0.0000E+00  0.0000E+00  0.0000E+00  0.0000E+00  0.0000E+00  0.0000E+00  0.0000E+00  0.0000E+00
    -45.513  0.0000E+00  0.0000E+00  0.0000E+00  0.0000E+00  0.0000E+00  0.0000E+00  0.0000E+00  0.0000E+00  0.0000E+00
    -45.122  0.0000E+00  0.0000E+00  0.0000E+00  0.0000E+00  0.0000E+00  0.0000E+00  0.0000E+00  0.0000E+00  0.0000E+00
    -44.731  0.0000E+00  0.0000E+00  0.0000E+00  0.0000E+00  0.0000E+00  0.0000E+00  0.0000E+00  0.0000E+00  0.0000E+00
    -44.340  0.0000E+00  0.0000E+00  0.0000E+00  0.0000E+00  0.0000E+00  0.0000E+00  0.0000E+00  0.0000E+00  0.0000E+00
    -43.949  0.0000E+00  0.0000E+00  0.0000E+00  0.0000E+00  0.0000E+00  0.0000E+00  0.0000E+00  0.0000E+00  0.0000E+00
    -43.558  0.0000E+00  0.0000E+00  0.0000E+00  0.0000E+00  0.0000E+00  0.0000E+00  0.0000E+00  0.0000E+00  0.0000E+00
    -43.167  0.0000E+00  0.0000E+00  0.0000E+00  0.0000E+00  0.0000E+00  0.0000E+00  0.0000E+00  0.0000E+00  0.0000E+00
    -42.776  0.0000E+00  0.0000E+00  0.0000E+00  0.0000E+00  0.0000E+00  0.0000E+00  0.0000E+00  0.0000E+00  0.0000E+00
    -42.385  0.0000E+00  0.0000E+00  0.0000E+00  0.0000E+00  0.0000E+00  0.0000E+00  0.0000E+00  0.0000E+00  0.0000E+00
    -41.994  0.0000E+00  0.0000E+00  0.0000E+00  0.0000E+00  0.0000E+00  0.0000E+00  0.0000E+00  0.0000E+00  0.0000E+00
    -41.603  0.0000E+00  0.0000E+00  0.0000E+00  0.0000E+00  0.0000E+00  0.0000E+00  0.0000E+00  0.0000E+00  0.0000E+00
    -41.212  0.0000E+00  0.0000E+00  0.0000E+00  0.0000E+00  0.0000E+00  0.0000E+00  0.0000E+00  0.0000E+00  0.0000E+00
    -40.821  0.9442E-19  0.1201E-13  0.1201E-13  0.1201E-13  0.5042E-19  0.5042E-19  0.3742E-19  0.5042E-19  0.3742E-19
    -40.430  0.1191E-03  0.1116E+01  0.1116E+01  0.1116E+01  0.3767E-04  0.3767E-04  0.1745E-04  0.3767E-04  0.1745E-04
    -40.039  0.2048E-03  0.3795E+01  0.3795E+01  0.3795E+01  0.1422E-03  0.1422E-03  0.7721E-04  0.1422E-03  0.7721E-04
    -39.648  0.0000E+00  0.0000E+00  0.0000E+00  0.0000E+00  0.0000E+00  0.0000E+00  0.0000E+00  0.0000E+00  0.0000E+00
    -39.256  0.0000E+00  0.0000E+00  0.0000E+00  0.0000E+00  0.0000E+00  0.0000E+00  0.0000E+00  0.0000E+00  0.0000E+00
    -38.865  0.0000E+00  0.0000E+00  0.0000E+00  0.0000E+00  0.0000E+00  0.0000E+00  0.0000E+00  0.0000E+00  0.0000E+00
    -38.474  0.0000E+00  0.0000E+00  0.0000E+00  0.0000E+00  0.0000E+00  0.0000E+00  0.0000E+00  0.0000E+00  0.0000E+00
    -38.083  0.0000E+00  0.0000E+00  0.0000E+00  0.0000E+00  0.0000E+00  0.0000E+00  0.0000E+00  0.0000E+00  0.0000E+00
    -37.692  0.0000E+00  0.0000E+00  0.0000E+00  0.0000E+00  0.0000E+00  0.0000E+00  0.0000E+00  0.0000E+00  0.0000E+00
    -37.301  0.0000E+00  0.0000E+00  0.0000E+00  0.0000E+00  0.0000E+00  0.0000E+00  0.0000E+00  0.0000E+00  0.0000E+00
    -36.910  0.0000E+00  0.0000E+00  0.0000E+00  0.0000E+00  0.0000E+00  0.0000E+00  0.0000E+00  0.0000E+00  0.0000E+00
    -36.519  0.0000E+00  0.0000E+00  0.0000E+00  0.0000E+00  0.0000E+00  0.0000E+00  0.0000E+00  0.0000E+00  0.0000E+00
    -36.128  0.0000E+00  0.0000E+00  0.0000E+00  0.0000E+00  0.0000E+00  0.0000E+00  0.0000E+00  0.0000E+00  0.0000E+00
    -35.737  0.0000E+00  0.0000E+00  0.0000E+00  0.0000E+00  0.0000E+00  0.0000E+00  0.0000E+00  0.0000E+00  0.0000E+00
    -35.346  0.0000E+00  0.0000E+00  0.0000E+00  0.0000E+00  0.0000E+00  0.0000E+00  0.0000E+00  0.0000E+00  0.0000E+00
    -34.955  0.0000E+00  0.0000E+00  0.0000E+00  0.0000E+00  0.0000E+00  0.0000E+00  0.0000E+00  0.0000E+00  0.0000E+00
    -34.564  0.0000E+00  0.0000E+00  0.0000E+00  0.0000E+00  0.0000E+00  0.0000E+00  0.0000E+00  0.0000E+00  0.0000E+00
    -34.173  0.0000E+00  0.0000E+00  0.0000E+00  0.0000E+00  0.0000E+00  0.0000E+00  0.0000E+00  0.0000E+00  0.0000E+00
    -33.782  0.0000E+00  0.0000E+00  0.0000E+00  0.0000E+00  0.0000E+00  0.0000E+00  0.0000E+00  0.0000E+00  0.0000E+00
    -33.391  0.0000E+00  0.0000E+00  0.0000E+00  0.0000E+00  0.0000E+00  0.0000E+00  0.0000E+00  0.0000E+00  0.0000E+00
    -33.000  0.0000E+00  0.0000E+00  0.0000E+00  0.0000E+00  0.0000E+00  0.0000E+00  0.0000E+00  0.0000E+00  0.0000E+00
    -32.608  0.0000E+00  0.0000E+00  0.0000E+00  0.0000E+00  0.0000E+00  0.0000E+00  0.0000E+00  0.0000E+00  0.0000E+00
    -32.217  0.0000E+00  0.0000E+00  0.0000E+00  0.0000E+00  0.0000E+00  0.0000E+00  0.0000E+00  0.0000E+00  0.0000E+00
    -31.826  0.0000E+00  0.0000E+00  0.0000E+00  0.0000E+00  0.0000E+00  0.0000E+00  0.0000E+00  0.0000E+00  0.0000E+00
    -31.435  0.0000E+00  0.0000E+00  0.0000E+00  0.0000E+00  0.0000E+00  0.0000E+00  0.0000E+00  0.0000E+00  0.0000E+00
    -31.044  0.0000E+00  0.0000E+00  0.0000E+00  0.0000E+00  0.0000E+00  0.0000E+00  0.0000E+00  0.0000E+00  0.0000E+00
    -30.653  0.0000E+00  0.0000E+00  0.0000E+00  0.0000E+00  0.0000E+00  0.0000E+00  0.0000E+00  0.0000E+00  0.0000E+00
    -30.262  0.0000E+00  0.0000E+00  0.0000E+00  0.0000E+00  0.0000E+00  0.0000E+00  0.0000E+00  0.0000E+00  0.0000E+00
    -29.871  0.0000E+00  0.0000E+00  0.0000E+00  0.0000E+00  0.0000E+00  0.0000E+00  0.0000E+00  0.0000E+00  0.0000E+00
    -29.480  0.0000E+00  0.0000E+00  0.0000E+00  0.0000E+00  0.0000E+00  0.0000E+00  0.0000E+00  0.0000E+00  0.0000E+00
    -29.089  0.0000E+00  0.0000E+00  0.0000E+00  0.0000E+00  0.0000E+00  0.0000E+00  0.0000E+00  0.0000E+00  0.0000E+00
    -28.698  0.0000E+00  0.0000E+00  0.0000E+00  0.0000E+00  0.0000E+00  0.0000E+00  0.0000E+00  0.0000E+00  0.0000E+00
    -28.307  0.0000E+00  0.0000E+00  0.0000E+00  0.0000E+00  0.0000E+00  0.0000E+00  0.0000E+00  0.0000E+00  0.0000E+00
    -27.916  0.0000E+00  0.0000E+00  0.0000E+00  0.0000E+00  0.0000E+00  0.0000E+00  0.0000E+00  0.0000E+00  0.0000E+00
    -27.525  0.0000E+00  0.0000E+00  0.0000E+00  0.0000E+00  0.0000E+00  0.0000E+00  0.0000E+00  0.0000E+00  0.0000E+00
    -27.134  0.0000E+00  0.0000E+00  0.0000E+00  0.0000E+00  0.0000E+00  0.0000E+00  0.0000E+00  0.0000E+00  0.0000E+00
    -26.743  0.0000E+00  0.0000E+00  0.0000E+00  0.0000E+00  0.0000E+00  0.0000E+00  0.0000E+00  0.0000E+00  0.0000E+00
    -26.352  0.0000E+00  0.0000E+00  0.0000E+00  0.0000E+00  0.0000E+00  0.0000E+00  0.0000E+00  0.0000E+00  0.0000E+00
    -25.961  0.0000E+00  0.0000E+00  0.0000E+00  0.0000E+00  0.0000E+00  0.0000E+00  0.0000E+00  0.0000E+00  0.0000E+00
    -25.569  0.0000E+00  0.0000E+00  0.0000E+00  0.0000E+00  0.0000E+00  0.0000E+00  0.0000E+00  0.0000E+00  0.0000E+00
    -25.178  0.0000E+00  0.0000E+00  0.0000E+00  0.0000E+00  0.0000E+00  0.0000E+00  0.0000E+00  0.0000E+00  0.0000E+00
    -24.787  0.0000E+00  0.0000E+00  0.0000E+00  0.0000E+00  0.0000E+00  0.0000E+00  0.0000E+00  0.0000E+00  0.0000E+00
    -24.396  0.0000E+00  0.0000E+00  0.0000E+00  0.0000E+00  0.0000E+00  0.0000E+00  0.0000E+00  0.0000E+00  0.0000E+00
    -24.005  0.0000E+00  0.0000E+00  0.0000E+00  0.0000E+00  0.0000E+00  0.0000E+00  0.0000E+00  0.0000E+00  0.0000E+00
    -23.614  0.0000E+00  0.0000E+00  0.0000E+00  0.0000E+00  0.0000E+00  0.0000E+00  0.0000E+00  0.0000E+00  0.0000E+00
    -23.223  0.0000E+00  0.0000E+00  0.0000E+00  0.0000E+00  0.0000E+00  0.0000E+00  0.0000E+00  0.0000E+00  0.0000E+00
    -22.832  0.0000E+00  0.0000E+00  0.0000E+00  0.0000E+00  0.0000E+00  0.0000E+00  0.0000E+00  0.0000E+00  0.0000E+00
    -22.441  0.0000E+00  0.0000E+00  0.0000E+00  0.0000E+00  0.0000E+00  0.0000E+00  0.0000E+00  0.0000E+00  0.0000E+00
    -22.050  0.0000E+00  0.0000E+00  0.0000E+00  0.0000E+00  0.0000E+00  0.0000E+00  0.0000E+00  0.0000E+00  0.0000E+00
    -21.659  0.0000E+00  0.0000E+00  0.0000E+00  0.0000E+00  0.0000E+00  0.0000E+00  0.0000E+00  0.0000E+00  0.0000E+00
    -21.268  0.0000E+00  0.0000E+00  0.0000E+00  0.0000E+00  0.0000E+00  0.0000E+00  0.0000E+00  0.0000E+00  0.0000E+00
    -20.877  0.0000E+00  0.0000E+00  0.0000E+00  0.0000E+00  0.0000E+00  0.0000E+00  0.0000E+00  0.0000E+00  0.0000E+00
    -20.486  0.0000E+00  0.0000E+00  0.0000E+00  0.0000E+00  0.0000E+00  0.0000E+00  0.0000E+00  0.0000E+00  0.0000E+00
    -20.095  0.0000E+00  0.0000E+00  0.0000E+00  0.0000E+00  0.0000E+00  0.0000E+00  0.0000E+00  0.0000E+00  0.0000E+00
    -19.704  0.0000E+00  0.0000E+00  0.0000E+00  0.0000E+00  0.0000E+00  0.0000E+00  0.0000E+00  0.0000E+00  0.0000E+00
    -19.313  0.0000E+00  0.0000E+00  0.0000E+00  0.0000E+00  0.0000E+00  0.0000E+00  0.0000E+00  0.0000E+00  0.0000E+00
    -18.922  0.0000E+00  0.0000E+00  0.0000E+00  0.0000E+00  0.0000E+00  0.0000E+00  0.0000E+00  0.0000E+00  0.0000E+00
    -18.530  0.0000E+00  0.0000E+00  0.0000E+00  0.0000E+00  0.0000E+00  0.0000E+00  0.0000E+00  0.0000E+00  0.0000E+00
    -18.139  0.0000E+00  0.0000E+00  0.0000E+00  0.0000E+00  0.0000E+00  0.0000E+00  0.0000E+00  0.0000E+00  0.0000E+00
    -17.748  0.0000E+00  0.0000E+00  0.0000E+00  0.0000E+00  0.0000E+00  0.0000E+00  0.0000E+00  0.0000E+00  0.0000E+00
    -17.357  0.0000E+00  0.0000E+00  0.0000E+00  0.0000E+00  0.0000E+00  0.0000E+00  0.0000E+00  0.0000E+00  0.0000E+00
    -16.966  0.0000E+00  0.0000E+00  0.0000E+00  0.0000E+00  0.0000E+00  0.0000E+00  0.0000E+00  0.0000E+00  0.0000E+00
    -16.575  0.0000E+00  0.0000E+00  0.0000E+00  0.0000E+00  0.0000E+00  0.0000E+00  0.0000E+00  0.0000E+00  0.0000E+00
    -16.184  0.0000E+00  0.0000E+00  0.0000E+00  0.0000E+00  0.0000E+00  0.0000E+00  0.0000E+00  0.0000E+00  0.0000E+00
    -15.793  0.0000E+00  0.0000E+00  0.0000E+00  0.0000E+00  0.0000E+00  0.0000E+00  0.0000E+00  0.0000E+00  0.0000E+00
    -15.402  0.0000E+00  0.0000E+00  0.0000E+00  0.0000E+00  0.0000E+00  0.0000E+00  0.0000E+00  0.0000E+00  0.0000E+00
    -15.011  0.0000E+00  0.0000E+00  0.0000E+00  0.0000E+00  0.0000E+00  0.0000E+00  0.0000E+00  0.0000E+00  0.0000E+00
    -14.620  0.0000E+00  0.0000E+00  0.0000E+00  0.0000E+00  0.0000E+00  0.0000E+00  0.0000E+00  0.0000E+00  0.0000E+00
    -14.229  0.0000E+00  0.0000E+00  0.0000E+00  0.0000E+00  0.0000E+00  0.0000E+00  0.0000E+00  0.0000E+00  0.0000E+00
    -13.838  0.0000E+00  0.0000E+00  0.0000E+00  0.0000E+00  0.0000E+00  0.0000E+00  0.0000E+00  0.0000E+00  0.0000E+00
    -13.447  0.0000E+00  0.0000E+00  0.0000E+00  0.0000E+00  0.0000E+00  0.0000E+00  0.0000E+00  0.0000E+00  0.0000E+00
    -13.056  0.0000E+00  0.0000E+00  0.0000E+00  0.0000E+00  0.0000E+00  0.0000E+00  0.0000E+00  0.0000E+00  0.0000E+00
    -12.665  0.0000E+00  0.0000E+00  0.0000E+00  0.0000E+00  0.0000E+00  0.0000E+00  0.0000E+00  0.0000E+00  0.0000E+00
    -12.274  0.0000E+00  0.0000E+00  0.0000E+00  0.0000E+00  0.0000E+00  0.0000E+00  0.0000E+00  0.0000E+00  0.0000E+00
    -11.882  0.0000E+00  0.0000E+00  0.0000E+00  0.0000E+00  0.0000E+00  0.0000E+00  0.0000E+00  0.0000E+00  0.0000E+00
    -11.491  0.0000E+00  0.0000E+00  0.0000E+00  0.0000E+00  0.0000E+00  0.0000E+00  0.0000E+00  0.0000E+00  0.0000E+00
    -11.100  0.0000E+00  0.0000E+00  0.0000E+00  0.0000E+00  0.0000E+00  0.0000E+00  0.0000E+00  0.0000E+00  0.0000E+00
    -10.709  0.0000E+00  0.0000E+00  0.0000E+00  0.0000E+00  0.0000E+00  0.0000E+00  0.0000E+00  0.0000E+00  0.0000E+00
    -10.318  0.0000E+00  0.0000E+00  0.0000E+00  0.0000E+00  0.0000E+00  0.0000E+00  0.0000E+00  0.0000E+00  0.0000E+00
     -9.927  0.0000E+00  0.0000E+00  0.0000E+00  0.0000E+00  0.0000E+00  0.0000E+00  0.0000E+00  0.0000E+00  0.0000E+00
     -9.536  0.0000E+00  0.0000E+00  0.0000E+00  0.0000E+00  0.0000E+00  0.0000E+00  0.0000E+00  0.0000E+00  0.0000E+00
     -9.145  0.0000E+00  0.0000E+00  0.0000E+00  0.0000E+00  0.0000E+00  0.0000E+00  0.0000E+00  0.0000E+00  0.0000E+00
     -8.754  0.0000E+00  0.0000E+00  0.0000E+00  0.0000E+00  0.0000E+00  0.0000E+00  0.0000E+00  0.0000E+00  0.0000E+00
     -8.363  0.0000E+00  0.0000E+00  0.0000E+00  0.0000E+00  0.0000E+00  0.0000E+00  0.0000E+00  0.0000E+00  0.0000E+00
     -7.972  0.0000E+00  0.0000E+00  0.0000E+00  0.0000E+00  0.0000E+00  0.0000E+00  0.0000E+00  0.0000E+00  0.0000E+00
     -7.581  0.0000E+00  0.0000E+00  0.0000E+00  0.0000E+00  0.0000E+00  0.0000E+00  0.0000E+00  0.0000E+00  0.0000E+00
     -7.190  0.0000E+00  0.0000E+00  0.0000E+00  0.0000E+00  0.0000E+00  0.0000E+00  0.0000E+00  0.0000E+00  0.0000E+00
     -6.799  0.0000E+00  0.0000E+00  0.0000E+00  0.0000E+00  0.0000E+00  0.0000E+00  0.0000E+00  0.0000E+00  0.0000E+00
     -6.408  0.0000E+00  0.0000E+00  0.0000E+00  0.0000E+00  0.0000E+00  0.0000E+00  0.0000E+00  0.0000E+00  0.0000E+00
     -6.017  0.0000E+00  0.0000E+00  0.0000E+00  0.0000E+00  0.0000E+00  0.0000E+00  0.0000E+00  0.0000E+00  0.0000E+00
     -5.626  0.0000E+00  0.0000E+00  0.0000E+00  0.0000E+00  0.0000E+00  0.0000E+00  0.0000E+00  0.0000E+00  0.0000E+00
     -5.235  0.0000E+00  0.0000E+00  0.0000E+00  0.0000E+00  0.0000E+00  0.0000E+00  0.0000E+00  0.0000E+00  0.0000E+00
     -4.843  0.0000E+00  0.0000E+00  0.0000E+00  0.0000E+00  0.0000E+00  0.0000E+00  0.0000E+00  0.0000E+00  0.0000E+00
     -4.452  0.0000E+00  0.0000E+00  0.0000E+00  0.0000E+00  0.0000E+00  0.0000E+00  0.0000E+00  0.0000E+00  0.0000E+00
     -4.061  0.0000E+00  0.0000E+00  0.0000E+00  0.0000E+00  0.0000E+00  0.0000E+00  0.0000E+00  0.0000E+00  0.0000E+00
     -3.670  0.0000E+00  0.0000E+00  0.0000E+00  0.0000E+00  0.0000E+00  0.0000E+00  0.0000E+00  0.0000E+00  0.0000E+00
     -3.279  0.0000E+00  0.0000E+00  0.0000E+00  0.0000E+00  0.0000E+00  0.0000E+00  0.0000E+00  0.0000E+00  0.0000E+00
     -2.888  0.0000E+00  0.0000E+00  0.0000E+00  0.0000E+00  0.0000E+00  0.0000E+00  0.0000E+00  0.0000E+00  0.0000E+00
     -2.497  0.0000E+00  0.0000E+00  0.0000E+00  0.0000E+00  0.0000E+00  0.0000E+00  0.0000E+00  0.0000E+00  0.0000E+00
     -2.106  0.0000E+00  0.0000E+00  0.0000E+00  0.0000E+00  0.0000E+00  0.0000E+00  0.0000E+00  0.0000E+00  0.0000E+00
     -1.715  0.0000E+00  0.0000E+00  0.0000E+00  0.0000E+00  0.0000E+00  0.0000E+00  0.0000E+00  0.0000E+00  0.0000E+00
     -1.324  0.0000E+00  0.0000E+00  0.0000E+00  0.0000E+00  0.0000E+00  0.0000E+00  0.0000E+00  0.0000E+00  0.0000E+00
     -0.933  0.0000E+00  0.0000E+00  0.0000E+00  0.0000E+00  0.0000E+00  0.0000E+00  0.0000E+00  0.0000E+00  0.0000E+00
     -0.542  0.0000E+00  0.0000E+00  0.0000E+00  0.0000E+00  0.0000E+00  0.0000E+00  0.0000E+00  0.0000E+00  0.0000E+00
     -0.151  0.0000E+00  0.0000E+00  0.0000E+00  0.0000E+00  0.0000E+00  0.0000E+00  0.0000E+00  0.0000E+00  0.0000E+00
      0.240  0.0000E+00  0.0000E+00  0.0000E+00  0.0000E+00  0.0000E+00  0.0000E+00  0.0000E+00  0.0000E+00  0.0000E+00
      0.631  0.0000E+00  0.0000E+00  0.0000E+00  0.0000E+00  0.0000E+00  0.0000E+00  0.0000E+00  0.0000E+00  0.0000E+00
      1.022  0.0000E+00  0.0000E+00  0.0000E+00  0.0000E+00  0.0000E+00  0.0000E+00  0.0000E+00  0.0000E+00  0.0000E+00
      1.413  0.0000E+00  0.0000E+00  0.0000E+00  0.0000E+00  0.0000E+00  0.0000E+00  0.0000E+00  0.0000E+00  0.0000E+00
      1.805  0.0000E+00  0.0000E+00  0.0000E+00  0.0000E+00  0.0000E+00  0.0000E+00  0.0000E+00  0.0000E+00  0.0000E+00
      2.196  0.4057E-02  0.4723E-05  0.4723E-05  0.4723E-05  0.2735E-06  0.2735E-06  0.1224E-13  0.2735E-06  0.1224E-13
      2.587  0.1251E-01  0.5379E-04  0.5379E-04  0.5379E-04  0.5883E-05  0.5883E-05  0.4554E-05  0.5883E-05  0.4554E-05
      2.978  0.2670E-01  0.2383E-03  0.2383E-03  0.2383E-03  0.7114E-04  0.7114E-04  0.4701E-04  0.7114E-04  0.4701E-04
      3.369  0.2666E-01  0.3568E-03  0.3568E-03  0.3568E-03  0.2198E-03  0.2198E-03  0.7176E-04  0.2198E-03  0.7176E-04
      3.760  0.3166E-01  0.5749E-03  0.5749E-03  0.5749E-03  0.4459E-03  0.4459E-03  0.2867E-03  0.4459E-03  0.2867E-03
      4.151  0.4485E-01  0.9718E-03  0.9718E-03  0.9718E-03  0.1429E-02  0.1429E-02  0.5454E-03  0.1429E-02  0.5454E-03
      4.542  0.5306E-01  0.1419E-02  0.1419E-02  0.1419E-02  0.3536E-02  0.3536E-02  0.1228E-02  0.3536E-02  0.1228E-02
      4.933  0.6171E-01  0.1838E-02  0.1838E-02  0.1838E-02  0.9334E-02  0.9334E-02  0.2393E-02  0.9334E-02  0.2393E-02
      5.324  0.1093E+00  0.2757E-02  0.2757E-02  0.2757E-02  0.5686E-01  0.5686E-01  0.1637E-01  0.5686E-01  0.1637E-01
      5.715  0.1178E+00  0.4315E-02  0.4315E-02  0.4315E-02  0.6399E-01  0.6399E-01  0.9640E-01  0.6399E-01  0.9640E-01
      6.106  0.1099E+00  0.5244E-02  0.5244E-02  0.5244E-02  0.1547E+00  0.1547E+00  0.1340E+00  0.1547E+00  0.1340E+00
      6.497  0.7219E-01  0.5364E-02  0.5364E-02  0.5364E-02  0.1899E+00  0.1899E+00  0.1105E+00  0.1899E+00  0.1105E+00
      6.888  0.3586E-01  0.6003E-02  0.6003E-02  0.6003E-02  0.1756E+00  0.1756E+00  0.1304E+00  0.1756E+00  0.1304E+00
      7.279  0.6053E-02  0.5446E-02  0.5446E-02  0.5446E-02  0.1153E+00  0.1153E+00  0.9073E-01  0.1153E+00  0.9073E-01
      7.670  0.9213E-02  0.8694E-02  0.8694E-02  0.8694E-02  0.1609E+00  0.1609E+00  0.1877E+00  0.1609E+00  0.1877E+00
      8.061  0.1362E-01  0.7094E-02  0.7094E-02  0.7094E-02  0.2029E+00  0.2029E+00  0.1420E+00  0.2029E+00  0.1420E+00
      8.452  0.1918E-01  0.9738E-02  0.9738E-02  0.9738E-02  0.2460E+00  0.2460E+00  0.1532E+00  0.2460E+00  0.1532E+00
      8.844  0.2651E-01  0.1237E-01  0.1237E-01  0.1237E-01  0.2698E+00  0.2698E+00  0.2297E+00  0.2698E+00  0.2297E+00
      9.235  0.2195E-01  0.1086E-01  0.1086E-01  0.1086E-01  0.3478E+00  0.3478E+00  0.2456E+00  0.3478E+00  0.2456E+00
      9.626  0.1469E-01  0.8692E-02  0.8692E-02  0.8692E-02  0.1806E+00  0.1806E+00  0.1748E+00  0.1806E+00  0.1748E+00
     10.017  0.1318E-01  0.8096E-02  0.8096E-02  0.8096E-02  0.1339E+00  0.1339E+00  0.2047E+00  0.1339E+00  0.2047E+00
     10.408  0.7371E-02  0.4812E-02  0.4812E-02  0.4812E-02  0.1074E+00  0.1074E+00  0.3082E+00  0.1074E+00  0.3082E+00
     10.799  0.1064E-01  0.5987E-02  0.5987E-02  0.5987E-02  0.9755E-01  0.9755E-01  0.3768E+00  0.9755E-01  0.3768E+00
     11.190  0.1309E-01  0.5375E-02  0.5375E-02  0.5375E-02  0.1545E+00  0.1545E+00  0.3413E+00  0.1545E+00  0.3413E+00
     11.581  0.1929E-02  0.4126E-02  0.4126E-02  0.4126E-02  0.1094E+00  0.1094E+00  0.1891E+00  0.1094E+00  0.1891E+00
     11.972  0.8964E-02  0.3335E-02  0.3335E-02  0.3335E-02  0.1564E+00  0.1564E+00  0.2422E+00  0.1564E+00  0.2422E+00
     12.363  0.6124E-02  0.2169E-02  0.2169E-02  0.2169E-02  0.2664E+00  0.2664E+00  0.2618E+00  0.2664E+00  0.2618E+00
     12.754  0.8394E-02  0.2722E-02  0.2722E-02  0.2722E-02  0.3903E+00  0.3903E+00  0.2124E+00  0.3903E+00  0.2124E+00
     13.145  0.1136E-01  0.2009E-02  0.2009E-02  0.2009E-02  0.1538E+00  0.1538E+00  0.6206E-01  0.1538E+00  0.6206E-01
     13.536  0.6061E-02  0.2554E-02  0.2554E-02  0.2554E-02  0.2248E-01  0.2248E-01  0.2298E-01  0.2248E-01  0.2298E-01
     13.927  0.2743E-01  0.6422E-02  0.6422E-02  0.6422E-02  0.6664E-01  0.6664E-01  0.5411E-01  0.6664E-01  0.5411E-01
     14.318  0.8600E-02  0.2467E-02  0.2467E-02  0.2467E-02  0.1719E-01  0.1719E-01  0.1247E-01  0.1719E-01  0.1247E-01
     14.709  0.2950E-01  0.6141E-02  0.6141E-02  0.6141E-02  0.4668E-01  0.4668E-01  0.3598E-01  0.4668E-01  0.3598E-01
     15.100  0.1837E-01  0.9200E-02  0.9200E-02  0.9200E-02  0.3514E-01  0.3514E-01  0.2181E-01  0.3514E-01  0.2181E-01