   1   1   1   0
  0.1328735E+02  0.2658589E-09  0.2658589E-09  0.2658589E-09  0.5000000E-15
  1.000000000000000E-004
  CAR 
 Pt-fcc                                  
     77.11933361    -44.47268720  301     14.77727658      1.00000000
    -44.473  0.0000E+00  0.0000E+00
    -44.067  0.0000E+00  0.0000E+00
    -43.662  0.0000E+00  0.0000E+00
    -43.257  0.0000E+00  0.0000E+00
    -42.851  0.0000E+00  0.0000E+00
    -42.446  0.0000E+00  0.0000E+00
    -42.041  0.0000E+00  0.0000E+00
    -41.636  0.0000E+00  0.0000E+00
    -41.230  0.0000E+00  0.0000E+00
    -40.825  0.0000E+00  0.0000E+00
    -40.420  0.0000E+00  0.0000E+00
    -40.014  0.0000E+00  0.0000E+00
    -39.609  0.0000E+00  0.0000E+00
    -39.204  0.4730E-16  0.1917E-16
    -38.798  0.2098E-01  0.8503E-02
    -38.393  0.7192E-01  0.3979E-01
    -37.988  0.4383E-01  0.6000E-01
    -37.582  0.0000E+00  0.6000E-01
    -37.177  0.0000E+00  0.6000E-01
    -36.772  0.0000E+00  0.6000E-01
    -36.367  0.0000E+00  0.6000E-01
    -35.961  0.0000E+00  0.6000E-01
    -35.556  0.0000E+00  0.6000E-01
    -35.151  0.0000E+00  0.6000E-01
    -34.745  0.0000E+00  0.6000E-01
    -34.340  0.0000E+00  0.6000E-01
    -33.935  0.0000E+00  0.6000E-01
    -33.529  0.0000E+00  0.6000E-01
    -33.124  0.0000E+00  0.6000E-01
    -32.719  0.0000E+00  0.6000E-01
    -32.313  0.0000E+00  0.6000E-01
    -31.908  0.0000E+00  0.6000E-01
    -31.503  0.0000E+00  0.6000E-01
    -31.098  0.0000E+00  0.6000E-01
    -30.692  0.0000E+00  0.6000E-01
    -30.287  0.0000E+00  0.6000E-01
    -29.882  0.0000E+00  0.6000E-01
    -29.476  0.0000E+00  0.6000E-01
    -29.071  0.0000E+00  0.6000E-01
    -28.666  0.0000E+00  0.6000E-01
    -28.260  0.0000E+00  0.6000E-01
    -27.855  0.0000E+00  0.6000E-01
    -27.450  0.0000E+00  0.6000E-01
    -27.044  0.0000E+00  0.6000E-01
    -26.639  0.0000E+00  0.6000E-01
    -26.234  0.0000E+00  0.6000E-01
    -25.829  0.0000E+00  0.6000E-01
    -25.423  0.0000E+00  0.6000E-01
    -25.018  0.0000E+00  0.6000E-01
    -24.613  0.0000E+00  0.6000E-01
    -24.207  0.0000E+00  0.6000E-01
    -23.802  0.0000E+00  0.6000E-01
    -23.397  0.0000E+00  0.6000E-01
    -22.991  0.0000E+00  0.6000E-01
    -22.586  0.0000E+00  0.6000E-01
    -22.181  0.0000E+00  0.6000E-01
    -21.776  0.0000E+00  0.6000E-01
    -21.370  0.0000E+00  0.6000E-01
    -20.965  0.0000E+00  0.6000E-01
    -20.560  0.0000E+00  0.6000E-01
    -20.154  0.0000E+00  0.6000E-01
    -19.749  0.0000E+00  0.6000E-01
    -19.344  0.0000E+00  0.6000E-01
    -18.938  0.0000E+00  0.6000E-01
    -18.533  0.0000E+00  0.6000E-01
    -18.128  0.0000E+00  0.6000E-01
    -17.722  0.0000E+00  0.6000E-01
    -17.317  0.0000E+00  0.6000E-01
    -16.912  0.0000E+00  0.6000E-01
    -16.507  0.0000E+00  0.6000E-01
    -16.101  0.0000E+00  0.6000E-01
    -15.696  0.0000E+00  0.6000E-01
    -15.291  0.0000E+00  0.6000E-01
    -14.885  0.0000E+00  0.6000E-01
    -14.480  0.0000E+00  0.6000E-01
    -14.075  0.0000E+00  0.6000E-01
    -13.669  0.0000E+00  0.6000E-01
    -13.264  0.0000E+00  0.6000E-01
    -12.859  0.0000E+00  0.6000E-01
    -12.453  0.0000E+00  0.6000E-01
    -12.048  0.0000E+00  0.6000E-01
    -11.643  0.0000E+00  0.6000E-01
    -11.238  0.0000E+00  0.6000E-01
    -10.832  0.0000E+00  0.6000E-01
    -10.427  0.0000E+00  0.6000E-01
    -10.022  0.0000E+00  0.6000E-01
     -9.616  0.0000E+00  0.6000E-01
     -9.211  0.0000E+00  0.6000E-01
     -8.806  0.0000E+00  0.6000E-01
     -8.400  0.0000E+00  0.6000E-01
     -7.995  0.0000E+00  0.6000E-01
     -7.590  0.0000E+00  0.6000E-01
     -7.184  0.0000E+00  0.6000E-01
     -6.779  0.0000E+00  0.6000E-01
     -6.374  0.0000E+00  0.6000E-01
     -5.969  0.0000E+00  0.6000E-01
     -5.563  0.0000E+00  0.6000E-01
     -5.158  0.0000E+00  0.6000E-01
     -4.753  0.0000E+00  0.6000E-01
     -4.347  0.0000E+00  0.6000E-01
     -3.942  0.0000E+00  0.6000E-01
     -3.537  0.0000E+00  0.6000E-01
     -3.131  0.0000E+00  0.6000E-01
     -2.726  0.0000E+00  0.6000E-01
     -2.321  0.0000E+00  0.6000E-01
     -1.915  0.0000E+00  0.6000E-01
     -1.510  0.0000E+00  0.6000E-01
     -1.105  0.0000E+00  0.6000E-01
     -0.700  0.0000E+00  0.6000E-01
     -0.294  0.0000E+00  0.6000E-01
      0.111  0.0000E+00  0.6000E-01
      0.516  0.0000E+00  0.6000E-01
      0.922  0.0000E+00  0.6000E-01
      1.327  0.0000E+00  0.6000E-01
      1.732  0.0000E+00  0.6000E-01
      2.138  0.0000E+00  0.6000E-01
      2.543  0.0000E+00  0.6000E-01
      2.948  0.6632E-10  0.6000E-01
      3.354  0.1061E-03  0.6004E-01
      3.759  0.5556E-03  0.6027E-01
      4.164  0.3955E-03  0.6044E-01
      4.569  0.8783E-03  0.6080E-01
      4.975  0.8425E-03  0.6114E-01
      5.380  0.9714E-03  0.6156E-01
      5.785  0.1771E-02  0.6228E-01
      6.191  0.3334E-02  0.6363E-01
      6.596  0.6960E-02  0.6651E-01
      7.001  0.1086E-01  0.7118E-01
      7.407  0.1093E-01  0.7612E-01
      7.812  0.1097E-01  0.8063E-01
      8.217  0.9543E-02  0.8469E-01
      8.622  0.8793E-02  0.8836E-01
      9.028  0.1094E-01  0.9290E-01
      9.433  0.1044E-01  0.9727E-01
      9.838  0.1255E-01  0.1027E+00
     10.244  0.1223E-01  0.1079E+00
     10.649  0.2049E-01  0.1163E+00
     11.054  0.1083E-01  0.1210E+00
     11.460  0.8338E-02  0.1248E+00
     11.865  0.9086E-02  0.1287E+00
     12.270  0.1290E-01  0.1340E+00
     12.676  0.8771E-02  0.1378E+00
     13.081  0.1234E-01  0.1429E+00
     13.486  0.5936E-02  0.1454E+00
     13.891  0.1061E-01  0.1498E+00
     14.297  0.8406E-02  0.1534E+00
     14.702  0.1289E-01  0.1589E+00
     15.107  0.1365E-01  0.1647E+00
     15.513  0.4017E-02  0.1664E+00
     15.918  0.1558E-02  0.1671E+00
     16.323  0.4068E-02  0.1687E+00
     16.729  0.1422E-02  0.1693E+00
     17.134  0.3153E-02  0.1706E+00
     17.539  0.2710E-02  0.1717E+00
     17.945  0.1898E-02  0.1726E+00
     18.350  0.1515E-02  0.1734E+00
     18.755  0.2882E-02  0.1747E+00
     19.160  0.1477E-02  0.1753E+00
     19.566  0.2537E-02  0.1764E+00
     19.971  0.1788E-02  0.1771E+00
     20.376  0.2045E-02  0.1780E+00
     20.782  0.1775E-02  0.1787E+00
     21.187  0.2520E-02  0.1797E+00
     21.592  0.2592E-02  0.1809E+00
     21.998  0.3134E-02  0.1822E+00
     22.403  0.3944E-02  0.1839E+00
     22.808  0.1237E-02  0.1844E+00
     23.214  0.4163E-02  0.1861E+00
     23.619  0.2724E-02  0.1873E+00
     24.024  0.1808E-02  0.1880E+00
     24.429  0.3734E-02  0.1896E+00
     24.835  0.2389E-02  0.1907E+00
     25.240  0.1846E-02  0.1914E+00
     25.645  0.2746E-02  0.1926E+00
     26.051  0.3690E-02  0.1942E+00
     26.456  0.3620E-02  0.1956E+00
     26.861  0.3787E-02  0.1972E+00
     27.267  0.4642E-02  0.1992E+00
     27.672  0.1676E-02  0.1998E+00
     28.077  0.4032E-02  0.2015E+00
     28.483  0.6641E-02  0.2043E+00
     28.888  0.3479E-02  0.2059E+00
     29.293  0.5462E-02  0.2082E+00
     29.698  0.6042E-02  0.2108E+00
     30.104  0.8314E-02  0.2143E+00
     30.509  0.7315E-02  0.2173E+00
     30.914  0.6038E-02  0.2197E+00
     31.320  0.6803E-02  0.2226E+00
     31.725  0.8207E-02  0.2260E+00
     32.130  0.5432E-02  0.2282E+00
     32.536  0.6960E-02  0.2311E+00
     32.941  0.3920E-02  0.2327E+00
     33.346  0.3600E-02  0.2342E+00
     33.752  0.2217E-02  0.2352E+00
     34.157  0.2720E-02  0.2363E+00
     34.562  0.4148E-02  0.2380E+00
     34.967  0.7263E-02  0.2410E+00
     35.373  0.6127E-02  0.2437E+00
     35.778  0.5801E-02  0.2462E+00
     36.183  0.6226E-02  0.2489E+00
     36.589  0.6066E-02  0.2514E+00
     36.994  0.7016E-02  0.2543E+00
     37.399  0.6103E-02  0.2568E+00
     37.805  0.2412E-02  0.2580E+00
     38.210  0.1446E-02  0.2586E+00
     38.615  0.4448E-02  0.2604E+00
     39.021  0.1704E-02  0.2612E+00
     39.426  0.4218E-02  0.2629E+00
     39.831  0.4949E-02  0.2650E+00
     40.236  0.4896E-02  0.2671E+00
     40.642  0.5937E-02  0.2696E+00
     41.047  0.5639E-02  0.2720E+00
     41.452  0.5594E-02  0.2743E+00
     41.858  0.5274E-02  0.2765E+00
     42.263  0.3589E-02  0.2781E+00
     42.668  0.5509E-02  0.2803E+00
     43.074  0.6189E-02  0.2830E+00
     43.479  0.8176E-02  0.2865E+00
     43.884  0.8896E-02  0.2902E+00
     44.289  0.9981E-02  0.2944E+00
     44.695  0.6794E-02  0.2974E+00
     45.100  0.1097E-01  0.3021E+00
     45.505  0.6459E-02  0.3048E+00
     45.911  0.7025E-02  0.3079E+00
     46.316  0.3645E-02  0.3094E+00
     46.721  0.7064E-02  0.3124E+00
     47.127  0.2401E-02  0.3136E+00
     47.532  0.6139E-02  0.3162E+00
     47.937  0.5605E-02  0.3186E+00
     48.343  0.6362E-02  0.3211E+00
     48.748  0.9267E-02  0.3250E+00
     49.153  0.7879E-02  0.3283E+00
     49.558  0.9350E-02  0.3322E+00
     49.964  0.5066E-02  0.3344E+00
     50.369  0.3065E-02  0.3357E+00
     50.774  0.4251E-02  0.3375E+00
     51.180  0.7312E-02  0.3406E+00
     51.585  0.6214E-02  0.3432E+00
     51.990  0.6261E-02  0.3461E+00
     52.396  0.6506E-02  0.3488E+00
     52.801  0.7833E-02  0.3521E+00
     53.206  0.8142E-02  0.3555E+00
     53.612  0.1178E-01  0.3604E+00
     54.017  0.5050E-02  0.3628E+00
     54.422  0.7466E-02  0.3658E+00
     54.827  0.8721E-02  0.3694E+00
     55.233  0.6128E-01  0.3946E+00
     55.638  0.7518E-02  0.3981E+00
     56.043  0.7023E-02  0.4011E+00
     56.449  0.4380E-02  0.4030E+00
     56.854  0.3497E-02  0.4046E+00
     57.259  0.5776E-02  0.4069E+00
     57.665  0.1145E-01  0.4117E+00
     58.070  0.5626E-02  0.4143E+00
     58.475  0.7113E-02  0.4172E+00
     58.881  0.6426E-02  0.4201E+00
     59.286  0.7786E-02  0.4234E+00
     59.691  0.6113E-02  0.4262E+00
     60.096  0.7886E-02  0.4296E+00
     60.502  0.5484E-02  0.4320E+00
     60.907  0.8603E-02  0.4356E+00
     61.312  0.5028E-02  0.4377E+00
     61.718  0.6100E-02  0.4403E+00
     62.123  0.7164E-02  0.4434E+00
     62.528  0.9621E-02  0.4475E+00
     62.934  0.7319E-02  0.4505E+00
     63.339  0.9548E-02  0.4545E+00
     63.744  0.7510E-02  0.4578E+00
     64.150  0.8849E-02  0.4614E+00
     64.555  0.7968E-02  0.4647E+00
     64.960  0.6833E-02  0.4675E+00
     65.365  0.4004E-02  0.4692E+00
     65.771  0.6808E-02  0.4720E+00
     66.176  0.3721E-02  0.4740E+00
     66.581  0.4513E-02  0.4758E+00
     66.987  0.1963E-02  0.4766E+00
     67.392  0.1261E-02  0.4771E+00
     67.797  0.1746E-02  0.4778E+00
     68.203  0.9818E-03  0.4782E+00
     68.608  0.2000E-02  0.4790E+00
     69.013  0.2748E-03  0.4792E+00
     69.419  0.1177E-02  0.4796E+00
     69.824  0.1013E-13  0.4796E+00
     70.229  0.2961E-03  0.4798E+00
     70.634  0.2959E-03  0.4799E+00
     71.040  0.0000E+00  0.4799E+00
     71.445  0.4536E-08  0.4799E+00
     71.850  0.2961E-03  0.4800E+00
     72.256  0.0000E+00  0.4800E+00
     72.661  0.0000E+00  0.4800E+00
     73.066  0.0000E+00  0.4800E+00
     73.472  0.0000E+00  0.4800E+00
     73.877  0.0000E+00  0.4800E+00
     74.282  0.0000E+00  0.4800E+00
     74.687  0.0000E+00  0.4800E+00
     75.093  0.0000E+00  0.4800E+00
     75.498  0.0000E+00  0.4800E+00
     75.903  0.0000E+00  0.4800E+00
     76.309  0.0000E+00  0.4800E+00
     76.714  0.0000E+00  0.4800E+00
     77.119  0.0000E+00  0.4800E+00
     77.11933361    -44.47268720  301     14.77727658      1.00000000
    -44.473  0.0000E+00  0.0000E+00  0.0000E+00  0.0000E+00  0.0000E+00  0.0000E+00  0.0000E+00  0.0000E+00  0.0000E+00
    -44.067  0.0000E+00  0.0000E+00  0.0000E+00  0.0000E+00  0.0000E+00  0.0000E+00  0.0000E+00  0.0000E+00  0.0000E+00
    -43.662  0.0000E+00  0.0000E+00  0.0000E+00  0.0000E+00  0.0000E+00  0.0000E+00  0.0000E+00  0.0000E+00  0.0000E+00
    -43.257  0.0000E+00  0.0000E+00  0.0000E+00  0.0000E+00  0.0000E+00  0.0000E+00  0.0000E+00  0.0000E+00  0.0000E+00
    -42.851  0.0000E+00  0.0000E+00  0.0000E+00  0.0000E+00  0.0000E+00  0.0000E+00  0.0000E+00  0.0000E+00  0.0000E+00
    -42.446  0.0000E+00  0.0000E+00  0.0000E+00  0.0000E+00  0.0000E+00  0.0000E+00  0.0000E+00  0.0000E+00  0.0000E+00
    -42.041  0.0000E+00  0.0000E+00  0.0000E+00  0.0000E+00  0.0000E+00  0.0000E+00  0.0000E+00  0.0000E+00  0.0000E+00
    -41.636  0.0000E+00  0.0000E+00  0.0000E+00  0.0000E+00  0.0000E+00  0.0000E+00  0.0000E+00  0.0000E+00  0.0000E+00
    -41.230  0.0000E+00  0.0000E+00  0.0000E+00  0.0000E+00  0.0000E+00  0.0000E+00  0.0000E+00  0.0000E+00  0.0000E+00
    -40.825  0.0000E+00  0.0000E+00  0.0000E+00  0.0000E+00  0.0000E+00  0.0000E+00  0.0000E+00  0.0000E+00  0.0000E+00
    -40.420  0.0000E+00  0.0000E+00  0.0000E+00  0.0000E+00  0.0000E+00  0.0000E+00  0.0000E+00  0.0000E+00  0.0000E+00
    -40.014  0.0000E+00  0.0000E+00  0.0000E+00  0.0000E+00  0.0000E+00  0.0000E+00  0.0000E+00  0.0000E+00  0.0000E+00
    -39.609  0.0000E+00  0.0000E+00  0.0000E+00  0.0000E+00  0.0000E+00  0.0000E+00  0.0000E+00  0.0000E+00  0.0000E+00
    -39.204  0.1957E-19  0.1541E-14  0.1541E-14  0.1541E-14  0.1170E-19  0.1170E-19  0.9717E-20  0.1170E-19  0.9717E-20
    -38.798  0.1173E-03  0.6857E+00  0.6857E+00  0.6857E+00  0.4684E-04  0.4684E-04  0.2210E-04  0.4684E-04  0.2210E-04
    -38.393  0.5035E-03  0.2371E+01  0.2371E+01  0.2371E+01  0.2507E-03  0.2507E-03  0.1228E-03  0.2507E-03  0.1228E-03
    -37.988  0.4109E-04  0.1455E+01  0.1455E+01  0.1455E+01  0.6335E-04  0.6335E-04  0.4247E-04  0.6335E-04  0.4247E-04
    -37.582  0.0000E+00  0.0000E+00  0.0000E+00  0.0000E+00  0.0000E+00  0.0000E+00  0.0000E+00  0.0000E+00  0.0000E+00
    -37.177  0.0000E+00  0.0000E+00  0.0000E+00  0.0000E+00  0.0000E+00  0.0000E+00  0.0000E+00  0.0000E+00  0.0000E+00
    -36.772  0.0000E+00  0.0000E+00  0.0000E+00  0.0000E+00  0.0000E+00  0.0000E+00  0.0000E+00  0.0000E+00  0.0000E+00
    -36.367  0.0000E+00  0.0000E+00  0.0000E+00  0.0000E+00  0.0000E+00  0.0000E+00  0.0000E+00  0.0000E+00  0.0000E+00
    -35.961  0.0000E+00  0.0000E+00  0.0000E+00  0.0000E+00  0.0000E+00  0.0000E+00  0.0000E+00  0.0000E+00  0.0000E+00
    -35.556  0.0000E+00  0.0000E+00  0.0000E+00  0.0000E+00  0.0000E+00  0.0000E+00  0.0000E+00  0.0000E+00  0.0000E+00
    -35.151  0.0000E+00  0.0000E+00  0.0000E+00  0.0000E+00  0.0000E+00  0.0000E+00  0.0000E+00  0.0000E+00  0.0000E+00
    -34.745  0.0000E+00  0.0000E+00  0.0000E+00  0.0000E+00  0.0000E+00  0.0000E+00  0.0000E+00  0.0000E+00  0.0000E+00
    -34.340  0.0000E+00  0.0000E+00  0.0000E+00  0.0000E+00  0.0000E+00  0.0000E+00  0.0000E+00  0.0000E+00  0.0000E+00
    -33.935  0.0000E+00  0.0000E+00  0.0000E+00  0.0000E+00  0.0000E+00  0.0000E+00  0.0000E+00  0.0000E+00  0.0000E+00
    -33.529  0.0000E+00  0.0000E+00  0.0000E+00  0.0000E+00  0.0000E+00  0.0000E+00  0.0000E+00  0.0000E+00  0.0000E+00
    -33.124  0.0000E+00  0.0000E+00  0.0000E+00  0.0000E+00  0.0000E+00  0.0000E+00  0.0000E+00  0.0000E+00  0.0000E+00
    -32.719  0.0000E+00  0.0000E+00  0.0000E+00  0.0000E+00  0.0000E+00  0.0000E+00  0.0000E+00  0.0000E+00  0.0000E+00
    -32.313  0.0000E+00  0.0000E+00  0.0000E+00  0.0000E+00  0.0000E+00  0.0000E+00  0.0000E+00  0.0000E+00  0.0000E+00
    -31.908  0.0000E+00  0.0000E+00  0.0000E+00  0.0000E+00  0.0000E+00  0.0000E+00  0.0000E+00  0.0000E+00  0.0000E+00
    -31.503  0.0000E+00  0.0000E+00  0.0000E+00  0.0000E+00  0.0000E+00  0.0000E+00  0.0000E+00  0.0000E+00  0.0000E+00
    -31.098  0.0000E+00  0.0000E+00  0.0000E+00  0.0000E+00  0.0000E+00  0.0000E+00  0.0000E+00  0.0000E+00  0.0000E+00
    -30.692  0.0000E+00  0.0000E+00  0.0000E+00  0.0000E+00  0.0000E+00  0.0000E+00  0.0000E+00  0.0000E+00  0.0000E+00
    -30.287  0.0000E+00  0.0000E+00  0.0000E+00  0.0000E+00  0.0000E+00  0.0000E+00  0.0000E+00  0.0000E+00  0.0000E+00
    -29.882  0.0000E+00  0.0000E+00  0.0000E+00  0.0000E+00  0.0000E+00  0.0000E+00  0.0000E+00  0.0000E+00  0.0000E+00
    -29.476  0.0000E+00  0.0000E+00  0.0000E+00  0.0000E+00  0.0000E+00  0.0000E+00  0.0000E+00  0.0000E+00  0.0000E+00
    -29.071  0.0000E+00  0.0000E+00  0.0000E+00  0.0000E+00  0.0000E+00  0.0000E+00  0.0000E+00  0.0000E+00  0.0000E+00
    -28.666  0.0000E+00  0.0000E+00  0.0000E+00  0.0000E+00  0.0000E+00  0.0000E+00  0.0000E+00  0.0000E+00  0.0000E+00
    -28.260  0.0000E+00  0.0000E+00  0.0000E+00  0.0000E+00  0.0000E+00  0.0000E+00  0.0000E+00  0.0000E+00  0.0000E+00
    -27.855  0.0000E+00  0.0000E+00  0.0000E+00  0.0000E+00  0.0000E+00  0.0000E+00  0.0000E+00  0.0000E+00  0.0000E+00
    -27.450  0.0000E+00  0.0000E+00  0.0000E+00  0.0000E+00  0.0000E+00  0.0000E+00  0.0000E+00  0.0000E+00  0.0000E+00
    -27.044  0.0000E+00  0.0000E+00  0.0000E+00  0.0000E+00  0.0000E+00  0.0000E+00  0.0000E+00  0.0000E+00  0.0000E+00
    -26.639  0.0000E+00  0.0000E+00  0.0000E+00  0.0000E+00  0.0000E+00  0.0000E+00  0.0000E+00  0.0000E+00  0.0000E+00
    -26.234  0.0000E+00  0.0000E+00  0.0000E+00  0.0000E+00  0.0000E+00  0.0000E+00  0.0000E+00  0.0000E+00  0.0000E+00
    -25.829  0.0000E+00  0.0000E+00  0.0000E+00  0.0000E+00  0.0000E+00  0.0000E+00  0.0000E+00  0.0000E+00  0.0000E+00
    -25.423  0.0000E+00  0.0000E+00  0.0000E+00  0.0000E+00  0.0000E+00  0.0000E+00  0.0000E+00  0.0000E+00  0.0000E+00
    -25.018  0.0000E+00  0.0000E+00  0.0000E+00  0.0000E+00  0.0000E+00  0.0000E+00  0.0000E+00  0.0000E+00  0.0000E+00
    -24.613  0.0000E+00  0.0000E+00  0.0000E+00  0.0000E+00  0.0000E+00  0.0000E+00  0.0000E+00  0.0000E+00  0.0000E+00
    -24.207  0.0000E+00  0.0000E+00  0.0000E+00  0.0000E+00  0.0000E+00  0.0000E+00  0.0000E+00  0.0000E+00  0.0000E+00
    -23.802  0.0000E+00  0.0000E+00  0.0000E+00  0.0000E+00  0.0000E+00  0.0000E+00  0.0000E+00  0.0000E+00  0.0000E+00
    -23.397  0.0000E+00  0.0000E+00  0.0000E+00  0.0000E+00  0.0000E+00  0.0000E+00  0.0000E+00  0.0000E+00  0.0000E+00
    -22.991  0.0000E+00  0.0000E+00  0.0000E+00  0.0000E+00  0.0000E+00  0.0000E+00  0.0000E+00  0.0000E+00  0.0000E+00
    -22.586  0.0000E+00  0.0000E+00  0.0000E+00  0.0000E+00  0.0000E+00  0.0000E+00  0.0000E+00  0.0000E+00  0.0000E+00
    -22.181  0.0000E+00  0.0000E+00  0.0000E+00  0.0000E+00  0.0000E+00  0.0000E+00  0.0000E+00  0.0000E+00  0.0000E+00
    -21.776  0.0000E+00  0.0000E+00  0.0000E+00  0.0000E+00  0.0000E+00  0.0000E+00  0.0000E+00  0.0000E+00  0.0000E+00
    -21.370  0.0000E+00  0.0000E+00  0.0000E+00  0.0000E+00  0.0000E+00  0.0000E+00  0.0000E+00  0.0000E+00  0.0000E+00
    -20.965  0.0000E+00  0.0000E+00  0.0000E+00  0.0000E+00  0.0000E+00  0.0000E+00  0.0000E+00  0.0000E+00  0.0000E+00
    -20.560  0.0000E+00  0.0000E+00  0.0000E+00  0.0000E+00  0.0000E+00  0.0000E+00  0.0000E+00  0.0000E+00  0.0000E+00
    -20.154  0.0000E+00  0.0000E+00  0.0000E+00  0.0000E+00  0.0000E+00  0.0000E+00  0.0000E+00  0.0000E+00  0.0000E+00
    -19.749  0.0000E+00  0.0000E+00  0.0000E+00  0.0000E+00  0.0000E+00  0.0000E+00  0.0000E+00  0.0000E+00  0.0000E+00
    -19.344  0.0000E+00  0.0000E+00  0.0000E+00  0.0000E+00  0.0000E+00  0.0000E+00  0.0000E+00  0.0000E+00  0.0000E+00
    -18.938  0.0000E+00  0.0000E+00  0.0000E+00  0.0000E+00  0.0000E+00  0.0000E+00  0.0000E+00  0.0000E+00  0.0000E+00
    -18.533  0.0000E+00  0.0000E+00  0.0000E+00  0.0000E+00  0.0000E+00  0.0000E+00  0.0000E+00  0.0000E+00  0.0000E+00
    -18.128  0.0000E+00  0.0000E+00  0.0000E+00  0.0000E+00  0.0000E+00  0.0000E+00  0.0000E+00  0.0000E+00  0.0000E+00
    -17.722  0.0000E+00  0.0000E+00  0.0000E+00  0.0000E+00  0.0000E+00  0.0000E+00  0.0000E+00  0.0000E+00  0.0000E+00
    -17.317  0.0000E+00  0.0000E+00  0.0000E+00  0.0000E+00  0.0000E+00  0.0000E+00  0.0000E+00  0.0000E+00  0.0000E+00
    -16.912  0.0000E+00  0.0000E+00  0.0000E+00  0.0000E+00  0.0000E+00  0.0000E+00  0.0000E+00  0.0000E+00  0.0000E+00
    -16.507  0.0000E+00  0.0000E+00  0.0000E+00  0.0000E+00  0.0000E+00  0.0000E+00  0.0000E+00  0.0000E+00  0.0000E+00
    -16.101  0.0000E+00  0.0000E+00  0.0000E+00  0.0000E+00  0.0000E+00  0.0000E+00  0.0000E+00  0.0000E+00  0.0000E+00
    -15.696  0.0000E+00  0.0000E+00  0.0000E+00  0.0000E+00  0.0000E+00  0.0000E+00  0.0000E+00  0.0000E+00  0.0000E+00
    -15.291  0.0000E+00  0.0000E+00  0.0000E+00  0.0000E+00  0.0000E+00  0.0000E+00  0.0000E+00  0.0000E+00  0.0000E+00
    -14.885  0.0000E+00  0.0000E+00  0.0000E+00  0.0000E+00  0.0000E+00  0.0000E+00  0.0000E+00  0.0000E+00  0.0000E+00
    -14.480  0.0000E+00  0.0000E+00  0.0000E+00  0.0000E+00  0.0000E+00  0.0000E+00  0.0000E+00  0.0000E+00  0.0000E+00
    -14.075  0.0000E+00  0.0000E+00  0.0000E+00  0.0000E+00  0.0000E+00  0.0000E+00  0.0000E+00  0.0000E+00  0.0000E+00
    -13.669  0.0000E+00  0.0000E+00  0.0000E+00  0.0000E+00  0.0000E+00  0.0000E+00  0.0000E+00  0.0000E+00  0.0000E+00
    -13.264  0.0000E+00  0.0000E+00  0.0000E+00  0.0000E+00  0.0000E+00  0.0000E+00  0.0000E+00  0.0000E+00  0.0000E+00
    -12.859  0.0000E+00  0.0000E+00  0.0000E+00  0.0000E+00  0.0000E+00  0.0000E+00  0.0000E+00  0.0000E+00  0.0000E+00
    -12.453  0.0000E+00  0.0000E+00  0.0000E+00  0.0000E+00  0.0000E+00  0.0000E+00  0.0000E+00  0.0000E+00  0.0000E+00
    -12.048  0.0000E+00  0.0000E+00  0.0000E+00  0.0000E+00  0.0000E+00  0.0000E+00  0.0000E+00  0.0000E+00  0.0000E+00
    -11.643  0.0000E+00  0.0000E+00  0.0000E+00  0.0000E+00  0.0000E+00  0.0000E+00  0.0000E+00  0.0000E+00  0.0000E+00
    -11.238  0.0000E+00  0.0000E+00  0.0000E+00  0.0000E+00  0.0000E+00  0.0000E+00  0.0000E+00  0.0000E+00  0.0000E+00
    -10.832  0.0000E+00  0.0000E+00  0.0000E+00  0.0000E+00  0.0000E+00  0.0000E+00  0.0000E+00  0.0000E+00  0.0000E+00
    -10.427  0.0000E+00  0.0000E+00  0.0000E+00  0.0000E+00  0.0000E+00  0.0000E+00  0.0000E+00  0.0000E+00  0.0000E+00
    -10.022  0.0000E+00  0.0000E+00  0.0000E+00  0.0000E+00  0.0000E+00  0.0000E+00  0.0000E+00  0.0000E+00  0.0000E+00
     -9.616  0.0000E+00  0.0000E+00  0.0000E+00  0.0000E+00  0.0000E+00  0.0000E+00  0.0000E+00  0.0000E+00  0.0000E+00
     -9.211  0.0000E+00  0.0000E+00  0.0000E+00  0.0000E+00  0.0000E+00  0.0000E+00  0.0000E+00  0.0000E+00  0.0000E+00
     -8.806  0.0000E+00  0.0000E+00  0.0000E+00  0.0000E+00  0.0000E+00  0.0000E+00  0.0000E+00  0.0000E+00  0.0000E+00
     -8.400  0.0000E+00  0.0000E+00  0.0000E+00  0.0000E+00  0.0000E+00  0.0000E+00  0.0000E+00  0.0000E+00  0.0000E+00
     -7.995  0.0000E+00  0.0000E+00  0.0000E+00  0.0000E+00  0.0000E+00  0.0000E+00  0.0000E+00  0.0000E+00  0.0000E+00
     -7.590  0.0000E+00  0.0000E+00  0.0000E+00  0.0000E+00  0.0000E+00  0.0000E+00  0.0000E+00  0.0000E+00  0.0000E+00
     -7.184  0.0000E+00  0.0000E+00  0.0000E+00  0.0000E+00  0.0000E+00  0.0000E+00  0.0000E+00  0.0000E+00  0.0000E+00
     -6.779  0.0000E+00  0.0000E+00  0.0000E+00  0.0000E+00  0.0000E+00  0.0000E+00  0.0000E+00  0.0000E+00  0.0000E+00
     -6.374  0.0000E+00  0.0000E+00  0.0000E+00  0.0000E+00  0.0000E+00  0.0000E+00  0.0000E+00  0.0000E+00  0.0000E+00
     -5.969  0.0000E+00  0.0000E+00  0.0000E+00  0.0000E+00  0.0000E+00  0.0000E+00  0.0000E+00  0.0000E+00  0.0000E+00
     -5.563  0.0000E+00  0.0000E+00  0.0000E+00  0.0000E+00  0.0000E+00  0.0000E+00  0.0000E+00  0.0000E+00  0.0000E+00
     -5.158  0.0000E+00  0.0000E+00  0.0000E+00  0.0000E+00  0.0000E+00  0.0000E+00  0.0000E+00  0.0000E+00  0.0000E+00
     -4.753  0.0000E+00  0.0000E+00  0.0000E+00  0.0000E+00  0.0000E+00  0.0000E+00  0.0000E+00  0.0000E+00  0.0000E+00
     -4.347  0.0000E+00  0.0000E+00  0.0000E+00  0.0000E+00  0.0000E+00  0.0000E+00  0.0000E+00  0.0000E+00  0.0000E+00
     -3.942  0.0000E+00  0.0000E+00  0.0000E+00  0.0000E+00  0.0000E+00  0.0000E+00  0.0000E+00  0.0000E+00  0.0000E+00
     -3.537  0.0000E+00  0.0000E+00  0.0000E+00  0.0000E+00  0.0000E+00  0.0000E+00  0.0000E+00  0.0000E+00  0.0000E+00
     -3.131  0.0000E+00  0.0000E+00  0.0000E+00  0.0000E+00  0.0000E+00  0.0000E+00  0.0000E+00  0.0000E+00  0.0000E+00
     -2.726  0.0000E+00  0.0000E+00  0.0000E+00  0.0000E+00  0.0000E+00  0.0000E+00  0.0000E+00  0.0000E+00  0.0000E+00
     -2.321  0.0000E+00  0.0000E+00  0.0000E+00  0.0000E+00  0.0000E+00  0.0000E+00  0.0000E+00  0.0000E+00  0.0000E+00
     -1.915  0.0000E+00  0.0000E+00  0.0000E+00  0.0000E+00  0.0000E+00  0.0000E+00  0.0000E+00  0.0000E+00  0.0000E+00
     -1.510  0.0000E+00  0.0000E+00  0.0000E+00  0.0000E+00  0.0000E+00  0.0000E+00  0.0000E+00  0.0000E+00  0.0000E+00
     -1.105  0.0000E+00  0.0000E+00  0.0000E+00  0.0000E+00  0.0000E+00  0.0000E+00  0.0000E+00  0.0000E+00  0.0000E+00
     -0.700  0.0000E+00  0.0000E+00  0.0000E+00  0.0000E+00  0.0000E+00  0.0000E+00  0.0000E+00  0.0000E+00  0.0000E+00
     -0.294  0.0000E+00  0.0000E+00  0.0000E+00  0.0000E+00  0.0000E+00  0.0000E+00  0.0000E+00  0.0000E+00  0.0000E+00
      0.111  0.0000E+00  0.0000E+00  0.0000E+00  0.0000E+00  0.0000E+00  0.0000E+00  0.0000E+00  0.0000E+00  0.0000E+00
      0.516  0.0000E+00  0.0000E+00  0.0000E+00  0.0000E+00  0.0000E+00  0.0000E+00  0.0000E+00  0.0000E+00  0.0000E+00
      0.922  0.0000E+00  0.0000E+00  0.0000E+00  0.0000E+00  0.0000E+00  0.0000E+00  0.0000E+00  0.0000E+00  0.0000E+00
      1.327  0.0000E+00  0.0000E+00  0.0000E+00  0.0000E+00  0.0000E+00  0.0000E+00  0.0000E+00  0.0000E+00  0.0000E+00
      1.732  0.0000E+00  0.0000E+00  0.0000E+00  0.0000E+00  0.0000E+00  0.0000E+00  0.0000E+00  0.0000E+00  0.0000E+00
      2.138  0.0000E+00  0.0000E+00  0.0000E+00  0.0000E+00  0.0000E+00  0.0000E+00  0.0000E+00  0.0000E+00  0.0000E+00
      2.543  0.0000E+00  0.0000E+00  0.0000E+00  0.0000E+00  0.0000E+00  0.0000E+00  0.0000E+00  0.0000E+00  0.0000E+00
      2.948  0.3000E-08  0.3871E-11  0.3871E-11  0.3871E-11  0.2164E-12  0.2164E-12  0.1348E-29  0.2164E-12  0.1348E-29
      3.354  0.4793E-02  0.7314E-05  0.7314E-05  0.7314E-05  0.4779E-06  0.4779E-06  0.1245E-06  0.4779E-06  0.1245E-06
      3.759  0.2449E-01  0.1532E-03  0.1532E-03  0.1532E-03  0.3658E-04  0.3658E-04  0.8722E-05  0.3658E-04  0.8722E-05
      4.164  0.1693E-01  0.1935E-03  0.1935E-03  0.1935E-03  0.5063E-04  0.5063E-04  0.5268E-04  0.5063E-04  0.5268E-04
      4.569  0.3652E-01  0.5530E-03  0.5530E-03  0.5530E-03  0.4135E-03  0.4135E-03  0.9283E-04  0.4135E-03  0.9283E-04
      4.975  0.3331E-01  0.7030E-03  0.7030E-03  0.7030E-03  0.7199E-03  0.7199E-03  0.3260E-03  0.7199E-03  0.3260E-03
      5.380  0.3705E-01  0.9062E-03  0.9062E-03  0.9062E-03  0.1184E-02  0.1184E-02  0.5775E-03  0.1184E-02  0.5775E-03
      5.785  0.6152E-01  0.1767E-02  0.1767E-02  0.1767E-02  0.4999E-02  0.4999E-02  0.1494E-02  0.4999E-02  0.1494E-02
      6.191  0.8383E-01  0.2295E-02  0.2295E-02  0.2295E-02  0.2774E-01  0.2774E-01  0.6696E-02  0.2774E-01  0.6696E-02
      6.596  0.1151E+00  0.3504E-02  0.3504E-02  0.3504E-02  0.5524E-01  0.5524E-01  0.6840E-01  0.5524E-01  0.6840E-01
      7.001  0.1319E+00  0.6059E-02  0.6059E-02  0.6059E-02  0.1026E+00  0.1026E+00  0.1188E+00  0.1026E+00  0.1188E+00
      7.407  0.7704E-01  0.4956E-02  0.4956E-02  0.4956E-02  0.1537E+00  0.1537E+00  0.9939E-01  0.1537E+00  0.9939E-01
      7.812  0.5793E-01  0.5944E-02  0.5944E-02  0.5944E-02  0.1585E+00  0.1585E+00  0.1070E+00  0.1585E+00  0.1070E+00
      8.217  0.2517E-01  0.5802E-02  0.5802E-02  0.5802E-02  0.1504E+00  0.1504E+00  0.9452E-01  0.1504E+00  0.9452E-01
      8.622  0.8246E-02  0.7205E-02  0.7205E-02  0.7205E-02  0.1216E+00  0.1216E+00  0.1155E+00  0.1216E+00  0.1155E+00
      9.028  0.9339E-02  0.9067E-02  0.9067E-02  0.9067E-02  0.1479E+00  0.1479E+00  0.1536E+00  0.1479E+00  0.1536E+00
      9.433  0.1391E-01  0.7372E-02  0.7372E-02  0.7372E-02  0.1644E+00  0.1644E+00  0.1239E+00  0.1644E+00  0.1239E+00
      9.838  0.1833E-01  0.1037E-01  0.1037E-01  0.1037E-01  0.2177E+00  0.2177E+00  0.1203E+00  0.2177E+00  0.1203E+00
     10.244  0.2406E-01  0.8569E-02  0.8569E-02  0.8569E-02  0.1683E+00  0.1683E+00  0.1926E+00  0.1683E+00  0.1926E+00
     10.649  0.2977E-01  0.1669E-01  0.1669E-01  0.1669E-01  0.3605E+00  0.3605E+00  0.2168E+00  0.3605E+00  0.2168E+00
     11.054  0.1582E-01  0.8838E-02  0.8838E-02  0.8838E-02  0.1684E+00  0.1684E+00  0.1518E+00  0.1684E+00  0.1518E+00
     11.460  0.1125E-01  0.8655E-02  0.8655E-02  0.8655E-02  0.1181E+00  0.1181E+00  0.1269E+00  0.1181E+00  0.1269E+00
     11.865  0.1202E-01  0.7768E-02  0.7768E-02  0.7768E-02  0.1120E+00  0.1120E+00  0.1769E+00  0.1120E+00  0.1769E+00
     12.270  0.8838E-02  0.9372E-02  0.9372E-02  0.9372E-02  0.1182E+00  0.1182E+00  0.3330E+00  0.1182E+00  0.3330E+00
     12.676  0.7165E-02  0.2688E-02  0.2688E-02  0.2688E-02  0.5880E-01  0.5880E-01  0.2822E+00  0.5880E-01  0.2822E+00
     13.081  0.1365E-01  0.6908E-02  0.6908E-02  0.6908E-02  0.1376E+00  0.1376E+00  0.3035E+00  0.1376E+00  0.3035E+00
     13.486  0.1425E-02  0.3272E-02  0.3272E-02  0.3272E-02  0.7032E-01  0.7032E-01  0.1474E+00  0.7032E-01  0.1474E+00
     13.891  0.8962E-02  0.3875E-02  0.3875E-02  0.3875E-02  0.1488E+00  0.1488E+00  0.2397E+00  0.1488E+00  0.2397E+00
     14.297  0.3211E-02  0.2248E-02  0.2248E-02  0.2248E-02  0.1505E+00  0.1505E+00  0.1535E+00  0.1505E+00  0.1535E+00
     14.702  0.6132E-02  0.2731E-02  0.2731E-02  0.2731E-02  0.2509E+00  0.2509E+00  0.2139E+00  0.2509E+00  0.2139E+00
     15.107  0.1344E-01  0.3805E-02  0.3805E-02  0.3805E-02  0.3117E+00  0.3117E+00  0.1539E+00  0.3117E+00  0.1539E+00
     15.513  0.4677E-02  0.1391E-02  0.1391E-02  0.1391E-02  0.1043E+00  0.1043E+00  0.2615E-01  0.1043E+00  0.2615E-01
     15.918  0.7350E-02  0.2486E-02  0.2486E-02  0.2486E-02  0.2254E-01  0.2254E-01  0.2178E-01  0.2254E-01  0.2178E-01
     16.323  0.2465E-01  0.6669E-02  0.6669E-02  0.6669E-02  0.6087E-01  0.6087E-01  0.5072E-01  0.6087E-01  0.5072E-01
     16.729  0.7739E-02  0.3632E-02  0.3632E-02  0.3632E-02  0.1851E-01  0.1851E-01  0.1505E-01  0.1851E-01  0.1505E-01
     17.134  0.2779E-01  0.6658E-02  0.6658E-02  0.6658E-02  0.4326E-01  0.4326E-01  0.3246E-01  0.4326E-01  0.3246E-01
     17.539  0.1574E-01  0.9069E-02  0.9069E-02  0.9069E-02  0.3295E-01  0.3295E-01  0.2136E-01  0.3295E-01  0.2136E-01
     17.945  0.2350E-01  0.4140E-02  0.4140E-02  0.4140E-02  0.2319E-01  0.2319E-01  0.1760E-01  0.2319E-01  0.1760E-01
     18.350  0.1323E-01  0.5583E-02  0.5583E-02  0.5583E-02  0.1904E-01  0.1904E-01  0.6803E-02  0.1904E-01  0.6803E-02
     18.755  0.3791E-01  0.8720E-02  0.8720E-02  0.8720E-02  0.3123E-01  0.3123E-01  0.1814E-01  0.3123E-01  0.1814E-01