    1    1  100    1
  0.1472283E+02  0.2751073E-09  0.2751073E-09  0.2751073E-09  0.5000000E-15
  1.000000000000000E-004
  CAR 
 Pt-fcc                                  
     16    110     24
 
  0.5000000E-01  0.5000000E-01  0.5000000E-01  0.2000000E-02
      1        -40.074819   1.000000
      2        -40.063289   1.000000
      3        -40.063289   1.000000
      4          2.128499   1.000000
      5          8.549569   1.000000
      6          8.639906   1.000000
      7          8.639906   1.000000
      8         10.827956   1.000000
      9         10.827956   1.000000
     10         27.253353   0.000000
     11         31.635292   0.000000
     12         32.350285   0.000000
     13         32.350285   0.000000
     14         38.269422   0.000000
     15         43.608077   0.000000
     16         44.360860   0.000000
     17         44.360860   0.000000
     18         47.838219   0.000000
     19         47.838219   0.000000
     20         48.783228   0.000000
     21         53.136554   0.000000
     22         54.516100   0.000000
     23         54.516100   0.000000
     24         61.818705   0.000000
 
  0.1500000E+00  0.5000000E-01  0.5000000E-01  0.6000000E-02
      1        -40.136967   1.000000
      2        -40.082068   1.000000
      3        -40.069425   1.000000
      4          2.664514   1.000000
      5          8.304959   1.000000
      6          8.828066   1.000000
      7          8.869118   1.000000
      8         10.587894   1.000000
      9         10.886373   1.000000
     10         28.047978   0.000000
     11         29.927929   0.000000
     12         32.520404   0.000000
     13         33.510132   0.000000
     14         39.094713   0.000000
     15         41.528182   0.000000
     16         41.895891   0.000000
     17         43.380651   0.000000
     18         46.081325   0.000000
     19         49.266429   0.000000
     20         51.577085   0.000000
     21         53.119369   0.000000
     22         53.264370   0.000000
     23         55.691793   0.000000
     24         62.453646   0.000000
 
  0.2500000E+00  0.5000000E-01  0.5000000E-01  0.6000000E-02
      1        -40.272587   1.000000
      2        -40.106291   1.000000
      3        -40.087147   1.000000
      4          3.803969   1.000000
      5          8.072947   1.000000
      6          9.024438   1.000000
      7          9.065595   1.000000
      8         10.569041   1.000000
      9         11.162697   1.000000
     10         27.093854   0.000000
     11         29.098495   0.000000
     12         33.735741   0.000000
     13         35.692924   0.000000
     14         35.731945   0.000000
     15         39.101664   0.000000
     16         39.291034   0.000000
     17         45.784412   0.000000
     18         46.473472   0.000000
     19         49.854781   0.000000
     20         51.841066   0.000000
     21         53.121866   0.000000
     22         54.584115   0.000000
     23         56.305347   0.000000
     24         62.770948   0.000000
 
  0.3500000E+00  0.5000000E-01  0.5000000E-01  0.6000000E-02
      1        -40.427143   1.000000
      2        -40.129786   1.000000
      3        -40.110171   1.000000
      4          4.793861   1.000000
      5          8.674517   1.000000
      6          8.863452   1.000000
      7          8.897883   1.000000
      8         11.264372   1.000000
      9         11.947412   1.000000
     10         23.695337   0.000000
     11         28.285696   0.000000
     12         33.195053   0.000000
     13         35.444432   0.000000
     14         36.522488   0.000000
     15         38.452747   0.000000
     16         38.973059   0.000000
     17         46.868449   0.000000
     18         49.158518   0.000000
     19         51.225237   0.000000
     20         52.332405   0.000000
     21         53.124506   0.000000
     22         55.154840   0.000000
     23         56.986763   0.000000
     24         61.786926   0.000000
 
  0.4500000E+00  0.5000000E-01  0.5000000E-01  0.6000000E-02
      1        -40.540404   1.000000
      2        -40.144105   1.000000
      3        -40.130299   1.000000
      4          5.028741   1.000000
      5          8.555279   1.000000
      6          8.659886   1.000000
      7         10.501819   1.000000
      8         12.160097   1.000000
      9         12.866353   0.000000
     10         20.100017   0.000000
     11         27.138614   0.000000
     12         31.639215   0.000000
     13         32.679072   0.000000
     14         39.593008   0.000000
     15         40.746425   0.000000
     16         41.269616   0.000000
     17         47.456312   0.000000
     18         48.910210   0.000000
     19         50.151358   0.000000
     20         53.130815   0.000000
     21         54.664997   0.000000
     22         57.486970   0.000000
     23         57.637853   0.000000
     24         58.873472   0.000000
 
 -0.4500000E+00  0.5000000E-01  0.5000000E-01  0.6000000E-02
      1        -40.571833   1.000000
      2        -40.144428   1.000000
      3        -40.139482   1.000000
      4          5.028486   1.000000
      5          8.460263   1.000000
      6          8.604823   1.000000
      7         11.249745   1.000000
      8         12.602974   0.181797
      9         13.290599   0.000000
     10         18.606333   0.000000
     11         26.835091   0.000000
     12         31.510706   0.000000
     13         31.549952   0.000000
     14         40.985904   0.000000
     15         41.222232   0.000000
     16         42.717526   0.000000
     17         47.674585   0.000000
     18         48.467478   0.000000
     19         48.804917   0.000000
     20         53.133741   0.000000
     21         55.759509   0.000000
     22         56.361112   0.000000
     23         58.546538   0.000000
     24         59.317035   0.000000
 
 -0.3500000E+00  0.5000000E-01  0.5000000E-01  0.6000000E-02
      1        -40.510837   1.000000
      2        -40.134508   1.000000
      3        -40.130603   1.000000
      4          5.002872   1.000000
      5          8.597794   1.000000
      6          8.760776   1.000000
      7          9.828839   1.000000
      8         12.212754   1.000000
      9         12.290454   1.000000
     10         21.224706   0.000000
     11         27.441137   0.000000
     12         32.279813   0.000000
     13         33.135707   0.000000
     14         39.290269   0.000000
     15         39.461581   0.000000
     16         40.460225   0.000000
     17         46.745820   0.000000
     18         49.948328   0.000000
     19         50.597602   0.000000
     20         53.126915   0.000000
     21         54.561076   0.000000
     22         55.679787   0.000000
     23         57.652400   0.000000
     24         59.602931   0.000000
 
 -0.2500000E+00  0.5000000E-01  0.5000000E-01  0.6000000E-02
      1        -40.377843   1.000000
      2        -40.117389   1.000000
      3        -40.108079   1.000000
      4          4.546098   1.000000
      5          8.315707   1.000000
      6          8.898729   1.000000
      7          9.006835   1.000000
      8         11.103930   1.000000
      9         11.540231   1.000000
     10         24.900263   0.000000
     11         28.745062   0.000000
     12         33.951530   0.000000
     13         35.240236   0.000000
     14         36.962608   0.000000
     15         37.616079   0.000000
     16         38.371070   0.000000
     17         46.407903   0.000000
     18         49.295826   0.000000
     19         50.181208   0.000000
     20         52.539313   0.000000
     21         53.121837   0.000000
     22         53.877785   0.000000
     23         57.379190   0.000000
     24         62.904538   0.000000
 
 -0.1500000E+00  0.5000000E-01  0.5000000E-01  0.6000000E-02
      1        -40.221776   1.000000
      2        -40.093937   1.000000
      3        -40.085224   1.000000
      4          3.388741   1.000000
      5          8.087314   1.000000
      6          9.017746   1.000000
      7          9.041629   1.000000
      8         10.509494   1.000000
      9         11.000800   1.000000
     10         28.120187   0.000000
     11         28.882073   0.000000
     12         33.483171   0.000000
     13         34.399293   0.000000
     14         37.200223   0.000000
     15         39.267733   0.000000
     16         40.874552   0.000000
     17         44.302970   0.000000
     18         46.243036   0.000000
     19         50.160036   0.000000
     20         51.974992   0.000000
     21         53.119921   0.000000
     22         53.240632   0.000000
     23         56.536346   0.000000
     24         62.688035   0.000000
 
 -0.5000000E-01  0.5000000E-01  0.5000000E-01  0.6000000E-02
      1        -40.103391   1.000000
      2        -40.073241   1.000000
      3        -40.069962   1.000000
      4          2.401799   1.000000
      5          8.383618   1.000000
      6          8.768172   1.000000
      7          8.775944   1.000000
      8         10.629050   1.000000
      9         10.908478   1.000000
     10         27.677209   0.000000
     11         30.870955   0.000000
     12         32.411429   0.000000
     13         32.664166   0.000000
     14         39.536653   0.000000
     15         41.977639   0.000000
     16         42.311044   0.000000
     17         44.435154   0.000000
     18         45.755860   0.000000
     19         49.840968   0.000000
     20         50.338052   0.000000
     21         53.122300   0.000000
     22         53.124137   0.000000
     23         55.603012   0.000000
     24         62.308409   0.000000
 
  0.1500000E+00  0.1500000E+00  0.5000000E-01  0.6000000E-02
      1        -40.149722   1.000000
      2        -40.091463   1.000000
      3        -40.087666   1.000000
      4          2.929642   1.000000
      5          8.060865   1.000000
      6          9.038944   1.000000
      7          9.046155   1.000000
      8         10.282672   1.000000
      9         11.064237   1.000000
     10         28.475983   0.000000
     11         30.170751   0.000000
     12         32.375751   0.000000
     13         32.740627   0.000000
     14         39.591798   0.000000
     15         40.429246   0.000000
     16         42.370260   0.000000
     17         42.555234   0.000000
     18         45.028998   0.000000
     19         50.810863   0.000000
     20         51.977494   0.000000
     21         52.134214   0.000000
     22         53.120779   0.000000
     23         56.460518   0.000000
     24         63.516225   0.000000
 
  0.2500000E+00  0.1500000E+00  0.5000000E-01  0.1200000E-01
      1        -40.245151   1.000000
      2        -40.125817   1.000000
      3        -40.101077   1.000000
      4          3.879505   1.000000
      5          7.689227   1.000000
      6          9.154812   1.000000
      7          9.426987   1.000000
      8         10.167116   1.000000
      9         11.362440   1.000000
     10         28.444817   0.000000
     11         29.586754   0.000000
     12         32.041234   0.000000
     13         33.361037   0.000000
     14         37.089493   0.000000
     15         39.458462   0.000000
     16         40.678744   0.000000
     17         44.355433   0.000000
     18         45.881829   0.000000
     19         49.703306   0.000000
     20         51.321656   0.000000
     21         53.119678   0.000000
     22         54.889454   0.000000
     23         57.865775   0.000000
     24         63.354836   0.000000
 
  0.3500000E+00  0.1500000E+00  0.5000000E-01  0.1200000E-01
      1        -40.380697   1.000000
      2        -40.156128   1.000000
      3        -40.123851   1.000000
      4          5.028544   1.000000
      5          7.736128   1.000000
      6          8.705696   1.000000
      7          9.436263   1.000000
      8         11.058522   1.000000
      9         12.131286   1.000000
     10         25.190531   0.000000
     11         29.258509   0.000000
     12         31.449929   0.000000
     13         33.515092   0.000000
     14         37.696086   0.000000
     15         38.543051   0.000000
     16         40.519630   0.000000
     17         43.658793   0.000000
     18         49.295152   0.000000
     19         51.095771   0.000000
     20         51.344487   0.000000
     21         53.121872   0.000000
     22         55.026361   0.000000
     23         59.418199   0.000000
     24         61.241587   0.000000
 
  0.4500000E+00  0.1500000E+00  0.5000000E-01  0.1200000E-01
      1        -40.496050   1.000000
      2        -40.179265   1.000000
      3        -40.146715   1.000000
      4          5.470029   1.000000
      5          8.262413   1.000000
      6          8.852246   1.000000
      7          9.210693   1.000000
      8         12.206047   1.000000
      9         13.388534   0.000000
     10         21.305691   0.000000
     11         28.087528   0.000000
     12         30.376105   0.000000
     13         32.618071   0.000000
     14         38.580753   0.000000
     15         40.927464   0.000000
     16         41.912101   0.000000
     17         43.979841   0.000000
     18         50.659252   0.000000
     19         50.930359   0.000000
     20         52.690984   0.000000
     21         53.127515   0.000000
     22         56.417253   0.000000
     23         57.909440   0.000000
     24         59.611780   0.000000
 
 -0.4500000E+00  0.1500000E+00  0.5000000E-01  0.1200000E-01
      1        -40.549131   1.000000
      2        -40.193942   1.000000
      3        -40.153977   1.000000
      4          5.493897   1.000000
      5          8.086479   1.000000
      6          9.011228   1.000000
      7          9.952978   1.000000
      8         12.522580   0.913927
      9         15.033179   0.000000
     10         18.446150   0.000000
     11         27.553220   0.000000
     12         30.047818   0.000000
     13         31.239642   0.000000
     14         40.252635   0.000000
     15         41.063537   0.000000
     16         43.923060   0.000000
     17         46.250863   0.000000
     18         48.569309   0.000000
     19         50.313782   0.000000
     20         53.126954   0.000000
     21         53.294853   0.000000
     22         54.714608   0.000000
     23         58.741698   0.000000
     24         60.588823   0.000000
 
 -0.3500000E+00  0.1500000E+00  0.5000000E-01  0.1200000E-01
      1        -40.520577   1.000000
      2        -40.195931   1.000000
      3        -40.141619   1.000000
      4          5.517691   1.000000
      5          8.206658   1.000000
      6          9.041174   1.000000
      7          9.480911   1.000000
      8         12.012660   1.000000
      9         14.169811   0.000000
     10         20.202895   0.000000
     11         27.776701   0.000000
     12         29.822627   0.000000
     13         32.610393   0.000000
     14         38.518263   0.000000
     15         41.077741   0.000000
     16         43.082422   0.000000
     17         45.795256   0.000000
     18         49.665641   0.000000
     19         50.851970   0.000000
     20         51.777095   0.000000
     21         53.125111   0.000000
     22         56.375938   0.000000
     23         58.661829   0.000000
     24         59.586409   0.000000
 
 -0.2500000E+00  0.1500000E+00  0.5000000E-01  0.1200000E-01
      1        -40.421773   1.000000
      2        -40.179247   1.000000
      3        -40.117892   1.000000
      4          5.310327   1.000000
      5          8.096534   1.000000
      6          8.590814   1.000000
      7          9.309025   1.000000
      8         10.976800   1.000000
      9         12.812214   0.000000
     10         23.927702   0.000000
     11         28.665205   0.000000
     12         30.746627   0.000000
     13         34.470359   0.000000
     14         36.485181   0.000000
     15         39.894241   0.000000
     16         41.554118   0.000000
     17         43.812638   0.000000
     18         49.362464   0.000000
     19         49.774362   0.000000
     20         53.123062   0.000000
     21         53.490078   0.000000
     22         55.690388   0.000000
     23         58.924488   0.000000
     24         60.117176   0.000000
 
 -0.1500000E+00  0.1500000E+00  0.5000000E-01  0.1200000E-01
      1        -40.291590   1.000000
      2        -40.145470   1.000000
      3        -40.093443   1.000000
      4          4.289354   1.000000
      5          7.734999   1.000000
      6          8.992008   1.000000
      7          9.460755   1.000000
      8         10.170836   1.000000
      9         11.701147   1.000000
     10         27.261214   0.000000
     11         29.486610   0.000000
     12         32.196351   0.000000
     13         33.331803   0.000000
     14         36.998801   0.000000
     15         39.963684   0.000000
     16         40.889848   0.000000
     17         43.305007   0.000000
     18         46.878201   0.000000
     19         49.408828   0.000000
     20         51.094481   0.000000
     21         53.124320   0.000000
     22         56.775069   0.000000
     23         58.098208   0.000000
     24         62.217538   0.000000
 
 -0.5000000E-01  0.1500000E+00  0.5000000E-01  0.1200000E-01
      1        -40.185686   1.000000
      2        -40.100013   1.000000
      3        -40.079115   1.000000
      4          3.171783   1.000000
      5          8.055037   1.000000
      6          9.037883   1.000000
      7          9.059069   1.000000
      8         10.340918   1.000000
      9         11.063261   1.000000
     10         28.730091   0.000000
     11         29.094819   0.000000
     12         32.458859   0.000000
     13         34.055228   0.000000
     14         37.620245   0.000000
     15         40.412950   0.000000
     16         42.534704   0.000000
     17         43.427431   0.000000
     18         44.613558   0.000000
     19         50.172837   0.000000
     20         51.571860   0.000000
     21         53.126880   0.000000
     22         53.596751   0.000000
     23         56.785057   0.000000
     24         63.066238   0.000000
 
  0.2500000E+00  0.2500000E+00  0.5000000E-01  0.6000000E-02
      1        -40.283118   1.000000
      2        -40.144670   1.000000
      3        -40.143771   1.000000
      4          4.501824   1.000000
      5          7.191198   1.000000
      6          9.314893   1.000000
      7          9.954035   1.000000
      8         10.195520   1.000000
      9         11.553514   1.000000
     10         29.230057   0.000000
     11         30.668803   0.000000
     12         30.757111   0.000000
     13         31.503134   0.000000
     14         35.720817   0.000000
     15         39.313241   0.000000
     16         39.559669   0.000000
     17         45.950671   0.000000
     18         47.028410   0.000000
     19         48.187433   0.000000
     20         53.113876   0.000000
     21         53.960570   0.000000
     22         54.749055   0.000000
     23         56.517964   0.000000
     24         66.080040   0.000000
 
  0.3500000E+00  0.2500000E+00  0.5000000E-01  0.1200000E-01
      1        -40.373539   1.000000
      2        -40.187406   1.000000
      3        -40.163966   1.000000
      4          5.406962   1.000000
      5          6.871870   1.000000
      6          8.906697   1.000000
      7         10.436486   1.000000
      8         11.075913   1.000000
      9         12.177237   1.000000
     10         26.870008   0.000000
     11         28.915299   0.000000
     12         30.040364   0.000000
     13         32.584866   0.000000
     14         35.038949   0.000000
     15         39.552327   0.000000
     16         40.835566   0.000000
     17         45.731662   0.000000
     18         46.266910   0.000000
     19         50.788649   0.000000
     20         53.117657   0.000000
     21         53.896733   0.000000
     22         55.828818   0.000000
     23         57.316903   0.000000
     24         64.057351   0.000000
 
  0.4500000E+00  0.2500000E+00  0.5000000E-01  0.1200000E-01
      1        -40.459589   1.000000
      2        -40.229263   1.000000
      3        -40.184293   1.000000
      4          5.969335   1.000000
      5          7.166130   1.000000
      6          8.539433   1.000000
      7         10.244626   1.000000
      8         12.350314   1.000000
      9         13.707296   0.000000
     10         22.717389   0.000000
     11         28.190927   0.000000
     12         28.425243   0.000000
     13         32.409302   0.000000
     14         37.538011   0.000000
     15         40.150371   0.000000
     16         42.192384   0.000000
     17         45.106670   0.000000
     18         47.701987   0.000000
     19         50.850576   0.000000
     20         53.125341   0.000000
     21         53.987882   0.000000
     22         57.359335   0.000000
     23         57.953109   0.000000
     24         61.494292   0.000000
 
 -0.4500000E+00  0.2500000E+00  0.5000000E-01  0.1200000E-01
      1        -40.502191   1.000000
      2        -40.272223   1.000000
      3        -40.187277   1.000000
      4          6.140354   1.000000
      5          7.513187   1.000000
      6          8.772641   1.000000
      7          9.958529   1.000000
      8         12.568676   0.524546
      9         16.363960   0.000000
     10         19.008290   0.000000
     11         26.987644   0.000000
     12         28.551428   0.000000
     13         31.383738   0.000000
     14         39.450610   0.000000
     15         41.431912   0.000000
     16         42.503837   0.000000
     17         45.767832   0.000000
     18         49.413655   0.000000
     19         50.523015   0.000000
     20         52.995760   0.000000
     21         53.124999   0.000000
     22         55.872861   0.000000
     23         58.572108   0.000000
     24         61.164281   0.000000
 
 -0.3500000E+00  0.2500000E+00  0.5000000E-01  0.1200000E-01
      1        -40.489286   1.000000
      2        -40.296830   1.000000
      3        -40.169954   1.000000
      4          6.373356   1.000000
      5          7.617323   1.000000
      6          8.764906   1.000000
      7          9.812627   1.000000
      8         11.951402   1.000000
      9         16.158713   0.000000
     10         19.824075   0.000000
     11         25.931893   0.000000
     12         29.487240   0.000000
     13         31.682489   0.000000
     14         38.368139   0.000000
     15         40.643074   0.000000
     16         44.048650   0.000000
     17         47.646644   0.000000
     18         49.010538   0.000000
     19         51.079216   0.000000
     20         52.091985   0.000000
     21         53.126148   0.000000
     22         54.015609   0.000000
     23         58.189104   0.000000
     24         60.386540   0.000000
 
 -0.2500000E+00  0.2500000E+00  0.5000000E-01  0.1200000E-01
      1        -40.440720   1.000000
      2        -40.276275   1.000000
      3        -40.141790   1.000000
      4          6.458136   1.000000
      5          7.757790   1.000000
      6          8.039232   1.000000
      7          9.917535   1.000000
      8         10.930427   1.000000
      9         14.479632   0.000000
     10         23.121147   0.000000
     11         26.114908   0.000000
     12         29.961034   0.000000
     13         34.167049   0.000000
     14         35.475390   0.000000
     15         40.778260   0.000000
     16         44.409542   0.000000
     17         45.322987   0.000000
     18         47.305285   0.000000
     19         50.051432   0.000000
     20         53.127507   0.000000
     21         54.010992   0.000000
     22         57.256954   0.000000
     23         58.069525   0.000000
     24         59.028444   0.000000
 
 -0.1500000E+00  0.2500000E+00  0.5000000E-01  0.1200000E-01
      1        -40.386029   1.000000
      2        -40.205978   1.000000
      3        -40.114638   1.000000
      4          5.504287   1.000000
      5          7.602141   1.000000
      6          8.560972   1.000000
      7          9.764475   1.000000
      8         10.354397   1.000000
      9         12.946301   0.000000
     10         25.200500   0.000000
     11         28.321760   0.000000
     12         30.726093   0.000000
     13         33.505584   0.000000
     14         36.827003   0.000000
     15         40.583158   0.000000
     16         41.899895   0.000000
     17         43.165050   0.000000
     18         47.548866   0.000000
     19         49.386911   0.000000
     20         53.121183   0.000000
     21         53.482616   0.000000
     22         57.359979   0.000000
     23         59.376372   0.000000
     24         60.123851   0.000000
 
 -0.5000000E-01  0.2500000E+00  0.5000000E-01  0.1200000E-01
      1        -40.327909   1.000000
      2        -40.128317   1.000000
      3        -40.099608   1.000000
      4          4.375950   1.000000
      5          7.944752   1.000000
      6          8.961865   1.000000
      7          9.195400   1.000000
      8         10.628229   1.000000
      9         11.601474   1.000000
     10         26.161964   0.000000
     11         29.257795   0.000000
     12         33.034988   0.000000
     13         34.313708   0.000000
     14         37.202136   0.000000
     15         38.157549   0.000000
     16         39.712696   0.000000
     17         44.887517   0.000000
     18         47.907818   0.000000
     19         50.523064   0.000000
     20         51.220979   0.000000
     21         53.120453   0.000000
     22         54.857439   0.000000
     23         58.092137   0.000000
     24         62.568716   0.000000
 
  0.3500000E+00  0.3500000E+00  0.5000000E-01  0.6000000E-02
      1        -40.425582   1.000000
      2        -40.207002   1.000000
      3        -40.203486   1.000000
      4          5.538430   1.000000
      5          6.358068   1.000000
      6          9.893323   1.000000
      7         11.204904   1.000000
      8         11.646653   1.000000
      9         12.154383   1.000000
     10         26.783817   0.000000
     11         27.525459   0.000000
     12         28.477076   0.000000
     13         32.227653   0.000000
     14         33.757043   0.000000
     15         41.473158   0.000000
     16         41.910207   0.000000
     17         44.101859   0.000000
     18         47.683863   0.000000
     19         50.683850   0.000000
     20         53.112391   0.000000
     21         56.378791   0.000000
     22         56.416518   0.000000
     23         56.989279   0.000000
     24         62.144371   0.000000
 
  0.4500000E+00  0.3500000E+00  0.5000000E-01  0.1200000E-01
      1        -40.479516   1.000000
      2        -40.245540   1.000000
      3        -40.223120   1.000000
      4          5.702873   1.000000
      5          6.209604   1.000000
      6         10.033276   1.000000
      7         11.621742   1.000000
      8         12.368627   1.000000
      9         13.649654   0.000000
     10         23.892424   0.000000
     11         25.914073   0.000000
     12         26.798690   0.000000
     13         33.255015   0.000000
     14         35.122466   0.000000
     15         41.136956   0.000000
     16         43.856157   0.000000
     17         45.285825   0.000000
     18         48.415295   0.000000
     19         49.564412   0.000000
     20         53.124167   0.000000
     21         54.842184   0.000000
     22         57.274303   0.000000
     23         58.818218   0.000000
     24         59.779994   0.000000
 
 -0.4500000E+00  0.3500000E+00  0.5000000E-01  0.1200000E-01
      1        -40.490433   1.000000
      2        -40.307792   1.000000
      3        -40.224738   1.000000
      4          5.934431   1.000000
      5          6.603336   1.000000
      6          9.593183   1.000000
      7         11.191030   1.000000
      8         12.713995   0.000026
      9         16.603396   0.000000
     10         20.306641   0.000000
     11         24.801176   0.000000
     12         26.503361   0.000000
     13         33.249348   0.000000
     14         37.837953   0.000000
     15         40.337597   0.000000
     16         43.447278   0.000000
     17         47.586728   0.000000
     18         49.099614   0.000000
     19         49.820960   0.000000
     20         53.127416   0.000000
     21         53.886802   0.000000
     22         55.791495   0.000000
     23         58.196895   0.000000
     24         59.390200   0.000000
 
 -0.3500000E+00  0.3500000E+00  0.5000000E-01  0.1200000E-01
      1        -40.444018   1.000000
      2        -40.381593   1.000000
      3        -40.205474   1.000000
      4          6.340467   1.000000
      5          7.248587   1.000000
      6          8.887166   1.000000
      7         10.709607   1.000000
      8         12.209179   1.000000
      9         17.655678   0.000000
     10         20.183550   0.000000
     11         23.071727   0.000000
     12         28.161973   0.000000
     13         32.494926   0.000000
     14         39.179376   0.000000
     15         41.075468   0.000000
     16         41.311068   0.000000
     17         48.665857   0.000000
     18         49.406310   0.000000
     19         52.374514   0.000000
     20         53.129966   0.000000
     21         53.456679   0.000000
     22         54.122428   0.000000
     23         57.092152   0.000000
     24         59.554711   0.000000
 
 -0.2500000E+00  0.3500000E+00  0.5000000E-01  0.1200000E-01
      1        -40.446834   1.000000
      2        -40.348337   1.000000
      3        -40.173321   1.000000
      4          6.739523   1.000000
      5          7.624476   1.000000
      6          8.212371   1.000000
      7         10.193458   1.000000