 vasp.6.3.2 27Jun22 (build Aug 12 2022 00:53:59) complex                        
  
 executed on               tv2STD date 2024.12.03  02:18:55
 running   24 mpi-ranks, with    1 threads/rank
 distrk:  each k-point on   24 cores,    1 groups
 distr:  one band on NCORE=   1 cores,   24 groups


--------------------------------------------------------------------------------------------------------


 INCAR:
   SYSTEM = Pt-fcc
   NWRITE = 2    write-flag
   ISTART = 0    job   : 0-new, 1-cont, 2-samecut
   ICHARG = 2    charge: 0-wave, 1-file, 2-atom, >10-const
   INIWAV = 1    electr: 0-lowe 1-rand  2-diag
   ENCUT = 425.0     energy cutoff in eV
   PREC = accurate      normal | accurate
   ADDGRID = .FALSE.  (use fine grid)
   NELM = 100     number of ELM steps
   EDIFF = 1E-06    energy stopping-criterion for ELM
   LREAL = .FALSE.      real-space projection (.FALSE., .TRUE., On, Auto)
   ALGO = Normal     Normal, Fast, Very_Fast
   LWAVE = .TRUE.
   LCHARG = .TRUE.
   NSW = 100       max number of geometry steps
   IBRION = 2     ionic relax: 0-MD, 1-quasi-Newton, 2-CG, 3-Damped MD
   EDIFFG = -0.02  force (eV/A) stopping-criterion for geometry steps
   ISIF = 2     (1:force\=y stress\=trace only ions\=y shape\=n volume\=n)
   ISYM = 1     (1-use symmetry, 0-no symmetry)
   ISMEAR = 0     (-1-Fermi, 1-Methfessel/Paxton)
   SIGMA = 0.05   broadening in eV
   LORBIT = 11

 POTCAR:    PAW_PBE Pt_pv 12Dec2005               
 POTCAR:    PAW_PBE Pt_pv 12Dec2005               
   SHA256 =  e5abf7e8cd8db70d0153315afc5ad66b6e3eeee29cc2d5b91b16730957c1d208 Pt_pv/POTCAR          
   COPYR  = (c) Copyright 12Dec2005 Georg Kresse                                                    
   COPYR  = This file is part of the software VASP. Any use, copying, and all other rights are regul
   COPYR  = If you do not have a valid VASP license, you may not use, copy or distribute this file. 
   VRHFIN =Pt: 5ps1d9                                                                               
   LEXCH  = PE                                                                                      
   EATOM  =  2428.2504 eV,  178.4714 Ry                                                             
                                                                                                    
   TITEL  = PAW_PBE Pt_pv 12Dec2005                                                                 
   LULTRA =        F    use ultrasoft PP ?                                                          
   IUNSCR =        1    unscreen: 0-lin 1-nonlin 2-no                                               
   RPACOR =    2.000    partial core radius                                                         
   POMASS =  195.080; ZVAL   =   16.000    mass and valenz                                          
   RCORE  =    2.200    outmost cutoff radius                                                       
   RWIGS  =    2.200; RWIGS  =    1.164    wigner-seitz radius (au A)                               
   ENMAX  =  294.607; ENMIN  =  220.955 eV                                                          
   ICORE  =        3    local potential                                                             
   LCOR   =        T    correct aug charges                                                         
   LPAW   =        T    paw PP                                                                      
   EAUG   =  527.014                                                                                
   DEXC   =    0.000                                                                                
   RMAX   =    2.247    core radius for proj-oper                                                   
   RAUG   =    1.300    factor for augmentation sphere                                              
   RDEP   =    2.279    radius for radial grids                                                     
   RDEPT  =    1.878    core radius for aug-charge                                                  
                                                                                                    
   Atomic configuration                                                                             
   16 entries                                                                                       
     n  l   j            E        occ.                                                              
     1  0  0.50    -78401.1885   2.0000                                                             
     2  0  0.50    -13770.7750   2.0000                                                             
     2  1  1.50    -11931.0468   6.0000                                                             
     3  0  0.50     -3234.7234   2.0000                                                             
     3  1  1.50     -2699.2216   6.0000                                                             
     3  2  2.50     -2119.5714  10.0000                                                             
     4  0  0.50      -695.1528   2.0000                                                             
     4  1  1.50      -519.6034   6.0000                                                             
     4  2  2.50      -306.6786  10.0000                                                             
     4  3  3.50       -70.1041  14.0000                                                             
     5  0  0.50      -101.7747   2.0000                                                             
     5  1  1.50       -55.9873   6.0000                                                             
     6  1  1.50        -6.8029   0.0000                                                             
     5  2  2.50        -6.1423   9.0000                                                             
     6  0  0.50        -5.6573   1.0000                                                             
     5  3  2.50        -1.3606   0.0000                                                             
   Description                                                                                      
     l       E           TYP  RCUT    TYP  RCUT                                                     
     1    -55.9873477     23  2.000                                                                 
     1     27.2116520     23  2.000                                                                 
     2     -6.1423404     23  2.200                                                                 
     2     -4.6754623     23  2.200                                                                 
     0     -5.6573207     23  2.200                                                                 
     0     47.6203910     23  2.200                                                                 
     3      6.8029130     23  2.200                                                                 
  local pseudopotential read in
  partial core-charges read in
  partial kinetic energy density read in
  atomic valenz-charges read in
  non local Contribution for L=           1  read in
    real space projection operators read in
  non local Contribution for L=           1  read in
    real space projection operators read in
  non local Contribution for L=           2  read in
    real space projection operators read in
  non local Contribution for L=           2  read in
    real space projection operators read in
  non local Contribution for L=           0  read in
    real space projection operators read in
  non local Contribution for L=           0  read in
    real space projection operators read in
    PAW grid and wavefunctions read in
 
   number of l-projection  operators is LMAX  =           6
   number of lm-projection operators is LMMAX =          18
 
  PAW_PBE Pt_pv 12Dec2005               :
 energy of atom  1       EATOM=-2428.2504
 kinetic energy error for atom=    0.0554 (will be added to EATOM!!)
 
 
 POSCAR: Pt
  positions in cartesian coordinates
  No initial velocities read in
 exchange correlation table for  LEXCH =        8
   RHO(1)=    0.500       N(1)  =     2000
   RHO(2)=  100.500       N(2)  =     4000
 


--------------------------------------------------------------------------------------------------------


 ion  position               nearest neighbor table
   1  0.000  0.000  0.000-
 
  LATTYP: Found a face centered cubic cell.
 ALAT       =     3.7598123959
  
  Lattice vectors:
  
 A1 = (   0.0000000000,   1.8799061980,   1.8799061980)
 A2 = (   1.8799061980,   0.0000000000,   1.8799061980)
 A3 = (   1.8799061980,   1.8799061980,   0.0000000000)


Analysis of symmetry for initial positions (statically):
=====================================================================
 Subroutine PRICEL returns:
 Original cell was already a primitive cell.
 

 Routine SETGRP: Setting up the symmetry group for a 
 face centered cubic supercell.


 Subroutine GETGRP returns: Found 48 space group operations
 (whereof 48 operations were pure point group operations)
 out of a pool of 48 trial point group operations.


The static configuration has the point symmetry O_h .


Analysis of symmetry for dynamics (positions and initial velocities):
=====================================================================
 Subroutine PRICEL returns:
 Original cell was already a primitive cell.
 

 Routine SETGRP: Setting up the symmetry group for a 
 face centered cubic supercell.


 Subroutine GETGRP returns: Found 48 space group operations
 (whereof 48 operations were pure point group operations)
 out of a pool of 48 trial point group operations.


The dynamic configuration has the point symmetry O_h .


 Subroutine INISYM returns: Found 48 space group operations
 (whereof 48 operations are pure point group operations),
 and found     1 'primitive' translations


----------------------------------------------------------------------------------------

                                     Primitive cell                                     

  volume of cell :      13.2874

  direct lattice vectors                    reciprocal lattice vectors
     0.000000000  1.879906198  1.879906198    -0.265970717  0.265970717  0.265970717
     1.879906198  0.000000000  1.879906198     0.265970717 -0.265970717  0.265970717
     1.879906198  1.879906198  0.000000000     0.265970717  0.265970717 -0.265970717

  length of vectors
     2.658588841  2.658588841  2.658588841     0.460674796  0.460674796  0.460674796

  position of ions in fractional coordinates (direct lattice)
     0.000000000  0.000000000  0.000000000

  ion indices of the primitive-cell ions
   primitive index   ion index
                 1           1

----------------------------------------------------------------------------------------

 
 
 KPOINTS: Automatic mesh                          

Automatic generation of k-mesh.
 Grid dimensions read from file:
 generate k-points for:   10   10   10

 Generating k-lattice:

  Cartesian coordinates                     Fractional coordinates (reciprocal lattice)
    -0.026597072  0.026597072  0.026597072     0.100000000 -0.000000000 -0.000000000
     0.026597072 -0.026597072  0.026597072     0.000000000  0.100000000  0.000000000
     0.026597072  0.026597072 -0.026597072     0.000000000  0.000000000  0.100000000

  Length of vectors
     0.046067480  0.046067480  0.046067480

  Shift w.r.t. Gamma in fractional coordinates (k-lattice)
     0.500000000  0.500000000  0.500000000

 
 Subroutine IBZKPT returns following result:
 ===========================================
 
 Found    110 irreducible k-points:
 
 Following reciprocal coordinates:
            Coordinates               Weight
  0.050000  0.050000  0.050000      8.000000
  0.150000  0.050000  0.050000     24.000000
  0.250000  0.050000  0.050000     24.000000
  0.350000  0.050000  0.050000     24.000000
  0.450000  0.050000  0.050000     24.000000
 -0.450000  0.050000  0.050000     24.000000
 -0.350000  0.050000  0.050000     24.000000
 -0.250000  0.050000  0.050000     24.000000
 -0.150000  0.050000  0.050000     24.000000
 -0.050000  0.050000  0.050000     24.000000
  0.150000  0.150000  0.050000     24.000000
  0.250000  0.150000  0.050000     48.000000
  0.350000  0.150000  0.050000     48.000000
  0.450000  0.150000  0.050000     48.000000
 -0.450000  0.150000  0.050000     48.000000
 -0.350000  0.150000  0.050000     48.000000
 -0.250000  0.150000  0.050000     48.000000
 -0.150000  0.150000  0.050000     48.000000
 -0.050000  0.150000  0.050000     48.000000
  0.250000  0.250000  0.050000     24.000000
  0.350000  0.250000  0.050000     48.000000
  0.450000  0.250000  0.050000     48.000000
 -0.450000  0.250000  0.050000     48.000000
 -0.350000  0.250000  0.050000     48.000000
 -0.250000  0.250000  0.050000     48.000000
 -0.150000  0.250000  0.050000     48.000000
 -0.050000  0.250000  0.050000     48.000000
  0.350000  0.350000  0.050000     24.000000
  0.450000  0.350000  0.050000     48.000000
 -0.450000  0.350000  0.050000     48.000000
 -0.350000  0.350000  0.050000     48.000000
 -0.250000  0.350000  0.050000     48.000000
 -0.150000  0.350000  0.050000     48.000000
 -0.050000  0.350000  0.050000     48.000000
  0.450000  0.450000  0.050000     24.000000
 -0.450000  0.450000  0.050000     48.000000
 -0.350000  0.450000  0.050000     48.000000
 -0.250000  0.450000  0.050000     48.000000
 -0.150000  0.450000  0.050000     48.000000
 -0.050000  0.450000  0.050000     48.000000
 -0.450000 -0.450000  0.050000     24.000000
 -0.350000 -0.450000  0.050000     48.000000
 -0.250000 -0.450000  0.050000     48.000000
 -0.150000 -0.450000  0.050000     48.000000
 -0.350000 -0.350000  0.050000     24.000000
 -0.250000 -0.350000  0.050000     48.000000
 -0.150000 -0.350000  0.050000     48.000000
 -0.250000 -0.250000  0.050000     24.000000
 -0.150000 -0.250000  0.050000     48.000000
 -0.150000 -0.150000  0.050000     24.000000
  0.150000  0.150000  0.150000      8.000000
  0.250000  0.150000  0.150000     24.000000
  0.350000  0.150000  0.150000     24.000000
  0.450000  0.150000  0.150000     24.000000
 -0.450000  0.150000  0.150000     24.000000
 -0.350000  0.150000  0.150000     24.000000
 -0.250000  0.150000  0.150000     24.000000
 -0.150000  0.150000  0.150000     24.000000
  0.250000  0.250000  0.150000     24.000000
  0.350000  0.250000  0.150000     48.000000
  0.450000  0.250000  0.150000     48.000000
 -0.450000  0.250000  0.150000     48.000000
 -0.350000  0.250000  0.150000     48.000000
 -0.250000  0.250000  0.150000     48.000000
 -0.150000  0.250000  0.150000     48.000000
  0.350000  0.350000  0.150000     24.000000
  0.450000  0.350000  0.150000     48.000000
 -0.450000  0.350000  0.150000     48.000000
 -0.350000  0.350000  0.150000     48.000000
 -0.250000  0.350000  0.150000     48.000000
 -0.150000  0.350000  0.150000     48.000000
  0.450000  0.450000  0.150000     24.000000
 -0.450000  0.450000  0.150000     48.000000
 -0.350000  0.450000  0.150000     48.000000
 -0.250000  0.450000  0.150000     48.000000
 -0.150000  0.450000  0.150000     48.000000
 -0.450000 -0.450000  0.150000     24.000000
 -0.350000 -0.450000  0.150000     48.000000
 -0.250000 -0.450000  0.150000     48.000000
 -0.350000 -0.350000  0.150000     24.000000
 -0.250000 -0.350000  0.150000     48.000000
 -0.250000 -0.250000  0.150000     24.000000
  0.250000  0.250000  0.250000      8.000000
  0.350000  0.250000  0.250000     24.000000
  0.450000  0.250000  0.250000     24.000000
 -0.450000  0.250000  0.250000     24.000000
 -0.350000  0.250000  0.250000     24.000000
 -0.250000  0.250000  0.250000     24.000000
  0.350000  0.350000  0.250000     24.000000
  0.450000  0.350000  0.250000     48.000000
 -0.450000  0.350000  0.250000     48.000000
 -0.350000  0.350000  0.250000     48.000000
 -0.250000  0.350000  0.250000     48.000000
  0.450000  0.450000  0.250000     24.000000
 -0.450000  0.450000  0.250000     48.000000
 -0.350000  0.450000  0.250000     48.000000
 -0.250000  0.450000  0.250000     48.000000
 -0.450000 -0.450000  0.250000     24.000000
 -0.350000 -0.450000  0.250000     48.000000
 -0.350000 -0.350000  0.250000     24.000000
  0.350000  0.350000  0.350000      8.000000
  0.450000  0.350000  0.350000     24.000000
 -0.450000  0.350000  0.350000     24.000000
 -0.350000  0.350000  0.350000     24.000000
  0.450000  0.450000  0.350000     24.000000
 -0.450000  0.450000  0.350000     48.000000
 -0.350000  0.450000  0.350000     48.000000
 -0.450000 -0.450000  0.350000     24.000000
  0.450000  0.450000  0.450000      8.000000
 -0.450000  0.450000  0.450000     24.000000
 
 Following cartesian coordinates:
            Coordinates               Weight
  0.013299  0.013299  0.013299      8.000000
 -0.013299  0.039896  0.039896     24.000000
 -0.039896  0.066493  0.066493     24.000000
 -0.066493  0.093090  0.093090     24.000000
 -0.093090  0.119687  0.119687     24.000000
  0.146284 -0.119687 -0.119687     24.000000
  0.119687 -0.093090 -0.093090     24.000000
  0.093090 -0.066493 -0.066493     24.000000
  0.066493 -0.039896 -0.039896     24.000000
  0.039896 -0.013299 -0.013299     24.000000
  0.013299  0.013299  0.066493     24.000000
 -0.013299  0.039896  0.093090     48.000000
 -0.039896  0.066493  0.119687     48.000000
 -0.066493  0.093090  0.146284     48.000000
  0.172881 -0.146284 -0.093090     48.000000
  0.146284 -0.119687 -0.066493     48.000000
  0.119687 -0.093090 -0.039896     48.000000
  0.093090 -0.066493 -0.013299     48.000000
  0.066493 -0.039896  0.013299     48.000000
  0.013299  0.013299  0.119687     24.000000
 -0.013299  0.039896  0.146284     48.000000
 -0.039896  0.066493  0.172881     48.000000
  0.199478 -0.172881 -0.066493     48.000000
  0.172881 -0.146284 -0.039896     48.000000
  0.146284 -0.119687 -0.013299     48.000000
  0.119687 -0.093090  0.013299     48.000000
  0.093090 -0.066493  0.039896     48.000000
  0.013299  0.013299  0.172881     24.000000
 -0.013299  0.039896  0.199478     48.000000
  0.226075 -0.199478 -0.039896     48.000000
  0.199478 -0.172881 -0.013299     48.000000
  0.172881 -0.146284  0.013299     48.000000
  0.146284 -0.119687  0.039896     48.000000
  0.119687 -0.093090  0.066493     48.000000
  0.013299  0.013299  0.226075     24.000000
  0.252672 -0.226075 -0.013299     48.000000
  0.226075 -0.199478  0.013299     48.000000
  0.199478 -0.172881  0.039896     48.000000
  0.172881 -0.146284  0.066493     48.000000
  0.146284 -0.119687  0.093090     48.000000
  0.013299  0.013299 -0.252672     24.000000
 -0.013299  0.039896 -0.226075     48.000000
 -0.039896  0.066493 -0.199478     48.000000
 -0.066493  0.093090 -0.172881     48.000000
  0.013299  0.013299 -0.199478     24.000000
 -0.013299  0.039896 -0.172881     48.000000
 -0.039896  0.066493 -0.146284     48.000000
  0.013299  0.013299 -0.146284     24.000000
 -0.013299  0.039896 -0.119687     48.000000
  0.013299  0.013299 -0.093090     24.000000
  0.039896  0.039896  0.039896      8.000000
  0.013299  0.066493  0.066493     24.000000
 -0.013299  0.093090  0.093090     24.000000
 -0.039896  0.119687  0.119687     24.000000
  0.199478 -0.119687 -0.119687     24.000000
  0.172881 -0.093090 -0.093090     24.000000
  0.146284 -0.066493 -0.066493     24.000000
  0.119687 -0.039896 -0.039896     24.000000
  0.039896  0.039896  0.093090     24.000000
  0.013299  0.066493  0.119687     48.000000
 -0.013299  0.093090  0.146284     48.000000
  0.226075 -0.146284 -0.093090     48.000000
  0.199478 -0.119687 -0.066493     48.000000
  0.172881 -0.093090 -0.039896     48.000000
  0.146284 -0.066493 -0.013299     48.000000
  0.039896  0.039896  0.146284     24.000000
  0.013299  0.066493  0.172881     48.000000
  0.252672 -0.172881 -0.066493     48.000000
  0.226075 -0.146284 -0.039896     48.000000
  0.199478 -0.119687 -0.013299     48.000000
  0.172881 -0.093090  0.013299     48.000000
  0.039896  0.039896  0.199478     24.000000
  0.279269 -0.199478 -0.039896     48.000000
  0.252672 -0.172881 -0.013299     48.000000
  0.226075 -0.146284  0.013299     48.000000
  0.199478 -0.119687  0.039896     48.000000
  0.039896  0.039896 -0.279269     24.000000
  0.013299  0.066493 -0.252672     48.000000
 -0.013299  0.093090 -0.226075     48.000000
  0.039896  0.039896 -0.226075     24.000000
  0.013299  0.066493 -0.199478     48.000000
  0.039896  0.039896 -0.172881     24.000000
  0.066493  0.066493  0.066493      8.000000
  0.039896  0.093090  0.093090     24.000000
  0.013299  0.119687  0.119687     24.000000
  0.252672 -0.119687 -0.119687     24.000000
  0.226075 -0.093090 -0.093090     24.000000
  0.199478 -0.066493 -0.066493     24.000000
  0.066493  0.066493  0.119687     24.000000
  0.039896  0.093090  0.146284     48.000000
  0.279269 -0.146284 -0.093090     48.000000
  0.252672 -0.119687 -0.066493     48.000000
  0.226075 -0.093090 -0.039896     48.000000
  0.066493  0.066493  0.172881     24.000000
  0.305866 -0.172881 -0.066493     48.000000
  0.279269 -0.146284 -0.039896     48.000000
  0.252672 -0.119687 -0.013299     48.000000
  0.066493  0.066493 -0.305866     24.000000
  0.039896  0.093090 -0.279269     48.000000
  0.066493  0.066493 -0.252672     24.000000
  0.093090  0.093090  0.093090      8.000000
  0.066493  0.119687  0.119687     24.000000
  0.305866 -0.119687 -0.119687     24.000000
  0.279269 -0.093090 -0.093090     24.000000
  0.093090  0.093090  0.146284     24.000000
  0.332463 -0.146284 -0.093090     48.000000
  0.305866 -0.119687 -0.066493     48.000000
  0.093090  0.093090 -0.332463     24.000000
  0.119687  0.119687  0.119687      8.000000
  0.359060 -0.119687 -0.119687     24.000000
 


--------------------------------------------------------------------------------------------------------




 Dimension of arrays:
   k-points           NKPTS =    110   k-points in BZ     NKDIM =    110   number of bands    NBANDS=     24
   number of dos      NEDOS =    301   number of ions     NIONS =      1
   non local maximal  LDIM  =      6   non local SUM 2l+1 LMDIM =     18
   total plane-waves  NPLWV =   5832
   max r-space proj   IRMAX =      1   max aug-charges    IRDMAX=  15142
   dimension x,y,z NGX =    18 NGY =   18 NGZ =   18
   dimension x,y,z NGXF=    36 NGYF=   36 NGZF=   36
   support grid    NGXF=    36 NGYF=   36 NGZF=   36
   ions per type =               1
   NGX,Y,Z   is equivalent  to a cutoff of  11.26, 11.26, 11.26 a.u.
   NGXF,Y,Z  is equivalent  to a cutoff of  22.51, 22.51, 22.51 a.u.

 SYSTEM =  Pt-fcc                                  
 POSCAR =  Pt                                      

 Startparameter for this run:
   NWRITE =      2    write-flag & timer
   PREC   = accura    normal or accurate (medium, high low for compatibility)
   ISTART =      0    job   : 0-new  1-cont  2-samecut
   ICHARG =      2    charge: 1-file 2-atom 10-const
   ISPIN  =      1    spin polarized calculation?
   LNONCOLLINEAR =      F non collinear calculations
   LSORBIT =      F    spin-orbit coupling
   INIWAV =      1    electr: 0-lowe 1-rand  2-diag
   LASPH  =      F    aspherical Exc in radial PAW
 Electronic Relaxation 1
   ENCUT  =  425.0 eV  31.24 Ry    5.59 a.u.   4.47  4.47  4.47*2*pi/ulx,y,z
   ENINI  =  425.0     initial cutoff
   ENAUG  =  527.0 eV  augmentation charge cutoff
   NELM   =    100;   NELMIN=  2; NELMDL= -5     # of ELM steps 
   EDIFF  = 0.1E-05   stopping-criterion for ELM
   LREAL  =      F    real-space projection
   NLSPLINE    = F    spline interpolate recip. space projectors
   LCOMPAT=      F    compatible to vasp.4.4
   GGA_COMPAT  = T    GGA compatible to vasp.4.4-vasp.4.6
   LMAXPAW     = -100 max onsite density
   LMAXMIX     =    2 max onsite mixed and CHGCAR
   VOSKOWN=      0    Vosko Wilk Nusair interpolation
   ROPT   =    0.00000
 Ionic relaxation
   EDIFFG = -.2E-01   stopping-criterion for IOM
   NSW    =    100    number of steps for IOM
   NBLOCK =      1;   KBLOCK =    100    inner block; outer block 
   IBRION =      2    ionic relax: 0-MD 1-quasi-New 2-CG
   NFREE  =      1    steps in history (QN), initial steepest desc. (CG)
   ISIF   =      2    stress and relaxation
   IWAVPR =     11    prediction:  0-non 1-charg 2-wave 3-comb
   ISYM   =      1    0-nonsym 1-usesym 2-fastsym
   LCORR  =      T    Harris-Foulkes like correction to forces

   POTIM  = 0.5000    time-step for ionic-motion
   TEIN   =    0.0    initial temperature
   TEBEG  =    0.0;   TEEND  =   0.0 temperature during run
   SMASS  =  -3.00    Nose mass-parameter (am)
   estimated Nose-frequenzy (Omega)   =  0.10E-29 period in steps = 0.13E+47 mass=  -0.162E-27a.u.
   SCALEE = 1.0000    scale energy and forces
   NPACO  =    256;   APACO  = 10.0  distance and # of slots for P.C.
   PSTRESS=    0.0 pullay stress

  Mass of Ions in am
   POMASS = 195.08
  Ionic Valenz
   ZVAL   =  16.00
  Atomic Wigner-Seitz radii
   RWIGS  =  -1.00
  virtual crystal weights 
   VCA    =   1.00
   NELECT =      16.0000    total number of electrons
   NUPDOWN=      -1.0000    fix difference up-down

 DOS related values:
   EMIN   =  10.00;   EMAX   =-10.00  energy-range for DOS
   EFERMI =   0.00
   ISMEAR =     0;   SIGMA  =   0.05  broadening in eV -4-tet -1-fermi 0-gaus

 Electronic relaxation 2 (details)
   IALGO  =     38    algorithm
   LDIAG  =      T    sub-space diagonalisation (order eigenvalues)
   LSUBROT=      F    optimize rotation matrix (better conditioning)
   TURBO    =      0    0=normal 1=particle mesh
   IRESTART =      0    0=no restart 2=restart with 2 vectors
   NREBOOT  =      0    no. of reboots
   NMIN     =      0    reboot dimension
   EREF     =   0.00    reference energy to select bands
   IMIX   =      4    mixing-type and parameters
     AMIX     =   0.40;   BMIX     =  1.00
     AMIX_MAG =   1.60;   BMIX_MAG =  1.00
     AMIN     =   0.10
     WC   =   100.;   INIMIX=   1;  MIXPRE=   1;  MAXMIX= -45

 Intra band minimization:
   WEIMIN = 0.0010     energy-eigenvalue tresh-hold
   EBREAK =  0.10E-07  absolut break condition
   DEPER  =   0.30     relativ break condition  

   TIME   =   0.40     timestep for ELM

  volume/ion in A,a.u.               =      13.29        89.67
  Fermi-wavevector in a.u.,A,eV,Ry     =   1.741681  3.291300 41.272636  3.033453
  Thomas-Fermi vector in A             =   2.814092
 
 Write flags
   LWAVE        =      T    write WAVECAR
   LDOWNSAMPLE  =      F    k-point downsampling of WAVECAR
   LCHARG       =      T    write CHGCAR
   LVTOT        =      F    write LOCPOT, total local potential
   LVHAR        =      F    write LOCPOT, Hartree potential only
   LELF         =      F    write electronic localiz. function (ELF)
   LORBIT       =     11    0 simple, 1 ext, 2 COOP (PROOUT), +10 PAW based schemes


 Dipole corrections
   LMONO  =      F    monopole corrections only (constant potential shift)
   LDIPOL =      F    correct potential (dipole corrections)
   IDIPOL =      0    1-x, 2-y, 3-z, 4-all directions 
   EPSILON=  1.0000000 bulk dielectric constant

 Exchange correlation treatment:
   GGA     =    --    GGA type
   LEXCH   =     8    internal setting for exchange type
   LIBXC   =     F    Libxc                    
   VOSKOWN =     0    Vosko Wilk Nusair interpolation
   LHFCALC =     F    Hartree Fock is set to
   LHFONE  =     F    Hartree Fock one center treatment
   AEXX    =    0.0000 exact exchange contribution

 Linear response parameters
   LEPSILON=     F    determine dielectric tensor
   LRPA    =     F    only Hartree local field effects (RPA)
   LNABLA  =     F    use nabla operator in PAW spheres
   LVEL    =     F    velocity operator in full k-point grid
   CSHIFT  =0.1000    complex shift for real part using Kramers Kronig
   OMEGAMAX=  -1.0    maximum frequency
   DEG_THRESHOLD= 0.2000000E-02 threshold for treating states as degnerate
   RTIME   =   -0.100 relaxation time in fs
  (WPLASMAI=    0.000 imaginary part of plasma frequency in eV, 0.658/RTIME)
   DFIELD  = 0.0000000 0.0000000 0.0000000 field for delta impulse in time
 
  Optional k-point grid parameters
   LKPOINTS_OPT  =     F    use optional k-point grid
   KPOINTS_OPT_MODE=     1    mode for optional k-point grid
 
 Orbital magnetization related:
   ORBITALMAG=     F  switch on orbital magnetization
   LCHIMAG   =     F  perturbation theory with respect to B field
   DQ        =  0.001000  dq finite difference perturbation B field
   LLRAUG    =     F  two centre corrections for induced B field



--------------------------------------------------------------------------------------------------------


 conjugate gradient relaxation of ions
 charge density and potential will be updated during run
 non-spin polarized calculation
 Variant of blocked Davidson
 Davidson routine will perform the subspace rotation
 perform sub-space diagonalisation
    after iterative eigenvector-optimisation
 modified Broyden-mixing scheme, WC =      100.0
 initial mixing is a Kerker type mixing with AMIX =  0.4000 and BMIX =      1.0000
 Hartree-type preconditioning will be used
 using additional bands           16
 reciprocal scheme for non local part
 use partial core corrections
 calculate Harris-corrections to forces 
   (improved forces if not selfconsistent)
 use gradient corrections 
 use of overlap-Matrix (Vanderbilt PP)
 Gauss-broadening in eV      SIGMA  =   0.05


--------------------------------------------------------------------------------------------------------


  energy-cutoff  :      425.00
  volume of cell :       13.29
      direct lattice vectors                 reciprocal lattice vectors
     0.000000000  1.879906198  1.879906198    -0.265970717  0.265970717  0.265970717
     1.879906198  0.000000000  1.879906198     0.265970717 -0.265970717  0.265970717
     1.879906198  1.879906198  0.000000000     0.265970717  0.265970717 -0.265970717

  length of vectors
     2.658588841  2.658588841  2.658588841     0.460674796  0.460674796  0.460674796


 
 k-points in units of 2pi/SCALE and weight: Automatic mesh                          
   0.01329854  0.01329854  0.01329854       0.002
  -0.01329854  0.03989561  0.03989561       0.006
  -0.03989561  0.06649268  0.06649268       0.006
  -0.06649268  0.09308975  0.09308975       0.006
  -0.09308975  0.11968682  0.11968682       0.006
   0.14628389 -0.11968682 -0.11968682       0.006
   0.11968682 -0.09308975 -0.09308975       0.006
   0.09308975 -0.06649268 -0.06649268       0.006
   0.06649268 -0.03989561 -0.03989561       0.006
   0.03989561 -0.01329854 -0.01329854       0.006
   0.01329854  0.01329854  0.06649268       0.006
  -0.01329854  0.03989561  0.09308975       0.012
  -0.03989561  0.06649268  0.11968682       0.012
  -0.06649268  0.09308975  0.14628389       0.012
   0.17288097 -0.14628389 -0.09308975       0.012
   0.14628389 -0.11968682 -0.06649268       0.012
   0.11968682 -0.09308975 -0.03989561       0.012
   0.09308975 -0.06649268 -0.01329854       0.012
   0.06649268 -0.03989561  0.01329854       0.012
   0.01329854  0.01329854  0.11968682       0.006
  -0.01329854  0.03989561  0.14628389       0.012
  -0.03989561  0.06649268  0.17288097       0.012
   0.19947804 -0.17288097 -0.06649268       0.012
   0.17288097 -0.14628389 -0.03989561       0.012
   0.14628389 -0.11968682 -0.01329854       0.012
   0.11968682 -0.09308975  0.01329854       0.012
   0.09308975 -0.06649268  0.03989561       0.012
   0.01329854  0.01329854  0.17288097       0.006
  -0.01329854  0.03989561  0.19947804       0.012
   0.22607511 -0.19947804 -0.03989561       0.012
   0.19947804 -0.17288097 -0.01329854       0.012
   0.17288097 -0.14628389  0.01329854       0.012
   0.14628389 -0.11968682  0.03989561       0.012
   0.11968682 -0.09308975  0.06649268       0.012
   0.01329854  0.01329854  0.22607511       0.006
   0.25267218 -0.22607511 -0.01329854       0.012
   0.22607511 -0.19947804  0.01329854       0.012
   0.19947804 -0.17288097  0.03989561       0.012
   0.17288097 -0.14628389  0.06649268       0.012
   0.14628389 -0.11968682  0.09308975       0.012
   0.01329854  0.01329854 -0.25267218       0.006
  -0.01329854  0.03989561 -0.22607511       0.012
  -0.03989561  0.06649268 -0.19947804       0.012
  -0.06649268  0.09308975 -0.17288097       0.012
   0.01329854  0.01329854 -0.19947804       0.006
  -0.01329854  0.03989561 -0.17288097       0.012
  -0.03989561  0.06649268 -0.14628389       0.012
   0.01329854  0.01329854 -0.14628389       0.006
  -0.01329854  0.03989561 -0.11968682       0.012
   0.01329854  0.01329854 -0.09308975       0.006
   0.03989561  0.03989561  0.03989561       0.002
   0.01329854  0.06649268  0.06649268       0.006
  -0.01329854  0.09308975  0.09308975       0.006
  -0.03989561  0.11968682  0.11968682       0.006
   0.19947804 -0.11968682 -0.11968682       0.006
   0.17288097 -0.09308975 -0.09308975       0.006
   0.14628389 -0.06649268 -0.06649268       0.006
   0.11968682 -0.03989561 -0.03989561       0.006
   0.03989561  0.03989561  0.09308975       0.006
   0.01329854  0.06649268  0.11968682       0.012
  -0.01329854  0.09308975  0.14628389       0.012
   0.22607511 -0.14628389 -0.09308975       0.012
   0.19947804 -0.11968682 -0.06649268       0.012
   0.17288097 -0.09308975 -0.03989561       0.012
   0.14628389 -0.06649268 -0.01329854       0.012
   0.03989561  0.03989561  0.14628389       0.006
   0.01329854  0.06649268  0.17288097       0.012
   0.25267218 -0.17288097 -0.06649268       0.012
   0.22607511 -0.14628389 -0.03989561       0.012
   0.19947804 -0.11968682 -0.01329854       0.012
   0.17288097 -0.09308975  0.01329854       0.012
   0.03989561  0.03989561  0.19947804       0.006
   0.27926925 -0.19947804 -0.03989561       0.012
   0.25267218 -0.17288097 -0.01329854       0.012
   0.22607511 -0.14628389  0.01329854       0.012
   0.19947804 -0.11968682  0.03989561       0.012
   0.03989561  0.03989561 -0.27926925       0.006
   0.01329854  0.06649268 -0.25267218       0.012
  -0.01329854  0.09308975 -0.22607511       0.012
   0.03989561  0.03989561 -0.22607511       0.006
   0.01329854  0.06649268 -0.19947804       0.012
   0.03989561  0.03989561 -0.17288097       0.006
   0.06649268  0.06649268  0.06649268       0.002
   0.03989561  0.09308975  0.09308975       0.006
   0.01329854  0.11968682  0.11968682       0.006
   0.25267218 -0.11968682 -0.11968682       0.006
   0.22607511 -0.09308975 -0.09308975       0.006
   0.19947804 -0.06649268 -0.06649268       0.006
   0.06649268  0.06649268  0.11968682       0.006
   0.03989561  0.09308975  0.14628389       0.012
   0.27926925 -0.14628389 -0.09308975       0.012
   0.25267218 -0.11968682 -0.06649268       0.012
   0.22607511 -0.09308975 -0.03989561       0.012
   0.06649268  0.06649268  0.17288097       0.006
   0.30586632 -0.17288097 -0.06649268       0.012
   0.27926925 -0.14628389 -0.03989561       0.012
   0.25267218 -0.11968682 -0.01329854       0.012
   0.06649268  0.06649268 -0.30586632       0.006
   0.03989561  0.09308975 -0.27926925       0.012
   0.06649268  0.06649268 -0.25267218       0.006
   0.09308975  0.09308975  0.09308975       0.002
   0.06649268  0.11968682  0.11968682       0.006
   0.30586632 -0.11968682 -0.11968682       0.006
   0.27926925 -0.09308975 -0.09308975       0.006
   0.09308975  0.09308975  0.14628389       0.006
   0.33246340 -0.14628389 -0.09308975       0.012
   0.30586632 -0.11968682 -0.06649268       0.012
   0.09308975  0.09308975 -0.33246340       0.006
   0.11968682  0.11968682  0.11968682       0.002
   0.35906047 -0.11968682 -0.11968682       0.006
 
 k-points in reciprocal lattice and weights: Automatic mesh                          
   0.05000000  0.05000000  0.05000000       0.002
   0.15000000  0.05000000  0.05000000       0.006
   0.25000000  0.05000000  0.05000000       0.006
   0.35000000  0.05000000  0.05000000       0.006
   0.45000000  0.05000000  0.05000000       0.006
  -0.45000000  0.05000000  0.05000000       0.006
  -0.35000000  0.05000000  0.05000000       0.006
  -0.25000000  0.05000000  0.05000000       0.006
  -0.15000000  0.05000000  0.05000000       0.006
  -0.05000000  0.05000000  0.05000000       0.006
   0.15000000  0.15000000  0.05000000       0.006
   0.25000000  0.15000000  0.05000000       0.012
   0.35000000  0.15000000  0.05000000       0.012
   0.45000000  0.15000000  0.05000000       0.012
  -0.45000000  0.15000000  0.05000000       0.012
  -0.35000000  0.15000000  0.05000000       0.012
  -0.25000000  0.15000000  0.05000000       0.012
  -0.15000000  0.15000000  0.05000000       0.012
  -0.05000000  0.15000000  0.05000000       0.012
   0.25000000  0.25000000  0.05000000       0.006
   0.35000000  0.25000000  0.05000000       0.012
   0.45000000  0.25000000  0.05000000       0.012
  -0.45000000  0.25000000  0.05000000       0.012
  -0.35000000  0.25000000  0.05000000       0.012
  -0.25000000  0.25000000  0.05000000       0.012
  -0.15000000  0.25000000  0.05000000       0.012
  -0.05000000  0.25000000  0.05000000       0.012
   0.35000000  0.35000000  0.05000000       0.006
   0.45000000  0.35000000  0.05000000       0.012
  -0.45000000  0.35000000  0.05000000       0.012
  -0.35000000  0.35000000  0.05000000       0.012
  -0.25000000  0.35000000  0.05000000       0.012
  -0.15000000  0.35000000  0.05000000       0.012
  -0.05000000  0.35000000  0.05000000       0.012
   0.45000000  0.45000000  0.05000000       0.006
  -0.45000000  0.45000000  0.05000000       0.012
  -0.35000000  0.45000000  0.05000000       0.012
  -0.25000000  0.45000000  0.05000000       0.012
  -0.15000000  0.45000000  0.05000000       0.012
  -0.05000000  0.45000000  0.05000000       0.012
  -0.45000000 -0.45000000  0.05000000       0.006
  -0.35000000 -0.45000000  0.05000000       0.012
  -0.25000000 -0.45000000  0.05000000       0.012
  -0.15000000 -0.45000000  0.05000000       0.012
  -0.35000000 -0.35000000  0.05000000       0.006
  -0.25000000 -0.35000000  0.05000000       0.012
  -0.15000000 -0.35000000  0.05000000       0.012
  -0.25000000 -0.25000000  0.05000000       0.006
  -0.15000000 -0.25000000  0.05000000       0.012
  -0.15000000 -0.15000000  0.05000000       0.006
   0.15000000  0.15000000  0.15000000       0.002
   0.25000000  0.15000000  0.15000000       0.006
   0.35000000  0.15000000  0.15000000       0.006
   0.45000000  0.15000000  0.15000000       0.006
  -0.45000000  0.15000000  0.15000000       0.006
  -0.35000000  0.15000000  0.15000000       0.006
  -0.25000000  0.15000000  0.15000000       0.006
  -0.15000000  0.15000000  0.15000000       0.006
   0.25000000  0.25000000  0.15000000       0.006
   0.35000000  0.25000000  0.15000000       0.012
   0.45000000  0.25000000  0.15000000       0.012
  -0.45000000  0.25000000  0.15000000       0.012
  -0.35000000  0.25000000  0.15000000       0.012
  -0.25000000  0.25000000  0.15000000       0.012
  -0.15000000  0.25000000  0.15000000       0.012
   0.35000000  0.35000000  0.15000000       0.006
   0.45000000  0.35000000  0.15000000       0.012
  -0.45000000  0.35000000  0.15000000       0.012
  -0.35000000  0.35000000  0.15000000       0.012
  -0.25000000  0.35000000  0.15000000       0.012
  -0.15000000  0.35000000  0.15000000       0.012
   0.45000000  0.45000000  0.15000000       0.006
  -0.45000000  0.45000000  0.15000000       0.012
  -0.35000000  0.45000000  0.15000000       0.012
  -0.25000000  0.45000000  0.15000000       0.012
  -0.15000000  0.45000000  0.15000000       0.012
  -0.45000000 -0.45000000  0.15000000       0.006
  -0.35000000 -0.45000000  0.15000000       0.012
  -0.25000000 -0.45000000  0.15000000       0.012
  -0.35000000 -0.35000000  0.15000000       0.006
  -0.25000000 -0.35000000  0.15000000       0.012
  -0.25000000 -0.25000000  0.15000000       0.006
   0.25000000  0.25000000  0.25000000       0.002
   0.35000000  0.25000000  0.25000000       0.006
   0.45000000  0.25000000  0.25000000       0.006
  -0.45000000  0.25000000  0.25000000       0.006
  -0.35000000  0.25000000  0.25000000       0.006
  -0.25000000  0.25000000  0.25000000       0.006
   0.35000000  0.35000000  0.25000000       0.006
   0.45000000  0.35000000  0.25000000       0.012
  -0.45000000  0.35000000  0.25000000       0.012
  -0.35000000  0.35000000  0.25000000       0.012
  -0.25000000  0.35000000  0.25000000       0.012
   0.45000000  0.45000000  0.25000000       0.006
  -0.45000000  0.45000000  0.25000000       0.012
  -0.35000000  0.45000000  0.25000000       0.012
  -0.25000000  0.45000000  0.25000000       0.012
  -0.45000000 -0.45000000  0.25000000       0.006
  -0.35000000 -0.45000000  0.25000000       0.012
  -0.35000000 -0.35000000  0.25000000       0.006
   0.35000000  0.35000000  0.35000000       0.002
   0.45000000  0.35000000  0.35000000       0.006
  -0.45000000  0.35000000  0.35000000       0.006
  -0.35000000  0.35000000  0.35000000       0.006
   0.45000000  0.45000000  0.35000000       0.006
  -0.45000000  0.45000000  0.35000000       0.012
  -0.35000000  0.45000000  0.35000000       0.012
  -0.45000000 -0.45000000  0.35000000       0.006
   0.45000000  0.45000000  0.45000000       0.002
  -0.45000000  0.45000000  0.45000000       0.006
 
 position of ions in fractional coordinates (direct lattice) 
   0.00000000  0.00000000  0.00000000
 
 position of ions in cartesian coordinates  (Angst):
   0.00000000  0.00000000  0.00000000
 


--------------------------------------------------------------------------------------------------------


 k-point   1 :   0.0500 0.0500 0.0500  plane waves:     271
 k-point   2 :   0.1500 0.0500 0.0500  plane waves:     269
 k-point   3 :   0.2500 0.0500 0.0500  plane waves:     273
 k-point   4 :   0.3500 0.0500 0.0500  plane waves:     267
 k-point   5 :   0.4500 0.0500 0.0500  plane waves:     265
 k-point   6 :  -0.4500 0.0500 0.0500  plane waves:     267
 k-point   7 :  -0.3500 0.0500 0.0500  plane waves:     265
 k-point   8 :  -0.2500 0.0500 0.0500  plane waves:     267
 k-point   9 :  -0.1500 0.0500 0.0500  plane waves:     275
 k-point  10 :  -0.0500 0.0500 0.0500  plane waves:     269
 k-point  11 :   0.1500 0.1500 0.0500  plane waves:     271
 k-point  12 :   0.2500 0.1500 0.0500  plane waves:     273
 k-point  13 :   0.3500 0.1500 0.0500  plane waves:     268
 k-point  14 :   0.4500 0.1500 0.0500  plane waves:     266
 k-point  15 :  -0.4500 0.1500 0.0500  plane waves:     259
 k-point  16 :  -0.3500 0.1500 0.0500  plane waves:     261
 k-point  17 :  -0.2500 0.1500 0.0500  plane waves:     265
 k-point  18 :  -0.1500 0.1500 0.0500  plane waves:     272
 k-point  19 :  -0.0500 0.1500 0.0500  plane waves:     272
 k-point  20 :   0.2500 0.2500 0.0500  plane waves:     274
 k-point  21 :   0.3500 0.2500 0.0500  plane waves:     266
 k-point  22 :   0.4500 0.2500 0.0500  plane waves:     265
 k-point  23 :  -0.4500 0.2500 0.0500  plane waves:     261
 k-point  24 :  -0.3500 0.2500 0.0500  plane waves:     261
 k-point  25 :  -0.2500 0.2500 0.0500  plane waves:     265
 k-point  26 :  -0.1500 0.2500 0.0500  plane waves:     266
 k-point  27 :  -0.0500 0.2500 0.0500  plane waves:     271
 k-point  28 :   0.3500 0.3500 0.0500  plane waves:     266
 k-point  29 :   0.4500 0.3500 0.0500  plane waves:     261
 k-point  30 :  -0.4500 0.3500 0.0500  plane waves:     261
 k-point  31 :  -0.3500 0.3500 0.0500  plane waves:     263
 k-point  32 :  -0.2500 0.3500 0.0500  plane waves:     264
 k-point  33 :  -0.1500 0.3500 0.0500  plane waves:     262
 k-point  34 :  -0.0500 0.3500 0.0500  plane waves:     267
 k-point  35 :   0.4500 0.4500 0.0500  plane waves:     260
 k-point  36 :  -0.4500 0.4500 0.0500  plane waves:     263
 k-point  37 :  -0.3500 0.4500 0.0500  plane waves:     263
 k-point  38 :  -0.2500 0.4500 0.0500  plane waves:     264
 k-point  39 :  -0.1500 0.4500 0.0500  plane waves:     259
 k-point  40 :  -0.0500 0.4500 0.0500  plane waves:     262
 k-point  41 :  -0.4500-0.4500 0.0500  plane waves:     255
 k-point  42 :  -0.3500-0.4500 0.0500  plane waves:     261
 k-point  43 :  -0.2500-0.4500 0.0500  plane waves:     261
 k-point  44 :  -0.1500-0.4500 0.0500  plane waves:     262
 k-point  45 :  -0.3500-0.3500 0.0500  plane waves:     263
 k-point  46 :  -0.2500-0.3500 0.0500  plane waves:     262
 k-point  47 :  -0.1500-0.3500 0.0500  plane waves:     268
 k-point  48 :  -0.2500-0.2500 0.0500  plane waves:     266
 k-point  49 :  -0.1500-0.2500 0.0500  plane waves:     272
 k-point  50 :  -0.1500-0.1500 0.0500  plane waves:     276
 k-point  51 :   0.1500 0.1500 0.1500  plane waves:     274
 k-point  52 :   0.2500 0.1500 0.1500  plane waves:     277
 k-point  53 :   0.3500 0.1500 0.1500  plane waves:     269
 k-point  54 :   0.4500 0.1500 0.1500  plane waves:     264
 k-point  55 :  -0.4500 0.1500 0.1500  plane waves:     260
 k-point  56 :  -0.3500 0.1500 0.1500  plane waves:     261
 k-point  57 :  -0.2500 0.1500 0.1500  plane waves:     268
 k-point  58 :  -0.1500 0.1500 0.1500  plane waves:     267
 k-point  59 :   0.2500 0.2500 0.1500  plane waves:     273
 k-point  60 :   0.3500 0.2500 0.1500  plane waves:     270
 k-point  61 :   0.4500 0.2500 0.1500  plane waves:     268
 k-point  62 :  -0.4500 0.2500 0.1500  plane waves:     262
 k-point  63 :  -0.3500 0.2500 0.1500  plane waves:     260
 k-point  64 :  -0.2500 0.2500 0.1500  plane waves:     262
 k-point  65 :  -0.1500 0.2500 0.1500  plane waves:     268
 k-point  66 :   0.3500 0.3500 0.1500  plane waves:     267
 k-point  67 :   0.4500 0.3500 0.1500  plane waves:     263
 k-point  68 :  -0.4500 0.3500 0.1500  plane waves:     260
 k-point  69 :  -0.3500 0.3500 0.1500  plane waves:     263
 k-point  70 :  -0.2500 0.3500 0.1500  plane waves:     264
 k-point  71 :  -0.1500 0.3500 0.1500  plane waves:     262
 k-point  72 :   0.4500 0.4500 0.1500  plane waves:     265
 k-point  73 :  -0.4500 0.4500 0.1500  plane waves:     261
 k-point  74 :  -0.3500 0.4500 0.1500  plane waves:     262
 k-point  75 :  -0.2500 0.4500 0.1500  plane waves:     264
 k-point  76 :  -0.1500 0.4500 0.1500  plane waves:     261
 k-point  77 :  -0.4500-0.4500 0.1500  plane waves:     262
 k-point  78 :  -0.3500-0.4500 0.1500  plane waves:     262
 k-point  79 :  -0.2500-0.4500 0.1500  plane waves:     260
 k-point  80 :  -0.3500-0.3500 0.1500  plane waves:     265
 k-point  81 :  -0.2500-0.3500 0.1500  plane waves:     258
 k-point  82 :  -0.2500-0.2500 0.1500  plane waves:     265
 k-point  83 :   0.2500 0.2500 0.2500  plane waves:     274
 k-point  84 :   0.3500 0.2500 0.2500  plane waves:     269
 k-point  85 :   0.4500 0.2500 0.2500  plane waves:     265
 k-point  86 :  -0.4500 0.2500 0.2500  plane waves:     262
 k-point  87 :  -0.3500 0.2500 0.2500  plane waves:     261
 k-point  88 :  -0.2500 0.2500 0.2500  plane waves:     262
 k-point  89 :   0.3500 0.3500 0.2500  plane waves:     267
 k-point  90 :   0.4500 0.3500 0.2500  plane waves:     264
 k-point  91 :  -0.4500 0.3500 0.2500  plane waves:     264
 k-point  92 :  -0.3500 0.3500 0.2500  plane waves:     262
 k-point  93 :  -0.2500 0.3500 0.2500  plane waves:     260
 k-point  94 :   0.4500 0.4500 0.2500  plane waves:     261
 k-point  95 :  -0.4500 0.4500 0.2500  plane waves:     261
 k-point  96 :  -0.3500 0.4500 0.2500  plane waves:     264
 k-point  97 :  -0.2500 0.4500 0.2500  plane waves:     262
 k-point  98 :  -0.4500-0.4500 0.2500  plane waves:     261
 k-point  99 :  -0.3500-0.4500 0.2500  plane waves:     264
 k-point 100 :  -0.3500-0.3500 0.2500  plane waves:     266
 k-point 101 :   0.3500 0.3500 0.3500  plane waves:     262
 k-point 102 :   0.4500 0.3500 0.3500  plane waves:     266
 k-point 103 :  -0.4500 0.3500 0.3500  plane waves:     260
 k-point 104 :  -0.3500 0.3500 0.3500  plane waves:     267
 k-point 105 :   0.4500 0.4500 0.3500  plane waves:     265
 k-point 106 :  -0.4500 0.4500 0.3500  plane waves:     261
 k-point 107 :  -0.3500 0.4500 0.3500  plane waves:     262
 k-point 108 :  -0.4500-0.4500 0.3500  plane waves:     262
 k-point 109 :   0.4500 0.4500 0.4500  plane waves:     269
 k-point 110 :  -0.4500 0.4500 0.4500  plane waves:     260

 maximum and minimum number of plane-waves per node :       277      255

 maximum number of plane-waves:       277
 maximum index in each direction: 
   IXMAX=    4   IYMAX=    4   IZMAX=    4
   IXMIN=   -4   IYMIN=   -4   IZMIN=   -4


 serial   3D FFT for wavefunctions
 parallel 3D FFT for charge:
    minimum data exchange during FFTs selected (reduces bandwidth)


 total amount of memory used by VASP MPI-rank0    35610. kBytes
=======================================================================

   base      :      30000. kBytes
   nonl-proj :       4566. kBytes
   fftplans  :        113. kBytes
   grid      :        367. kBytes
   one-center:         15. kBytes
   wavefun   :        549. kBytes
 
     INWAV:  cpu time      0.0000: real time      0.0001
 Broyden mixing: mesh for mixing (old mesh)
   NGX =  9   NGY =  9   NGZ =  9
  (NGX  = 36   NGY  = 36   NGZ  = 36)
  gives a total of    729 points

 initial charge density was supplied:
 charge density of overlapping atoms calculated
 number of electron      16.0000000 magnetization 
 keeping initial charge density in first step


--------------------------------------------------------------------------------------------------------


 Maximum index for augmentation-charges          974 (set IRDMAX)


--------------------------------------------------------------------------------------------------------


 First call to EWALD:  gamma=   0.748
 Maximum number of real-space cells 3x 3x 3
 Maximum number of reciprocal cells 3x 3x 3

    FEWALD:  cpu time      0.0015: real time      0.0015


--------------------------------------- Iteration      1(   1)  ---------------------------------------


    POTLOK:  cpu time      0.0029: real time      0.0030
    SETDIJ:  cpu time      0.0022: real time      0.0022
     EDDAV:  cpu time      0.5051: real time      0.5081
       DOS:  cpu time      0.0009: real time      0.0010
    --------------------------------------------
      LOOP:  cpu time      0.5112: real time      0.5142

 eigenvalue-minimisations  :  6120
 total energy-change (2. order) : 0.1297897E+02  (-0.1178437E+04)
 number of electron      16.0000000 magnetization 
 augmentation part       16.0000000 magnetization 

 Free energy of the ion-electron system (eV)
  ---------------------------------------------------
  alpha Z        PSCENC =       180.57157191
  Ewald energy   TEWEN  =     -2247.63684464
  -Hartree energ DENC   =      -352.31121803
  -exchange      EXHF   =         0.00000000
  -V(xc)+E(xc)   XCENC  =        64.60327344
  PAW double counting   =      2065.75261637    -2030.83594803
  entropy T*S    EENTRO =        -0.00167272
  eigenvalues    EBANDS =       -95.35781400
  atomic energy  EATOM  =      2428.19501064
  Solvation  Ediel_sol  =         0.00000000
  ---------------------------------------------------
  free energy    TOTEN  =        12.97897495 eV

  energy without entropy =       12.98064767  energy(sigma->0) =       12.97981131


--------------------------------------------------------------------------------------------------------




--------------------------------------- Iteration      1(   2)  ---------------------------------------


     EDDAV:  cpu time      0.6255: real time      0.6291
       DOS:  cpu time      0.0010: real time      0.0010
    --------------------------------------------
      LOOP:  cpu time      0.6264: real time      0.6301

 eigenvalue-minimisations  :  6936
 total energy-change (2. order) :-0.1895465E+02  (-0.1863823E+02)
 number of electron      16.0000000 magnetization 
 augmentation part       16.0000000 magnetization 

 Free energy of the ion-electron system (eV)
  ---------------------------------------------------
  alpha Z        PSCENC =       180.57157191
  Ewald energy   TEWEN  =     -2247.63684464
  -Hartree energ DENC   =      -352.31121803
  -exchange      EXHF   =         0.00000000
  -V(xc)+E(xc)   XCENC  =        64.60327344
  PAW double counting   =      2065.75261637    -2030.83594803
  entropy T*S    EENTRO =        -0.00149208
  eigenvalues    EBANDS =      -114.31264574
  atomic energy  EATOM  =      2428.19501064
  Solvation  Ediel_sol  =         0.00000000
  ---------------------------------------------------
  free energy    TOTEN  =        -5.97567615 eV

  energy without entropy =       -5.97418407  energy(sigma->0) =       -5.97493011


--------------------------------------------------------------------------------------------------------




--------------------------------------- Iteration      1(   3)  ---------------------------------------


     EDDAV:  cpu time      0.7161: real time      0.7198
       DOS:  cpu time      0.0005: real time      0.0005
    --------------------------------------------
      LOOP:  cpu time      0.7167: real time      0.7203

 eigenvalue-minimisations  :  7224
 total energy-change (2. order) :-0.2457977E-01  (-0.2457806E-01)
 number of electron      16.0000000 magnetization 
 augmentation part       16.0000000 magnetization 

 Free energy of the ion-electron system (eV)
  ---------------------------------------------------
  alpha Z        PSCENC =       180.57157191
  Ewald energy   TEWEN  =     -2247.63684464
  -Hartree energ DENC   =      -352.31121803
  -exchange      EXHF   =         0.00000000
  -V(xc)+E(xc)   XCENC  =        64.60327344
  PAW double counting   =      2065.75261637    -2030.83594803
  entropy T*S    EENTRO =        -0.00146629
  eigenvalues    EBANDS =      -114.33725130
  atomic energy  EATOM  =      2428.19501064
  Solvation  Ediel_sol  =         0.00000000
  ---------------------------------------------------
  free energy    TOTEN  =        -6.00025592 eV

  energy without entropy =       -5.99878963  energy(sigma->0) =       -5.99952278


--------------------------------------------------------------------------------------------------------




--------------------------------------- Iteration      1(   4)  ---------------------------------------


     EDDAV:  cpu time      0.7803: real time      0.7844
       DOS:  cpu time      0.0005: real time      0.0005
    --------------------------------------------
      LOOP:  cpu time      0.7808: real time      0.7849

 eigenvalue-minimisations  :  7728
 total energy-change (2. order) :-0.1423786E-04  (-0.1423736E-04)
 number of electron      16.0000000 magnetization 
 augmentation part       16.0000000 magnetization 

 Free energy of the ion-electron system (eV)
  ---------------------------------------------------
  alpha Z        PSCENC =       180.57157191
  Ewald energy   TEWEN  =     -2247.63684464
  -Hartree energ DENC   =      -352.31121803
  -exchange      EXHF   =         0.00000000
  -V(xc)+E(xc)   XCENC  =        64.60327344
  PAW double counting   =      2065.75261637    -2030.83594803
  entropy T*S    EENTRO =        -0.00146629
  eigenvalues    EBANDS =      -114.33726553
  atomic energy  EATOM  =      2428.19501064
  Solvation  Ediel_sol  =         0.00000000
  ---------------------------------------------------
  free energy    TOTEN  =        -6.00027016 eV

  energy without entropy =       -5.99880387  energy(sigma->0) =       -5.99953701


--------------------------------------------------------------------------------------------------------




--------------------------------------- Iteration      1(   5)  ---------------------------------------


     EDDAV:  cpu time      0.6986: real time      0.7023
       DOS:  cpu time      0.0005: real time      0.0005
    CHARGE:  cpu time      0.0122: real time      0.0123
    MIXING:  cpu time      0.0002: real time      0.0002
    --------------------------------------------
      LOOP:  cpu time      0.7115: real time      0.7153

 eigenvalue-minimisations  :  7152
 total energy-change (2. order) :-0.5416041E-09  (-0.2550808E-09)
 number of electron      16.0000000 magnetization 
 augmentation part        3.9961797 magnetization 

 Broyden mixing:
  rms(total) = 0.21039E+01    rms(broyden)= 0.21039E+01
  rms(prec ) = 0.24985E+01
  weight for this iteration     100.00

 Free energy of the ion-electron system (eV)
  ---------------------------------------------------
  alpha Z        PSCENC =       180.57157191
  Ewald energy   TEWEN  =     -2247.63684464
  -Hartree energ DENC   =      -352.31121803
  -exchange      EXHF   =         0.00000000
  -V(xc)+E(xc)   XCENC  =        64.60327344
  PAW double counting   =      2065.75261637    -2030.83594803
  entropy T*S    EENTRO =        -0.00146629
  eigenvalues    EBANDS =      -114.33726553
  atomic energy  EATOM  =      2428.19501064
  Solvation  Ediel_sol  =         0.00000000
  ---------------------------------------------------
  free energy    TOTEN  =        -6.00027016 eV

  energy without entropy =       -5.99880387  energy(sigma->0) =       -5.99953701


--------------------------------------------------------------------------------------------------------




--------------------------------------- Iteration      1(   6)  ---------------------------------------


    POTLOK:  cpu time      0.0024: real time      0.0026
    SETDIJ:  cpu time      0.0021: real time      0.0021
     EDDAV:  cpu time      0.5108: real time      0.5136
       DOS:  cpu time      0.0005: real time      0.0005
    CHARGE:  cpu time      0.0120: real time      0.0120
    MIXING:  cpu time      0.0002: real time      0.0002
    --------------------------------------------
      LOOP:  cpu time      0.5280: real time      0.5311

 eigenvalue-minimisations  :  6048
 total energy-change (2. order) : 0.2858149E+00  (-0.8661144E-01)
 number of electron      16.0000000 magnetization 
 augmentation part        4.0878772 magnetization 

 Broyden mixing:
  rms(total) = 0.84717E+00    rms(broyden)= 0.84717E+00
  rms(prec ) = 0.93560E+00
  weight for this iteration     100.00

 eigenvalues of (default mixing * dielectric matrix)
  average eigenvalue GAMMA=   1.6619
  1.6619

 Free energy of the ion-electron system (eV)
  ---------------------------------------------------
  alpha Z        PSCENC =       180.57157191
  Ewald energy   TEWEN  =     -2247.63684464
  -Hartree energ DENC   =      -339.07957669
  -exchange      EXHF   =         0.00000000
  -V(xc)+E(xc)   XCENC  =        64.02267664
  PAW double counting   =      2344.31481949    -2311.58812202
  entropy T*S    EENTRO =        -0.00172874
  eigenvalues    EBANDS =      -124.51226188
  atomic energy  EATOM  =      2428.19501064
  Solvation  Ediel_sol  =         0.00000000
  ---------------------------------------------------
  free energy    TOTEN  =        -5.71445528 eV

  energy without entropy =       -5.71272654  energy(sigma->0) =       -5.71359091


--------------------------------------------------------------------------------------------------------




--------------------------------------- Iteration      1(   7)  ---------------------------------------


    POTLOK:  cpu time      0.0022: real time      0.0024
    SETDIJ:  cpu time      0.0019: real time      0.0020
     EDDAV:  cpu time      0.7627: real time      0.7664
       DOS:  cpu time      0.0005: real time      0.0005
    CHARGE:  cpu time      0.0117: real time      0.0120
    MIXING:  cpu time      0.0003: real time      0.0003
    --------------------------------------------
      LOOP:  cpu time      0.7794: real time      0.7836

 eigenvalue-minimisations  :  7776
 total energy-change (2. order) : 0.2687454E-01  (-0.1193394E-01)
 number of electron      16.0000000 magnetization 
 augmentation part        4.1209822 magnetization 

 Broyden mixing:
  rms(total) = 0.20269E+00    rms(broyden)= 0.20269E+00
  rms(prec ) = 0.22388E+00
  weight for this iteration     100.00

 eigenvalues of (default mixing * dielectric matrix)
  average eigenvalue GAMMA=   2.0044
  1.2928  2.7160

 Free energy of the ion-electron system (eV)
  ---------------------------------------------------
  alpha Z        PSCENC =       180.57157191
  Ewald energy   TEWEN  =     -2247.63684464
  -Hartree energ DENC   =      -333.91163995
  -exchange      EXHF   =         0.00000000
  -V(xc)+E(xc)   XCENC  =        63.78722368
  PAW double counting   =      2533.39187448    -2501.70141242
  entropy T*S    EENTRO =        -0.00191536
  eigenvalues    EBANDS =      -128.38144908
  atomic energy  EATOM  =      2428.19501064
  Solvation  Ediel_sol  =         0.00000000
  ---------------------------------------------------
  free energy    TOTEN  =        -5.68758073 eV

  energy without entropy =       -5.68566537  energy(sigma->0) =       -5.68662305


--------------------------------------------------------------------------------------------------------




--------------------------------------- Iteration      1(   8)  ---------------------------------------


    POTLOK:  cpu time      0.0021: real time      0.0023
    SETDIJ:  cpu time      0.0018: real time      0.0019
     EDDAV:  cpu time      0.4352: real time      0.4374
       DOS:  cpu time      0.0005: real time      0.0005
    CHARGE:  cpu time      0.0115: real time      0.0115
    MIXING:  cpu time      0.0002: real time      0.0002
    --------------------------------------------
      LOOP:  cpu time      0.4513: real time      0.4537

 eigenvalue-minimisations  :  5592
 total energy-change (2. order) : 0.1981981E-02  (-0.6178473E-03)
 number of electron      16.0000000 magnetization 
 augmentation part        4.1137239 magnetization 

 Broyden mixing:
  rms(total) = 0.27766E-01    rms(broyden)= 0.27764E-01
  rms(prec ) = 0.30705E-01
  weight for this iteration     100.00

 eigenvalues of (default mixing * dielectric matrix)
  average eigenvalue GAMMA=   1.5970
  1.0665  1.2797  2.4447

 Free energy of the ion-electron system (eV)
  ---------------------------------------------------
  alpha Z        PSCENC =       180.57157191
  Ewald energy   TEWEN  =     -2247.63684464
  -Hartree energ DENC   =      -334.23419825
  -exchange      EXHF   =         0.00000000
  -V(xc)+E(xc)   XCENC  =        63.79018090
  PAW double counting   =      2624.20793519    -2592.65327179
  entropy T*S    EENTRO =        -0.00191555
  eigenvalues    EBANDS =      -127.92406717
  atomic energy  EATOM  =      2428.19501064
  Solvation  Ediel_sol  =         0.00000000
  ---------------------------------------------------
  free energy    TOTEN  =        -5.68559875 eV

  energy without entropy =       -5.68368320  energy(sigma->0) =       -5.68464098


--------------------------------------------------------------------------------------------------------




--------------------------------------- Iteration      1(   9)  ---------------------------------------


    POTLOK:  cpu time      0.0021: real time      0.0022
    SETDIJ:  cpu time      0.0019: real time      0.0019
     EDDAV:  cpu time      0.6678: real time      0.6712
       DOS:  cpu time      0.0005: real time      0.0005
    CHARGE:  cpu time      0.0115: real time      0.0115
    MIXING:  cpu time      0.0002: real time      0.0002
    --------------------------------------------
      LOOP:  cpu time      0.6840: real time      0.6876

 eigenvalue-minimisations  :  6984
 total energy-change (2. order) : 0.9607811E-04  (-0.9639707E-05)
 number of electron      16.0000000 magnetization 
 augmentation part        4.1145942 magnetization 

 Broyden mixing:
  rms(total) = 0.15300E-02    rms(broyden)= 0.15292E-02
  rms(prec ) = 0.31065E-02
  weight for this iteration     100.00

 eigenvalues of (default mixing * dielectric matrix)
  average eigenvalue GAMMA=   1.8449
  1.0093  1.2703  2.6949  2.4050

 Free energy of the ion-electron system (eV)
  ---------------------------------------------------
  alpha Z        PSCENC =       180.57157191
  Ewald energy   TEWEN  =     -2247.63684464
  -Hartree energ DENC   =      -334.22391722
  -exchange      EXHF   =         0.00000000
  -V(xc)+E(xc)   XCENC  =        63.79101084
  PAW double counting   =      2613.93328566    -2582.34117618
  entropy T*S    EENTRO =        -0.00191435
  eigenvalues    EBANDS =      -127.97252933
  atomic energy  EATOM  =      2428.19501064
  Solvation  Ediel_sol  =         0.00000000
  ---------------------------------------------------
  free energy    TOTEN  =        -5.68550268 eV

  energy without entropy =       -5.68358832  energy(sigma->0) =       -5.68454550


--------------------------------------------------------------------------------------------------------




--------------------------------------- Iteration      1(  10)  ---------------------------------------


    POTLOK:  cpu time      0.0020: real time      0.0022
    SETDIJ:  cpu time      0.0018: real time      0.0018
     EDDAV:  cpu time      0.7921: real time      0.7961
       DOS:  cpu time      0.0005: real time      0.0005
    CHARGE:  cpu time      0.0120: real time      0.0121
    MIXING:  cpu time      0.0002: real time      0.0002
    --------------------------------------------
      LOOP:  cpu time      0.8087: real time      0.8129

 eigenvalue-minimisations  :  7824
 total energy-change (2. order) :-0.3724624E-05  (-0.3292134E-06)
 number of electron      16.0000000 magnetization 
 augmentation part        4.1146161 magnetization 

 Broyden mixing:
  rms(total) = 0.41136E-03    rms(broyden)= 0.41121E-03
  rms(prec ) = 0.43974E-03
  weight for this iteration     100.00

 eigenvalues of (default mixing * dielectric matrix)
  average eigenvalue GAMMA=   1.7404
  2.6688  2.3371  0.9834  1.4226  1.2900

 Free energy of the ion-electron system (eV)
  ---------------------------------------------------
  alpha Z        PSCENC =       180.57157191
  Ewald energy   TEWEN  =     -2247.63684464
  -Hartree energ DENC   =      -334.25534802
  -exchange      EXHF   =         0.00000000
  -V(xc)+E(xc)   XCENC  =        63.79227376
  PAW double counting   =      2615.77164874    -2584.15327128
  entropy T*S    EENTRO =        -0.00191330
  eigenvalues    EBANDS =      -127.96863420
  atomic energy  EATOM  =      2428.19501064
  Solvation  Ediel_sol  =         0.00000000
  ---------------------------------------------------
  free energy    TOTEN  =        -5.68550640 eV

  energy without entropy =       -5.68359310  energy(sigma->0) =       -5.68454975


--------------------------------------------------------------------------------------------------------




--------------------------------------- Iteration      1(  11)  ---------------------------------------


    POTLOK:  cpu time      0.0021: real time      0.0023
    SETDIJ:  cpu time      0.0020: real time      0.0020
     EDDAV:  cpu time      0.2589: real time      0.2603
       DOS:  cpu time      0.0005: real time      0.0005
    --------------------------------------------
      LOOP:  cpu time      0.2636: real time      0.2651

 eigenvalue-minimisations  :  3408
 total energy-change (2. order) : 0.1036278E-07  (-0.4433172E-09)
 number of electron      16.0000000 magnetization 
 augmentation part        4.1146161 magnetization 

 Free energy of the ion-electron system (eV)
  ---------------------------------------------------
  alpha Z        PSCENC =       180.57157191
  Ewald energy   TEWEN  =     -2247.63684464
  -Hartree energ DENC   =      -334.25528871
  -exchange      EXHF   =         0.00000000
  -V(xc)+E(xc)   XCENC  =        63.79226159
  PAW double counting   =      2615.69960260    -2584.08091430
  entropy T*S    EENTRO =        -0.00191329
  eigenvalues    EBANDS =      -127.96899220
  atomic energy  EATOM  =      2428.19501064
  Solvation  Ediel_sol  =         0.00000000
  ---------------------------------------------------
  free energy    TOTEN  =        -5.68550639 eV

  energy without entropy =       -5.68359310  energy(sigma->0) =       -5.68454975


--------------------------------------------------------------------------------------------------------




 average (electrostatic) potential at core
  the test charge radii are     0.9952
  (the norm of the test charge is              1.0000)
       1 -86.5057
 
 
 
 E-fermi :  14.7773     XC(G=0): -14.8426     alpha+bet :-19.7427

 Fermi energy:        14.7772765829

 k-point     1 :       0.0500    0.0500    0.0500
  band No.  band energies     occupation 
      1     -38.2188      2.00000
      2     -38.2023      2.00000
      3     -38.2023      2.00000
      4       3.1191      2.00000
      5      10.0301      2.00000
      6      10.1371      2.00000
      7      10.1371      2.00000
      8      12.7204      2.00000
      9      12.7204      2.00000
     10      29.1094      0.00000
     11      34.0417      0.00000
     12      34.7954      0.00000
     13      34.7954      0.00000
     14      41.1476      0.00000
     15      48.0938      0.00000
     16      48.8638      0.00000
     17      48.8638      0.00000
     18      53.0911      0.00000
     19      53.0911      0.00000
     20      54.1020      0.00000
     21      54.9207      0.00000
     22      59.4350      0.00000
     23      59.4350      0.00000
     24      66.3098      0.00000

 k-point     2 :       0.1500    0.0500    0.0500
  band No.  band energies     occupation 
      1     -38.3090      2.00000
      2     -38.2280      2.00000
      3     -38.2098      2.00000
      4       3.7132      2.00000
      5       9.7375      2.00000
      6      10.3551      2.00000
      7      10.4050      2.00000
      8      12.4254      2.00000
      9      12.7851      2.00000
     10      30.0597      0.00000
     11      32.3300      0.00000
     12      35.1180      0.00000
     13      36.1008      0.00000
     14      42.7844      0.00000
     15      45.1202      0.00000
     16      45.9022      0.00000
     17      47.7275      0.00000
     18      51.0340      0.00000
     19      54.5231      0.00000
     20      54.9280      0.00000
     21      56.8957      0.00000
     22      58.0526      0.00000
     23      60.6313      0.00000
     24      67.1187      0.00000

 k-point     3 :       0.2500    0.0500    0.0500
  band No.  band energies     occupation 
      1     -38.5095      2.00000
      2     -38.2632      2.00000
      3     -38.2354      2.00000
      4       4.9462      2.00000
      5       9.4720      2.00000
      6      10.5810      2.00000
      7      10.6280      2.00000
      8      12.3901      2.00000
      9      13.1019      2.00000
     10      29.6047      0.00000
     11      31.5232      0.00000
     12      36.7431      0.00000
     13      38.6065      0.00000
     14      39.1010      0.00000
     15      42.5208      0.00000
     16      43.1732      0.00000
     17      49.2660      0.00000
     18      51.2836      0.00000
     19      54.9028      0.00000
     20      55.0344      0.00000
     21      56.6096      0.00000
     22      59.9034      0.00000
     23      61.1498      0.00000
     24      67.4648      0.00000

 k-point     4 :       0.3500    0.0500    0.0500
  band No.  band energies     occupation 
      1     -38.7342      2.00000
      2     -38.2974      2.00000
      3     -38.2688      2.00000
      4       5.9205      2.00000
      5      10.1981      2.00000
      6      10.3916      2.00000
      7      10.4247      2.00000
      8      13.2130      2.00000
      9      14.0315      2.00000
     10      26.5850      0.00000
     11      30.6202      0.00000
     12      36.5394      0.00000
     13      38.8458      0.00000
     14      39.4977      0.00000
     15      41.8137      0.00000
     16      42.0632      0.00000
     17      51.5522      0.00000
     18      53.9299      0.00000
     19      54.9222      0.00000
     20      55.7589      0.00000
     21      56.7637      0.00000
     22      59.9943      0.00000
     23      61.7940      0.00000
     24      66.5324      0.00000

 k-point     5 :       0.4500    0.0500    0.0500
  band No.  band energies     occupation 
      1     -38.8999      2.00000
      2     -38.3182      2.00000
      3     -38.2981      2.00000
      4       6.0818      2.00000
      5      10.0203      2.00000
      6      10.1442      2.00000
      7      12.2430      2.00000
      8      14.2905      2.00000
      9      15.0917      0.00000
     10      23.1399      0.00000
     11      29.1198      0.00000
     12      34.6401      0.00000
     13      35.7015      0.00000
     14      43.1061      0.00000
     15      44.6483      0.00000
     16      44.8368      0.00000
     17      51.8751      0.00000
     18      53.5835      0.00000
     19      54.5001      0.00000
     20      54.9164      0.00000
     21      59.1624      0.00000
     22      61.9486      0.00000
     23      62.0637      0.00000
     24      63.5976      0.00000

 k-point     6 :      -0.4500    0.0500    0.0500
  band No.  band energies     occupation 
      1     -38.9458      2.00000
      2     -38.3192      2.00000
      3     -38.3118      2.00000
      4       6.0620      2.00000
      5       9.9074      2.00000
      6      10.0799      2.00000
      7      13.0684      2.00000
      8      14.8312      0.12690
      9      15.4850      0.00000
     10      21.6718      0.00000
     11      28.7405      0.00000
     12      34.4319      0.00000
     13      34.4373      0.00000
     14      44.9416      0.00000
     15      45.2368      0.00000
     16      46.6471      0.00000
     17      51.7932      0.00000
     18      52.4116      0.00000
     19      53.2357      0.00000
     20      54.9076      0.00000
     21      60.2096      0.00000
     22      60.7594      0.00000
     23      63.5301      0.00000
     24      64.0946      0.00000

 k-point     7 :      -0.3500    0.0500    0.0500
  band No.  band energies     occupation 
      1     -38.8560      2.00000
      2     -38.3045      2.00000
      3     -38.2983      2.00000
      4       6.0749      2.00000
      5      10.0688      2.00000
      6      10.2647      2.00000
      7      11.5062      2.00000
      8      14.3227      2.00000
      9      14.4512      2.00000
     10      24.2445      0.00000
     11      29.5037      0.00000
     12      35.3688      0.00000
     13      36.2764      0.00000
     14      42.7050      0.00000
     15      42.8043      0.00000
     16      44.1165      0.00000
     17      51.3099      0.00000
     18      54.7074      0.00000
     19      54.9063      0.00000
     20      55.2235      0.00000
     21      59.1763      0.00000
     22      59.7718      0.00000
     23      62.3126      0.00000
     24      64.4691      0.00000

 k-point     8 :      -0.2500    0.0500    0.0500
  band No.  band energies     occupation 
      1     -38.6619      2.00000
      2     -38.2788      2.00000
      3     -38.2655      2.00000
      4       5.6944      2.00000
      5       9.7812      2.00000
      6      10.4250      2.00000
      7      10.5576      2.00000
      8      13.0218      2.00000
      9      13.5491      2.00000
     10      27.6680      0.00000
     11      31.2033      0.00000
     12      37.4274      0.00000
     13      38.3167      0.00000
     14      40.4750      0.00000
     15      40.5227      0.00000
     16      41.5446      0.00000
     17      51.1276      0.00000
     18      53.1976      0.00000
     19      54.9243      0.00000
     20      55.0755      0.00000
     21      57.5780      0.00000
     22      58.6103      0.00000
     23      62.3912      0.00000
     24      67.7481      0.00000

 k-point     9 :      -0.1500    0.0500    0.0500
  band No.  band energies     occupation 
      1     -38.4352      2.00000
      2     -38.2452      2.00000
      3     -38.2323      2.00000
      4       4.5036      2.00000
      5       9.4820      2.00000
      6      10.5738      2.00000
      7      10.6042      2.00000
      8      12.3225      2.00000
      9      12.9137      2.00000
     10      30.5169      0.00000
     11      31.2025      0.00000
     12      36.3504      0.00000
     13      37.2060      0.00000
     14      40.8038      0.00000
     15      42.9087      0.00000
     16      44.9302      0.00000
     17      47.6756      0.00000
     18      51.0607      0.00000
     19      54.9136      0.00000
     20      55.1665      0.00000
     21      57.3659      0.00000
     22      57.9554      0.00000
     23      61.6386      0.00000
     24      67.3454      0.00000

 k-point    10 :      -0.0500    0.0500    0.0500
  band No.  band energies     occupation 
      1     -38.2597      2.00000
      2     -38.2157      2.00000
      3     -38.2111      2.00000
      4       3.4228      2.00000
      5       9.8313      2.00000
      6      10.2866      2.00000
      7      10.2964      2.00000
      8      12.4773      2.00000
      9      12.8156      2.00000
     10      29.6124      0.00000
     11      33.2749      0.00000
     12      34.9313      0.00000
     13      35.1820      0.00000
     14      42.6049      0.00000
     15      46.1598      0.00000
     16      46.5698      0.00000
     17      48.9630      0.00000
     18      50.7445      0.00000
     19      54.9222      0.00000
     20      55.1530      0.00000
     21      55.7399      0.00000
     22      57.7094      0.00000
     23      60.7010      0.00000
     24      66.9217      0.00000

 k-point    11 :       0.1500    0.1500    0.0500
  band No.  band energies     occupation 
      1     -38.3288      2.00000
      2     -38.2417      2.00000
      3     -38.2366      2.00000
      4       4.0065      2.00000
      5       9.4472      2.00000
      6      10.6022      2.00000
      7      10.6114      2.00000
      8      12.0539      2.00000
      9      12.9989      2.00000
     10      30.5628      0.00000
     11      32.6096      0.00000
     12      35.0707      0.00000
     13      35.4197      0.00000
     14      43.4626      0.00000
     15      44.2868      0.00000
     16      45.6129      0.00000
     17      47.3057      0.00000
     18      49.4864      0.00000
     19      54.9219      0.00000
     20      55.0896      0.00000
     21      57.3719      0.00000
     22      57.4345      0.00000
     23      61.7633      0.00000
     24      68.4381      0.00000

 k-point    12 :       0.2500    0.1500    0.0500
  band No.  band energies     occupation 
      1     -38.4691      2.00000
      2     -38.2913      2.00000
      3     -38.2562      2.00000
      4       5.0424      2.00000
      5       9.0107      2.00000
      6      10.7254      2.00000
      7      11.0534      2.00000
      8      11.9145      2.00000
      9      13.3473      2.00000
     10      31.0180      0.00000
     11      32.0136      0.00000
     12      34.9925      0.00000
     13      36.4224      0.00000
     14      40.3983      0.00000
     15      42.8893      0.00000
     16      45.0278      0.00000
     17      48.5750      0.00000
     18      49.3478      0.00000
     19      53.7329      0.00000
     20      54.9194      0.00000
     21      56.4216      0.00000
     22      60.4238      0.00000
     23      63.2900      0.00000
     24      68.4804      0.00000

 k-point    13 :       0.3500    0.1500    0.0500
  band No.  band energies     occupation 
      1     -38.6661      2.00000
      2     -38.3360      2.00000
      3     -38.2888      2.00000
      4       6.2291      2.00000
      5       9.0952      2.00000
      6      10.1856      2.00000
      7      11.0591      2.00000
      8      12.9649      2.00000
      9      14.2544      2.00000
     10      28.0989      0.00000
     11      31.8306      0.00000
     12      34.7309      0.00000
     13      36.4469      0.00000
     14      40.9268      0.00000
     15      42.0503      0.00000
     16      43.9061      0.00000
     17      47.8116      0.00000
     18      53.2298      0.00000
     19      54.9183      0.00000
     20      55.1928      0.00000
     21      56.1144      0.00000
     22      60.2594      0.00000
     23      64.6874      0.00000
     24      66.2750      0.00000

[...]
     13      37.2939      0.00000
     14      41.8371      0.00000
     15      43.5854      0.00000
     16      46.3062      0.00000
     17      51.5720      0.00000
     18      52.2587      0.00000
     19      54.9137      0.00000
     20      55.1204      0.00000
     21      57.5220      0.00000
     22      60.6118      0.00000
     23      62.9434      0.00000
     24      64.3735      0.00000

 k-point   100 :      -0.3500   -0.3500    0.2500
  band No.  band energies     occupation 
      1     -38.7962      2.00000
      2     -38.6335      2.00000
      3     -38.4222      2.00000
      4       7.0861      2.00000
      5       8.0793      2.00000
      6      11.1726      2.00000
      7      13.0173      2.00000
      8      14.5887      2.00000
      9      21.0314      0.00000
     10      21.8779      0.00000
     11      26.4236      0.00000
     12      30.4598      0.00000
     13      35.9043      0.00000
     14      43.1544      0.00000
     15      43.2366      0.00000
     16      44.6448      0.00000
     17      53.4150      0.00000
     18      54.1908      0.00000
     19      54.7156      0.00000
     20      54.9236      0.00000
     21      57.0852      0.00000
     22      60.1434      0.00000
     23      61.5184      0.00000
     24      63.8927      0.00000

 k-point   101 :       0.3500    0.3500    0.3500
  band No.  band energies     occupation 
      1     -38.8023      2.00000
      2     -38.2849      2.00000
      3     -38.2849      2.00000
      4       5.9351      2.00000
      5      10.2611      2.00000
      6      10.2611      2.00000
      7      11.0624      2.00000
      8      13.8914      2.00000
      9      13.8914      2.00000
     10      25.3868      0.00000
     11      29.8795      0.00000
     12      36.9658      0.00000
     13      36.9658      0.00000
     14      41.4249      0.00000
     15      42.1825      0.00000
     16      42.1825      0.00000
     17      53.4516      0.00000
     18      53.4516      0.00000
     19      54.9138      0.00000
     20      55.3231      0.00000
     21      58.3258      0.00000
     22      60.6402      0.00000
     23      60.6402      0.00000
     24      66.8241      0.00000

 k-point   102 :       0.4500    0.3500    0.3500
  band No.  band energies     occupation 
      1     -38.8431      2.00000
      2     -38.3569      2.00000
      3     -38.2924      2.00000
      4       6.3730      2.00000
      5       9.9180      2.00000
      6      10.4275      2.00000
      7      11.0355      2.00000
      8      13.6813      2.00000
      9      15.5894      0.00000
     10      24.3349      0.00000
     11      29.9451      0.00000
     12      33.8488      0.00000
     13      36.9232      0.00000
     14      40.7928      0.00000
     15      44.4578      0.00000
     16      45.1333      0.00000
     17      50.4049      0.00000
     18      53.9226      0.00000
     19      54.9203      0.00000
     20      55.7606      0.00000
     21      57.2768      0.00000
     22      61.0517      0.00000
     23      62.1106      0.00000
     24      63.8290      0.00000

 k-point   103 :      -0.4500    0.3500    0.3500
  band No.  band energies     occupation 
      1     -38.8248      2.00000
      2     -38.4988      2.00000
      3     -38.3277      2.00000
      4       7.3536      2.00000
      5       9.2106      2.00000
      6      10.3596      2.00000
      7      11.1540      2.00000
      8      13.6328      2.00000
      9      17.7232      0.00000
     10      23.6548      0.00000
     11      29.6993      0.00000
     12      32.1694      0.00000
     13      35.7411      0.00000
     14      40.5004      0.00000
     15      44.0225      0.00000
     16      48.1151      0.00000
     17      51.9687      0.00000
     18      53.4010      0.00000
     19      54.8084      0.00000
     20      54.9346      0.00000
     21      55.4909      0.00000
     22      59.0311      0.00000
     23      63.9073      0.00000
     24      64.7050      0.00000

 k-point   104 :      -0.3500    0.3500    0.3500
  band No.  band energies     occupation 
      1     -38.7520      2.00000
      2     -38.6610      2.00000
      3     -38.3777      2.00000
      4       7.6542      2.00000
      5       8.8680      2.00000
      6      10.0871      2.00000
      7      12.1791      2.00000
      8      13.8950      2.00000
      9      19.2861      0.00000
     10      24.0820      0.00000
     11      26.4134      0.00000
     12      33.2454      0.00000
     13      34.0967      0.00000
     14      41.7350      0.00000
     15      43.1434      0.00000
     16      46.4222      0.00000
     17      54.2356      0.00000
     18      54.8233      0.00000
     19      54.9405      0.00000
     20      55.5811      0.00000
     21      57.1227      0.00000
     22      57.3592      0.00000
     23      60.0202      0.00000
     24      65.5871      0.00000

 k-point   105 :       0.4500    0.4500    0.3500
  band No.  band energies     occupation 
      1     -38.8867      2.00000
      2     -38.3380      2.00000
      3     -38.3245      2.00000
      4       6.3430      2.00000
      5       9.7512      2.00000
      6      10.4342      2.00000
      7      11.4031      2.00000
      8      14.8052      0.43034
      9      15.5512      0.00000
     10      23.0845      0.00000
     11      29.5948      0.00000
     12      34.1917      0.00000
     13      35.0967      0.00000
     14      43.2084      0.00000
     15      44.6374      0.00000
     16      45.6141      0.00000
     17      49.4480      0.00000
     18      54.3555      0.00000
     19      54.9161      0.00000
     20      55.3069      0.00000
     21      57.8014      0.00000
     22      61.4424      0.00000
     23      62.3361      0.00000
     24      63.8171      0.00000

 k-point   106 :      -0.4500    0.4500    0.3500
  band No.  band energies     occupation 
      1     -38.8734      2.00000
      2     -38.4414      2.00000
      3     -38.3440      2.00000
      4       6.9945      2.00000
      5       9.1889      2.00000
      6      10.7556      2.00000
      7      11.0520      2.00000
      8      14.4909      2.00000
      9      17.8535      0.00000
     10      22.0951      0.00000
     11      30.3260      0.00000
     12      31.9787      0.00000
     13      34.7493      0.00000
     14      42.4388      0.00000
     15      44.8666      0.00000
     16      48.0995      0.00000
     17      49.5545      0.00000
     18      53.2368      0.00000
     19      54.9191      0.00000
     20      55.6108      0.00000
     21      55.7314      0.00000
     22      59.3737      0.00000
     23      63.6509      0.00000
     24      65.4205      0.00000

 k-point   107 :      -0.3500    0.4500    0.3500
  band No.  band energies     occupation 
      1     -38.8072      2.00000
      2     -38.5809      2.00000
      3     -38.3911      2.00000
      4       7.8236      2.00000
      5       8.5939      2.00000
      6      10.0576      2.00000
      7      11.9056      2.00000
      8      14.3979      2.00000
      9      20.0393      0.00000
     10      21.8827      0.00000
     11      28.5405      0.00000
     12      31.0345      0.00000
     13      35.3428      0.00000
     14      41.5536      0.00000
     15      44.9091      0.00000
     16      47.4757      0.00000
     17      50.5082      0.00000
     18      51.8773      0.00000
     19      54.9184      0.00000
     20      57.3244      0.00000
     21      57.5422      0.00000
     22      57.9928      0.00000
     23      61.9033      0.00000
     24      64.4905      0.00000

 k-point   108 :      -0.4500   -0.4500    0.3500
  band No.  band energies     occupation 
      1     -38.8676      2.00000
      2     -38.4809      2.00000
      3     -38.3595      2.00000
      4       7.1360      2.00000
      5       9.0166      2.00000
      6      10.7269      2.00000
      7      11.2102      2.00000
      8      14.6921      1.98405
      9      18.9891      0.00000
     10      21.1514      0.00000
     11      29.9737      0.00000
     12      32.9688      0.00000
     13      33.1880      0.00000
     14      43.5572      0.00000
     15      43.9633      0.00000
     16      47.6890      0.00000
     17      49.7504      0.00000
     18      53.6655      0.00000
     19      54.9182      0.00000
     20      55.4901      0.00000
     21      56.5330      0.00000
     22      58.8033      0.00000
     23      63.1485      0.00000
     24      65.7755      0.00000

 k-point   109 :       0.4500    0.4500    0.4500
  band No.  band energies     occupation 
      1     -38.9361      2.00000
      2     -38.3050      2.00000
      3     -38.3050      2.00000
      4       5.9753      2.00000
      5      10.0260      2.00000
      6      10.0260      2.00000
      7      13.2866      2.00000
      8      14.7012      1.96855
      9      14.7012      1.96855
     10      22.2438      0.00000
     11      28.6811      0.00000
     12      34.8290      0.00000
     13      34.8290      0.00000
     14      44.8422      0.00000
     15      44.8422      0.00000
     16      45.4858      0.00000
     17      52.8190      0.00000
     18      52.8351      0.00000
     19      52.8351      0.00000
     20      54.9055      0.00000
     21      61.5259      0.00000
     22      61.5259      0.00000
     23      63.3103      0.00000
     24      63.6319      0.00000

 k-point   110 :      -0.4500    0.4500    0.4500
  band No.  band energies     occupation 
      1     -38.9282      2.00000
      2     -38.3591      2.00000
      3     -38.3181      2.00000
      4       6.3368      2.00000
      5       9.6848      2.00000
      6      10.3018      2.00000
      7      12.2275      2.00000
      8      14.6535      1.99954
      9      16.6687      0.00000
     10      21.5692      0.00000
     11      29.2649      0.00000
     12      33.5636      0.00000
     13      34.5470      0.00000
     14      44.2219      0.00000
     15      44.8527      0.00000
     16      47.3776      0.00000
     17      51.8757      0.00000
     18      52.8710      0.00000
     19      53.1245      0.00000
     20      54.9200      0.00000
     21      58.4587      0.00000
     22      59.1175      0.00000
     23      64.1107      0.00000
     24      64.4288      0.00000


--------------------------------------------------------------------------------------------------------


 soft charge-density along one line, spin component           1
         0         1         2         3         4         5         6         7         8         9
 total charge-density along one line
 
 pseudopotential strength for first ion, spin component:           1
-30.597  -0.000  -0.000   9.647   0.000   0.000  -0.000   0.000
 -0.000 -30.597  -0.000   0.000   9.647   0.000   0.000  -0.000
 -0.000  -0.000 -30.597   0.000   0.000   9.647  -0.000   0.000
  9.647   0.000   0.000  16.689  -0.000  -0.000   0.000   0.000
  0.000   9.647   0.000  -0.000  16.689  -0.000  -0.000   0.000
  0.000   0.000   9.647  -0.000  -0.000  16.689   0.000  -0.000
 -0.000   0.000  -0.000   0.000  -0.000   0.000  -3.003   0.000
  0.000  -0.000   0.000   0.000   0.000  -0.000   0.000  -3.003
  0.000   0.000   0.000  -0.000  -0.000  -0.000   0.000  -0.000
  0.000  -0.000  -0.000  -0.000   0.000  -0.000   0.000   0.000
  0.000  -0.000  -0.000  -0.000   0.000   0.000   0.000   0.000
 -0.000   0.000  -0.000   0.000   0.000   0.000  -3.146   0.000
 -0.000  -0.000  -0.000   0.000   0.000  -0.000   0.000  -3.146
 -0.000   0.000   0.000  -0.000  -0.000  -0.000   0.000  -0.000
 -0.000  -0.000  -0.000  -0.000   0.000   0.000   0.000   0.000
  0.000  -0.000  -0.000  -0.000   0.000   0.000   0.000   0.000
  0.000  -0.000   0.000   0.000   0.000   0.000   0.000   0.000
 -0.000  -0.000  -0.000  -0.000   0.000  -0.000  -0.000  -0.000
 total augmentation occupancy for first ion, spin component:           1
  2.003   0.000  -0.000  -0.022   0.000  -0.000   0.000   0.000   0.000   0.000   0.000   0.000   0.000   0.000   0.000   0.000
 -0.000   2.003  -0.000   0.000  -0.022   0.000   0.000   0.000   0.000   0.000   0.000   0.000   0.000   0.000   0.000   0.000
  0.000  -0.000   2.003   0.000   0.000  -0.022   0.000   0.000   0.000   0.000   0.000   0.000   0.000   0.000   0.000   0.000
 -0.022  -0.000   0.000   0.067   0.000   0.000   0.000   0.000   0.000   0.000   0.000   0.000   0.000   0.000   0.000   0.000
  0.000  -0.022   0.000   0.000   0.067   0.000   0.000   0.000   0.000   0.000   0.000   0.000   0.000   0.000   0.000   0.000
 -0.000  -0.000  -0.022  -0.000   0.000   0.067   0.000   0.000   0.000   0.000   0.000   0.000   0.000   0.000   0.000   0.000
  0.000   0.000   0.000   0.000   0.000   0.000   7.609   0.000   0.000  -0.000   0.000  -4.829  -0.000   0.000   0.000  -0.000
  0.000   0.000   0.000   0.000   0.000   0.000   0.000   7.609   0.000  -0.000  -0.000  -0.000  -4.829  -0.000   0.000   0.000
  0.000   0.000   0.000   0.000   0.000   0.000  -0.000  -0.000   6.323  -0.000   0.000  -0.000   0.000  -3.977   0.000  -0.000
  0.000   0.000   0.000   0.000   0.000   0.000  -0.000   0.000   0.000   7.609  -0.000   0.000   0.000   0.000  -4.829  -0.000
  0.000   0.000   0.000   0.000   0.000   0.000   0.000  -0.000   0.000  -0.000   6.323  -0.000   0.000  -0.000   0.000  -3.977
  0.000   0.000   0.000   0.000   0.000   0.000  -4.829  -0.000   0.000   0.000  -0.000   3.856   0.000   0.000  -0.000  -0.000
  0.000   0.000   0.000   0.000   0.000   0.000  -0.000  -4.829   0.000   0.000   0.000  -0.000   3.856   0.000  -0.000  -0.000
  0.000   0.000   0.000   0.000   0.000   0.000   0.000  -0.000  -3.977   0.000  -0.000  -0.000  -0.000   3.532  -0.000   0.000
  0.000   0.000   0.000   0.000   0.000   0.000   0.000   0.000  -0.000  -4.829   0.000  -0.000  -0.000   0.000   3.856   0.000
  0.000   0.000   0.000   0.000   0.000   0.000  -0.000   0.000  -0.000   0.000  -3.977   0.000  -0.000   0.000   0.000   3.532
  0.000   0.000   0.000   0.000   0.000   0.000   0.000   0.000  -0.000  -0.000  -0.000   0.000   0.000   0.000   0.000   0.000
  0.000   0.000   0.000   0.000   0.000   0.000   0.000   0.000  -0.000  -0.000  -0.000  -0.000   0.000   0.000   0.000   0.000


------------------------ aborting loop because EDIFF is reached ----------------------------------------





 total charge

# of ion       s       p       d       tot
------------------------------------------
    1        0.383   6.128   7.122  13.634
 
    CHARGE:  cpu time      0.0114: real time      0.0114
    FORLOC:  cpu time      0.0001: real time      0.0001
    FORNL :  cpu time      0.0055: real time      0.0055
    STRESS:  cpu time      0.1049: real time      0.1054
    FORCOR:  cpu time      0.0017: real time      0.0017
    FORHAR:  cpu time      0.0004: real time      0.0004
    MIXING:  cpu time      0.0002: real time      0.0002
    OFIELD:  cpu time      0.0000: real time      0.0000

  FORCE on cell =-STRESS in cart. coord.  units (eV):
  Direction    XX          YY          ZZ          XY          YZ          ZX
  --------------------------------------------------------------------------------------
  Alpha Z   180.57157   180.57157   180.57157
  Ewald    -749.21231  -749.21231  -749.21231    -0.00000    -0.00000    -0.00000
  Hartree   111.41757   111.41757   111.41757     0.00000     0.00000     0.00000
  E(xc)     -86.23073   -86.23073   -86.23073     0.00000     0.00000     0.00000
  Local     149.95269   149.95269   149.95269    -0.00002    -0.00002    -0.00002
  n-local   -26.77938   -23.46487   -29.54263     3.55321    -3.41667     0.09853
  augment    73.24005    73.24005    73.24005     0.00002     0.00002     0.00002
  Kinetic   350.69940   357.15561   347.71446     5.15088    -4.59314    -0.62509
  Fock        0.00000     0.00000     0.00000     0.00000     0.00000     0.00000
  -------------------------------------------------------------------------------------
  Total       4.99971     4.99971     4.99971     0.00000     0.00000     0.00000
  in kB     602.86017   602.86017   602.86017     0.00000     0.00000     0.00000
  external pressure =      602.86 kB  Pullay stress =        0.00 kB


 VOLUME and BASIS-vectors are now :
 -----------------------------------------------------------------------------
  energy-cutoff  :      425.00
  volume of cell :       13.29
      direct lattice vectors                 reciprocal lattice vectors
     0.000000000  1.879906198  1.879906198    -0.265970717  0.265970717  0.265970717
     1.879906198  0.000000000  1.879906198     0.265970717 -0.265970717  0.265970717
     1.879906198  1.879906198  0.000000000     0.265970717  0.265970717 -0.265970717

  length of vectors
     2.658588841  2.658588841  2.658588841     0.460674796  0.460674796  0.460674796


 FORCES acting on ions
    electron-ion (+dipol)            ewald-force                    non-local-force                 convergence-correction
 -----------------------------------------------------------------------------------------------
   -.410E-14 -.396E-14 0.458E-15   0.239E-14 -.123E-14 -.256E-14   0.388E-25 0.000E+00 -.129E-25   -.349E-14 -.340E-13 0.251E-14
 -----------------------------------------------------------------------------------------------
   -.410E-14 -.396E-14 0.458E-15   0.239E-14 -.123E-14 -.256E-14   0.388E-25 0.000E+00 -.129E-25   -.349E-14 -.340E-13 0.251E-14
 
 
 POSITION                                       TOTAL-FORCE (eV/Angst)
 -----------------------------------------------------------------------------------
      0.00000      0.00000      0.00000        -0.000000      0.000000      0.000000
 -----------------------------------------------------------------------------------
    total drift:                               -0.000000     -0.000000      0.000000


--------------------------------------------------------------------------------------------------------



  FREE ENERGIE OF THE ION-ELECTRON SYSTEM (eV)
  ---------------------------------------------------
  free  energy   TOTEN  =        -5.68550639 eV

  energy  without entropy=       -5.68359310  energy(sigma->0) =       -5.68454975
 


--------------------------------------------------------------------------------------------------------


    POTLOK:  cpu time      0.0042: real time      0.0042


--------------------------------------------------------------------------------------------------------




--------------------------------------------------------------------------------------------------------


  
 reached required accuracy - stopping structural energy minimisation
 writing wavefunctions
     LOOP+:  cpu time      7.0688: real time      7.1450
    4ORBIT:  cpu time      0.0000: real time      0.0000



 total charge

# of ion       s       p       d       tot
------------------------------------------
    1        0.383   6.128   7.122  13.634
 

 total amount of memory used by VASP MPI-rank0    35610. kBytes
=======================================================================

   base      :      30000. kBytes
   nonl-proj :       4566. kBytes
   fftplans  :        113. kBytes
   grid      :        367. kBytes
   one-center:         15. kBytes
   wavefun   :        549. kBytes
 
  
  
 General timing and accounting informations for this job:
 ========================================================
  
                  Total CPU time used (sec):        8.187
                            User time (sec):        7.660
                          System time (sec):        0.527
                         Elapsed time (sec):        9.639
  
                   Maximum memory used (kb):      225712.
                   Average memory used (kb):          N/A
  
                          Minor page faults:        27038
                          Major page faults:           10
                 Voluntary context switches:         2118
