PROCAR lm decomposed
# of k-points:  110         # of bands:   24         # of ions:    1

 k-point     1 :    0.05000000 0.05000000 0.05000000     weight = 0.00200000

band     1 # energy  -40.07481911 # occ.  2.00000000
 
ion      s     py     pz     px    dxy    dyz    dz2    dxz  x2-y2    tot
    1  0.000  0.332  0.332  0.332  0.000  0.000  0.000  0.000  0.000  0.997
 
band     2 # energy  -40.06328895 # occ.  2.00000000
 
ion      s     py     pz     px    dxy    dyz    dz2    dxz  x2-y2    tot
    1  0.000  0.348  0.123  0.526  0.000  0.000  0.000  0.000  0.000  0.997
 
band     3 # energy  -40.06328895 # occ.  2.00000000
 
ion      s     py     pz     px    dxy    dyz    dz2    dxz  x2-y2    tot
    1  0.000  0.316  0.542  0.139  0.000  0.000  0.000  0.000  0.000  0.997
 
band     4 # energy    2.12849906 # occ.  2.00000000
 
ion      s     py     pz     px    dxy    dyz    dz2    dxz  x2-y2    tot
    1  0.408  0.000  0.000  0.000  0.000  0.000  0.000  0.000  0.000  0.410
 
band     5 # energy    8.54956948 # occ.  2.00000000
 
ion      s     py     pz     px    dxy    dyz    dz2    dxz  x2-y2    tot
    1  0.000  0.000  0.000  0.000  0.282  0.282  0.000  0.282  0.000  0.846
 
band     6 # energy    8.63990630 # occ.  2.00000000
 
ion      s     py     pz     px    dxy    dyz    dz2    dxz  x2-y2    tot
    1  0.000  0.000  0.000  0.000  0.000  0.426  0.000  0.424  0.000  0.851
 
band     7 # energy    8.63990631 # occ.  2.00000000
 
ion      s     py     pz     px    dxy    dyz    dz2    dxz  x2-y2    tot
    1  0.000  0.000  0.000  0.000  0.567  0.141  0.000  0.143  0.000  0.851
 
band     8 # energy   10.82795588 # occ.  2.00000000
 
ion      s     py     pz     px    dxy    dyz    dz2    dxz  x2-y2    tot
    1  0.000  0.000  0.000  0.000  0.000  0.000  0.000  0.000  0.913  0.914
 
band     9 # energy   10.82795588 # occ.  2.00000000
 
ion      s     py     pz     px    dxy    dyz    dz2    dxz  x2-y2    tot
    1  0.000  0.000  0.000  0.000  0.000  0.000  0.913  0.000  0.000  0.914
 
band    10 # energy   27.25335264 # occ.  0.00000000
 
ion      s     py     pz     px    dxy    dyz    dz2    dxz  x2-y2    tot
    1  0.000  0.000  0.000  0.000  0.002  0.002  0.000  0.002  0.000  0.007
 
band    11 # energy   31.63529235 # occ.  0.00000000
 
ion      s     py     pz     px    dxy    dyz    dz2    dxz  x2-y2    tot
    1  0.009  0.021  0.021  0.021  0.002  0.002  0.000  0.002  0.000  0.076
 
band    12 # energy   32.35028473 # occ.  0.00000000
 
ion      s     py     pz     px    dxy    dyz    dz2    dxz  x2-y2    tot
    1  0.000  0.033  0.001  0.034  0.000  0.001  0.000  0.001  0.003  0.073
 
band    13 # energy   32.35028473 # occ.  0.00000000
 
ion      s     py     pz     px    dxy    dyz    dz2    dxz  x2-y2    tot
    1  0.000  0.012  0.044  0.011  0.001  0.000  0.003  0.000  0.000  0.073
 
band    14 # energy   38.26942208 # occ.  0.00000000
 
ion      s     py     pz     px    dxy    dyz    dz2    dxz  x2-y2    tot
    1  0.045  0.005  0.005  0.005  0.001  0.001  0.000  0.001  0.000  0.062
 
band    15 # energy   43.60807718 # occ.  0.00000000
 
ion      s     py     pz     px    dxy    dyz    dz2    dxz  x2-y2    tot
    1  0.008  0.055  0.055  0.055  0.112  0.112  0.000  0.112  0.000  0.508
 
band    16 # energy   44.36085981 # occ.  0.00000000
 
ion      s     py     pz     px    dxy    dyz    dz2    dxz  x2-y2    tot
    1  0.000  0.043  0.000  0.042  0.000  0.210  0.000  0.215  0.002  0.512
 
band    17 # energy   44.36085981 # occ.  0.00000000
 
ion      s     py     pz     px    dxy    dyz    dz2    dxz  x2-y2    tot
    1  0.000  0.014  0.057  0.015  0.284  0.074  0.002  0.068  0.000  0.512
 
band    18 # energy   47.83821942 # occ.  0.00000000
 
ion      s     py     pz     px    dxy    dyz    dz2    dxz  x2-y2    tot
    1  0.000  0.285  0.000  0.292  0.000  0.042  0.000  0.041  0.018  0.679
 
band    19 # energy   47.83821942 # occ.  0.00000000
 
ion      s     py     pz     px    dxy    dyz    dz2    dxz  x2-y2    tot
    1  0.000  0.100  0.384  0.093  0.056  0.013  0.018  0.014  0.000  0.679
 
band    20 # energy   48.78322841 # occ.  0.00000000
 
ion      s     py     pz     px    dxy    dyz    dz2    dxz  x2-y2    tot
    1  0.027  0.158  0.158  0.158  0.061  0.061  0.000  0.061  0.000  0.682
 
band    21 # energy   53.13655364 # occ.  0.00000000
 
ion      s     py     pz     px    dxy    dyz    dz2    dxz  x2-y2    tot
    1  6.303  0.000  0.000  0.000  0.000  0.000  0.000  0.000  0.000  6.303
 
band    22 # energy   54.51610001 # occ.  0.00000000
 
ion      s     py     pz     px    dxy    dyz    dz2    dxz  x2-y2    tot
    1  0.000  0.014  0.000  0.014  0.000  0.000  0.000  0.000  0.467  0.496
 
band    23 # energy   54.51610001 # occ.  0.00000000
 
ion      s     py     pz     px    dxy    dyz    dz2    dxz  x2-y2    tot
    1  0.000  0.005  0.019  0.005  0.000  0.000  0.467  0.000  0.000  0.496
 
band    24 # energy   61.81870530 # occ.  0.00000000
 
ion      s     py     pz     px    dxy    dyz    dz2    dxz  x2-y2    tot
    1  0.000  0.000  0.000  0.000  0.000  0.000  0.000  0.000  0.000  0.000
 

 k-point     2 :    0.15000000 0.05000000 0.05000000     weight = 0.00600000

band     1 # energy  -40.13696730 # occ.  2.00000000
 
ion      s     py     pz     px    dxy    dyz    dz2    dxz  x2-y2    tot
    1  0.000  0.455  0.455  0.085  0.000  0.000  0.000  0.000  0.000  0.995
 
band     2 # energy  -40.08206800 # occ.  2.00000000
 
ion      s     py     pz     px    dxy    dyz    dz2    dxz  x2-y2    tot
    1  0.000  0.043  0.043  0.911  0.000  0.000  0.000  0.000  0.000  0.996
 
band     3 # energy  -40.06942549 # occ.  2.00000000
 
ion      s     py     pz     px    dxy    dyz    dz2    dxz  x2-y2    tot
    1  0.000  0.498  0.498  0.000  0.000  0.000  0.000  0.000  0.000  0.997
 
band     4 # energy    2.66451376 # occ.  2.00000000
 
ion      s     py     pz     px    dxy    dyz    dz2    dxz  x2-y2    tot
    1  0.396  0.004  0.004  0.000  0.000  0.002  0.000  0.000  0.000  0.407
 
band     5 # energy    8.30495935 # occ.  2.00000000
 
ion      s     py     pz     px    dxy    dyz    dz2    dxz  x2-y2    tot
    1  0.000  0.000  0.000  0.002  0.397  0.029  0.000  0.397  0.000  0.825
 
band     6 # energy    8.82806581 # occ.  2.00000000
 
ion      s     py     pz     px    dxy    dyz    dz2    dxz  x2-y2    tot
    1  0.000  0.000  0.000  0.000  0.425  0.000  0.003  0.425  0.001  0.854
 
band     7 # energy    8.86911809 # occ.  2.00000000
 
ion      s     py     pz     px    dxy    dyz    dz2    dxz  x2-y2    tot
    1  0.000  0.001  0.001  0.000  0.015  0.793  0.006  0.015  0.018  0.849
 
band     8 # energy   10.58789441 # occ.  2.00000000
 
ion      s     py     pz     px    dxy    dyz    dz2    dxz  x2-y2    tot
    1  0.000  0.000  0.000  0.000  0.002  0.000  0.671  0.002  0.224  0.900
 
band     9 # energy   10.88637268 # occ.  2.00000000
 
ion      s     py     pz     px    dxy    dyz    dz2    dxz  x2-y2    tot
    1  0.000  0.000  0.000  0.000  0.001  0.024  0.221  0.001  0.664  0.911
 
band    10 # energy   28.04797800 # occ.  0.00000000
 
ion      s     py     pz     px    dxy    dyz    dz2    dxz  x2-y2    tot
    1  0.000  0.000  0.000  0.001  0.020  0.002  0.000  0.020  0.000  0.044
 
band    11 # energy   29.92792881 # occ.  0.00000000
 
ion      s     py     pz     px    dxy    dyz    dz2    dxz  x2-y2    tot
    1  0.032  0.025  0.025  0.007  0.003  0.016  0.001  0.003  0.004  0.116
 
band    12 # energy   32.52040434 # occ.  0.00000000
 
ion      s     py     pz     px    dxy    dyz    dz2    dxz  x2-y2    tot
    1  0.000  0.003  0.003  0.086  0.011  0.002  0.001  0.011  0.004  0.121
 
band    13 # energy   33.51013183 # occ.  0.00000000
 
ion      s     py     pz     px    dxy    dyz    dz2    dxz  x2-y2    tot
    1  0.000  0.032  0.032  0.000  0.001  0.000  0.023  0.001  0.008  0.095
 
band    14 # energy   39.09471286 # occ.  0.00000000
 
ion      s     py     pz     px    dxy    dyz    dz2    dxz  x2-y2    tot
    1  0.002  0.103  0.103  0.009  0.006  0.114  0.000  0.006  0.001  0.344
 
band    15 # energy   41.52818238 # occ.  0.00000000
 
ion      s     py     pz     px    dxy    dyz    dz2    dxz  x2-y2    tot
    1  0.028  0.012  0.012  0.085  0.039  0.065  0.003  0.039  0.009  0.293
 
band    16 # energy   41.89589115 # occ.  0.00000000
 
ion      s     py     pz     px    dxy    dyz    dz2    dxz  x2-y2    tot
    1  0.038  0.002  0.002  0.102  0.062  0.001  0.000  0.062  0.000  0.269
 
band    17 # energy   43.38065104 # occ.  0.00000000
 
ion      s     py     pz     px    dxy    dyz    dz2    dxz  x2-y2    tot
    1  0.000  0.075  0.075  0.000  0.154  0.000  0.014  0.154  0.005  0.478
 
band    18 # energy   46.08132515 # occ.  0.00000000
 
ion      s     py     pz     px    dxy    dyz    dz2    dxz  x2-y2    tot
    1  0.000  0.202  0.202  0.000  0.074  0.000  0.048  0.074  0.016  0.616
 
band    19 # energy   49.26642854 # occ.  0.00000000
 
ion      s     py     pz     px    dxy    dyz    dz2    dxz  x2-y2    tot
    1  0.078  0.123  0.123  0.032  0.000  0.264  0.007  0.000  0.021  0.649
 
band    20 # energy   51.57708517 # occ.  0.00000000
 
ion      s     py     pz     px    dxy    dyz    dz2    dxz  x2-y2    tot
    1  0.039  0.006  0.006  0.329  0.130  0.003  0.010  0.130  0.031  0.684
 
band    21 # energy   53.11936898 # occ.  0.00000000
 
ion      s     py     pz     px    dxy    dyz    dz2    dxz  x2-y2    tot
    1  6.265  0.000  0.000  0.001  0.000  0.000  0.000  0.000  0.001  6.267
 
band    22 # energy   53.26436984 # occ.  0.00000000
 
ion      s     py     pz     px    dxy    dyz    dz2    dxz  x2-y2    tot
    1  0.020  0.007  0.007  0.089  0.009  0.011  0.066  0.009  0.199  0.417
 
band    23 # energy   55.69179326 # occ.  0.00000000
 
ion      s     py     pz     px    dxy    dyz    dz2    dxz  x2-y2    tot
    1  0.000  0.063  0.063  0.000  0.001  0.000  0.239  0.001  0.080  0.448
 
band    24 # energy   62.45364562 # occ.  0.00000000
 
ion      s     py     pz     px    dxy    dyz    dz2    dxz  x2-y2    tot
    1  0.000  0.000  0.000  0.000  0.007  0.000  0.033  0.007  0.011  0.059
 

 k-point     3 :    0.25000000 0.05000000 0.05000000     weight = 0.00600000

band     1 # energy  -40.27258709 # occ.  2.00000000
 
ion      s     py     pz     px    dxy    dyz    dz2    dxz  x2-y2    tot
    1  0.000  0.390  0.390  0.210  0.000  0.000  0.000  0.000  0.000  0.990
 
band     2 # energy  -40.10629077 # occ.  2.00000000
 
ion      s     py     pz     px    dxy    dyz    dz2    dxz  x2-y2    tot
    1  0.000  0.106  0.106  0.784  0.000  0.000  0.000  0.000  0.000  0.996
 
band     3 # energy  -40.08714660 # occ.  2.00000000
 
ion      s     py     pz     px    dxy    dyz    dz2    dxz  x2-y2    tot
    1  0.000  0.498  0.498  0.000  0.000  0.000  0.000  0.000  0.000  0.996
 
band     4 # energy    3.80396868 # occ.  2.00000000
 
ion      s     py     pz     px    dxy    dyz    dz2    dxz  x2-y2    tot
    1  0.353  0.009  0.009  0.003  0.012  0.022  0.000  0.012  0.001  0.421
 
band     5 # energy    8.07294732 # occ.  2.00000000
 
ion      s     py     pz     px    dxy    dyz    dz2    dxz  x2-y2    tot
    1  0.010  0.004  0.004  0.007  0.337  0.064  0.000  0.337  0.000  0.762
 
band     6 # energy    9.02443846 # occ.  2.00000000
 
ion      s     py     pz     px    dxy    dyz    dz2    dxz  x2-y2    tot
    1  0.001  0.001  0.001  0.000  0.035  0.574  0.049  0.035  0.147  0.844
 
band     7 # energy    9.06559484 # occ.  2.00000000
 
ion      s     py     pz     px    dxy    dyz    dz2    dxz  x2-y2    tot
    1  0.000  0.000  0.000  0.000  0.348  0.000  0.119  0.348  0.040  0.855
 
band     8 # energy   10.56904098 # occ.  2.00000000
 
ion      s     py     pz     px    dxy    dyz    dz2    dxz  x2-y2    tot
    1  0.000  0.000  0.000  0.000  0.083  0.000  0.542  0.083  0.181  0.889
 
band     9 # energy   11.16269727 # occ.  2.00000000
 
ion      s     py     pz     px    dxy    dyz    dz2    dxz  x2-y2    tot
    1  0.002  0.001  0.001  0.000  0.011  0.181  0.175  0.011  0.524  0.906
 
band    10 # energy   27.09385370 # occ.  0.00000000
 
ion      s     py     pz     px    dxy    dyz    dz2    dxz  x2-y2    tot
    1  0.079  0.028  0.028  0.024  0.024  0.040  0.001  0.024  0.003  0.251
 
band    11 # energy   29.09849512 # occ.  0.00000000
 
ion      s     py     pz     px    dxy    dyz    dz2    dxz  x2-y2    tot
    1  0.002  0.003  0.003  0.009  0.050  0.015  0.000  0.050  0.000  0.131
 
band    12 # energy   33.73574056 # occ.  0.00000000
 
ion      s     py     pz     px    dxy    dyz    dz2    dxz  x2-y2    tot
    1  0.001  0.012  0.012  0.123  0.017  0.025  0.006  0.017  0.019  0.232
 
band    13 # energy   35.69292423 # occ.  0.00000000
 
ion      s     py     pz     px    dxy    dyz    dz2    dxz  x2-y2    tot
    1  0.000  0.032  0.032  0.000  0.008  0.000  0.058  0.008  0.019  0.157
 
band    14 # energy   35.73194504 # occ.  0.00000000
 
ion      s     py     pz     px    dxy    dyz    dz2    dxz  x2-y2    tot
    1  0.039  0.086  0.086  0.002  0.000  0.047  0.002  0.000  0.006  0.269
 
band    15 # energy   39.10166408 # occ.  0.00000000
 
ion      s     py     pz     px    dxy    dyz    dz2    dxz  x2-y2    tot
    1  0.004  0.000  0.000  0.124  0.026  0.014  0.008  0.026  0.023  0.224
 
band    16 # energy   39.29103433 # occ.  0.00000000
 
ion      s     py     pz     px    dxy    dyz    dz2    dxz  x2-y2    tot
    1  0.000  0.110  0.110  0.000  0.063  0.000  0.032  0.063  0.011  0.390
 
band    17 # energy   45.78441240 # occ.  0.00000000
 
ion      s     py     pz     px    dxy    dyz    dz2    dxz  x2-y2    tot
    1  0.074  0.000  0.000  0.000  0.000  0.006  0.002  0.000  0.007  0.090
 
band    18 # energy   46.47347248 # occ.  0.00000000
 
ion      s     py     pz     px    dxy    dyz    dz2    dxz  x2-y2    tot
    1  0.000  0.132  0.132  0.000  0.117  0.000  0.052  0.117  0.017  0.569
 
band    19 # energy   49.85478123 # occ.  0.00000000
 
ion      s     py     pz     px    dxy    dyz    dz2    dxz  x2-y2    tot
    1  0.060  0.066  0.066  0.091  0.001  0.257  0.017  0.001  0.050  0.608
 
band    20 # energy   51.84106582 # occ.  0.00000000
 
ion      s     py     pz     px    dxy    dyz    dz2    dxz  x2-y2    tot
    1  0.115  0.009  0.009  0.011  0.094  0.000  0.032  0.094  0.095  0.456
 
band    21 # energy   53.12186555 # occ.  0.00000000
 
ion      s     py     pz     px    dxy    dyz    dz2    dxz  x2-y2    tot
    1  6.265  0.000  0.000  0.000  0.000  0.000  0.000  0.000  0.000  6.266
 
band    22 # energy   54.58411461 # occ.  0.00000000
 
ion      s     py     pz     px    dxy    dyz    dz2    dxz  x2-y2    tot
    1  0.028  0.012  0.012  0.262  0.069  0.041  0.008  0.069  0.025  0.527
 
band    23 # energy   56.30534662 # occ.  0.00000000
 
ion      s     py     pz     px    dxy    dyz    dz2    dxz  x2-y2    tot
    1  0.000  0.089  0.089  0.000  0.008  0.000  0.125  0.008  0.042  0.360
 
band    24 # energy   62.77094834 # occ.  0.00000000
 
ion      s     py     pz     px    dxy    dyz    dz2    dxz  x2-y2    tot
    1  0.000  0.000  0.000  0.000  0.002  0.000  0.041  0.002  0.014  0.060
 

 k-point     4 :    0.35000000 0.05000000 0.05000000     weight = 0.00600000

band     1 # energy  -40.42714257 # occ.  2.00000000
 
ion      s     py     pz     px    dxy    dyz    dz2    dxz  x2-y2    tot
    1  0.000  0.359  0.359  0.268  0.000  0.000  0.000  0.000  0.000  0.985
 
band     2 # energy  -40.12978583 # occ.  2.00000000
 
ion      s     py     pz     px    dxy    dyz    dz2    dxz  x2-y2    tot
    1  0.000  0.135  0.135  0.725  0.000  0.000  0.000  0.000  0.000  0.995
 
band     3 # energy  -40.11017095 # occ.  2.00000000
 
ion      s     py     pz     px    dxy    dyz    dz2    dxz  x2-y2    tot
    1  0.000  0.498  0.498  0.000  0.000  0.000  0.000  0.000  0.000  0.996
 
band     4 # energy    4.79386124 # occ.  2.00000000
 
ion      s     py     pz     px    dxy    dyz    dz2    dxz  x2-y2    tot
    1  0.245  0.007  0.007  0.002  0.085  0.096  0.000  0.085  0.001  0.526
 
band     5 # energy    8.67451713 # occ.  2.00000000
 
ion      s     py     pz     px    dxy    dyz    dz2    dxz  x2-y2    tot
    1  0.045  0.011  0.011  0.018  0.263  0.011  0.011  0.263  0.033  0.667
 
band     6 # energy    8.86345225 # occ.  2.00000000
 
ion      s     py     pz     px    dxy    dyz    dz2    dxz  x2-y2    tot
    1  0.015  0.008  0.008  0.003  0.000  0.365  0.090  0.000  0.270  0.760
 
band     7 # energy    8.89788301 # occ.  2.00000000
 
ion      s     py     pz     px    dxy    dyz    dz2    dxz  x2-y2    tot
    1  0.000  0.000  0.000  0.000  0.217  0.000  0.309  0.217  0.103  0.846
 
band     8 # energy   11.26437157 # occ.  2.00000000
 
ion      s     py     pz     px    dxy    dyz    dz2    dxz  x2-y2    tot
    1  0.000  0.001  0.001  0.000  0.222  0.000  0.344  0.222  0.115  0.904
 
band     9 # energy   11.94741227 # occ.  2.00000000
 
ion      s     py     pz     px    dxy    dyz    dz2    dxz  x2-y2    tot
    1  0.007  0.002  0.002  0.000  0.027  0.364  0.119  0.027  0.358  0.909
 
band    10 # energy   23.69533669 # occ.  0.00000000
 
ion      s     py     pz     px    dxy    dyz    dz2    dxz  x2-y2    tot
    1  0.173  0.032  0.032  0.033  0.063  0.072  0.001  0.063  0.002  0.470
 
band    11 # energy   28.28569574 # occ.  0.00000000
 
ion      s     py     pz     px    dxy    dyz    dz2    dxz  x2-y2    tot
    1  0.006  0.007  0.007  0.013  0.032  0.008  0.001  0.032  0.002  0.108
 
band    12 # energy   33.19505259 # occ.  0.00000000
 
ion      s     py     pz     px    dxy    dyz    dz2    dxz  x2-y2    tot
    1  0.010  0.050  0.050  0.137  0.029  0.033  0.000  0.029  0.001  0.338
 
band    13 # energy   35.44443207 # occ.  0.00000000
 
ion      s     py     pz     px    dxy    dyz    dz2    dxz  x2-y2    tot
    1  0.000  0.117  0.117  0.000  0.031  0.000  0.018  0.031  0.006  0.320
 
band    14 # energy   36.52248800 # occ.  0.00000000
 
ion      s     py     pz     px    dxy    dyz    dz2    dxz  x2-y2    tot
    1  0.017  0.006  0.006  0.044  0.001  0.017  0.014  0.001  0.043  0.148
 
band    15 # energy   38.45274683 # occ.  0.00000000
 
ion      s     py     pz     px    dxy    dyz    dz2    dxz  x2-y2    tot
    1  0.000  0.015  0.015  0.000  0.018  0.000  0.127  0.018  0.042  0.235
 
band    16 # energy   38.97305913 # occ.  0.00000000
 
ion      s     py     pz     px    dxy    dyz    dz2    dxz  x2-y2    tot
    1  0.022  0.007  0.007  0.024  0.003  0.000  0.018  0.003  0.053  0.138
 
band    17 # energy   46.86844901 # occ.  0.00000000
 
ion      s     py     pz     px    dxy    dyz    dz2    dxz  x2-y2    tot
    1  0.000  0.134  0.134  0.000  0.093  0.000  0.041  0.093  0.014  0.509
 
band    18 # energy   49.15851838 # occ.  0.00000000
 
ion      s     py     pz     px    dxy    dyz    dz2    dxz  x2-y2    tot
    1  0.144  0.012  0.012  0.072  0.000  0.184  0.017  0.000  0.051  0.493
 
band    19 # energy   51.22523652 # occ.  0.00000000
 
ion      s     py     pz     px    dxy    dyz    dz2    dxz  x2-y2    tot
    1  0.059  0.034  0.034  0.060  0.056  0.020  0.015  0.056  0.045  0.377
 
band    20 # energy   52.33240469 # occ.  0.00000000
 
ion      s     py     pz     px    dxy    dyz    dz2    dxz  x2-y2    tot
    1  0.055  0.016  0.016  0.020  0.050  0.004  0.008  0.050  0.023  0.240
 
band    21 # energy   53.12450575 # occ.  0.00000000
 
ion      s     py     pz     px    dxy    dyz    dz2    dxz  x2-y2    tot
    1  6.261  0.000  0.000  0.000  0.000  0.000  0.000  0.000  0.000  6.262
 
band    22 # energy   55.15483988 # occ.  0.00000000
 
ion      s     py     pz     px    dxy    dyz    dz2    dxz  x2-y2    tot
    1  0.011  0.031  0.031  0.138  0.025  0.078  0.002  0.025  0.006  0.347
 
band    23 # energy   56.98676295 # occ.  0.00000000
 
ion      s     py     pz     px    dxy    dyz    dz2    dxz  x2-y2    tot
    1  0.000  0.096  0.096  0.000  0.015  0.000  0.062  0.015  0.021  0.305
 
band    24 # energy   61.78692629 # occ.  0.00000000
 
ion      s     py     pz     px    dxy    dyz    dz2    dxz  x2-y2    tot
    1  0.000  0.002  0.002  0.000  0.040  0.000  0.070  0.040  0.023  0.178
 

 k-point     5 :    0.45000000 0.05000000 0.05000000     weight = 0.00600000

band     1 # energy  -40.54040372 # occ.  2.00000000
 
ion      s     py     pz     px    dxy    dyz    dz2    dxz  x2-y2    tot
    1  0.000  0.339  0.339  0.304  0.000  0.000  0.000  0.000  0.000  0.982
 
band     2 # energy  -40.14410503 # occ.  2.00000000
 
ion      s     py     pz     px    dxy    dyz    dz2    dxz  x2-y2    tot
    1  0.000  0.154  0.154  0.687  0.000  0.000  0.000  0.000  0.000  0.995
 
band     3 # energy  -40.13029861 # occ.  2.00000000
 
ion      s     py     pz     px    dxy    dyz    dz2    dxz  x2-y2    tot
    1  0.000  0.498  0.498  0.000  0.000  0.000  0.000  0.000  0.000  0.995
 
band     4 # energy    5.02874143 # occ.  2.00000000
 
ion      s     py     pz     px    dxy    dyz    dz2    dxz  x2-y2    tot
    1  0.155  0.002  0.002  0.000  0.154  0.158  0.000  0.154  0.000  0.626
 
band     5 # energy    8.55527941 # occ.  2.00000000
 
ion      s     py     pz     px    dxy    dyz    dz2    dxz  x2-y2    tot
    1  0.000  0.000  0.000  0.000  0.055  0.247  0.118  0.055  0.355  0.831
 
band     6 # energy    8.65988557 # occ.  2.00000000
 
ion      s     py     pz     px    dxy    dyz    dz2    dxz  x2-y2    tot
    1  0.000  0.000  0.000  0.000  0.174  0.000  0.368  0.174  0.123  0.837
 
band     7 # energy   10.50181916 # occ.  2.00000000
 
ion      s     py     pz     px    dxy    dyz    dz2    dxz  x2-y2    tot
    1  0.047  0.038  0.038  0.039  0.106  0.007  0.014  0.106  0.043  0.438
 
band     8 # energy   12.16009698 # occ.  2.00000000
 
ion      s     py     pz     px    dxy    dyz    dz2    dxz  x2-y2    tot
    1  0.000  0.000  0.000  0.000  0.277  0.000  0.284  0.277  0.095  0.933
 
band     9 # energy   12.86635286 # occ.  0.00000000
 
ion      s     py     pz     px    dxy    dyz    dz2    dxz  x2-y2    tot
    1  0.017  0.010  0.010  0.006  0.028  0.407  0.086  0.028  0.259  0.851
 
band    10 # energy   20.10001685 # occ.  0.00000000
 
ion      s     py     pz     px    dxy    dyz    dz2    dxz  x2-y2    tot
    1  0.297  0.016  0.016  0.020  0.111  0.099  0.001  0.111  0.002  0.673
 
band    11 # energy   27.13861361 # occ.  0.00000000
 
ion      s     py     pz     px    dxy    dyz    dz2    dxz  x2-y2    tot
    1  0.001  0.004  0.004  0.006  0.008  0.000  0.001  0.008  0.003  0.036
 
band    12 # energy   31.63921495 # occ.  0.00000000
 
ion      s     py     pz     px    dxy    dyz    dz2    dxz  x2-y2    tot
    1  0.005  0.039  0.039  0.145  0.015  0.003  0.000  0.015  0.001  0.262
 
band    13 # energy   32.67907188 # occ.  0.00000000
 
ion      s     py     pz     px    dxy    dyz    dz2    dxz  x2-y2    tot
    1  0.000  0.109  0.109  0.000  0.007  0.000  0.012  0.007  0.004  0.249
 
band    14 # energy   39.59300762 # occ.  0.00000000
 
ion      s     py     pz     px    dxy    dyz    dz2    dxz  x2-y2    tot
    1  0.008  0.000  0.000  0.024  0.000  0.071  0.041  0.000  0.124  0.267
 
band    15 # energy   40.74642466 # occ.  0.00000000
 
ion      s     py     pz     px    dxy    dyz    dz2    dxz  x2-y2    tot
    1  0.000  0.004  0.004  0.000  0.050  0.000  0.200  0.050  0.067  0.374
 
band    16 # energy   41.26961577 # occ.  0.00000000
 
ion      s     py     pz     px    dxy    dyz    dz2    dxz  x2-y2    tot
    1  0.066  0.008  0.008  0.009  0.051  0.006  0.012  0.051  0.035  0.247
 
band    17 # energy   47.45631221 # occ.  0.00000000
 
ion      s     py     pz     px    dxy    dyz    dz2    dxz  x2-y2    tot
    1  0.000  0.161  0.161  0.000  0.031  0.000  0.006  0.031  0.002  0.392
 
band    18 # energy   48.91021006 # occ.  0.00000000
 
ion      s     py     pz     px    dxy    dyz    dz2    dxz  x2-y2    tot
    1  0.088  0.009  0.009  0.160  0.001  0.116  0.014  0.001  0.042  0.438
 
band    19 # energy   50.15135820 # occ.  0.00000000
 
ion      s     py     pz     px    dxy    dyz    dz2    dxz  x2-y2    tot
    1  0.030  0.065  0.065  0.029  0.044  0.004  0.007  0.044  0.020  0.307
 
band    20 # energy   53.13081507 # occ.  0.00000000
 
ion      s     py     pz     px    dxy    dyz    dz2    dxz  x2-y2    tot
    1  6.292  0.000  0.000  0.000  0.000  0.000  0.000  0.000  0.000  6.292
 
band    21 # energy   54.66499736 # occ.  0.00000000
 
ion      s     py     pz     px    dxy    dyz    dz2    dxz  x2-y2    tot
    1  0.004  0.036  0.036  0.076  0.011  0.064  0.002  0.011  0.005  0.245
 
band    22 # energy   57.48697035 # occ.  0.00000000
 
ion      s     py     pz     px    dxy    dyz    dz2    dxz  x2-y2    tot
    1  0.000  0.075  0.075  0.000  0.000  0.000  0.026  0.000  0.009  0.185
 
band    23 # energy   57.63785329 # occ.  0.00000000
 
ion      s     py     pz     px    dxy    dyz    dz2    dxz  x2-y2    tot
    1  0.054  0.002  0.002  0.001  0.001  0.001  0.000  0.001  0.000  0.061
 
band    24 # energy   58.87347180 # occ.  0.00000000
 
ion      s     py     pz     px    dxy    dyz    dz2    dxz  x2-y2    tot
    1  0.000  0.017  0.017  0.000  0.119  0.000  0.004  0.119  0.001  0.279
 

 k-point     6 :   -0.45000000 0.05000000 0.05000000     weight = 0.00600000

band     1 # energy  -40.57183310 # occ.  2.00000000
 
ion      s     py     pz     px    dxy    dyz    dz2    dxz  x2-y2    tot
    1  0.000  0.323  0.323  0.334  0.000  0.000  0.000  0.000  0.000  0.981
 
band     2 # energy  -40.14442790 # occ.  2.00000000
 
ion      s     py     pz     px    dxy    dyz    dz2    dxz  x2-y2    tot
    1  0.000  0.170  0.170  0.656  0.000  0.000  0.000  0.000  0.000  0.995
 
band     3 # energy  -40.13948165 # occ.  2.00000000
 
ion      s     py     pz     px    dxy    dyz    dz2    dxz  x2-y2    tot
    1  0.000  0.497  0.497  0.000  0.000  0.000  0.000  0.000  0.000  0.995
 
band     4 # energy    5.02848586 # occ.  2.00000000
 
ion      s     py     pz     px    dxy    dyz    dz2    dxz  x2-y2    tot
    1  0.138  0.000  0.000  0.001  0.165  0.176  0.000  0.165  0.000  0.645
 
band     5 # energy    8.46026304 # occ.  2.00000000
 
ion      s     py     pz     px    dxy    dyz    dz2    dxz  x2-y2    tot
    1  0.000  0.000  0.000  0.000  0.058  0.209  0.125  0.058  0.376  0.827
 
band     6 # energy    8.60482340 # occ.  2.00000000
 
ion      s     py     pz     px    dxy    dyz    dz2    dxz  x2-y2    tot
    1  0.000  0.000  0.000  0.000  0.170  0.000  0.371  0.170  0.124  0.835
 
band     7 # energy   11.24974508 # occ.  2.00000000
 
ion      s     py     pz     px    dxy    dyz    dz2    dxz  x2-y2    tot
    1  0.003  0.039  0.039  0.038  0.027  0.194  0.029  0.027  0.086  0.481
 
band     8 # energy   12.60297421 # occ.  0.36359367
 
ion      s     py     pz     px    dxy    dyz    dz2    dxz  x2-y2    tot
    1  0.000  0.000  0.000  0.000  0.286  0.000  0.286  0.286  0.095  0.952
 
band     9 # energy   13.29059926 # occ.  0.00000000
 
ion      s     py     pz     px    dxy    dyz    dz2    dxz  x2-y2    tot
    1  0.002  0.024  0.024  0.029  0.075  0.193  0.064  0.075  0.191  0.677
 
band    10 # energy   18.60633319 # occ.  0.00000000
 
ion      s     py     pz     px    dxy    dyz    dz2    dxz  x2-y2    tot
    1  0.382  0.002  0.002  0.000  0.136  0.140  0.000  0.136  0.000  0.798
 
band    11 # energy   26.83509148 # occ.  0.00000000
 
ion      s     py     pz     px    dxy    dyz    dz2    dxz  x2-y2    tot
    1  0.000  0.003  0.003  0.005  0.000  0.004  0.001  0.000  0.004  0.022
 
band    12 # energy   31.51070586 # occ.  0.00000000
 
ion      s     py     pz     px    dxy    dyz    dz2    dxz  x2-y2    tot
    1  0.004  0.036  0.036  0.143  0.003  0.006  0.002  0.003  0.006  0.239
 
band    13 # energy   31.54995211 # occ.  0.00000000
 
ion      s     py     pz     px    dxy    dyz    dz2    dxz  x2-y2    tot
    1  0.000  0.110  0.110  0.000  0.001  0.000  0.004  0.001  0.001  0.227
 
band    14 # energy   40.98590442 # occ.  0.00000000
 
ion      s     py     pz     px    dxy    dyz    dz2    dxz  x2-y2    tot
    1  0.000  0.002  0.002  0.000  0.054  0.000  0.204  0.054  0.068  0.384
 
band    15 # energy   41.22223191 # occ.  0.00000000
 
ion      s     py     pz     px    dxy    dyz    dz2    dxz  x2-y2    tot
    1  0.000  0.000  0.000  0.001  0.015  0.082  0.071  0.015  0.214  0.400
 
band    16 # energy   42.71752566 # occ.  0.00000000
 
ion      s     py     pz     px    dxy    dyz    dz2    dxz  x2-y2    tot
    1  0.117  0.003  0.003  0.000  0.072  0.070  0.000  0.072  0.000  0.337
 
band    17 # energy   47.67458533 # occ.  0.00000000
 
ion      s     py     pz     px    dxy    dyz    dz2    dxz  x2-y2    tot
    1  0.025  0.084  0.084  0.107  0.005  0.001  0.001  0.005  0.002  0.312
 
band    18 # energy   48.46747794 # occ.  0.00000000
 
ion      s     py     pz     px    dxy    dyz    dz2    dxz  x2-y2    tot
    1  0.000  0.003  0.003  0.141  0.005  0.000  0.002  0.005  0.005  0.164
 
band    19 # energy   48.80491738 # occ.  0.00000000
 
ion      s     py     pz     px    dxy    dyz    dz2    dxz  x2-y2    tot
    1  0.000  0.170  0.170  0.000  0.003  0.000  0.019  0.003  0.006  0.371
 
band    20 # energy   53.13374051 # occ.  0.00000000
 
ion      s     py     pz     px    dxy    dyz    dz2    dxz  x2-y2    tot
    1  6.300  0.000  0.000  0.000  0.000  0.000  0.000  0.000  0.000  6.300
 
band    21 # energy   55.75950939 # occ.  0.00000000
 
ion      s     py     pz     px    dxy    dyz    dz2    dxz  x2-y2    tot
    1  0.000  0.049  0.049  0.000  0.053  0.000  0.000  0.053  0.000  0.206
 
band    22 # energy   56.36111151 # occ.  0.00000000
 
ion      s     py     pz     px    dxy    dyz    dz2    dxz  x2-y2    tot
    1  0.008  0.013  0.013  0.050  0.010  0.049  0.001  0.010  0.002  0.154
 