PROCAR lm decomposed
# of k-points:  110         # of bands:   24         # of ions:    1

 k-point     1 :    0.05000000 0.05000000 0.05000000     weight = 0.00200000

band     1 # energy  -38.21882977 # occ.  2.00000000
 
ion      s     py     pz     px    dxy    dyz    dz2    dxz  x2-y2    tot
    1  0.000  0.333  0.333  0.333  0.000  0.000  0.000  0.000  0.000  0.998
 
band     2 # energy  -38.20230163 # occ.  2.00000000
 
ion      s     py     pz     px    dxy    dyz    dz2    dxz  x2-y2    tot
    1  0.000  0.511  0.006  0.481  0.000  0.000  0.000  0.000  0.000  0.999
 
band     3 # energy  -38.20230163 # occ.  2.00000000
 
ion      s     py     pz     px    dxy    dyz    dz2    dxz  x2-y2    tot
    1  0.000  0.154  0.659  0.185  0.000  0.000  0.000  0.000  0.000  0.999
 
band     4 # energy    3.11907837 # occ.  2.00000000
 
ion      s     py     pz     px    dxy    dyz    dz2    dxz  x2-y2    tot
    1  0.452  0.001  0.001  0.001  0.000  0.000  0.000  0.000  0.000  0.454
 
band     5 # energy   10.03005259 # occ.  2.00000000
 
ion      s     py     pz     px    dxy    dyz    dz2    dxz  x2-y2    tot
    1  0.000  0.000  0.000  0.000  0.286  0.286  0.000  0.286  0.000  0.859
 
band     6 # energy   10.13713177 # occ.  2.00000000
 
ion      s     py     pz     px    dxy    dyz    dz2    dxz  x2-y2    tot
    1  0.000  0.000  0.000  0.000  0.576  0.144  0.000  0.144  0.000  0.864
 
band     7 # energy   10.13713177 # occ.  2.00000000
 
ion      s     py     pz     px    dxy    dyz    dz2    dxz  x2-y2    tot
    1  0.000  0.000  0.000  0.000  0.000  0.432  0.000  0.432  0.000  0.864
 
band     8 # energy   12.72036164 # occ.  2.00000000
 
ion      s     py     pz     px    dxy    dyz    dz2    dxz  x2-y2    tot
    1  0.000  0.000  0.000  0.000  0.000  0.000  0.923  0.000  0.000  0.924
 
band     9 # energy   12.72036164 # occ.  2.00000000
 
ion      s     py     pz     px    dxy    dyz    dz2    dxz  x2-y2    tot
    1  0.000  0.000  0.000  0.000  0.000  0.000  0.000  0.000  0.923  0.924
 
band    10 # energy   29.10944116 # occ.  0.00000000
 
ion      s     py     pz     px    dxy    dyz    dz2    dxz  x2-y2    tot
    1  0.000  0.000  0.000  0.000  0.002  0.002  0.000  0.002  0.000  0.007
 
band    11 # energy   34.04173399 # occ.  0.00000000
 
ion      s     py     pz     px    dxy    dyz    dz2    dxz  x2-y2    tot
    1  0.008  0.019  0.019  0.019  0.001  0.001  0.000  0.001  0.000  0.068
 
band    12 # energy   34.79541578 # occ.  0.00000000
 
ion      s     py     pz     px    dxy    dyz    dz2    dxz  x2-y2    tot
    1  0.000  0.010  0.041  0.011  0.001  0.000  0.004  0.000  0.000  0.066
 
band    13 # energy   34.79541578 # occ.  0.00000000
 
ion      s     py     pz     px    dxy    dyz    dz2    dxz  x2-y2    tot
    1  0.000  0.031  0.000  0.030  0.000  0.001  0.000  0.001  0.004  0.066
 
band    14 # energy   41.14755126 # occ.  0.00000000
 
ion      s     py     pz     px    dxy    dyz    dz2    dxz  x2-y2    tot
    1  0.042  0.004  0.004  0.004  0.000  0.000  0.000  0.000  0.000  0.056
 
band    15 # energy   48.09376687 # occ.  0.00000000
 
ion      s     py     pz     px    dxy    dyz    dz2    dxz  x2-y2    tot
    1  0.006  0.057  0.057  0.057  0.135  0.135  0.000  0.135  0.000  0.584
 
band    16 # energy   48.86384551 # occ.  0.00000000
 
ion      s     py     pz     px    dxy    dyz    dz2    dxz  x2-y2    tot
    1  0.000  0.012  0.052  0.015  0.332  0.096  0.002  0.074  0.000  0.583
 
band    17 # energy   48.86384551 # occ.  0.00000000
 
ion      s     py     pz     px    dxy    dyz    dz2    dxz  x2-y2    tot
    1  0.000  0.041  0.000  0.038  0.003  0.239  0.000  0.260  0.002  0.583
 
band    18 # energy   53.09108947 # occ.  0.00000000
 
ion      s     py     pz     px    dxy    dyz    dz2    dxz  x2-y2    tot
    1  0.000  0.091  0.442  0.132  0.053  0.016  0.025  0.011  0.000  0.771
 
band    19 # energy   53.09108947 # occ.  0.00000000
 
ion      s     py     pz     px    dxy    dyz    dz2    dxz  x2-y2    tot
    1  0.000  0.353  0.001  0.311  0.000  0.038  0.000  0.043  0.025  0.771
 
band    20 # energy   54.10197119 # occ.  0.00000000
 
ion      s     py     pz     px    dxy    dyz    dz2    dxz  x2-y2    tot
    1  0.038  0.186  0.186  0.186  0.063  0.063  0.000  0.063  0.000  0.786
 
band    21 # energy   54.92068752 # occ.  0.00000000
 
ion      s     py     pz     px    dxy    dyz    dz2    dxz  x2-y2    tot
    1  6.283  0.000  0.000  0.000  0.000  0.000  0.000  0.000  0.000  6.284
 
band    22 # energy   59.43498709 # occ.  0.00000000
 
ion      s     py     pz     px    dxy    dyz    dz2    dxz  x2-y2    tot
    1  0.000  0.007  0.026  0.006  0.000  0.000  0.509  0.000  0.000  0.548
 
band    23 # energy   59.43498709 # occ.  0.00000000
 
ion      s     py     pz     px    dxy    dyz    dz2    dxz  x2-y2    tot
    1  0.000  0.019  0.000  0.020  0.000  0.000  0.000  0.000  0.509  0.548
 
band    24 # energy   66.30978081 # occ.  0.00000000
 
ion      s     py     pz     px    dxy    dyz    dz2    dxz  x2-y2    tot
    1  0.000  0.000  0.000  0.000  0.000  0.000  0.000  0.000  0.000  0.000
 

 k-point     2 :    0.15000000 0.05000000 0.05000000     weight = 0.00600000

band     1 # energy  -38.30900883 # occ.  2.00000000
 
ion      s     py     pz     px    dxy    dyz    dz2    dxz  x2-y2    tot
    1  0.000  0.455  0.455  0.085  0.000  0.000  0.000  0.000  0.000  0.995
 
band     2 # energy  -38.22796294 # occ.  2.00000000
 
ion      s     py     pz     px    dxy    dyz    dz2    dxz  x2-y2    tot
    1  0.000  0.042  0.042  0.913  0.000  0.000  0.000  0.000  0.000  0.998
 
band     3 # energy  -38.20975747 # occ.  2.00000000
 
ion      s     py     pz     px    dxy    dyz    dz2    dxz  x2-y2    tot
    1  0.000  0.499  0.499  0.000  0.000  0.000  0.000  0.000  0.000  0.998
 
band     4 # energy    3.71317831 # occ.  2.00000000
 
ion      s     py     pz     px    dxy    dyz    dz2    dxz  x2-y2    tot
    1  0.437  0.005  0.005  0.001  0.000  0.003  0.000  0.000  0.000  0.451
 
band     5 # energy    9.73753615 # occ.  2.00000000
 
ion      s     py     pz     px    dxy    dyz    dz2    dxz  x2-y2    tot
    1  0.000  0.000  0.000  0.002  0.402  0.029  0.000  0.402  0.000  0.836
 
band     6 # energy   10.35507359 # occ.  2.00000000
 
ion      s     py     pz     px    dxy    dyz    dz2    dxz  x2-y2    tot
    1  0.000  0.000  0.000  0.000  0.431  0.000  0.003  0.431  0.001  0.866
 
band     7 # energy   10.40495986 # occ.  2.00000000
 
ion      s     py     pz     px    dxy    dyz    dz2    dxz  x2-y2    tot
    1  0.000  0.001  0.001  0.000  0.015  0.803  0.006  0.015  0.019  0.861
 
band     8 # energy   12.42542554 # occ.  2.00000000
 
ion      s     py     pz     px    dxy    dyz    dz2    dxz  x2-y2    tot
    1  0.000  0.000  0.000  0.000  0.002  0.000  0.677  0.002  0.226  0.908
 
band     9 # energy   12.78507783 # occ.  2.00000000
 
ion      s     py     pz     px    dxy    dyz    dz2    dxz  x2-y2    tot
    1  0.000  0.000  0.000  0.000  0.001  0.024  0.223  0.001  0.670  0.920
 
band    10 # energy   30.05967449 # occ.  0.00000000
 
ion      s     py     pz     px    dxy    dyz    dz2    dxz  x2-y2    tot
    1  0.000  0.000  0.000  0.000  0.019  0.002  0.000  0.019  0.000  0.041
 
band    11 # energy   32.33001483 # occ.  0.00000000
 
ion      s     py     pz     px    dxy    dyz    dz2    dxz  x2-y2    tot
    1  0.029  0.021  0.021  0.006  0.003  0.015  0.002  0.003  0.005  0.104
 
band    12 # energy   35.11802556 # occ.  0.00000000
 
ion      s     py     pz     px    dxy    dyz    dz2    dxz  x2-y2    tot
    1  0.000  0.002  0.002  0.076  0.010  0.002  0.002  0.010  0.005  0.108
 
band    13 # energy   36.10079973 # occ.  0.00000000
 
ion      s     py     pz     px    dxy    dyz    dz2    dxz  x2-y2    tot
    1  0.000  0.028  0.028  0.000  0.001  0.000  0.026  0.001  0.009  0.091
 
band    14 # energy   42.78437279 # occ.  0.00000000
 
ion      s     py     pz     px    dxy    dyz    dz2    dxz  x2-y2    tot
    1  0.000  0.093  0.093  0.010  0.006  0.101  0.000  0.006  0.000  0.310
 
band    15 # energy   45.12015495 # occ.  0.00000000
 
ion      s     py     pz     px    dxy    dyz    dz2    dxz  x2-y2    tot
    1  0.058  0.033  0.033  0.004  0.001  0.112  0.003  0.001  0.009  0.252
 
band    16 # energy   45.90222318 # occ.  0.00000000
 
ion      s     py     pz     px    dxy    dyz    dz2    dxz  x2-y2    tot
    1  0.006  0.000  0.000  0.208  0.127  0.009  0.000  0.127  0.001  0.478
 
band    17 # energy   47.72746425 # occ.  0.00000000
 
ion      s     py     pz     px    dxy    dyz    dz2    dxz  x2-y2    tot
    1  0.000  0.065  0.065  0.000  0.190  0.000  0.013  0.190  0.004  0.526
 
band    18 # energy   51.03402113 # occ.  0.00000000
 
ion      s     py     pz     px    dxy    dyz    dz2    dxz  x2-y2    tot
    1  0.000  0.241  0.241  0.000  0.067  0.000  0.064  0.067  0.021  0.700
 
band    19 # energy   54.52311241 # occ.  0.00000000
 
ion      s     py     pz     px    dxy    dyz    dz2    dxz  x2-y2    tot
    1  0.194  0.143  0.143  0.037  0.000  0.283  0.010  0.000  0.029  0.839
 
band    20 # energy   54.92795760 # occ.  0.00000000
 
ion      s     py     pz     px    dxy    dyz    dz2    dxz  x2-y2    tot
    1  6.175  0.002  0.002  0.001  0.000  0.004  0.000  0.000  0.001  6.184
 
band    21 # energy   56.89569926 # occ.  0.00000000
 
ion      s     py     pz     px    dxy    dyz    dz2    dxz  x2-y2    tot
    1  0.035  0.014  0.014  0.239  0.114  0.000  0.032  0.114  0.095  0.657
 
band    22 # energy   58.05261469 # occ.  0.00000000
 
ion      s     py     pz     px    dxy    dyz    dz2    dxz  x2-y2    tot
    1  0.000  0.005  0.005  0.243  0.042  0.019  0.048  0.042  0.145  0.550
 
band    23 # energy   60.63126644 # occ.  0.00000000
 
ion      s     py     pz     px    dxy    dyz    dz2    dxz  x2-y2    tot
    1  0.000  0.080  0.080  0.000  0.001  0.000  0.244  0.001  0.081  0.489
 
band    24 # energy   67.11866783 # occ.  0.00000000
 
ion      s     py     pz     px    dxy    dyz    dz2    dxz  x2-y2    tot
    1  0.000  0.000  0.000  0.000  0.012  0.000  0.039  0.012  0.013  0.076
 

 k-point     3 :    0.25000000 0.05000000 0.05000000     weight = 0.00600000

band     1 # energy  -38.50945903 # occ.  2.00000000
 
ion      s     py     pz     px    dxy    dyz    dz2    dxz  x2-y2    tot
    1  0.000  0.390  0.390  0.210  0.000  0.000  0.000  0.000  0.000  0.990
 
band     2 # energy  -38.26322397 # occ.  2.00000000
 
ion      s     py     pz     px    dxy    dyz    dz2    dxz  x2-y2    tot
    1  0.000  0.106  0.106  0.786  0.000  0.000  0.000  0.000  0.000  0.997
 
band     3 # energy  -38.23536691 # occ.  2.00000000
 
ion      s     py     pz     px    dxy    dyz    dz2    dxz  x2-y2    tot
    1  0.000  0.499  0.499  0.000  0.000  0.000  0.000  0.000  0.000  0.998
 
band     4 # energy    4.94624763 # occ.  2.00000000
 
ion      s     py     pz     px    dxy    dyz    dz2    dxz  x2-y2    tot
    1  0.385  0.010  0.010  0.003  0.015  0.026  0.000  0.015  0.001  0.465
 
band     5 # energy    9.47197625 # occ.  2.00000000
 
ion      s     py     pz     px    dxy    dyz    dz2    dxz  x2-y2    tot
    1  0.013  0.005  0.005  0.009  0.339  0.062  0.000  0.339  0.000  0.770
 
band     6 # energy   10.58102650 # occ.  2.00000000
 
ion      s     py     pz     px    dxy    dyz    dz2    dxz  x2-y2    tot
    1  0.001  0.002  0.002  0.000  0.035  0.579  0.050  0.035  0.150  0.854
 
band     7 # energy   10.62798044 # occ.  2.00000000
 
ion      s     py     pz     px    dxy    dyz    dz2    dxz  x2-y2    tot
    1  0.000  0.000  0.000  0.000  0.352  0.000  0.122  0.352  0.041  0.866
 
band     8 # energy   12.39009418 # occ.  2.00000000
 
ion      s     py     pz     px    dxy    dyz    dz2    dxz  x2-y2    tot
    1  0.000  0.000  0.000  0.000  0.084  0.000  0.545  0.084  0.182  0.896
 
band     9 # energy   13.10186102 # occ.  2.00000000
 
ion      s     py     pz     px    dxy    dyz    dz2    dxz  x2-y2    tot
    1  0.002  0.001  0.001  0.000  0.011  0.183  0.176  0.011  0.527  0.913
 
band    10 # energy   29.60472282 # occ.  0.00000000
 
ion      s     py     pz     px    dxy    dyz    dz2    dxz  x2-y2    tot
    1  0.066  0.020  0.020  0.016  0.012  0.029  0.001  0.012  0.004  0.180
 
band    11 # energy   31.52322177 # occ.  0.00000000
 
ion      s     py     pz     px    dxy    dyz    dz2    dxz  x2-y2    tot
    1  0.009  0.006  0.006  0.012  0.062  0.027  0.000  0.062  0.000  0.184
 
band    12 # energy   36.74306316 # occ.  0.00000000
 
ion      s     py     pz     px    dxy    dyz    dz2    dxz  x2-y2    tot
    1  0.000  0.006  0.006  0.113  0.018  0.016  0.009  0.018  0.026  0.211
 
band    13 # energy   38.60650711 # occ.  0.00000000
 
ion      s     py     pz     px    dxy    dyz    dz2    dxz  x2-y2    tot
    1  0.000  0.025  0.025  0.000  0.005  0.000  0.068  0.005  0.023  0.150
 
band    14 # energy   39.10103658 # occ.  0.00000000
 
ion      s     py     pz     px    dxy    dyz    dz2    dxz  x2-y2    tot
    1  0.044  0.104  0.104  0.002  0.000  0.071  0.001  0.000  0.004  0.330
 
band    15 # energy   42.52080610 # occ.  0.00000000
 
ion      s     py     pz     px    dxy    dyz    dz2    dxz  x2-y2    tot
    1  0.004  0.000  0.000  0.154  0.039  0.018  0.007  0.039  0.021  0.283
 
band    16 # energy   43.17316752 # occ.  0.00000000
 
ion      s     py     pz     px    dxy    dyz    dz2    dxz  x2-y2    tot
    1  0.000  0.114  0.114  0.000  0.081  0.000  0.027  0.081  0.009  0.427
 
band    17 # energy   49.26599194 # occ.  0.00000000
 
ion      s     py     pz     px    dxy    dyz    dz2    dxz  x2-y2    tot
    1  0.059  0.001  0.001  0.001  0.001  0.002  0.002  0.001  0.006  0.073
 
band    18 # energy   51.28363063 # occ.  0.00000000
 
ion      s     py     pz     px    dxy    dyz    dz2    dxz  x2-y2    tot
    1  0.000  0.155  0.155  0.000  0.124  0.000  0.068  0.124  0.023  0.649
 
band    19 # energy   54.90284493 # occ.  0.00000000
 
ion      s     py     pz     px    dxy    dyz    dz2    dxz  x2-y2    tot
    1  5.736  0.008  0.008  0.010  0.000  0.031  0.002  0.000  0.007  5.801
 
band    20 # energy   55.03435803 # occ.  0.00000000
 
ion      s     py     pz     px    dxy    dyz    dz2    dxz  x2-y2    tot
    1  0.614  0.063  0.063  0.089  0.003  0.265  0.023  0.003  0.070  1.192
 
band    21 # energy   56.60959722 # occ.  0.00000000
 
ion      s     py     pz     px    dxy    dyz    dz2    dxz  x2-y2    tot
    1  0.081  0.020  0.020  0.000  0.079  0.000  0.036  0.079  0.107  0.422
 
band    22 # energy   59.90337520 # occ.  0.00000000
 
ion      s     py     pz     px    dxy    dyz    dz2    dxz  x2-y2    tot
    1  0.048  0.012  0.012  0.314  0.108  0.050  0.003  0.108  0.010  0.665
 
band    23 # energy   61.14983035 # occ.  0.00000000
 
ion      s     py     pz     px    dxy    dyz    dz2    dxz  x2-y2    tot
    1  0.000  0.110  0.110  0.000  0.010  0.000  0.127  0.010  0.042  0.409
 
band    24 # energy   67.46475063 # occ.  0.00000000
 
ion      s     py     pz     px    dxy    dyz    dz2    dxz  x2-y2    tot
    1  0.000  0.000  0.000  0.000  0.005  0.000  0.047  0.005  0.016  0.073
 

 k-point     4 :    0.35000000 0.05000000 0.05000000     weight = 0.00600000

band     1 # energy  -38.73422592 # occ.  2.00000000
 
ion      s     py     pz     px    dxy    dyz    dz2    dxz  x2-y2    tot
    1  0.000  0.358  0.358  0.267  0.000  0.000  0.000  0.000  0.000  0.983
 
band     2 # energy  -38.29741307 # occ.  2.00000000
 
ion      s     py     pz     px    dxy    dyz    dz2    dxz  x2-y2    tot
    1  0.000  0.135  0.135  0.726  0.000  0.000  0.000  0.000  0.000  0.996
 
band     3 # energy  -38.26876348 # occ.  2.00000000
 
ion      s     py     pz     px    dxy    dyz    dz2    dxz  x2-y2    tot
    1  0.000  0.499  0.499  0.000  0.000  0.000  0.000  0.000  0.000  0.997
 
band     4 # energy    5.92052278 # occ.  2.00000000
 
ion      s     py     pz     px    dxy    dyz    dz2    dxz  x2-y2    tot
    1  0.259  0.007  0.007  0.002  0.095  0.104  0.000  0.095  0.001  0.570
 
band     5 # energy   10.19812574 # occ.  2.00000000
 
ion      s     py     pz     px    dxy    dyz    dz2    dxz  x2-y2    tot
    1  0.047  0.012  0.012  0.020  0.254  0.026  0.017  0.254  0.050  0.692
 
band     6 # energy   10.39162381 # occ.  2.00000000
 
ion      s     py     pz     px    dxy    dyz    dz2    dxz  x2-y2    tot
    1  0.022  0.012  0.012  0.006  0.003  0.348  0.086  0.003  0.258  0.748
 
band     7 # energy   10.42470009 # occ.  2.00000000
 
ion      s     py     pz     px    dxy    dyz    dz2    dxz  x2-y2    tot
    1  0.000  0.000  0.000  0.000  0.219  0.000  0.314  0.219  0.105  0.857
 
band     8 # energy   13.21304272 # occ.  2.00000000
 
ion      s     py     pz     px    dxy    dyz    dz2    dxz  x2-y2    tot
    1  0.000  0.001  0.001  0.000  0.225  0.000  0.343  0.225  0.114  0.909
 
band     9 # energy   14.03150454 # occ.  2.00000000
 
ion      s     py     pz     px    dxy    dyz    dz2    dxz  x2-y2    tot
    1  0.008  0.003  0.003  0.000  0.028  0.365  0.120  0.028  0.360  0.915
 
band    10 # energy   26.58500989 # occ.  0.00000000
 
ion      s     py     pz     px    dxy    dyz    dz2    dxz  x2-y2    tot
    1  0.166  0.028  0.028  0.029  0.055  0.070  0.001  0.055  0.003  0.434
 
band    11 # energy   30.62023400 # occ.  0.00000000
 
ion      s     py     pz     px    dxy    dyz    dz2    dxz  x2-y2    tot
    1  0.019  0.013  0.013  0.018  0.047  0.019  0.001  0.047  0.002  0.178
 
band    12 # energy   36.53944991 # occ.  0.00000000
 
ion      s     py     pz     px    dxy    dyz    dz2    dxz  x2-y2    tot
    1  0.010  0.053  0.053  0.133  0.032  0.036  0.000  0.032  0.000  0.348
 
band    13 # energy   38.84579962 # occ.  0.00000000
 
ion      s     py     pz     px    dxy    dyz    dz2    dxz  x2-y2    tot
    1  0.000  0.108  0.108  0.000  0.035  0.000  0.027  0.035  0.009  0.321
 
band    14 # energy   39.49771044 # occ.  0.00000000
 
ion      s     py     pz     px    dxy    dyz    dz2    dxz  x2-y2    tot
    1  0.014  0.005  0.005  0.061  0.000  0.017  0.016  0.000  0.047  0.163
 
band    15 # energy   41.81365028 # occ.  0.00000000
 
ion      s     py     pz     px    dxy    dyz    dz2    dxz  x2-y2    tot
    1  0.000  0.023  0.023  0.000  0.021  0.000  0.126  0.021  0.042  0.258
 
band    16 # energy   42.06323378 # occ.  0.00000000
 
ion      s     py     pz     px    dxy    dyz    dz2    dxz  x2-y2    tot
    1  0.023  0.010  0.010  0.024  0.002  0.000  0.018  0.002  0.054  0.143
 
band    17 # energy   51.55215519 # occ.  0.00000000
 
ion      s     py     pz     px    dxy    dyz    dz2    dxz  x2-y2    tot
    1  0.000  0.152  0.152  0.000  0.103  0.000  0.059  0.103  0.020  0.588
 
band    18 # energy   53.92991627 # occ.  0.00000000
 
ion      s     py     pz     px    dxy    dyz    dz2    dxz  x2-y2    tot
    1  0.170  0.005  0.005  0.049  0.000  0.159  0.018  0.000  0.054  0.460
 
band    19 # energy   54.92224108 # occ.  0.00000000
 
ion      s     py     pz     px    dxy    dyz    dz2    dxz  x2-y2    tot
    1  6.249  0.000  0.000  0.000  0.000  0.001  0.000  0.000  0.000  6.251
 
band    20 # energy   55.75887713 # occ.  0.00000000
 
ion      s     py     pz     px    dxy    dyz    dz2    dxz  x2-y2    tot
    1  0.007  0.045  0.045  0.085  0.026  0.079  0.021  0.026  0.063  0.398
 
band    21 # energy   56.76371409 # occ.  0.00000000
 
ion      s     py     pz     px    dxy    dyz    dz2    dxz  x2-y2    tot
    1  0.075  0.012  0.012  0.023  0.085  0.006  0.011  0.085  0.034  0.342
 
band    22 # energy   59.99433203 # occ.  0.00000000
 
ion      s     py     pz     px    dxy    dyz    dz2    dxz  x2-y2    tot
    1  0.016  0.047  0.047  0.169  0.038  0.087  0.001  0.038  0.002  0.447
 
band    23 # energy   61.79404497 # occ.  0.00000000
 
ion      s     py     pz     px    dxy    dyz    dz2    dxz  x2-y2    tot
    1  0.000  0.120  0.120  0.000  0.017  0.000  0.068  0.017  0.023  0.364
 
band    24 # energy   66.53235208 # occ.  0.00000000
 
ion      s     py     pz     px    dxy    dyz    dz2    dxz  x2-y2    tot
    1  0.000  0.002  0.002  0.000  0.035  0.000  0.074  0.035  0.025  0.173
 

 k-point     5 :    0.45000000 0.05000000 0.05000000     weight = 0.00600000

band     1 # energy  -38.89988291 # occ.  2.00000000
 
ion      s     py     pz     px    dxy    dyz    dz2    dxz  x2-y2    tot
    1  0.000  0.338  0.338  0.302  0.000  0.000  0.000  0.000  0.000  0.979
 
band     2 # energy  -38.31816396 # occ.  2.00000000
 
ion      s     py     pz     px    dxy    dyz    dz2    dxz  x2-y2    tot
    1  0.000  0.154  0.154  0.688  0.000  0.000  0.000  0.000  0.000  0.996
 
band     3 # energy  -38.29813875 # occ.  2.00000000
 
ion      s     py     pz     px    dxy    dyz    dz2    dxz  x2-y2    tot
    1  0.000  0.498  0.498  0.000  0.000  0.000  0.000  0.000  0.000  0.996
 
band     4 # energy    6.08184143 # occ.  2.00000000
 
ion      s     py     pz     px    dxy    dyz    dz2    dxz  x2-y2    tot
    1  0.167  0.002  0.002  0.000  0.161  0.164  0.000  0.161  0.000  0.658
 
band     5 # energy   10.02030863 # occ.  2.00000000
 
ion      s     py     pz     px    dxy    dyz    dz2    dxz  x2-y2    tot
    1  0.000  0.000  0.000  0.000  0.055  0.249  0.120  0.055  0.361  0.841
 
band     6 # energy   10.14418628 # occ.  2.00000000
 
ion      s     py     pz     px    dxy    dyz    dz2    dxz  x2-y2    tot
    1  0.000  0.000  0.000  0.000  0.175  0.000  0.374  0.175  0.125  0.849
 
band     7 # energy   12.24298889 # occ.  2.00000000
 
ion      s     py     pz     px    dxy    dyz    dz2    dxz  x2-y2    tot
    1  0.049  0.046  0.046  0.048  0.098  0.007  0.012  0.098  0.036  0.441
 
band     8 # energy   14.29054859 # occ.  2.00000000
 
ion      s     py     pz     px    dxy    dyz    dz2    dxz  x2-y2    tot
    1  0.000  0.000  0.000  0.000  0.280  0.000  0.284  0.280  0.095  0.939
 
band     9 # energy   15.09171738 # occ.  0.00000000
 
ion      s     py     pz     px    dxy    dyz    dz2    dxz  x2-y2    tot
    1  0.015  0.011  0.011  0.006  0.033  0.407  0.089  0.033  0.266  0.870
 
band    10 # energy   23.13994390 # occ.  0.00000000
 
ion      s     py     pz     px    dxy    dyz    dz2    dxz  x2-y2    tot
    1  0.316  0.016  0.016  0.019  0.112  0.106  0.001  0.112  0.002  0.698
 
band    11 # energy   29.11976863 # occ.  0.00000000
 
ion      s     py     pz     px    dxy    dyz    dz2    dxz  x2-y2    tot
    1  0.004  0.006  0.006  0.007  0.011  0.000  0.001  0.011  0.003  0.050
 
band    12 # energy   34.64011314 # occ.  0.00000000
 
ion      s     py     pz     px    dxy    dyz    dz2    dxz  x2-y2    tot
    1  0.003  0.038  0.038  0.147  0.016  0.003  0.000  0.016  0.001  0.262
 
band    13 # energy   35.70147513 # occ.  0.00000000
 
ion      s     py     pz     px    dxy    dyz    dz2    dxz  x2-y2    tot
    1  0.000  0.107  0.107  0.000  0.008  0.000  0.014  0.008  0.005  0.250
 
band    14 # energy   43.10605529 # occ.  0.00000000
 
ion      s     py     pz     px    dxy    dyz    dz2    dxz  x2-y2    tot
    1  0.007  0.000  0.000  0.035  0.000  0.072  0.042  0.000  0.125  0.281
 
band    15 # energy   44.64831709 # occ.  0.00000000
 
ion      s     py     pz     px    dxy    dyz    dz2    dxz  x2-y2    tot
    1  0.000  0.005  0.005  0.000  0.052  0.000  0.221  0.052  0.074  0.408
 
band    16 # energy   44.83682749 # occ.  0.00000000
 
ion      s     py     pz     px    dxy    dyz    dz2    dxz  x2-y2    tot
    1  0.054  0.011  0.011  0.006  0.051  0.003  0.016  0.051  0.047  0.249
 
band    17 # energy   51.87509639 # occ.  0.00000000
 
ion      s     py     pz     px    dxy    dyz    dz2    dxz  x2-y2    tot
    1  0.000  0.178  0.178  0.000  0.036  0.000  0.012  0.036  0.004  0.444
 
band    18 # energy   53.58349590 # occ.  0.00000000
 
ion      s     py     pz     px    dxy    dyz    dz2    dxz  x2-y2    tot
    1  0.113  0.003  0.003  0.147  0.006  0.144  0.015  0.006  0.044  0.482
 
band    19 # energy   54.50013667 # occ.  0.00000000
 
ion      s     py     pz     px    dxy    dyz    dz2    dxz  x2-y2    tot
    1  0.029  0.069  0.069  0.047  0.048  0.000  0.013  0.048  0.040  0.364
 
band    20 # energy   54.91636090 # occ.  0.00000000
 
ion      s     py     pz     px    dxy    dyz    dz2    dxz  x2-y2    tot
    1  6.250  0.000  0.000  0.000  0.000  0.000  0.000  0.000  0.000  6.250
 
band    21 # energy   59.16235834 # occ.  0.00000000
 
ion      s     py     pz     px    dxy    dyz    dz2    dxz  x2-y2    tot
    1  0.005  0.050  0.050  0.107  0.011  0.065  0.002  0.011  0.005  0.308
 
band    22 # energy   61.94859456 # occ.  0.00000000
 
ion      s     py     pz     px    dxy    dyz    dz2    dxz  x2-y2    tot
    1  0.045  0.002  0.002  0.000  0.001  0.001  0.000  0.001  0.000  0.051
 
band    23 # energy   62.06366146 # occ.  0.00000000
 
ion      s     py     pz     px    dxy    dyz    dz2    dxz  x2-y2    tot
    1  0.000  0.088  0.088  0.000  0.001  0.000  0.031  0.001  0.010  0.220
 
band    24 # energy   63.59759535 # occ.  0.00000000
 
ion      s     py     pz     px    dxy    dyz    dz2    dxz  x2-y2    tot
    1  0.000  0.032  0.032  0.000  0.127  0.000  0.001  0.127  0.000  0.320
 

 k-point     6 :   -0.45000000 0.05000000 0.05000000     weight = 0.00600000

band     1 # energy  -38.94577716 # occ.  2.00000000
 
ion      s     py     pz     px    dxy    dyz    dz2    dxz  x2-y2    tot
    1  0.000  0.322  0.322  0.333  0.000  0.000  0.000  0.000  0.000  0.977
 
band     2 # energy  -38.31920064 # occ.  2.00000000
 
ion      s     py     pz     px    dxy    dyz    dz2    dxz  x2-y2    tot
    1  0.000  0.170  0.170  0.657  0.000  0.000  0.000  0.000  0.000  0.996
 
band     3 # energy  -38.31183438 # occ.  2.00000000
 
ion      s     py     pz     px    dxy    dyz    dz2    dxz  x2-y2    tot
    1  0.000  0.498  0.498  0.000  0.000  0.000  0.000  0.000  0.000  0.996
 
band     4 # energy    6.06197467 # occ.  2.00000000
 
ion      s     py     pz     px    dxy    dyz    dz2    dxz  x2-y2    tot
    1  0.149  0.000  0.000  0.001  0.171  0.182  0.000  0.171  0.000  0.674
 
band     5 # energy    9.90741631 # occ.  2.00000000
 
ion      s     py     pz     px    dxy    dyz    dz2    dxz  x2-y2    tot
    1  0.000  0.000  0.000  0.000  0.059  0.210  0.127  0.059  0.382  0.838
 
band     6 # energy   10.07985649 # occ.  2.00000000
 
ion      s     py     pz     px    dxy    dyz    dz2    dxz  x2-y2    tot
    1  0.000  0.000  0.000  0.000  0.172  0.000  0.377  0.172  0.126  0.847
 
band     7 # energy   13.06844980 # occ.  2.00000000
 
ion      s     py     pz     px    dxy    dyz    dz2    dxz  x2-y2    tot
    1  0.003  0.050  0.050  0.048  0.023  0.169  0.022  0.023  0.067  0.457
 
band     8 # energy   14.83124411 # occ.  0.12690228
 
ion      s     py     pz     px    dxy    dyz    dz2    dxz  x2-y2    tot
    1  0.000  0.000  0.000  0.000  0.289  0.000  0.286  0.289  0.095  0.959
 
band     9 # energy   15.48499892 # occ.  0.00000000
 
ion      s     py     pz     px    dxy    dyz    dz2    dxz  x2-y2    tot
    1  0.001  0.023  0.023  0.028  0.079  0.223  0.070  0.079  0.210  0.737
 
band    10 # energy   21.67175887 # occ.  0.00000000
 
ion      s     py     pz     px    dxy    dyz    dz2    dxz  x2-y2    tot
    1  0.405  0.002  0.002  0.000  0.138  0.140  0.000  0.138  0.000  0.824
 
band    11 # energy   28.74051901 # occ.  0.00000000
 
ion      s     py     pz     px    dxy    dyz    dz2    dxz  x2-y2    tot
    1  0.000  0.004  0.004  0.006  0.000  0.005  0.001  0.000  0.003  0.024
 
band    12 # energy   34.43189476 # occ.  0.00000000
 
ion      s     py     pz     px    dxy    dyz    dz2    dxz  x2-y2    tot
    1  0.003  0.036  0.036  0.142  0.003  0.007  0.002  0.003  0.006  0.239
 
band    13 # energy   34.43727178 # occ.  0.00000000
 
ion      s     py     pz     px    dxy    dyz    dz2    dxz  x2-y2    tot
    1  0.000  0.109  0.109  0.000  0.001  0.000  0.004  0.001  0.001  0.225
 
band    14 # energy   44.94164592 # occ.  0.00000000
 
ion      s     py     pz     px    dxy    dyz    dz2    dxz  x2-y2    tot
    1  0.000  0.004  0.004  0.000  0.058  0.000  0.230  0.058  0.077  0.429
 
band    15 # energy   45.23681494 # occ.  0.00000000
 
ion      s     py     pz     px    dxy    dyz    dz2    dxz  x2-y2    tot
    1  0.000  0.000  0.000  0.003  0.018  0.084  0.081  0.018  0.242  0.446
 
band    16 # energy   46.64705352 # occ.  0.00000000
 
ion      s     py     pz     px    dxy    dyz    dz2    dxz  x2-y2    tot
    1  0.098  0.003  0.003  0.000  0.073  0.079  0.000  0.073  0.000  0.330
 
band    17 # energy   51.79315991 # occ.  0.00000000
 
ion      s     py     pz     px    dxy    dyz    dz2    dxz  x2-y2    tot
    1  0.023  0.087  0.087  0.021  0.011  0.000  0.000  0.011  0.000  0.243
 
band    18 # energy   52.41160401 # occ.  0.00000000
 
ion      s     py     pz     px    dxy    dyz    dz2    dxz  x2-y2    tot
    1  0.005  0.007  0.007  0.245  0.001  0.000  0.003  0.001  0.008  0.276
 
band    19 # energy   53.23565234 # occ.  0.00000000
 
ion      s     py     pz     px    dxy    dyz    dz2    dxz  x2-y2    tot
    1  0.000  0.178  0.178  0.000  0.004  0.000  0.025  0.004  0.008  0.397
 
band    20 # energy   54.90762382 # occ.  0.00000000
 
ion      s     py     pz     px    dxy    dyz    dz2    dxz  x2-y2    tot
    1  6.284  0.000  0.000  0.000  0.000  0.000  0.000  0.000  0.000  6.284
 
band    21 # energy   60.20960494 # occ.  0.00000000
 
ion      s     py     pz     px    dxy    dyz    dz2    dxz  x2-y2    tot
    1  0.000  0.072  0.072  0.000  0.058  0.000  0.000  0.058  0.000  0.260
 
band    22 # energy   60.75936755 # occ.  0.00000000
 
ion      s     py     pz     px    dxy    dyz    dz2    dxz  x2-y2    tot
    1  0.010  0.018  0.018  0.072  0.011  0.053  0.001  0.011  0.002  0.197
 