<?xml version="1.0" encoding="ISO-8859-1"?>
<modeling>
 <generator>
  <i name="program" type="string">vasp </i>
  <i name="version" type="string">6.3.2  </i>
  <i name="subversion" type="string">27Jun22 (build Aug 12 2022 00:53:59) complex                          parallel </i>
  <i name="platform" type="string">tv2STD </i>
  <i name="date" type="string">2024 12 03 </i>
  <i name="time" type="string">02:18:55 </i>
 </generator>
 <incar>
  <i type="string" name="SYSTEM">Pt-fcc</i>
  <i type="int" name="ISTART">     0</i>
  <i type="string" name="PREC">accurate      normal | accurate</i>
  <i type="string" name="ALGO">Normal     Normal, Fast, Very_Fast</i>
  <i type="logical" name="ADDGRID"> F  </i>
  <i type="int" name="ICHARG">     2</i>
  <i type="int" name="INIWAV">     1</i>
  <i type="int" name="NELM">   100</i>
  <i type="int" name="IBRION">     2</i>
  <i name="EDIFF">      0.00000100</i>
  <i name="EDIFFG">     -0.02000000</i>
  <i type="int" name="NSW">   100</i>
  <i type="int" name="ISIF">     2</i>
  <i type="int" name="ISYM">     1</i>
  <i name="ENCUT">    425.00000000</i>
  <i type="logical" name="LREAL"> F  </i>
  <i type="int" name="ISMEAR">     0</i>
  <i name="SIGMA">      0.05000000</i>
  <i type="int" name="NWRITE">     2</i>
  <i type="logical" name="LWAVE"> T  </i>
  <i type="logical" name="LCHARG"> T  </i>
  <i type="int" name="LORBIT">    11</i>
 </incar>
 <primitive_cell>
  <structure name="primitive_cell" >
   <crystal>
    <varray name="basis" >
     <v>       0.00000000       1.87990620       1.87990620 </v>
     <v>       1.87990620       0.00000000       1.87990620 </v>
     <v>       1.87990620       1.87990620       0.00000000 </v>
    </varray>
    <i name="volume">     13.28735490 </i>
    <varray name="rec_basis" >
     <v>      -0.26597072       0.26597072       0.26597072 </v>
     <v>       0.26597072      -0.26597072       0.26597072 </v>
     <v>       0.26597072       0.26597072      -0.26597072 </v>
    </varray>
   </crystal>
   <varray name="positions" >
    <v>       0.00000000       0.00000000       0.00000000 </v>
   </varray>
  </structure>
  <varray name="primitive_index" >
   <v type="int" >        1 </v>
  </varray>
 </primitive_cell>
 <kpoints>
  <generation param="Monkhorst-Pack">
   <v type="int" name="divisions">      10       10       10 </v>
   <v name="usershift">      0.00000000       0.00000000       0.00000000 </v>
   <v name="genvec1">      0.10000000      -0.00000000      -0.00000000 </v>
   <v name="genvec2">      0.00000000       0.10000000       0.00000000 </v>
   <v name="genvec3">      0.00000000       0.00000000       0.10000000 </v>
   <v name="shift">      0.50000000       0.50000000       0.50000000 </v>
  </generation>
  <varray name="kpointlist" >
   <v>       0.05000000       0.05000000       0.05000000 </v>
   <v>       0.15000000       0.05000000       0.05000000 </v>
   <v>       0.25000000       0.05000000       0.05000000 </v>
   <v>       0.35000000       0.05000000       0.05000000 </v>
   <v>       0.45000000       0.05000000       0.05000000 </v>
   <v>      -0.45000000       0.05000000       0.05000000 </v>
   <v>      -0.35000000       0.05000000       0.05000000 </v>
   <v>      -0.25000000       0.05000000       0.05000000 </v>
   <v>      -0.15000000       0.05000000       0.05000000 </v>
   <v>      -0.05000000       0.05000000       0.05000000 </v>
   <v>       0.15000000       0.15000000       0.05000000 </v>
   <v>       0.25000000       0.15000000       0.05000000 </v>
   <v>       0.35000000       0.15000000       0.05000000 </v>
   <v>       0.45000000       0.15000000       0.05000000 </v>
   <v>      -0.45000000       0.15000000       0.05000000 </v>
   <v>      -0.35000000       0.15000000       0.05000000 </v>
   <v>      -0.25000000       0.15000000       0.05000000 </v>
   <v>      -0.15000000       0.15000000       0.05000000 </v>
   <v>      -0.05000000       0.15000000       0.05000000 </v>
   <v>       0.25000000       0.25000000       0.05000000 </v>
   <v>       0.35000000       0.25000000       0.05000000 </v>
   <v>       0.45000000       0.25000000       0.05000000 </v>
   <v>      -0.45000000       0.25000000       0.05000000 </v>
   <v>      -0.35000000       0.25000000       0.05000000 </v>
   <v>      -0.25000000       0.25000000       0.05000000 </v>
   <v>      -0.15000000       0.25000000       0.05000000 </v>
   <v>      -0.05000000       0.25000000       0.05000000 </v>
   <v>       0.35000000       0.35000000       0.05000000 </v>
   <v>       0.45000000       0.35000000       0.05000000 </v>
   <v>      -0.45000000       0.35000000       0.05000000 </v>
   <v>      -0.35000000       0.35000000       0.05000000 </v>
   <v>      -0.25000000       0.35000000       0.05000000 </v>
   <v>      -0.15000000       0.35000000       0.05000000 </v>
   <v>      -0.05000000       0.35000000       0.05000000 </v>
   <v>       0.45000000       0.45000000       0.05000000 </v>
   <v>      -0.45000000       0.45000000       0.05000000 </v>
   <v>      -0.35000000       0.45000000       0.05000000 </v>
   <v>      -0.25000000       0.45000000       0.05000000 </v>
   <v>      -0.15000000       0.45000000       0.05000000 </v>
   <v>      -0.05000000       0.45000000       0.05000000 </v>
   <v>      -0.45000000      -0.45000000       0.05000000 </v>
   <v>      -0.35000000      -0.45000000       0.05000000 </v>
   <v>      -0.25000000      -0.45000000       0.05000000 </v>
   <v>      -0.15000000      -0.45000000       0.05000000 </v>
   <v>      -0.35000000      -0.35000000       0.05000000 </v>
   <v>      -0.25000000      -0.35000000       0.05000000 </v>
   <v>      -0.15000000      -0.35000000       0.05000000 </v>
   <v>      -0.25000000      -0.25000000       0.05000000 </v>
   <v>      -0.15000000      -0.25000000       0.05000000 </v>
   <v>      -0.15000000      -0.15000000       0.05000000 </v>
   <v>       0.15000000       0.15000000       0.15000000 </v>
   <v>       0.25000000       0.15000000       0.15000000 </v>
   <v>       0.35000000       0.15000000       0.15000000 </v>
   <v>       0.45000000       0.15000000       0.15000000 </v>
   <v>      -0.45000000       0.15000000       0.15000000 </v>
   <v>      -0.35000000       0.15000000       0.15000000 </v>
   <v>      -0.25000000       0.15000000       0.15000000 </v>
   <v>      -0.15000000       0.15000000       0.15000000 </v>
   <v>       0.25000000       0.25000000       0.15000000 </v>
   <v>       0.35000000       0.25000000       0.15000000 </v>
   <v>       0.45000000       0.25000000       0.15000000 </v>
   <v>      -0.45000000       0.25000000       0.15000000 </v>
   <v>      -0.35000000       0.25000000       0.15000000 </v>
   <v>      -0.25000000       0.25000000       0.15000000 </v>
   <v>      -0.15000000       0.25000000       0.15000000 </v>
   <v>       0.35000000       0.35000000       0.15000000 </v>
   <v>       0.45000000       0.35000000       0.15000000 </v>
   <v>      -0.45000000       0.35000000       0.15000000 </v>
   <v>      -0.35000000       0.35000000       0.15000000 </v>
   <v>      -0.25000000       0.35000000       0.15000000 </v>
   <v>      -0.15000000       0.35000000       0.15000000 </v>
   <v>       0.45000000       0.45000000       0.15000000 </v>
   <v>      -0.45000000       0.45000000       0.15000000 </v>
   <v>      -0.35000000       0.45000000       0.15000000 </v>
   <v>      -0.25000000       0.45000000       0.15000000 </v>
   <v>      -0.15000000       0.45000000       0.15000000 </v>
   <v>      -0.45000000      -0.45000000       0.15000000 </v>
   <v>      -0.35000000      -0.45000000       0.15000000 </v>
   <v>      -0.25000000      -0.45000000       0.15000000 </v>
   <v>      -0.35000000      -0.35000000       0.15000000 </v>
   <v>      -0.25000000      -0.35000000       0.15000000 </v>
   <v>      -0.25000000      -0.25000000       0.15000000 </v>
   <v>       0.25000000       0.25000000       0.25000000 </v>
   <v>       0.35000000       0.25000000       0.25000000 </v>
   <v>       0.45000000       0.25000000       0.25000000 </v>
   <v>      -0.45000000       0.25000000       0.25000000 </v>
   <v>      -0.35000000       0.25000000       0.25000000 </v>
   <v>      -0.25000000       0.25000000       0.25000000 </v>
   <v>       0.35000000       0.35000000       0.25000000 </v>
   <v>       0.45000000       0.35000000       0.25000000 </v>
   <v>      -0.45000000       0.35000000       0.25000000 </v>
   <v>      -0.35000000       0.35000000       0.25000000 </v>
   <v>      -0.25000000       0.35000000       0.25000000 </v>
   <v>       0.45000000       0.45000000       0.25000000 </v>
   <v>      -0.45000000       0.45000000       0.25000000 </v>
   <v>      -0.35000000       0.45000000       0.25000000 </v>
   <v>      -0.25000000       0.45000000       0.25000000 </v>
   <v>      -0.45000000      -0.45000000       0.25000000 </v>
   <v>      -0.35000000      -0.45000000       0.25000000 </v>
   <v>      -0.35000000      -0.35000000       0.25000000 </v>
   <v>       0.35000000       0.35000000       0.35000000 </v>
   <v>       0.45000000       0.35000000       0.35000000 </v>
   <v>      -0.45000000       0.35000000       0.35000000 </v>
   <v>      -0.35000000       0.35000000       0.35000000 </v>
   <v>       0.45000000       0.45000000       0.35000000 </v>
   <v>      -0.45000000       0.45000000       0.35000000 </v>
   <v>      -0.35000000       0.45000000       0.35000000 </v>
   <v>      -0.45000000      -0.45000000       0.35000000 </v>
   <v>       0.45000000       0.45000000       0.45000000 </v>
   <v>      -0.45000000       0.45000000       0.45000000 </v>
  </varray>
  <varray name="weights" >
   <v>       0.00200000 </v>
   <v>       0.00600000 </v>
   <v>       0.00600000 </v>
   <v>       0.00600000 </v>
   <v>       0.00600000 </v>
   <v>       0.00600000 </v>
   <v>       0.00600000 </v>
   <v>       0.00600000 </v>
   <v>       0.00600000 </v>
   <v>       0.00600000 </v>
   <v>       0.00600000 </v>
   <v>       0.01200000 </v>
   <v>       0.01200000 </v>
   <v>       0.01200000 </v>
   <v>       0.01200000 </v>
   <v>       0.01200000 </v>
   <v>       0.01200000 </v>
   <v>       0.01200000 </v>
   <v>       0.01200000 </v>
   <v>       0.00600000 </v>
   <v>       0.01200000 </v>
   <v>       0.01200000 </v>
   <v>       0.01200000 </v>
   <v>       0.01200000 </v>
   <v>       0.01200000 </v>
   <v>       0.01200000 </v>
   <v>       0.01200000 </v>
   <v>       0.00600000 </v>
   <v>       0.01200000 </v>
   <v>       0.01200000 </v>
   <v>       0.01200000 </v>
   <v>       0.01200000 </v>
   <v>       0.01200000 </v>
   <v>       0.01200000 </v>
   <v>       0.00600000 </v>
   <v>       0.01200000 </v>
   <v>       0.01200000 </v>
   <v>       0.01200000 </v>
   <v>       0.01200000 </v>
   <v>       0.01200000 </v>
   <v>       0.00600000 </v>
   <v>       0.01200000 </v>
   <v>       0.01200000 </v>
   <v>       0.01200000 </v>
   <v>       0.00600000 </v>
   <v>       0.01200000 </v>
   <v>       0.01200000 </v>
   <v>       0.00600000 </v>
   <v>       0.01200000 </v>
   <v>       0.00600000 </v>
   <v>       0.00200000 </v>
   <v>       0.00600000 </v>
   <v>       0.00600000 </v>
   <v>       0.00600000 </v>
   <v>       0.00600000 </v>
   <v>       0.00600000 </v>
   <v>       0.00600000 </v>
   <v>       0.00600000 </v>
   <v>       0.00600000 </v>
   <v>       0.01200000 </v>
   <v>       0.01200000 </v>
   <v>       0.01200000 </v>
   <v>       0.01200000 </v>
   <v>       0.01200000 </v>
   <v>       0.01200000 </v>
   <v>       0.00600000 </v>
   <v>       0.01200000 </v>
   <v>       0.01200000 </v>
   <v>       0.01200000 </v>
   <v>       0.01200000 </v>
   <v>       0.01200000 </v>
   <v>       0.00600000 </v>
   <v>       0.01200000 </v>
   <v>       0.01200000 </v>
   <v>       0.01200000 </v>
   <v>       0.01200000 </v>
   <v>       0.00600000 </v>
   <v>       0.01200000 </v>
   <v>       0.01200000 </v>
   <v>       0.00600000 </v>
   <v>       0.01200000 </v>
   <v>       0.00600000 </v>
   <v>       0.00200000 </v>
   <v>       0.00600000 </v>
   <v>       0.00600000 </v>
   <v>       0.00600000 </v>
   <v>       0.00600000 </v>
   <v>       0.00600000 </v>
   <v>       0.00600000 </v>
   <v>       0.01200000 </v>
   <v>       0.01200000 </v>
   <v>       0.01200000 </v>
   <v>       0.01200000 </v>
   <v>       0.00600000 </v>
   <v>       0.01200000 </v>
   <v>       0.01200000 </v>
   <v>       0.01200000 </v>
   <v>       0.00600000 </v>
   <v>       0.01200000 </v>
   <v>       0.00600000 </v>
   <v>       0.00200000 </v>
   <v>       0.00600000 </v>
   <v>       0.00600000 </v>
   <v>       0.00600000 </v>
   <v>       0.00600000 </v>
   <v>       0.01200000 </v>
   <v>       0.01200000 </v>
   <v>       0.00600000 </v>
   <v>       0.00200000 </v>
   <v>       0.00600000 </v>
  </varray>
 </kpoints>
 <parameters>
  <separator name="general" >
   <i type="string" name="SYSTEM">Pt-fcc</i>
   <i type="logical" name="LCOMPAT"> F  </i>
  </separator>
  <separator name="electronic" >
   <i type="string" name="PREC">accura</i>
   <i name="ENMAX">    425.00000000</i>
   <i name="ENAUG">    527.01400000</i>
   <i name="EDIFF">      0.00000100</i>
   <i type="int" name="IALGO">    38</i>
   <i type="int" name="IWAVPR">    11</i>
   <i type="int" name="NBANDS">    24</i>
   <i type="int" name="NBANDSLOW">    -1</i>
   <i type="int" name="NBANDSHIGH">    -1</i>
   <i name="NELECT">     16.00000000</i>
   <i type="int" name="TURBO">     0</i>
   <i type="int" name="IRESTART">     0</i>
   <i type="int" name="NREBOOT">     0</i>
   <i type="int" name="NMIN">     0</i>
   <i name="EREF">      0.00000000</i>
   <separator name="electronic smearing" >
    <i type="int" name="ISMEAR">     0</i>
    <i name="SIGMA">      0.05000000</i>
    <i name="KSPACING">      0.50000000</i>
    <i type="logical" name="KGAMMA"> T  </i>
    <i type="logical" name="KBLOWUP"> T  </i>
   </separator>
   <separator name="electronic projectors" >
    <i type="logical" name="LREAL"> F  </i>
    <v name="ROPT">      0.00000000</v>
    <i type="int" name="LMAXPAW">  -100</i>
    <i type="int" name="LMAXMIX">     2</i>
    <i type="logical" name="NLSPLINE"> F  </i>
   </separator>
   <separator name="electronic startup" >
    <i type="int" name="ISTART">     0</i>
    <i type="int" name="ICHARG">     2</i>
    <i type="int" name="INIWAV">     1</i>
   </separator>
   <separator name="electronic spin" >
    <i type="int" name="ISPIN">     1</i>
    <i type="logical" name="LNONCOLLINEAR"> F  </i>
    <v name="MAGMOM">      1.00000000</v>
    <i name="NUPDOWN">     -1.00000000</i>
    <i type="logical" name="LSORBIT"> F  </i>
    <v name="SAXIS">      0.00000000      0.00000000      1.00000000</v>
    <i type="logical" name="LSPIRAL"> F  </i>
    <v name="QSPIRAL">      0.00000000      0.00000000      0.00000000</v>
    <i type="logical" name="LZEROZ"> F  </i>
   </separator>
   <separator name="electronic exchange-correlation" >
    <i type="logical" name="LASPH"> F  </i>
    <i type="logical" name="LMETAGGA"> F  </i>
   </separator>
   <separator name="electronic convergence" >
    <i type="int" name="NELM">   100</i>
    <i type="int" name="NELMDL">    -5</i>
    <i type="int" name="NELMIN">     2</i>
    <i name="ENINI">    425.00000000</i>
    <separator name="electronic convergence detail" >
     <i type="logical" name="LDIAG"> T  </i>
     <i type="logical" name="LSUBROT"> F  </i>
     <i name="WEIMIN">      0.00100000</i>
     <i name="EBREAK">      0.00000001</i>
     <i name="DEPER">      0.30000000</i>
     <i type="int" name="NRMM">     4</i>
     <i name="TIME">      0.40000000</i>
    </separator>
   </separator>
   <separator name="electronic mixer" >
    <i name="AMIX">      0.40000000</i>
    <i name="BMIX">      1.00000000</i>
    <i name="AMIN">      0.10000000</i>
    <i name="AMIX_MAG">      1.60000000</i>
    <i name="BMIX_MAG">      1.00000000</i>
    <separator name="electronic mixer details" >
     <i type="int" name="IMIX">     4</i>
     <i type="logical" name="MIXFIRST"> F  </i>
     <i type="int" name="MAXMIX">   -45</i>
     <i name="WC">    100.00000000</i>
     <i type="int" name="INIMIX">     1</i>
     <i type="int" name="MIXPRE">     1</i>
     <i type="int" name="MREMOVE">     5</i>
    </separator>
   </separator>
   <separator name="electronic dipolcorrection" >
    <i type="logical" name="LDIPOL"> F  </i>
    <i type="logical" name="LMONO"> F  </i>
    <i type="int" name="IDIPOL">     0</i>
    <i name="EPSILON">      1.00000000</i>
    <v name="DIPOL">   -100.00000000   -100.00000000   -100.00000000</v>
    <i name="EFIELD">      0.00000000</i>
   </separator>
  </separator>
  <separator name="grids" >
   <i type="int" name="NGX">    18</i>
   <i type="int" name="NGY">    18</i>
   <i type="int" name="NGZ">    18</i>
   <i type="int" name="NGXF">    36</i>
   <i type="int" name="NGYF">    36</i>
   <i type="int" name="NGZF">    36</i>
   <i type="logical" name="ADDGRID"> F  </i>
  </separator>
  <separator name="ionic" >
   <i type="int" name="NSW">   100</i>
   <i type="int" name="IBRION">     2</i>
   <i type="int" name="MDALGO">     0</i>
   <i type="int" name="ISIF">     2</i>
   <i name="PSTRESS">      0.00000000</i>
   <i name="EDIFFG">     -0.02000000</i>
   <i type="int" name="NFREE">     1</i>
   <i name="POTIM">      0.50000000</i>
   <i name="SMASS">     -3.00000000</i>
   <i name="SCALEE">      1.00000000</i>
  </separator>
  <separator name="ionic md" >
   <i name="TEBEG">      0.00010000</i>
   <i name="TEEND">      0.00010000</i>
   <i type="int" name="NBLOCK">     1</i>
   <i type="int" name="KBLOCK">   100</i>
   <i type="int" name="NPACO">   256</i>
   <i name="APACO">     10.00000000</i>
  </separator>
  <separator name="symmetry" >
   <i type="int" name="ISYM">     1</i>
   <i name="SYMPREC">      0.00001000</i>
  </separator>
  <separator name="dos" >
   <i type="int" name="LORBIT">    11</i>
   <v name="RWIGS">     -1.00000000</v>
   <i type="int" name="NEDOS">   301</i>
   <i name="EMIN">     10.00000000</i>
   <i name="EMAX">    -10.00000000</i>
   <i name="EFERMI">      0.00000000</i>
  </separator>
  <separator name="writing" >
   <i type="int" name="NWRITE">     2</i>
   <i type="logical" name="LWAVE"> T  </i>
   <i type="logical" name="LDOWNSAMPLE"> F  </i>
   <i type="logical" name="LCHARG"> T  </i>
   <i type="logical" name="LPARD"> F  </i>
   <i type="logical" name="LVTOT"> F  </i>
   <i type="logical" name="LVHAR"> F  </i>
   <i type="logical" name="LELF"> F  </i>
   <i type="logical" name="LOPTICS"> F  </i>
   <v name="STM">      0.00000000      0.00000000      0.00000000      0.00000000      0.00000000      0.00000000      0.00000000</v>
  </separator>
  <separator name="performance" >
   <i type="int" name="NPAR">    24</i>
   <i type="int" name="NSIM">     4</i>
   <i type="int" name="NBLK">    -1</i>
   <i type="logical" name="LPLANE"> T  </i>
   <i type="logical" name="LSCALAPACK"> T  </i>
   <i type="logical" name="LSCAAWARE"> T  </i>
   <i type="logical" name="LSCALU"> F  </i>
   <i type="logical" name="LASYNC"> F  </i>
   <i type="logical" name="LORBITALREAL"> F  </i>
  </separator>
  <separator name="miscellaneous" >
   <i type="int" name="IDIOT">     3</i>
   <i type="int" name="PHON_NSTRUCT">    -1</i>
   <i type="logical" name="LMUSIC"> F  </i>
   <v name="POMASS">    195.08000000</v>
   <v name="DARWINR">      0.00000000</v>
   <v name="DARWINV">      1.00000000</v>
   <i type="logical" name="LCORR"> T  </i>
  </separator>
  <i type="logical" name="GGA_COMPAT"> T  </i>
  <i type="logical" name="LBERRY"> F  </i>
  <i type="int" name="ICORELEVEL">     0</i>
  <i type="logical" name="LDAU"> F  </i>
  <i type="int" name="I_CONSTRAINED_M">     0</i>
  <separator name="electronic exchange-correlation" >
   <i type="string" name="GGA">--</i>
   <i type="int" name="VOSKOWN">     0</i>
   <i type="logical" name="LHFCALC"> F  </i>
   <i type="string" name="PRECFOCK"></i>
   <i type="logical" name="LSYMGRAD"> F  </i>
   <i type="logical" name="LHFONE"> F  </i>
   <i type="logical" name="LRHFCALC"> F  </i>
   <i type="logical" name="LTHOMAS"> F  </i>
   <i type="logical" name="LMODELHF"> F  </i>
   <i type="logical" name="LFOCKACE"> F  </i>
   <i name="ENCUT4O">     -1.00000000</i>
   <i type="int" name="EXXOEP">     0</i>
   <i type="int" name="FOURORBIT">     0</i>
   <i name="AEXX">      0.00000000</i>
   <i name="HFALPHA">      0.00000000</i>
   <i name="MCALPHA">      0.00000000</i>
   <i name="ALDAX">      1.00000000</i>
   <i name="AGGAX">      1.00000000</i>
   <i name="ALDAC">      1.00000000</i>
   <i name="AGGAC">      1.00000000</i>
   <i type="int" name="NKREDX">     1</i>
   <i type="int" name="NKREDY">     1</i>
   <i type="int" name="NKREDZ">     1</i>
   <i type="logical" name="SHIFTRED"> F  </i>
   <i type="logical" name="ODDONLY"> F  </i>
   <i type="logical" name="EVENONLY"> F  </i>
   <i type="int" name="LMAXFOCK">     0</i>
   <i type="int" name="NMAXFOCKAE">     0</i>
   <i type="logical" name="LFOCKAEDFT"> F  </i>
   <i name="HFSCREEN">      0.00000000</i>
   <i name="HFSCREENC">      0.00000000</i>
   <i type="int" name="NBANDSGWLOW">     0</i>
  </separator>
  <separator name="vdW DFT" >
   <i type="logical" name="LUSE_VDW"> F  </i>
   <i name="Zab_VDW">     -0.84910000</i>
   <i name="PARAM1">      0.12340000</i>
   <i name="PARAM2">      1.00000000</i>
   <i name="PARAM3">      0.00000000</i>
  </separator>
  <separator name="model GW" >
   <i type="int" name="MODEL_GW">     0</i>
   <i name="MODEL_EPS0">      7.97241294</i>
   <i name="MODEL_ALPHA">      1.00000000</i>
  </separator>
  <separator name="linear response parameters" >
   <i type="logical" name="LEPSILON"> F  </i>
   <i type="logical" name="LRPA"> F  </i>
   <i type="logical" name="LNABLA"> F  </i>
   <i type="logical" name="LVEL"> F  </i>
   <i name="CSHIFT">      0.10000000</i>
   <i name="OMEGAMAX">     -1.00000000</i>
   <i name="DEG_THRESHOLD">      0.00200000</i>
   <i name="RTIME">     -0.10000000</i>
   <i name="WPLASMAI">      0.00000000</i>
   <v name="DFIELD">      0.00000000      0.00000000      0.00000000</v>
   <v name="WPLASMA">      0.00000000      0.00000000      0.00000000      0.00000000      0.00000000      0.00000000      0.00000000      0.00000000      0.00000000</v>
  </separator>
  <separator name="orbital magnetization" >
   <i type="logical" name="NUCIND"> F  </i>
   <v name="MAGPOS">      0.00000000      0.00000000      0.00000000</v>
   <i type="logical" name="LNICSALL"> T  </i>
   <i type="logical" name="ORBITALMAG"> F  </i>
   <i type="logical" name="LMAGBLOCH"> F  </i>
   <i type="logical" name="LCHIMAG"> F  </i>
   <i type="logical" name="LGAUGE"> T  </i>
   <i type="int" name="MAGATOM">     0</i>
   <v name="MAGDIPOL">      0.00000000      0.00000000      0.00000000</v>
   <v name="AVECCONST">      0.00000000      0.00000000      0.00000000</v>
  </separator>
  <separator name="response functions" >
   <i type="logical" name="LFINITE_TEMPERATURE"> F  </i>
   <i type="logical" name="LADDER"> F  </i>
   <i type="logical" name="LRPAFORCE"> F  </i>
   <i type="logical" name="LFXC"> F  </i>
   <i type="logical" name="LHARTREE"> T  </i>
   <i type="int" name="IBSE">     0</i>
   <v type="int" name="KPOINT">    -1     0     0     0</v>
   <i type="logical" name="LTCTC"> F  </i>
   <i type="logical" name="LTCTE"> F  </i>
   <i type="logical" name="LTETE"> F  </i>
   <i type="logical" name="LTRIPLET"> F  </i>
   <i type="logical" name="LFXCEPS"> F  </i>
   <i type="logical" name="LFXHEG"> F  </i>
   <i type="int" name="NATURALO">     2</i>
   <i type="logical" name="LHOLEGF"> F  </i>
   <i type="logical" name="L2ORDER"> F  </i>
   <i type="logical" name="LDMP1"> F  </i>
   <i type="logical" name="LMP2LT"> F  </i>
   <i type="logical" name="LSMP2LT"> F  </i>
   <i type="logical" name="LGWLF"> F  </i>
   <i name="ENCUTGW">     -2.00000000</i>
   <i name="ENCUTGWSOFT">     -2.00000000</i>
   <i name="ENCUTLF">     -1.00000000</i>
   <i type="logical" name="LESF_SPLINES"> F  </i>
   <i type="int" name="LMAXMP2">    -1</i>
   <i name="SCISSOR">      0.00000000</i>
   <i type="int" name="NOMEGA">     0</i>
   <i type="int" name="NOMEGAR">     0</i>
   <i type="int" name="NBANDSGW">    -1</i>
   <i type="int" name="NBANDSO">    -1</i>
   <i type="int" name="NBANDSV">    -1</i>
   <i type="int" name="NELMGW">     1</i>
   <i type="int" name="NELMHF">     1</i>
   <i type="int" name="DIM">     3</i>
   <i type="int" name="IESPILON">     4</i>
   <i type="int" name="ANTIRES">     0</i>
   <i name="OMEGAMAX">    -30.00000000</i>
   <i name="OMEGAMIN">    -30.00000000</i>
   <i name="OMEGATL">   -200.00000000</i>
   <i type="int" name="OMEGAGRID">     0</i>
   <i name="CSHIFT">     -0.10000000</i>
   <i type="logical" name="LSELFENERGY"> F  </i>
   <i type="logical" name="LSPECTRAL"> F  </i>
   <i type="logical" name="LSPECTRALGW"> F  </i>
   <i type="logical" name="LSINGLES"> F  </i>
   <i type="logical" name="LFERMIGW"> F  </i>
   <i type="logical" name="ODDONLYGW"> F  </i>
   <i type="logical" name="EVENONLYGW"> F  </i>
   <i type="int" name="NKREDLFX">     1</i>
   <i type="int" name="NKREDLFY">     1</i>
   <i type="int" name="NKREDLFZ">     1</i>
   <i type="int" name="MAXMEM">  2800</i>
   <i type="int" name="TELESCOPE">     0</i>
   <i type="int" name="NTAUPAR">    -1</i>
   <i type="int" name="NOMEGAPAR">    -1</i>
   <i name="DAMP_NEWTON">      0.80000001</i>
   <i name="LAMBDA">      1.00000000</i>
  </separator>
  <separator name="External order field" >
   <i name="OFIELD_KAPPA">      0.00000000</i>
   <v name="OFIELD_K">      0.00000000      0.00000000      0.00000000</v>
   <i name="OFIELD_Q6_NEAR">      0.00000000</i>
   <i name="OFIELD_Q6_FAR">      0.00000000</i>
   <i name="OFIELD_A">      0.00000000</i>
  </separator>
  <separator name="optional k-points parameters" >
   <i type="int" name="KPOINTS_OPT_MODE">     1</i>
   <i type="logical" name="LKPOINTS_OPT"> F  </i>
  </separator>
 </parameters>
 <atominfo>
  <atoms>       1 </atoms>
  <types>       1 </types>
  <array name="atoms" >
   <dimension dim="1">ion</dimension>
   <field type="string">element</field>
   <field type="int">atomtype</field>
   <set>
    <rc><c>Pt</c><c>   1</c></rc>
   </set>
  </array>
  <array name="atomtypes" >
   <dimension dim="1">type</dimension>
   <field type="int">atomspertype</field>
   <field type="string">element</field>
   <field>mass</field>
   <field>valence</field>
   <field type="string">pseudopotential</field>
   <set>
    <rc><c>   1</c><c>Pt</c><c>    195.08000000</c><c>     16.00000000</c><c>  PAW_PBE Pt_pv 12Dec2005               </c></rc>
   </set>
  </array>
 </atominfo>
 <structure name="initialpos" >
  <crystal>
   <varray name="basis" >
    <v>       0.00000000       1.87990620       1.87990620 </v>
    <v>       1.87990620       0.00000000       1.87990620 </v>
    <v>       1.87990620       1.87990620       0.00000000 </v>
   </varray>
   <i name="volume">     13.28735490 </i>
   <varray name="rec_basis" >
    <v>      -0.26597072       0.26597072       0.26597072 </v>
    <v>       0.26597072      -0.26597072       0.26597072 </v>
    <v>       0.26597072       0.26597072      -0.26597072 </v>
   </varray>
  </crystal>
  <varray name="positions" >
   <v>       0.00000000       0.00000000       0.00000000 </v>
  </varray>
 </structure>
 <calculation>
  <scstep>
   <time name="dav">    0.51    0.51</time>
   <time name="total">    0.51    0.51</time>
   <energy>
    <i name="alphaZ">    180.57157191 </i>
    <i name="ewald">  -2247.63684464 </i>
    <i name="hartreedc">   -352.31121803 </i>
    <i name="XCdc">     64.60327344 </i>
    <i name="pawpsdc">   2065.75261637 </i>
    <i name="pawaedc">  -2030.83594803 </i>
    <i name="eentropy">     -0.00167272 </i>
    <i name="bandstr">    -95.35781400 </i>
    <i name="atom">   2428.19501064 </i>
    <i name="e_fr_energy">     12.97897495 </i>
    <i name="e_wo_entrp">     12.98064767 </i>
    <i name="e_0_energy">     12.97981131 </i>
   </energy>
  </scstep>
  <scstep>
   <time name="dav">    0.63    0.63</time>
   <time name="total">    0.63    0.63</time>
   <energy>
    <i name="e_fr_energy">     -5.97567615 </i>
    <i name="e_wo_entrp">     -5.97418407 </i>
    <i name="e_0_energy">     -5.97493011 </i>
   </energy>
  </scstep>
  <scstep>
   <time name="dav">    0.72    0.72</time>
   <time name="total">    0.72    0.72</time>
   <energy>
    <i name="e_fr_energy">     -6.00025592 </i>
    <i name="e_wo_entrp">     -5.99878963 </i>
    <i name="e_0_energy">     -5.99952278 </i>
   </energy>
  </scstep>
  <scstep>
   <time name="dav">    0.78    0.78</time>
   <time name="total">    0.78    0.78</time>
   <energy>
    <i name="e_fr_energy">     -6.00027016 </i>
    <i name="e_wo_entrp">     -5.99880387 </i>
    <i name="e_0_energy">     -5.99953701 </i>
   </energy>
  </scstep>
  <scstep>
   <time name="dav">    0.70    0.70</time>
   <time name="total">    0.71    0.72</time>
   <energy>
    <i name="e_fr_energy">     -6.00027016 </i>
    <i name="e_wo_entrp">     -5.99880387 </i>
    <i name="e_0_energy">     -5.99953701 </i>
   </energy>
  </scstep>
  <scstep>
   <time name="dav">    0.51    0.51</time>
   <time name="total">    0.53    0.53</time>
   <energy>
    <i name="e_fr_energy">     -5.71445528 </i>
    <i name="e_wo_entrp">     -5.71272654 </i>
    <i name="e_0_energy">     -5.71359091 </i>
   </energy>
  </scstep>
  <scstep>
   <time name="dav">    0.76    0.77</time>
   <time name="total">    0.78    0.78</time>
   <energy>
    <i name="e_fr_energy">     -5.68758073 </i>
    <i name="e_wo_entrp">     -5.68566537 </i>
    <i name="e_0_energy">     -5.68662305 </i>
   </energy>
  </scstep>
  <scstep>
   <time name="dav">    0.44    0.44</time>
   <time name="total">    0.45    0.45</time>
   <energy>
    <i name="e_fr_energy">     -5.68559875 </i>
    <i name="e_wo_entrp">     -5.68368320 </i>
    <i name="e_0_energy">     -5.68464098 </i>
   </energy>
  </scstep>
  <scstep>
   <time name="dav">    0.67    0.67</time>
   <time name="total">    0.68    0.69</time>
   <energy>
    <i name="e_fr_energy">     -5.68550268 </i>
    <i name="e_wo_entrp">     -5.68358832 </i>
    <i name="e_0_energy">     -5.68454550 </i>
   </energy>
  </scstep>
  <scstep>
   <time name="dav">    0.79    0.80</time>
   <time name="total">    0.81    0.81</time>
   <energy>
    <i name="e_fr_energy">     -5.68550640 </i>
    <i name="e_wo_entrp">     -5.68359310 </i>
    <i name="e_0_energy">     -5.68454975 </i>
   </energy>
  </scstep>
  <scstep>
   <time name="dav">    0.26    0.26</time>
   <time name="total">    0.26    0.27</time>
   <energy>
    <i name="alphaZ">    180.57157191 </i>
    <i name="ewald">  -2247.63684464 </i>
    <i name="hartreedc">   -334.25528871 </i>
    <i name="XCdc">     63.79226159 </i>
    <i name="pawpsdc">   2615.69960260 </i>
    <i name="pawaedc">  -2584.08091430 </i>
    <i name="eentropy">     -0.00191329 </i>
    <i name="bandstr">   -127.96899220 </i>
    <i name="atom">   2428.19501064 </i>
    <i name="e_fr_energy">     -5.68550639 </i>
    <i name="e_wo_entrp">     -5.68359310 </i>
    <i name="e_0_energy">     -5.68454975 </i>
   </energy>
  </scstep>
  <structure>
   <crystal>
    <varray name="basis" >
     <v>       0.00000000       1.87990620       1.87990620 </v>
     <v>       1.87990620       0.00000000       1.87990620 </v>
     <v>       1.87990620       1.87990620       0.00000000 </v>
    </varray>
    <i name="volume">     13.28735490 </i>
    <varray name="rec_basis" >
     <v>      -0.26597072       0.26597072       0.26597072 </v>
     <v>       0.26597072      -0.26597072       0.26597072 </v>
     <v>       0.26597072       0.26597072      -0.26597072 </v>
    </varray>
   </crystal>
   <varray name="positions" >
    <v>       0.00000000       0.00000000       0.00000000 </v>
   </varray>
  </structure>
  <varray name="forces" >
   <v>      -0.00000000       0.00000000       0.00000000 </v>
  </varray>
  <varray name="stress" >
   <v>     602.86016753      -0.00000000       0.00000000 </v>
   <v>       0.00000000     602.86016753      -0.00000000 </v>
   <v>       0.00000000       0.00000000     602.86016753 </v>
  </varray>
  <energy>
   <i name="e_fr_energy">     -5.68550639 </i>
   <i name="e_wo_entrp">     -5.68359310 </i>
   <i name="e_0_energy">     -5.68454975 </i>
  </energy>
  <time name="totalsc">    7.07    7.14</time>
  <eigenvalues>
   <array>
    <dimension dim="1">band</dimension>
    <dimension dim="2">kpoint</dimension>
    <dimension dim="3">spin</dimension>
    <field>eigene</field>
    <field>occ</field>
    <set>
     <set comment="spin 1">
      <set comment="kpoint 1">
       <r>  -38.2188    1.0000 </r>
       <r>  -38.2023    1.0000 </r>
       <r>  -38.2023    1.0000 </r>
       <r>    3.1191    1.0000 </r>
       <r>   10.0301    1.0000 </r>
       <r>   10.1371    1.0000 </r>
       <r>   10.1371    1.0000 </r>
       <r>   12.7204    1.0000 </r>
       <r>   12.7204    1.0000 </r>
       <r>   29.1094    0.0000 </r>
       <r>   34.0417    0.0000 </r>
       <r>   34.7954    0.0000 </r>
       <r>   34.7954    0.0000 </r>
       <r>   41.1476    0.0000 </r>
       <r>   48.0938    0.0000 </r>
       <r>   48.8638    0.0000 </r>
       <r>   48.8638    0.0000 </r>
       <r>   53.0911    0.0000 </r>
       <r>   53.0911    0.0000 </r>
       <r>   54.1020    0.0000 </r>
       <r>   54.9207    0.0000 </r>
       <r>   59.4350    0.0000 </r>
       <r>   59.4350    0.0000 </r>
       <r>   66.3098    0.0000 </r>
      </set>
      <set comment="kpoint 2">
       <r>  -38.3090    1.0000 </r>
       <r>  -38.2280    1.0000 </r>
       <r>  -38.2098    1.0000 </r>
       <r>    3.7132    1.0000 </r>
       <r>    9.7375    1.0000 </r>
       <r>   10.3551    1.0000 </r>
       <r>   10.4050    1.0000 </r>
       <r>   12.4254    1.0000 </r>
       <r>   12.7851    1.0000 </r>
       <r>   30.0597    0.0000 </r>
       <r>   32.3300    0.0000 </r>
       <r>   35.1180    0.0000 </r>
       <r>   36.1008    0.0000 </r>
       <r>   42.7844    0.0000 </r>
       <r>   45.1202    0.0000 </r>
       <r>   45.9022    0.0000 </r>
       <r>   47.7275    0.0000 </r>
       <r>   51.0340    0.0000 </r>
       <r>   54.5231    0.0000 </r>
       <r>   54.9280    0.0000 </r>
       <r>   56.8957    0.0000 </r>
       <r>   58.0526    0.0000 </r>
       <r>   60.6313    0.0000 </r>
       <r>   67.1187    0.0000 </r>
      </set>
      <set comment="kpoint 3">
       <r>  -38.5095    1.0000 </r>
       <r>  -38.2632    1.0000 </r>
       <r>  -38.2354    1.0000 </r>
       <r>    4.9462    1.0000 </r>
       <r>    9.4720    1.0000 </r>
       <r>   10.5810    1.0000 </r>
       <r>   10.6280    1.0000 </r>
       <r>   12.3901    1.0000 </r>
       <r>   13.1019    1.0000 </r>
       <r>   29.6047    0.0000 </r>
       <r>   31.5232    0.0000 </r>
       <r>   36.7431    0.0000 </r>
       <r>   38.6065    0.0000 </r>
       <r>   39.1010    0.0000 </r>
       <r>   42.5208    0.0000 </r>
       <r>   43.1732    0.0000 </r>
       <r>   49.2660    0.0000 </r>
       <r>   51.2836    0.0000 </r>
       <r>   54.9028    0.0000 </r>
       <r>   55.0344    0.0000 </r>
       <r>   56.6096    0.0000 </r>
       <r>   59.9034    0.0000 </r>
       <r>   61.1498    0.0000 </r>
       <r>   67.4648    0.0000 </r>
      </set>
      <set comment="kpoint 4">
       <r>  -38.7342    1.0000 </r>
       <r>  -38.2974    1.0000 </r>
       <r>  -38.2688    1.0000 </r>
       <r>    5.9205    1.0000 </r>
       <r>   10.1981    1.0000 </r>
       <r>   10.3916    1.0000 </r>
       <r>   10.4247    1.0000 </r>
       <r>   13.2130    1.0000 </r>
       <r>   14.0315    1.0000 </r>
       <r>   26.5850    0.0000 </r>
       <r>   30.6202    0.0000 </r>
       <r>   36.5394    0.0000 </r>
       <r>   38.8458    0.0000 </r>
       <r>   39.4977    0.0000 </r>
       <r>   41.8137    0.0000 </r>
       <r>   42.0632    0.0000 </r>
       <r>   51.5522    0.0000 </r>
       <r>   53.9299    0.0000 </r>
       <r>   54.9222    0.0000 </r>
       <r>   55.7589    0.0000 </r>
       <r>   56.7637    0.0000 </r>
       <r>   59.9943    0.0000 </r>
       <r>   61.7940    0.0000 </r>
       <r>   66.5324    0.0000 </r>
      </set>
      <set comment="kpoint 5">
       <r>  -38.8999    1.0000 </r>
       <r>  -38.3182    1.0000 </r>
       <r>  -38.2981    1.0000 </r>
       <r>    6.0818    1.0000 </r>
       <r>   10.0203    1.0000 </r>
       <r>   10.1442    1.0000 </r>
       <r>   12.2430    1.0000 </r>
       <r>   14.2905    1.0000 </r>
       <r>   15.0917    0.0000 </r>
       <r>   23.1399    0.0000 </r>
       <r>   29.1198    0.0000 </r>
       <r>   34.6401    0.0000 </r>
       <r>   35.7015    0.0000 </r>
       <r>   43.1061    0.0000 </r>
       <r>   44.6483    0.0000 </r>
       <r>   44.8368    0.0000 </r>
       <r>   51.8751    0.0000 </r>
       <r>   53.5835    0.0000 </r>
       <r>   54.5001    0.0000 </r>
       <r>   54.9164    0.0000 </r>
       <r>   59.1624    0.0000 </r>
       <r>   61.9486    0.0000 </r>
       <r>   62.0637    0.0000 </r>
       <r>   63.5976    0.0000 </r>
      </set>
      <set comment="kpoint 6">
       <r>  -38.9458    1.0000 </r>
       <r>  -38.3192    1.0000 </r>
       <r>  -38.3118    1.0000 </r>
       <r>    6.0620    1.0000 </r>
       <r>    9.9074    1.0000 </r>
       <r>   10.0799    1.0000 </r>
       <r>   13.0684    1.0000 </r>
       <r>   14.8312    0.0635 </r>
       <r>   15.4850    0.0000 </r>
       <r>   21.6718    0.0000 </r>
       <r>   28.7405    0.0000 </r>
       <r>   34.4319    0.0000 </r>
       <r>   34.4373    0.0000 </r>
       <r>   44.9416    0.0000 </r>
       <r>   45.2368    0.0000 </r>
       <r>   46.6471    0.0000 </r>
       <r>   51.7932    0.0000 </r>
       <r>   52.4116    0.0000 </r>
       <r>   53.2357    0.0000 </r>
       <r>   54.9076    0.0000 </r>
       <r>   60.2096    0.0000 </r>
       <r>   60.7594    0.0000 </r>
       <r>   63.5301    0.0000 </r>
       <r>   64.0946    0.0000 </r>
      </set>
      <set comment="kpoint 7">
       <r>  -38.8560    1.0000 </r>
       <r>  -38.3045    1.0000 </r>
       <r>  -38.2983    1.0000 </r>
       <r>    6.0749    1.0000 </r>
       <r>   10.0688    1.0000 </r>
       <r>   10.2647    1.0000 </r>
       <r>   11.5062    1.0000 </r>
       <r>   14.3227    1.0000 </r>
       <r>   14.4512    1.0000 </r>
       <r>   24.2445    0.0000 </r>
       <r>   29.5037    0.0000 </r>
       <r>   35.3688    0.0000 </r>
       <r>   36.2764    0.0000 </r>
       <r>   42.7050    0.0000 </r>
       <r>   42.8043    0.0000 </r>
       <r>   44.1165    0.0000 </r>
       <r>   51.3099    0.0000 </r>
       <r>   54.7074    0.0000 </r>
       <r>   54.9063    0.0000 </r>
       <r>   55.2235    0.0000 </r>
       <r>   59.1763    0.0000 </r>
       <r>   59.7718    0.0000 </r>
       <r>   62.3126    0.0000 </r>
       <r>   64.4691    0.0000 </r>
      </set>
      <set comment="kpoint 8">
       <r>  -38.6619    1.0000 </r>
       <r>  -38.2788    1.0000 </r>
       <r>  -38.2655    1.0000 </r>
       <r>    5.6944    1.0000 </r>
       <r>    9.7812    1.0000 </r>
       <r>   10.4250    1.0000 </r>
       <r>   10.5576    1.0000 </r>
       <r>   13.0218    1.0000 </r>
       <r>   13.5491    1.0000 </r>
       <r>   27.6680    0.0000 </r>
       <r>   31.2033    0.0000 </r>
       <r>   37.4274    0.0000 </r>
       <r>   38.3167    0.0000 </r>
       <r>   40.4750    0.0000 </r>
       <r>   40.5227    0.0000 </r>
       <r>   41.5446    0.0000 </r>
       <r>   51.1276    0.0000 </r>
       <r>   53.1976    0.0000 </r>
       <r>   54.9243    0.0000 </r>
       <r>   55.0755    0.0000 </r>
       <r>   57.5780    0.0000 </r>
       <r>   58.6103    0.0000 </r>
       <r>   62.3912    0.0000 </r>
       <r>   67.7481    0.0000 </r>
      </set>
      <set comment="kpoint 9">
       <r>  -38.4352    1.0000 </r>
       <r>  -38.2452    1.0000 </r>
       <r>  -38.2323    1.0000 </r>
       <r>    4.5036    1.0000 </r>
       <r>    9.4820    1.0000 </r>
       <r>   10.5738    1.0000 </r>
       <r>   10.6042    1.0000 </r>
       <r>   12.3225    1.0000 </r>
       <r>   12.9137    1.0000 </r>
       <r>   30.5169    0.0000 </r>
       <r>   31.2025    0.0000 </r>
       <r>   36.3504    0.0000 </r>
       <r>   37.2060    0.0000 </r>
       <r>   40.8038    0.0000 </r>
       <r>   42.9087    0.0000 </r>
       <r>   44.9302    0.0000 </r>
       <r>   47.6756    0.0000 </r>
       <r>   51.0607    0.0000 </r>
       <r>   54.9136    0.0000 </r>
       <r>   55.1665    0.0000 </r>
       <r>   57.3659    0.0000 </r>
       <r>   57.9554    0.0000 </r>
       <r>   61.6386    0.0000 </r>
       <r>   67.3454    0.0000 </r>
      </set>
      <set comment="kpoint 10">
       <r>  -38.2597    1.0000 </r>
       <r>  -38.2157    1.0000 </r>
       <r>  -38.2111    1.0000 </r>
       <r>    3.4228    1.0000 </r>
       <r>    9.8313    1.0000 </r>
       <r>   10.2866    1.0000 </r>
       <r>   10.2964    1.0000 </r>
       <r>   12.4773    1.0000 </r>
       <r>   12.8156    1.0000 </r>
       <r>   29.6124    0.0000 </r>
       <r>   33.2749    0.0000 </r>
       <r>   34.9313    0.0000 </r>
       <r>   35.1820    0.0000 </r>
       <r>   42.6049    0.0000 </r>
       <r>   46.1598    0.0000 </r>
       <r>   46.5698    0.0000 </r>
       <r>   48.9630    0.0000 </r>
       <r>   50.7445    0.0000 </r>
       <r>   54.9222    0.0000 </r>
       <r>   55.1530    0.0000 </r>
       <r>   55.7399    0.0000 </r>
       <r>   57.7094    0.0000 </r>
       <r>   60.7010    0.0000 </r>
       <r>   66.9217    0.0000 </r>
      </set>
      <set comment="kpoint 11">
       <r>  -38.3288    1.0000 </r>
       <r>  -38.2417    1.0000 </r>
       <r>  -38.2366    1.0000 </r>
       <r>    4.0065    1.0000 </r>
       <r>    9.4472    1.0000 </r>
       <r>   10.6022    1.0000 </r>
       <r>   10.6114    1.0000 </r>
       <r>   12.0539    1.0000 </r>
       <r>   12.9989    1.0000 </r>
       <r>   30.5628    0.0000 </r>
       <r>   32.6096    0.0000 </r>
       <r>   35.0707    0.0000 </r>
       <r>   35.4197    0.0000 </r>
       <r>   43.4626    0.0000 </r>
       <r>   44.2868    0.0000 </r>
       <r>   45.6129    0.0000 </r>
       <r>   47.3057    0.0000 </r>
       <r>   49.4864    0.0000 </r>
       <r>   54.9219    0.0000 </r>
       <r>   55.0896    0.0000 </r>
       <r>   57.3719    0.0000 </r>
       <r>   57.4345    0.0000 </r>
       <r>   61.7633    0.0000 </r>
       <r>   68.4381    0.0000 </r>
      </set>
      <set comment="kpoint 12">
       <r>  -38.4691    1.0000 </r>
       <r>  -38.2913    1.0000 </r>
       <r>  -38.2562    1.0000 </r>
       <r>    5.0424    1.0000 </r>
       <r>    9.0107    1.0000 </r>
       <r>   10.7254    1.0000 </r>
       <r>   11.0534    1.0000 </r>
       <r>   11.9145    1.0000 </r>
       <r>   13.3473    1.0000 </r>
       <r>   31.0180    0.0000 </r>
       <r>   32.0136    0.0000 </r>
       <r>   34.9925    0.0000 </r>
       <r>   36.4224    0.0000 </r>
       <r>   40.3983    0.0000 </r>
       <r>   42.8893    0.0000 </r>
       <r>   45.0278    0.0000 </r>
       <r>   48.5750    0.0000 </r>
       <r>   49.3478    0.0000 </r>
       <r>   53.7329    0.0000 </r>
       <r>   54.9194    0.0000 </r>
       <r>   56.4216    0.0000 </r>
       <r>   60.4238    0.0000 </r>
       <r>   63.2900    0.0000 </r>
       <r>   68.4804    0.0000 </r>
      </set>
      <set comment="kpoint 13">
       <r>  -38.6661    1.0000 </r>
       <r>  -38.3360    1.0000 </r>
       <r>  -38.2888    1.0000 </r>
       <r>    6.2291    1.0000 </r>
       <r>    9.0952    1.0000 </r>
       <r>   10.1856    1.0000 </r>
       <r>   11.0591    1.0000 </r>
       <r>   12.9649    1.0000 </r>
       <r>   14.2544    1.0000 </r>
       <r>   28.0989    0.0000 </r>
       <r>   31.8306    0.0000 </r>
       <r>   34.7309    0.0000 </r>
       <r>   36.4469    0.0000 </r>
       <r>   40.9268    0.0000 </r>
       <r>   42.0503    0.0000 </r>
       <r>   43.9061    0.0000 </r>
       <r>   47.8116    0.0000 </r>
       <r>   53.2298    0.0000 </r>
       <r>   54.9183    0.0000 </r>
       <r>   55.1928    0.0000 </r>
       <r>   56.1144    0.0000 </r>
       <r>   60.2594    0.0000 </r>
       <r>   64.6874    0.0000 </r>
       <r>   66.2750    0.0000 </r>
      </set>
      <set comment="kpoint 14">
       <r>  -38.8354    1.0000 </r>
       <r>  -38.3692    1.0000 </r>
       <r>  -38.3218    1.0000 </r>
       <r>    6.5942    1.0000 </r>
       <r>    9.6612    1.0000 </r>
       <r>   10.4018    1.0000 </r>
       <r>   10.7925    1.0000 </r>
       <r>   14.3333    1.0000 </r>
       <r>   15.6767    0.0000 </r>
       <r>   24.2973    0.0000 </r>
       <r>   30.3225    0.0000 </r>
       <r>   33.5119    0.0000 </r>
       <r>   35.8797    0.0000 </r>
       <r>   41.7254    0.0000 </r>
       <r>   44.5468    0.0000 </r>
       <r>   45.5148    0.0000 </r>
       <r>   48.1864    0.0000 </r>
       <r>   54.7154    0.0000 </r>
       <r>   54.9090    0.0000 </r>
       <r>   55.2295    0.0000 </r>
       <r>   57.6059    0.0000 </r>
       <r>   60.7956    0.0000 </r>
       <r>   62.4890    0.0000 </r>
       <r>   64.5068    0.0000 </r>
      </set>
      <set comment="kpoint 15">
       <r>  -38.9118    1.0000 </r>
       <r>  -38.3897    1.0000 </r>
       <r>  -38.3321    1.0000 </r>
       <r>    6.5860    1.0000 </r>
       <r>    9.4571    1.0000 </r>
       <r>   10.5536    1.0000 </r>
       <r>   11.6439    1.0000 </r>
       <r>   14.7310    0.9045 </r>
       <r>   17.3825    0.0000 </r>
       <r>   21.4349    0.0000 </r>
       <r>   29.7055    0.0000 </r>
       <r>   33.1586    0.0000 </r>
       <r>   34.2162    0.0000 </r>
       <r>   43.9062    0.0000 </r>
       <r>   44.7418    0.0000 </r>
       <r>   47.8456    0.0000 </r>
       <r>   50.4485    0.0000 </r>
       <r>   52.6723    0.0000 </r>
       <r>   54.8282    0.0000 </r>
       <r>   54.9221    0.0000 </r>
       <r>   57.3346    0.0000 </r>
       <r>   58.8290    0.0000 </r>
       <r>   63.4310    0.0000 </r>
       <r>   65.4976    0.0000 </r>
      </set>
      <set comment="kpoint 16">
       <r>  -38.8703    1.0000 </r>
       <r>  -38.3929    1.0000 </r>
       <r>  -38.3139    1.0000 </r>
       <r>    6.6323    1.0000 </r>
       <r>    9.5990    1.0000 </r>
       <r>   10.5887    1.0000 </r>
       <r>   11.1128    1.0000 </r>
       <r>   14.1069    1.0000 </r>
       <r>   16.5542    0.0000 </r>
       <r>   23.1920    0.0000 </r>
       <r>   30.0116    0.0000 </r>
       <r>   32.8644    0.0000 </r>
       <r>   35.7851    0.0000 </r>
       <r>   41.7253    0.0000 </r>
       <r>   44.8887    0.0000 </r>
       <r>   46.7067    0.0000 </r>
       <r>   50.1374    0.0000 </r>
       <r>   54.2481    0.0000 </r>
       <r>   54.9231    0.0000 </r>
       <r>   55.2082    0.0000 </r>
       <r>   55.8899    0.0000 </r>
       <r>   60.6292    0.0000 </r>
       <r>   63.1252    0.0000 </r>
       <r>   64.2403    0.0000 </r>
      </set>
      <set comment="kpoint 17">
       <r>  -38.7263    1.0000 </r>
       <r>  -38.3694    1.0000 </r>
       <r>  -38.2796    1.0000 </r>
       <r>    6.5010    1.0000 </r>
       <r>    9.5293    1.0000 </r>
       <r>   10.0501    1.0000 </r>
       <r>   10.9044    1.0000 </r>
       <r>   12.8677    1.0000 </r>
       <r>   15.0533    0.0000 </r>
       <r>   26.8967    0.0000 </r>
       <r>   31.2215    0.0000 </r>
       <r>   33.8734    0.0000 </r>
       <r>   37.4023    0.0000 </r>
       <r>   39.7944    0.0000 </r>
       <r>   43.4929    0.0000 </r>
       <r>   44.7955    0.0000 </r>
       <r>   48.0306    0.0000 </r>
       <r>   53.5738    0.0000 </r>
       <r>   54.5069    0.0000 </r>
       <r>   54.9342    0.0000 </r>
       <r>   57.6545    0.0000 </r>
       <r>   60.6076    0.0000 </r>
       <r>   63.8402    0.0000 </r>
       <r>   64.8732    0.0000 </r>
      </set>
      <set comment="kpoint 18">
       <r>  -38.5369    1.0000 </r>
       <r>  -38.3208    1.0000 </r>
       <r>  -38.2451    1.0000 </r>
       <r>    5.4832    1.0000 </r>
       <r>    9.0696    1.0000 </r>
       <r>   10.5324    1.0000 </r>
       <r>   11.0886    1.0000 </r>
       <r>   11.9159    1.0000 </r>
       <r>   13.7452    1.0000 </r>
       <r>   29.9037    0.0000 </r>
       <r>   32.1943    0.0000 </r>
       <r>   35.0759    0.0000 </r>
       <r>   36.4285    0.0000 </r>
       <r>   39.9938    0.0000 </r>
       <r>   43.5899    0.0000 </r>
       <r>   44.9288    0.0000 </r>
       <r>   47.4404    0.0000 </r>
       <r>   50.4549    0.0000 </r>
       <r>   54.1725    0.0000 </r>
       <r>   54.9248    0.0000 </r>
       <r>   55.5410    0.0000 </r>
       <r>   62.3255    0.0000 </r>
       <r>   63.4397    0.0000 </r>
       <r>   67.2321    0.0000 </r>
      </set>
      <set comment="kpoint 19">
       <r>  -38.3819    1.0000 </r>
       <r>  -38.2546    1.0000 </r>
       <r>  -38.2248    1.0000 </r>
       <r>    4.2713    1.0000 </r>
       <r>    9.4408    1.0000 </r>
       <r>   10.5990    1.0000 </r>
       <r>   10.6239    1.0000 </r>
       <r>   12.1230    1.0000 </r>
       <r>   12.9922    1.0000 </r>
       <r>   30.8927    0.0000 </r>
       <r>   31.5492    0.0000 </r>
       <r>   35.2216    0.0000 </r>
       <r>   36.8178    0.0000 </r>
       <r>   41.3213    0.0000 </r>
       <r>   44.1952    0.0000 </r>
       <r>   46.4804    0.0000 </r>
       <r>   47.2098    0.0000 </r>
       <r>   49.1778    0.0000 </r>
       <r>   54.9153    0.0000 </r>
       <r>   55.3272    0.0000 </r>
       <r>   56.0046    0.0000 </r>
       <r>   59.1477    0.0000 </r>
       <r>   61.9394    0.0000 </r>
       <r>   68.0094    0.0000 </r>
      </set>
      <set comment="kpoint 20">
       <r>  -38.5245    1.0000 </r>
       <r>  -38.3186    1.0000 </r>
       <r>  -38.3180    1.0000 </r>
       <r>    5.7022    1.0000 </r>
       <r>    8.4258    1.0000 </r>
       <r>   10.9049    1.0000 </r>
       <r>   11.6714    1.0000 </r>
       <r>   11.9544    1.0000 </r>
       <r>   13.5779    1.0000 </r>
       <r>   31.9793    0.0000 </r>
       <r>   33.3208    0.0000 </r>
       <r>   33.9160    0.0000 </r>
       <r>   34.3864    0.0000 </r>
       <r>   39.9983    0.0000 </r>
       <r>   42.3231    0.0000 </r>
       <r>   42.7306    0.0000 </r>
       <r>   50.2842    0.0000 </r>
       <r>   50.6103    0.0000 </r>
       <r>   51.9199    0.0000 </r>
       <r>   54.9205    0.0000 </r>
       <r>   59.0367    0.0000 </r>
       <r>   60.0392    0.0000 </r>
       <r>   61.7101    0.0000 </r>
       <r>   71.5924    0.0000 </r>
      </set>
      <set comment="kpoint 21">
       <r>  -38.6554    1.0000 </r>
       <r>  -38.3806    1.0000 </r>
       <r>  -38.3468    1.0000 </r>
       <r>    6.6228    1.0000 </r>
       <r>    8.0619    1.0000 </r>
       <r>   10.4412    1.0000 </r>
       <r>   12.2361    1.0000 </r>
       <r>   12.9866    1.0000 </r>
       <r>   14.3144    1.0000 </r>
       <r>   29.8804    0.0000 </r>
       <r>   32.0939    0.0000 </r>
       <r>   32.9674    0.0000 </r>
       <r>   35.4299    0.0000 </r>
       <r>   39.0263    0.0000 </r>
       <r>   42.4976    0.0000 </r>
       <r>   43.8973    0.0000 </r>
       <r>   49.6251    0.0000 </r>
       <r>   49.8769    0.0000 </r>
       <r>   54.9161    0.0000 </r>
       <r>   55.0152    0.0000 </r>
       <r>   58.4918    0.0000 </r>
       <r>   60.7474    0.0000 </r>
       <r>   62.6523    0.0000 </r>
       <r>   69.2111    0.0000 </r>
      </set>
      <set comment="kpoint 22">
       <r>  -38.7806    1.0000 </r>
       <r>  -38.4428    1.0000 </r>
       <r>  -38.3763    1.0000 </r>
       <r>    7.1230    1.0000 </r>
       <r>    8.4228    1.0000 </r>
       <r>   10.0356    1.0000 </r>
       <r>   12.0041    1.0000 </r>
       <r>   14.5112    1.0000 </r>
       <r>   16.0393    0.0000 </r>
       <r>   25.6531    0.0000 </r>
       <r>   31.2442    0.0000 </r>
       <r>   31.3388    0.0000 </r>
       <r>   35.6398    0.0000 </r>
       <r>   40.9383    0.0000 </r>
       <r>   43.4350    0.0000 </r>
       <r>   45.7372    0.0000 </r>
       <r>   48.7795    0.0000 </r>
       <r>   51.2106    0.0000 </r>
       <r>   54.7648    0.0000 </r>
       <r>   54.9243    0.0000 </r>
       <r>   58.8786    0.0000 </r>
       <r>   62.1697    0.0000 </r>
       <r>   62.9141    0.0000 </r>
       <r>   66.3757    0.0000 </r>
      </set>
      <set comment="kpoint 23">
       <r>  -38.8422    1.0000 </r>
       <r>  -38.5056    1.0000 </r>
       <r>  -38.3799    1.0000 </r>
       <r>    7.2840    1.0000 </r>
       <r>    8.7983    1.0000 </r>
       <r>   10.3093    1.0000 </r>
       <r>   11.6621    1.0000 </r>
       <r>   14.7853    0.4102 </r>
       <r>   18.9298    0.0000 </r>
       <r>   21.7963    0.0000 </r>
       <r>   30.0013    0.0000 </r>
       <r>   31.5969    0.0000 </r>
       <r>   34.2976    0.0000 </r>
       <r>   42.6971    0.0000 </r>
       <r>   44.9080    0.0000 </r>
       <r>   46.4405    0.0000 </r>
       <r>   49.5006    0.0000 </r>
       <r>   53.3917    0.0000 </r>
       <r>   54.2091    0.0000 </r>
       <r>   54.9196    0.0000 </r>
       <r>   57.8525    0.0000 </r>
       <r>   60.1990    0.0000 </r>
       <r>   63.3924    0.0000 </r>
       <r>   65.8763    0.0000 </r>
      </set>
      <set comment="kpoint 24">
       <r>  -38.8243    1.0000 </r>
       <r>  -38.5409    1.0000 </r>
       <r>  -38.3553    1.0000 </r>
       <r>    7.5703    1.0000 </r>
       <r>    8.9127    1.0000 </r>
       <r>   10.2948    1.0000 </r>
       <r>   11.4866    1.0000 </r>
       <r>   14.0345    1.0000 </r>
       <r>   18.7158    0.0000 </r>
       <r>   22.7539    0.0000 </r>
       <r>   29.0427    0.0000 </r>
       <r>   32.2513    0.0000 </r>
       <r>   34.7647    0.0000 </r>
       <r>   41.4217    0.0000 </r>
       <r>   43.9414    0.0000 </r>
       <r>   47.9814    0.0000 </r>
       <r>   52.2279    0.0000 </r>
       <r>   53.1020    0.0000 </r>
       <r>   54.9194    0.0000 </r>
       <r>   55.6864    0.0000 </r>
       <r>   55.9629    0.0000 </r>
       <r>   57.9284    0.0000 </r>
       <r>   62.7337    0.0000 </r>
       <r>   65.1318    0.0000 </r>
      </set>
      <set comment="kpoint 25">
       <r>  -38.7537    1.0000 </r>
       <r>  -38.5119    1.0000 </r>
       <r>  -38.3146    1.0000 </r>
       <r>    7.7497    1.0000 </r>
       <r>    9.1174    1.0000 </r>
       <r>    9.4058    1.0000 </r>
       <r>   11.6083    1.0000 </r>
       <r>   12.8146    1.0000 </r>
       <r>   16.9708    0.0000 </r>
       <r>   26.0758    0.0000 </r>
       <r>   29.4125    0.0000 </r>
       <r>   32.4772    0.0000 </r>
       <r>   37.5646    0.0000 </r>
       <r>   38.2827    0.0000 </r>
       <r>   44.1826    0.0000 </r>
       <r>   48.6605    0.0000 </r>
       <r>   49.0178    0.0000 </r>
       <r>   50.9633    0.0000 </r>
       <r>   54.8641    0.0000 </r>
       <r>   54.9805    0.0000 </r>
       <r>   58.4534    0.0000 </r>
       <r>   61.7026    0.0000 </r>
       <r>   62.3966    0.0000 </r>
       <r>   63.7633    0.0000 </r>
      </set>
      <set comment="kpoint 26">
       <r>  -38.6738    1.0000 </r>
       <r>  -38.4086    1.0000 </r>
       <r>  -38.2750    1.0000 </r>
       <r>    6.7715    1.0000 </r>
       <r>    8.9289    1.0000 </r>
       <r>   10.0121    1.0000 </r>
       <r>   11.4358    1.0000 </r>
       <r>   12.1325    1.0000 </r>
       <r>   15.2158    0.0000 </r>
       <r>   28.1175    0.0000 </r>
       <r>   31.5834    0.0000 </r>
       <r>   33.3854    0.0000 </r>
       <r>   36.0543    0.0000 </r>
       <r>   40.4296    0.0000 </r>
       <r>   44.2691    0.0000 </r>
       <r>   45.6509    0.0000 </r>
       <r>   46.6371    0.0000 </r>
       <r>   51.4929    0.0000 </r>
       <r>   54.2549    0.0000 </r>
       <r>   54.9280    0.0000 </r>
       <r>   57.5654    0.0000 </r>
       <r>   62.2641    0.0000 </r>
       <r>   64.5656    0.0000 </r>
       <r>   65.0595    0.0000 </r>
      </set>
      <set comment="kpoint 27">
       <r>  -38.5896    1.0000 </r>
       <r>  -38.2957    1.0000 </r>
       <r>  -38.2534    1.0000 </r>
       <r>    5.5510    1.0000 </r>
       <r>    9.3296    1.0000 </r>
       <r>   10.4977    1.0000 </r>
       <r>   10.7781    1.0000 </r>
       <r>   12.4577    1.0000 </r>
       <r>   13.6241    1.0000 </r>
       <r>   28.8559    0.0000 </r>
       <r>   31.8022    0.0000 </r>
       <r>   36.3440    0.0000 </r>
       <r>   37.2285    0.0000 </r>
       <r>   40.2562    0.0000 </r>
       <r>   41.6823    0.0000 </r>
       <r>   43.2257    0.0000 </r>
       <r>   49.4246    0.0000 </r>
       <r>   51.6178    0.0000 </r>
       <r>   54.9157    0.0000 </r>
       <r>   55.4298    0.0000 </r>
       <r>   55.7314    0.0000 </r>
       <r>   60.1757    0.0000 </r>
       <r>   63.2883    0.0000 </r>
       <r>   67.5114    0.0000 </r>
      </set>
      <set comment="kpoint 28">
       <r>  -38.7300    1.0000 </r>
       <r>  -38.4081    1.0000 </r>
       <r>  -38.4032    1.0000 </r>
       <r>    6.6570    1.0000 </r>
       <r>    7.4631    1.0000 </r>
       <r>   11.6165    1.0000 </r>
       <r>   13.1439    1.0000 </r>
       <r>   13.6556    1.0000 </r>
       <r>   14.2946    1.0000 </r>
       <r>   29.8148    0.0000 </r>
       <r>   30.5221    0.0000 </r>
       <r>   31.7375    0.0000 </r>
       <r>   35.7631    0.0000 </r>
       <r>   36.9320    0.0000 </r>
       <r>   44.4032    0.0000 </r>
       <r>   44.9213    0.0000 </r>
       <r>   47.2592    0.0000 </r>
       <r>   51.7798    0.0000 </r>
       <r>   54.8802    0.0000 </r>
       <r>   54.9442    0.0000 </r>
       <r>   61.0069    0.0000 </r>
       <r>   61.6312    0.0000 </r>
       <r>   61.9205    0.0000 </r>
       <r>   66.7714    0.0000 </r>
      </set>
      <set comment="kpoint 29">
       <r>  -38.8088    1.0000 </r>
       <r>  -38.4651    1.0000 </r>
       <r>  -38.4318    1.0000 </r>
       <r>    6.7643    1.0000 </r>
       <r>    7.3000    1.0000 </r>
       <r>   11.7697    1.0000 </r>
       <r>   13.6341    1.0000 </r>
       <r>   14.5340    1.0000 </r>
       <r>   15.9616    0.0000 </r>
       <r>   26.8203    0.0000 </r>
       <r>   28.8234    0.0000 </r>
       <r>   30.0317    0.0000 </r>
       <r>   36.6609    0.0000 </r>
       <r>   38.5381    0.0000 </r>
       <r>   44.1291    0.0000 </r>
       <r>   47.1318    0.0000 </r>
       <r>   48.5585    0.0000 </r>
       <r>   52.2146    0.0000 </r>
       <r>   53.3235    0.0000 </r>
       <r>   54.9242    0.0000 </r>
       <r>   59.6958    0.0000 </r>
       <r>   61.9863    0.0000 </r>
       <r>   63.5930    0.0000 </r>
       <r>   64.3576    0.0000 </r>
      </set>
      <set comment="kpoint 30">
       <r>  -38.8249    1.0000 </r>
       <r>  -38.5574    1.0000 </r>
       <r>  -38.4345    1.0000 </r>
       <r>    6.9904    1.0000 </r>
       <r>    7.7676    1.0000 </r>
       <r>   11.2567    1.0000 </r>
       <r>   13.1167    1.0000 </r>
       <r>   14.9610    0.0000 </r>
       <r>   19.2250    0.0000 </r>
       <r>   22.9913    0.0000 </r>
       <r>   28.0285    0.0000 </r>
       <r>   29.4442    0.0000 </r>
       <r>   36.5110    0.0000 </r>
       <r>   41.4167    0.0000 </r>
       <r>   43.4142    0.0000 </r>
       <r>   46.8202    0.0000 </r>
       <r>   51.1158    0.0000 </r>
       <r>   52.8906    0.0000 </r>
       <r>   53.5604    0.0000 </r>
       <r>   54.9207    0.0000 </r>
       <r>   58.2403    0.0000 </r>
       <r>   60.4561    0.0000 </r>
       <r>   62.6920    0.0000 </r>
       <r>   64.0306    0.0000 </r>
      </set>
      <set comment="kpoint 31">
       <r>  -38.7577    1.0000 </r>
       <r>  -38.6669    1.0000 </r>
       <r>  -38.4063    1.0000 </r>
       <r>    7.4515    1.0000 </r>
       <r>    8.5274    1.0000 </r>
       <r>   10.4364    1.0000 </r>
       <r>   12.5403    1.0000 </r>
       <r>   14.3460    1.0000 </r>
       <r>   20.2338    0.0000 </r>
       <r>   23.0935    0.0000 </r>
       <r>   26.2307    0.0000 </r>
       <r>   31.2966    0.0000 </r>
       <r>   35.5226    0.0000 </r>
       <r>   42.1553    0.0000 </r>
       <r>   44.1721    0.0000 </r>
       <r>   45.0516    0.0000 </r>
       <r>   53.0430    0.0000 </r>
       <r>   53.3848    0.0000 </r>
       <r>   54.9180    0.0000 </r>
       <r>   56.3378    0.0000 </r>
       <r>   57.3711    0.0000 </r>
       <r>   59.0313    0.0000 </r>
       <r>   61.4947    0.0000 </r>
       <r>   63.7678    0.0000 </r>
      </set>
      <set comment="kpoint 32">
       <r>  -38.7629    1.0000 </r>
       <r>  -38.6176    1.0000 </r>
       <r>  -38.3600    1.0000 </r>
       <r>    7.9631    1.0000 </r>
       <r>    8.9498    1.0000 </r>
       <r>    9.6544    1.0000 </r>
       <r>   11.9304    1.0000 </r>
       <r>   13.6019    1.0000 </r>
       <r>   18.6003    0.0000 </r>
       <r>   24.7164    0.0000 </r>
       <r>   27.0973    0.0000 </r>
       <r>   32.7365    0.0000 </r>
       <r>   35.3337    0.0000 </r>
       <r>   40.2584    0.0000 </r>
       <r>   43.6696    0.0000 </r>
       <r>   47.7530    0.0000 </r>
       <r>   52.1580    0.0000 </r>
       <r>   54.6490    0.0000 </r>
       <r>   54.9161    0.0000 </r>
       <r>   55.2093    0.0000 </r>
       <r>   56.1538    0.0000 </r>
       <r>   58.7307    0.0000 </r>
       <r>   60.7190    0.0000 </r>
       <r>   65.2384    0.0000 </r>
      </set>
      <set comment="kpoint 33">
       <r>  -38.8079    1.0000 </r>
       <r>  -38.4564    1.0000 </r>
       <r>  -38.3143    1.0000 </r>
       <r>    7.1664    1.0000 </r>
       <r>    9.4142    1.0000 </r>
       <r>   10.0465    1.0000 </r>
       <r>   11.1093    1.0000 </r>
       <r>   13.4377    1.0000 </r>
       <r>   16.8507    0.0000 </r>
       <r>   24.6300    0.0000 </r>
       <r>   30.4365    0.0000 </r>
       <r>   32.0353    0.0000 </r>
       <r>   36.7771    0.0000 </r>
       <r>   39.7277    0.0000 </r>
       <r>   44.5244    0.0000 </r>
       <r>   47.5899    0.0000 </r>
       <r>   49.2354    0.0000 </r>
       <r>   53.0784    0.0000 </r>
       <r>   54.8796    0.0000 </r>
       <r>   54.9773    0.0000 </r>
       <r>   56.9545    0.0000 </r>
       <r>   61.0625    0.0000 </r>
       <r>   62.5525    0.0000 </r>
       <r>   64.6965    0.0000 </r>
      </set>
      <set comment="kpoint 34">
       <r>  -38.7945    1.0000 </r>
       <r>  -38.3280    1.0000 </r>
       <r>  -38.2884    1.0000 </r>
       <r>    6.2273    1.0000 </r>
       <r>   10.0610    1.0000 </r>
       <r>   10.4306    1.0000 </r>
       <r>   10.5597    1.0000 </r>
       <r>   13.6362    1.0000 </r>
       <r>   14.7516    0.7658 </r>
       <r>   25.5030    0.0000 </r>
       <r>   30.2812    0.0000 </r>
       <r>   34.9384    0.0000 </r>
       <r>   37.3453    0.0000 </r>
       <r>   40.6145    0.0000 </r>
       <r>   43.1242    0.0000 </r>
       <r>   43.8886    0.0000 </r>
       <r>   49.8624    0.0000 </r>
       <r>   54.8060    0.0000 </r>
       <r>   54.9376    0.0000 </r>
       <r>   55.8663    0.0000 </r>
       <r>   57.6499    0.0000 </r>
       <r>   59.2286    0.0000 </r>
       <r>   63.1394    0.0000 </r>
       <r>   64.6610    0.0000 </r>
      </set>
      <set comment="kpoint 35">
       <r>  -38.8722    1.0000 </r>
       <r>  -38.4726    1.0000 </r>
       <r>  -38.4625    1.0000 </r>
       <r>    6.3304    1.0000 </r>
       <r>    6.8517    1.0000 </r>
       <r>   13.9230    1.0000 </r>
       <r>   14.4239    1.0000 </r>
       <r>   15.0206    0.0000 </r>
       <r>   15.9395    0.0000 </r>
       <r>   26.3013    0.0000 </r>
       <r>   27.5633    0.0000 </r>
       <r>   27.7678    0.0000 </r>
       <r>   36.2454    0.0000 </r>
       <r>   39.5252    0.0000 </r>
       <r>   44.3592    0.0000 </r>
       <r>   49.0894    0.0000 </r>
       <r>   49.5296    0.0000 </r>
       <r>   51.8726    0.0000 </r>
       <r>   53.9015    0.0000 </r>
       <r>   54.9263    0.0000 </r>
       <r>   59.6290    0.0000 </r>
       <r>   59.7559    0.0000 </r>
       <r>   61.8123    0.0000 </r>
       <r>   62.6683    0.0000 </r>
      </set>
      <set comment="kpoint 36">
       <r>  -38.8834    1.0000 </r>
       <r>  -38.5112    1.0000 </r>
       <r>  -38.4743    1.0000 </r>
       <r>    6.4177    1.0000 </r>
       <r>    6.9364    1.0000 </r>
       <r>   13.3177    1.0000 </r>
       <r>   14.3094    1.0000 </r>
       <r>   15.2867    0.0000 </r>
       <r>   18.3407    0.0000 </r>
       <r>   24.1464    0.0000 </r>
       <r>   26.6097    0.0000 </r>
       <r>   27.4817    0.0000 </r>
       <r>   37.4160    0.0000 </r>
       <r>   39.9942    0.0000 </r>
       <r>   43.6501    0.0000 </r>
       <r>   49.1102    0.0000 </r>
       <r>   51.9268    0.0000 </r>
       <r>   52.4253    0.0000 </r>
       <r>   54.1040    0.0000 </r>
       <r>   54.9188    0.0000 </r>
       <r>   57.8413    0.0000 </r>
       <r>   59.1839    0.0000 </r>
       <r>   59.7864    0.0000 </r>
       <r>   61.6855    0.0000 </r>
      </set>
      <set comment="kpoint 37">
       <r>  -38.8286    1.0000 </r>
       <r>  -38.5898    1.0000 </r>
       <r>  -38.4468    1.0000 </r>
       <r>    6.8870    1.0000 </r>
       <r>    7.6374    1.0000 </r>
       <r>   11.7159    1.0000 </r>
       <r>   13.4266    1.0000 </r>
       <r>   14.9424    0.0000 </r>
       <r>   20.6730    0.0000 </r>
       <r>   22.2053    0.0000 </r>
       <r>   26.5446    0.0000 </r>
       <r>   29.0087    0.0000 </r>
       <r>   37.1016    0.0000 </r>
       <r>   41.6865    0.0000 </r>
       <r>   43.0656    0.0000 </r>
       <r>   46.4900    0.0000 </r>
       <r>   52.6112    0.0000 </r>
       <r>   53.0792    0.0000 </r>
       <r>   54.8923    0.0000 </r>
       <r>   54.9256    0.0000 </r>
       <r>   56.8596    0.0000 </r>
       <r>   60.3620    0.0000 </r>
       <r>   61.0845    0.0000 </r>
       <r>   63.3310    0.0000 </r>
      </set>
      <set comment="kpoint 38">
       <r>  -38.8091    1.0000 </r>
       <r>  -38.5891    1.0000 </r>
       <r>  -38.3977    1.0000 </r>
       <r>    7.4334    1.0000 </r>
       <r>    8.5848    1.0000 </r>
       <r>   10.3645    1.0000 </r>
       <r>   12.1680    1.0000 </r>
       <r>   14.5826    1.0000 </r>
       <r>   20.6793    0.0000 </r>
       <r>   21.1470    0.0000 </r>
       <r>   28.2493    0.0000 </r>
       <r>   31.3680    0.0000 </r>
       <r>   34.8616    0.0000 </r>
       <r>   42.4805    0.0000 </r>
       <r>   44.4484    0.0000 </r>
       <r>   45.7126    0.0000 </r>
       <r>   51.3730    0.0000 </r>
       <r>   53.2972    0.0000 </r>
       <r>   54.9155    0.0000 </r>
       <r>   55.1280    0.0000 </r>
       <r>   58.1227    0.0000 </r>
       <r>   59.2868    0.0000 </r>
       <r>   62.6159    0.0000 </r>
       <r>   64.8859    0.0000 </r>
      </set>
      <set comment="kpoint 39">
       <r>  -38.8788    1.0000 </r>
       <r>  -38.4590    1.0000 </r>
       <r>  -38.3458    1.0000 </r>
       <r>    7.0467    1.0000 </r>
       <r>    9.1317    1.0000 </r>
       <r>   10.9742    1.0000 </r>
       <r>   10.9960    1.0000 </r>
       <r>   14.4836    1.0000 </r>
       <r>   18.5127    0.0000 </r>
       <r>   21.4260    0.0000 </r>
       <r>   30.1139    0.0000 </r>
       <r>   32.1604    0.0000 </r>
       <r>   34.2575    0.0000 </r>
       <r>   42.9401    0.0000 </r>
       <r>   44.2836    0.0000 </r>
       <r>   48.3301    0.0000 </r>
       <r>   51.1324    0.0000 </r>
       <r>   52.4688    0.0000 </r>
       <r>   54.9221    0.0000 </r>
       <r>   55.3786    0.0000 </r>
       <r>   56.9263    0.0000 </r>
       <r>   57.5264    0.0000 </r>
       <r>   63.6326    0.0000 </r>
       <r>   65.3911    0.0000 </r>
      </set>
      <set comment="kpoint 40">
       <r>  -38.9193    1.0000 </r>
       <r>  -38.3432    1.0000 </r>
       <r>  -38.3137    1.0000 </r>
       <r>    6.2553    1.0000 </r>
       <r>    9.7828    1.0000 </r>
       <r>   10.2651    1.0000 </r>
       <r>   12.1656    1.0000 </r>
       <r>   14.6328    1.0000 </r>
       <r>   16.0296    0.0000 </r>
       <r>   22.1690    0.0000 </r>
       <r>   29.2142    0.0000 </r>
       <r>   33.8813    0.0000 </r>
       <r>   34.9247    0.0000 </r>
       <r>   43.7169    0.0000 </r>
       <r>   45.1330    0.0000 </r>
       <r>   46.4123    0.0000 </r>
       <r>   51.0718    0.0000 </r>
       <r>   53.2279    0.0000 </r>
       <r>   54.2211    0.0000 </r>
       <r>   54.9181    0.0000 </r>
       <r>   58.1786    0.0000 </r>
       <r>   60.6248    0.0000 </r>
       <r>   63.4798    0.0000 </r>
       <r>   64.1368    0.0000 </r>
      </set>
      <set comment="kpoint 41">
       <r>  -38.9028    1.0000 </r>
       <r>  -38.4863    1.0000 </r>
       <r>  -38.4755    1.0000 </r>
       <r>    6.1976    1.0000 </r>
       <r>    6.7237    1.0000 </r>
       <r>   14.5854    1.0000 </r>
       <r>   14.6654    0.9992 </r>
       <r>   15.3131    0.0000 </r>
       <r>   16.9408    0.0000 </r>
       <r>   24.9774    0.0000 </r>
       <r>   26.7533    0.0000 </r>
       <r>   26.8353    0.0000 </r>
       <r>   36.6307    0.0000 </r>
       <r>   40.1371    0.0000 </r>
       <r>   43.9585    0.0000 </r>
       <r>   50.2736    0.0000 </r>
       <r>   51.7992    0.0000 </r>
       <r>   51.9580    0.0000 </r>
       <r>   54.5424    0.0000 </r>
       <r>   54.9305    0.0000 </r>
       <r>   56.7413    0.0000 </r>
       <r>   57.3428    0.0000 </r>
       <r>   61.5292    0.0000 </r>
       <r>   62.8630    0.0000 </r>
      </set>
      <set comment="kpoint 42">
       <r>  -38.8578    1.0000 </r>
       <r>  -38.4947    1.0000 </r>
       <r>  -38.4600    1.0000 </r>
       <r>    6.5536    1.0000 </r>
       <r>    7.0596    1.0000 </r>
       <r>   12.6916    1.0000 </r>
       <r>   14.1388    1.0000 </r>
       <r>   14.9924    0.0000 </r>
       <r>   17.2520    0.0000 </r>
       <r>   25.2678    0.0000 </r>
       <r>   27.4814    0.0000 </r>
       <r>   28.4006    0.0000 </r>
       <r>   37.0448    0.0000 </r>
       <r>   39.4703    0.0000 </r>
       <r>   43.9231    0.0000 </r>
       <r>   48.7072    0.0000 </r>
       <r>   49.8998    0.0000 </r>
       <r>   52.2242    0.0000 </r>
       <r>   53.6875    0.0000 </r>
       <r>   54.9232    0.0000 </r>
       <r>   59.2587    0.0000 </r>
       <r>   59.9030    0.0000 </r>
       <r>   61.4964    0.0000 </r>
       <r>   62.6562    0.0000 </r>
      </set>
      <set comment="kpoint 43">
       <r>  -38.8110    1.0000 </r>
       <r>  -38.5037    1.0000 </r>
       <r>  -38.4107    1.0000 </r>
       <r>    7.1200    1.0000 </r>
       <r>    8.0377    1.0000 </r>
       <r>   10.5954    1.0000 </r>
       <r>   12.5888    1.0000 </r>
       <r>   14.8702    0.0043 </r>
       <r>   17.5303    0.0000 </r>
       <r>   24.2137    0.0000 </r>
       <r>   29.7876    0.0000 </r>
       <r>   30.3090    0.0000 </r>
       <r>   35.8370    0.0000 </r>
       <r>   41.1204    0.0000 </r>
       <r>   43.6315    0.0000 </r>
       <r>   46.6061    0.0000 </r>
       <r>   50.0292    0.0000 </r>
       <r>   51.7342    0.0000 </r>
       <r>   53.4498    0.0000 </r>
       <r>   54.9213    0.0000 </r>
       <r>   58.7967    0.0000 </r>
       <r>   61.5098    0.0000 </r>
       <r>   63.9630    0.0000 </r>
       <r>   65.7499    0.0000 </r>
      </set>
      <set comment="kpoint 44">
       <r>  -38.8517    1.0000 </r>
       <r>  -38.4289    1.0000 </r>
       <r>  -38.3543    1.0000 </r>
       <r>    6.9745    1.0000 </r>
       <r>    9.1914    1.0000 </r>
       <r>   10.3282    1.0000 </r>
       <r>   11.1767    1.0000 </r>
       <r>   14.7487    0.7904 </r>
       <r>   17.0963    0.0000 </r>
       <r>   23.0099    0.0000 </r>
       <r>   30.5353    0.0000 </r>
       <r>   32.3514    0.0000 </r>
       <r>   34.6733    0.0000 </r>
       <r>   42.4815    0.0000 </r>
       <r>   45.3954    0.0000 </r>
       <r>   46.2435    0.0000 </r>
       <r>   48.0858    0.0000 </r>
       <r>   53.9687    0.0000 </r>
       <r>   54.3403    0.0000 </r>
       <r>   54.9195    0.0000 </r>
       <r>   57.4775    0.0000 </r>
       <r>   61.2213    0.0000 </r>
       <r>   62.9780    0.0000 </r>
       <r>   65.7746    0.0000 </r>
      </set>
      <set comment="kpoint 45">
       <r>  -38.8125    1.0000 </r>
       <r>  -38.4457    1.0000 </r>
       <r>  -38.4379    1.0000 </r>
       <r>    6.5369    1.0000 </r>
       <r>    7.1021    1.0000 </r>
       <r>   12.7865    1.0000 </r>
       <r>   13.8807    1.0000 </r>
       <r>   14.6535    0.9998 </r>
       <r>   14.7363    0.8765 </r>
       <r>   28.0286    0.0000 </r>
       <r>   28.8618    0.0000 </r>
       <r>   29.6712    0.0000 </r>
       <r>   35.7581    0.0000 </r>
       <r>   38.3947    0.0000 </r>
       <r>   44.9500    0.0000 </r>
       <r>   46.9119    0.0000 </r>
       <r>   47.4621    0.0000 </r>
       <r>   52.7959    0.0000 </r>
       <r>   53.3102    0.0000 </r>
       <r>   54.9230    0.0000 </r>
       <r>   61.6430    0.0000 </r>
       <r>   62.1129    0.0000 </r>
       <r>   63.1064    0.0000 </r>
       <r>   63.3104    0.0000 </r>
      </set>
      <set comment="kpoint 46">
       <r>  -38.7397    1.0000 </r>
       <r>  -38.4254    1.0000 </r>
       <r>  -38.3928    1.0000 </r>
       <r>    6.8840    1.0000 </r>
       <r>    7.6423    1.0000 </r>
       <r>   10.8854    1.0000 </r>
       <r>   12.9421    1.0000 </r>
       <r>   13.8429    1.0000 </r>
       <r>   14.9702    0.0000 </r>
       <r>   28.4843    0.0000 </r>
       <r>   30.4396    0.0000 </r>
       <r>   31.6650    0.0000 </r>
       <r>   36.4627    0.0000 </r>
       <r>   37.8163    0.0000 </r>
       <r>   43.5953    0.0000 </r>
       <r>   45.3495    0.0000 </r>
       <r>   48.5449    0.0000 </r>
       <r>   50.8616    0.0000 </r>
       <r>   54.7529    0.0000 </r>
       <r>   54.9325    0.0000 </r>
       <r>   59.8804    0.0000 </r>
       <r>   61.7641    0.0000 </r>
       <r>   62.7845    0.0000 </r>
       <r>   66.4801    0.0000 </r>
      </set>
      <set comment="kpoint 47">
       <r>  -38.7318    1.0000 </r>
       <r>  -38.3847    1.0000 </r>
       <r>  -38.3337    1.0000 </r>
       <r>    6.8210    1.0000 </r>
       <r>    8.8051    1.0000 </r>
       <r>    9.8958    1.0000 </r>
       <r>   11.4752    1.0000 </r>
       <r>   13.7881    1.0000 </r>
       <r>   14.9862    0.0000 </r>
       <r>   27.0361    0.0000 </r>
       <r>   31.6688    0.0000 </r>
       <r>   32.9561    0.0000 </r>
       <r>   35.9763    0.0000 </r>
       <r>   40.9398    0.0000 </r>
       <r>   42.9093    0.0000 </r>
       <r>   44.7578    0.0000 </r>
       <r>   47.6162    0.0000 </r>
       <r>   52.0524    0.0000 </r>
       <r>   54.9156    0.0000 </r>
       <r>   55.7260    0.0000 </r>
       <r>   58.6593    0.0000 </r>
       <r>   59.6149    0.0000 </r>
       <r>   63.5611    0.0000 </r>
       <r>   66.7710    0.0000 </r>
      </set>
      <set comment="kpoint 48">
       <r>  -38.6304    1.0000 </r>
       <r>  -38.3639    1.0000 </r>
       <r>  -38.3620    1.0000 </r>
       <r>    6.4121    1.0000 </r>
       <r>    7.9142    1.0000 </r>
       <r>   10.9334    1.0000 </r>
       <r>   12.3777    1.0000 </r>
       <r>   12.7189    1.0000 </r>
       <r>   13.9312    1.0000 </r>
       <r>   31.3558    0.0000 </r>
       <r>   32.3161    0.0000 </r>
       <r>   32.9818    0.0000 </r>
       <r>   35.2003    0.0000 </r>
       <r>   37.4124    0.0000 </r>
       <r>   43.0708    0.0000 </r>
       <r>   43.3852    0.0000 </r>
       <r>   48.6935    0.0000 </r>
       <r>   50.9442    0.0000 </r>
       <r>   54.8383    0.0000 </r>
       <r>   54.9304    0.0000 </r>
       <r>   59.1908    0.0000 </r>
       <r>   60.9241    0.0000 </r>
       <r>   61.4310    0.0000 </r>
       <r>   70.0545    0.0000 </r>
      </set>
      <set comment="kpoint 49">
       <r>  -38.5630    1.0000 </r>
       <r>  -38.3345    1.0000 </r>
       <r>  -38.2992    1.0000 </r>
       <r>    5.9086    1.0000 </r>
       <r>    8.5314    1.0000 </r>
       <r>   10.5380    1.0000 </r>
       <r>   11.5973    1.0000 </r>
       <r>   12.2530    1.0000 </r>
       <r>   13.7932    1.0000 </r>
       <r>   30.6175    0.0000 </r>
       <r>   32.9214    0.0000 </r>
       <r>   34.2948    0.0000 </r>
       <r>   34.9711    0.0000 </r>
       <r>   40.5788    0.0000 </r>
       <r>   42.0684    0.0000 </r>
       <r>   43.2797    0.0000 </r>
       <r>   49.0006    0.0000 </r>
       <r>   51.3145    0.0000 </r>
       <r>   52.8325    0.0000 </r>
       <r>   54.9198    0.0000 </r>
       <r>   57.1353    0.0000 </r>
       <r>   61.1855    0.0000 </r>
       <r>   63.0505    0.0000 </r>
       <r>   69.3388    0.0000 </r>
      </set>
      <set comment="kpoint 50">
       <r>  -38.4209    1.0000 </r>
       <r>  -38.2774    1.0000 </r>
       <r>  -38.2735    1.0000 </r>
       <r>    4.8104    1.0000 </r>
       <r>    8.9556    1.0000 </r>
       <r>   10.9729    1.0000 </r>
       <r>   11.0739    1.0000 </r>
       <r>   11.6544    1.0000 </r>
       <r>   13.2591    1.0000 </r>
       <r>   31.8633    0.0000 </r>
       <r>   32.2090    0.0000 </r>
       <r>   34.8702    0.0000 </r>
       <r>   35.2359    0.0000 </r>
       <r>   41.9276    0.0000 </r>
       <r>   42.7028    0.0000 </r>
       <r>   44.2571    0.0000 </r>
       <r>   48.5273    0.0000 </r>
       <r>   49.7958    0.0000 </r>
       <r>   52.8004    0.0000 </r>
       <r>   54.9176    0.0000 </r>
       <r>   58.4852    0.0000 </r>
       <r>   58.9021    0.0000 </r>
       <r>   62.0954    0.0000 </r>
       <r>   70.5210    0.0000 </r>
      </set>
      <set comment="kpoint 51">
       <r>  -38.3609    1.0000 </r>
       <r>  -38.2220    1.0000 </r>
       <r>  -38.2220    1.0000 </r>
       <r>    3.9840    1.0000 </r>
       <r>    9.6896    1.0000 </r>
       <r>   10.4340    1.0000 </r>
       <r>   10.4340    1.0000 </r>
       <r>   12.5965    1.0000 </r>
       <r>   12.5965    1.0000 </r>
       <r>   30.4090    0.0000 </r>
       <r>   31.4602    0.0000 </r>
       <r>   36.2373    0.0000 </r>
       <r>   36.2373    0.0000 </r>
       <r>   42.1190    0.0000 </r>
       <r>   45.1984    0.0000 </r>
       <r>   45.1984    0.0000 </r>
       <r>   45.9916    0.0000 </r>
       <r>   53.4515    0.0000 </r>
       <r>   53.4515    0.0000 </r>
       <r>   54.9130    0.0000 </r>
       <r>   56.8137    0.0000 </r>
       <r>   59.4150    0.0000 </r>
       <r>   59.4150    0.0000 </r>
       <r>   66.6574    0.0000 </r>
      </set>
      <set comment="kpoint 52">
       <r>  -38.4561    1.0000 </r>
       <r>  -38.2828    1.0000 </r>
       <r>  -38.2258    1.0000 </r>
       <r>    4.7796    1.0000 </r>
       <r>    9.3306    1.0000 </r>
       <r>   10.6113    1.0000 </r>
       <r>   10.7615    1.0000 </r>
       <r>   12.0198    1.0000 </r>
       <r>   13.2352    1.0000 </r>
       <r>   30.5844    0.0000 </r>
       <r>   31.5255    0.0000 </r>
       <r>   35.2566    0.0000 </r>
       <r>   38.4362    0.0000 </r>
       <r>   38.8223    0.0000 </r>
       <r>   44.0988    0.0000 </r>
       <r>   45.8330    0.0000 </r>
       <r>   48.2364    0.0000 </r>
       <r>   48.6065    0.0000 </r>
       <r>   54.4059    0.0000 </r>
       <r>   54.9229    0.0000 </r>
       <r>   56.1692    0.0000 </r>
[...]
       </set>
       <set comment="band 3">
        <r>  0.0000  0.4978  0.0000  0.4978  0.0000  0.0000  0.0000  0.0000  0.0000 </r>
       </set>
       <set comment="band 4">
        <r>  0.1560  0.0000  0.0073  0.0000  0.2025  0.1445  0.0048  0.1445  0.0000 </r>
       </set>
       <set comment="band 5">
        <r>  0.0001  0.0016  0.0000  0.0016  0.1221  0.0745  0.5403  0.0745  0.0000 </r>
       </set>
       <set comment="band 6">
        <r>  0.0000  0.0009  0.0000  0.0009  0.0000  0.1841  0.0000  0.1841  0.4801 </r>
       </set>
       <set comment="band 7">
        <r>  0.0384  0.0315  0.0321  0.0315  0.3547  0.0083  0.0624  0.0083  0.0000 </r>
       </set>
       <set comment="band 8">
        <r>  0.0000  0.0001  0.0000  0.0001  0.0000  0.2735  0.0000  0.2735  0.4113 </r>
       </set>
       <set comment="band 9">
        <r>  0.0342  0.0171  0.0347  0.0171  0.0987  0.1451  0.2488  0.1451  0.0000 </r>
       </set>
       <set comment="band 10">
        <r>  0.3136  0.0217  0.0137  0.0217  0.1072  0.1003  0.0033  0.1003  0.0000 </r>
       </set>
       <set comment="band 11">
        <r>  0.0036  0.0039  0.0114  0.0039  0.0248  0.0001  0.0215  0.0001  0.0000 </r>
       </set>
       <set comment="band 12">
        <r>  0.0000  0.1182  0.0000  0.1182  0.0000  0.0132  0.0000  0.0132  0.0123 </r>
       </set>
       <set comment="band 13">
        <r>  0.0130  0.0333  0.1351  0.0333  0.0541  0.0059  0.0414  0.0059  0.0000 </r>
       </set>
       <set comment="band 14">
        <r>  0.0000  0.0058  0.0000  0.0058  0.0000  0.0318  0.0000  0.0318  0.1901 </r>
       </set>
       <set comment="band 15">
        <r>  0.0085  0.0295  0.0023  0.0295  0.0108  0.0290  0.1215  0.0290  0.0000 </r>
       </set>
       <set comment="band 16">
        <r>  0.0315  0.0131  0.0003  0.0131  0.1240  0.0029  0.1555  0.0029  0.0000 </r>
       </set>
       <set comment="band 17">
        <r>  0.1059  0.0476  0.1466  0.0476  0.0139  0.0379  0.0006  0.0379  0.0000 </r>
       </set>
       <set comment="band 18">
        <r>  0.0632  0.0032  0.0740  0.0032  0.0169  0.0430  0.0001  0.0430  0.0000 </r>
       </set>
       <set comment="band 19">
        <r>  6.2544  0.0000  0.0001  0.0000  0.0000  0.0002  0.0000  0.0002  0.0000 </r>
       </set>
       <set comment="band 20">
        <r>  0.0000  0.0676  0.0000  0.0676  0.0000  0.0620  0.0000  0.0620  0.1109 </r>
       </set>
       <set comment="band 21">
        <r>  0.0000  0.1899  0.0000  0.1899  0.0000  0.0111  0.0000  0.0111  0.0155 </r>
       </set>
       <set comment="band 22">
        <r>  0.0000  0.0086  0.1001  0.0086  0.0253  0.0032  0.0518  0.0032  0.0000 </r>
       </set>
       <set comment="band 23">
        <r>  0.0000  0.0011  0.0312  0.0011  0.1009  0.0042  0.0004  0.0042  0.0000 </r>
       </set>
       <set comment="band 24">
        <r>  0.1196  0.0022  0.0061  0.0022  0.1664  0.0071  0.0008  0.0071  0.0000 </r>
       </set>
      </set>
      <set comment="kpoint 106">
       <set comment="band 1">
        <r>  0.0000  0.2955  0.4025  0.2816  0.0000  0.0000  0.0000  0.0000  0.0000 </r>
       </set>
       <set comment="band 2">
        <r>  0.0000  0.0038  0.3674  0.6209  0.0001  0.0000  0.0000  0.0001  0.0000 </r>
       </set>
       <set comment="band 3">
        <r>  0.0000  0.6911  0.2177  0.0863  0.0000  0.0000  0.0000  0.0000  0.0000 </r>
       </set>
       <set comment="band 4">
        <r>  0.1190  0.0004  0.0091  0.0044  0.2335  0.1929  0.0068  0.1080  0.0013 </r>
       </set>
       <set comment="band 5">
        <r>  0.0001  0.0079  0.0002  0.0004  0.0620  0.1297  0.4460  0.0013  0.1211 </r>
       </set>
       <set comment="band 6">
        <r>  0.0090  0.0151  0.0134  0.0262  0.1650  0.1767  0.1447  0.0798  0.0651 </r>
       </set>
       <set comment="band 7">
        <r>  0.0047  0.0079  0.0171  0.0022  0.1767  0.0044  0.0326  0.1664  0.3712 </r>
       </set>
       <set comment="band 8">
        <r>  0.0010  0.0002  0.0019  0.0008  0.0883  0.0832  0.0711  0.4514  0.2387 </r>
       </set>
       <set comment="band 9">
        <r>  0.0603  0.0255  0.0493  0.0260  0.0289  0.2712  0.1381  0.0106  0.0655 </r>
       </set>
       <set comment="band 10">
        <r>  0.3381  0.0143  0.0079  0.0264  0.1226  0.0574  0.0052  0.1059  0.0180 </r>
       </set>
       <set comment="band 11">
        <r>  0.0000  0.0030  0.0107  0.0237  0.0338  0.0177  0.0565  0.0038  0.0185 </r>
       </set>
       <set comment="band 12">
        <r>  0.0290  0.0142  0.0735  0.1348  0.0312  0.0120  0.0117  0.0387  0.0321 </r>
       </set>
       <set comment="band 13">
        <r>  0.0038  0.1443  0.0665  0.0043  0.0177  0.0020  0.0494  0.0001  0.0002 </r>
       </set>
       <set comment="band 14">
        <r>  0.0010  0.0022  0.0056  0.0227  0.0255  0.0543  0.0015  0.0126  0.1079 </r>
       </set>
       <set comment="band 15">
        <r>  0.0010  0.0002  0.0083  0.0030  0.0943  0.0052  0.1522  0.0205  0.0000 </r>
       </set>
       <set comment="band 16">
        <r>  0.0956  0.0301  0.0000  0.0060  0.0406  0.0021  0.0084  0.0570  0.0044 </r>
       </set>
       <set comment="band 17">
        <r>  0.1088  0.1020  0.0671  0.0257  0.0018  0.0520  0.0292  0.0019  0.0471 </r>
       </set>
       <set comment="band 18">
        <r>  0.0061  0.0663  0.0730  0.0181  0.0055  0.0222  0.0032  0.0232  0.0328 </r>
       </set>
       <set comment="band 19">
        <r>  6.2815  0.0002  0.0001  0.0001  0.0000  0.0000  0.0001  0.0000  0.0000 </r>
       </set>
       <set comment="band 20">
        <r>  0.0042  0.0359  0.0001  0.0548  0.0001  0.0476  0.0007  0.0024  0.0027 </r>
       </set>
       <set comment="band 21">
        <r>  0.0273  0.0990  0.0241  0.0610  0.0007  0.0600  0.0557  0.0032  0.0633 </r>
       </set>
       <set comment="band 22">
        <r>  0.0007  0.0013  0.0209  0.0038  0.0651  0.0015  0.0118  0.0002  0.0134 </r>
       </set>
       <set comment="band 23">
        <r>  0.0208  0.0184  0.0408  0.0016  0.0205  0.0000  0.0062  0.0326  0.0488 </r>
       </set>
       <set comment="band 24">
        <r>  0.0101  0.0077  0.0919  0.0355  0.0287  0.0555  0.0061  0.0035  0.0069 </r>
       </set>
      </set>
      <set comment="kpoint 107">
       <set comment="band 1">
        <r>  0.0000  0.2472  0.3543  0.3801  0.0001  0.0001  0.0000  0.0000  0.0000 </r>
       </set>
       <set comment="band 2">
        <r>  0.0000  0.0518  0.3576  0.5788  0.0001  0.0001  0.0000  0.0001  0.0000 </r>
       </set>
       <set comment="band 3">
        <r>  0.0000  0.6914  0.2755  0.0269  0.0000  0.0000  0.0001  0.0000  0.0000 </r>
       </set>
       <set comment="band 4">
        <r>  0.0616  0.0001  0.0077  0.0067  0.0805  0.4061  0.0353  0.0360  0.0801 </r>
       </set>
       <set comment="band 5">
        <r>  0.0079  0.0171  0.0083  0.0017  0.1120  0.0077  0.3365  0.0195  0.1796 </r>
       </set>
       <set comment="band 6">
        <r>  0.0002  0.0097  0.0139  0.0314  0.3715  0.2079  0.0132  0.0309  0.0132 </r>
       </set>
       <set comment="band 7">
        <r>  0.0021  0.0003  0.0054  0.0027  0.0070  0.0005  0.2886  0.1394  0.4055 </r>
       </set>
       <set comment="band 8">
        <r>  0.0067  0.0000  0.0000  0.0006  0.1532  0.0304  0.0592  0.6044  0.0799 </r>
       </set>
       <set comment="band 9">
        <r>  0.2087  0.0213  0.0537  0.0167  0.0014  0.2141  0.0719  0.0142  0.0124 </r>
       </set>
       <set comment="band 10">
        <r>  0.2099  0.0147  0.0138  0.0718  0.1552  0.0004  0.0230  0.0835  0.0740 </r>
       </set>
       <set comment="band 11">
        <r>  0.0648  0.0179  0.0383  0.1262  0.0664  0.0059  0.0154  0.0417  0.1147 </r>
       </set>
       <set comment="band 12">
        <r>  0.0133  0.0380  0.1134  0.0005  0.0008  0.0557  0.1495  0.0037  0.0016 </r>
       </set>
       <set comment="band 13">
        <r>  0.0007  0.1228  0.0104  0.0059  0.0055  0.0454  0.0114  0.0000  0.0049 </r>
       </set>
       <set comment="band 14">
        <r>  0.0029  0.0003  0.0032  0.0116  0.0791  0.0515  0.0045  0.0081  0.0324 </r>
       </set>
       <set comment="band 15">
        <r>  0.0001  0.0001  0.0024  0.0123  0.0345  0.0140  0.0384  0.0149  0.0047 </r>
       </set>
       <set comment="band 16">
        <r>  0.1458  0.0936  0.0065  0.0019  0.0270  0.0230  0.0009  0.0052  0.0249 </r>
       </set>
       <set comment="band 17">
        <r>  0.0890  0.1277  0.0001  0.0000  0.0003  0.0611  0.0251  0.0116  0.0177 </r>
       </set>
       <set comment="band 18">
        <r>  0.0387  0.0054  0.0494  0.0241  0.0004  0.0308  0.0003  0.0184  0.1080 </r>
       </set>
       <set comment="band 19">
        <r>  6.2770  0.0000  0.0000  0.0000  0.0000  0.0000  0.0000  0.0000  0.0000 </r>
       </set>
       <set comment="band 20">
        <r>  0.0028  0.0151  0.0456  0.0000  0.0116  0.0123  0.0522  0.0018  0.0015 </r>
       </set>
       <set comment="band 21">
        <r>  0.0008  0.0234  0.0012  0.0366  0.0247  0.0138  0.0079  0.0066  0.0366 </r>
       </set>
       <set comment="band 22">
        <r>  0.0018  0.0528  0.0483  0.0002  0.0001  0.0462  0.0889  0.0032  0.0050 </r>
       </set>
       <set comment="band 23">
        <r>  0.0090  0.0000  0.0440  0.0570  0.0220  0.0313  0.0036  0.0188  0.0129 </r>
       </set>
       <set comment="band 24">
        <r>  0.0098  0.0067  0.0427  0.0052  0.0031  0.0008  0.0153  0.0161  0.0279 </r>
       </set>
      </set>
      <set comment="kpoint 108">
       <set comment="band 1">
        <r>  0.0000  0.2824  0.4150  0.2824  0.0000  0.0000  0.0000  0.0000  0.0000 </r>
       </set>
       <set comment="band 2">
        <r>  0.0000  0.2099  0.5713  0.2099  0.0000  0.0001  0.0000  0.0001  0.0000 </r>
       </set>
       <set comment="band 3">
        <r>  0.0000  0.4974  0.0000  0.4974  0.0000  0.0000  0.0000  0.0000  0.0000 </r>
       </set>
       <set comment="band 4">
        <r>  0.0974  0.0017  0.0085  0.0017  0.3523  0.0944  0.0429  0.0944  0.0000 </r>
       </set>
       <set comment="band 5">
        <r>  0.0017  0.0092  0.0006  0.0092  0.0060  0.0665  0.5688  0.0665  0.0000 </r>
       </set>
       <set comment="band 6">
        <r>  0.0079  0.0169  0.0340  0.0169  0.3044  0.1257  0.0319  0.1257  0.0000 </r>
       </set>
       <set comment="band 7">
        <r>  0.0000  0.0021  0.0000  0.0021  0.0000  0.1415  0.0000  0.1415  0.5669 </r>
       </set>
       <set comment="band 8">
        <r>  0.0000  0.0001  0.0000  0.0001  0.0000  0.3218  0.0000  0.3218  0.3081 </r>
       </set>
       <set comment="band 9">
        <r>  0.0002  0.0430  0.0712  0.0430  0.1105  0.0530  0.1813  0.0530  0.0000 </r>
       </set>
       <set comment="band 10">
        <r>  0.4156  0.0031  0.0022  0.0031  0.0964  0.1176  0.0046  0.1176  0.0000 </r>
       </set>
       <set comment="band 11">
        <r>  0.0206  0.0062  0.0819  0.0062  0.0021  0.0301  0.1323  0.0301  0.0000 </r>
       </set>
       <set comment="band 12">
        <r>  0.0251  0.0406  0.0572  0.0406  0.0950  0.0079  0.0031  0.0079  0.0000 </r>
       </set>
       <set comment="band 13">
        <r>  0.0000  0.1238  0.0000  0.1238  0.0000  0.0021  0.0000  0.0021  0.0789 </r>
       </set>
       <set comment="band 14">
        <r>  0.0000  0.0037  0.0000  0.0037  0.0000  0.0552  0.0000  0.0552  0.1074 </r>
       </set>
       <set comment="band 15">
        <r>  0.0027  0.0012  0.0314  0.0012  0.1048  0.0000  0.0998  0.0000  0.0000 </r>
       </set>
       <set comment="band 16">
        <r>  0.1781  0.0404  0.0151  0.0404  0.0026  0.0218  0.0415  0.0218  0.0000 </r>
       </set>
       <set comment="band 17">
        <r>  0.0262  0.0392  0.0117  0.0392  0.0185  0.0287  0.0138  0.0287  0.0000 </r>
       </set>
       <set comment="band 18">
        <r>  0.0356  0.0037  0.0517  0.0037  0.0862  0.0059  0.0958  0.0059  0.0000 </r>
       </set>
       <set comment="band 19">
        <r>  6.2757  0.0000  0.0000  0.0000  0.0000  0.0000  0.0001  0.0000  0.0000 </r>
       </set>
       <set comment="band 20">
        <r>  0.0000  0.0130  0.0000  0.0130  0.0000  0.0206  0.0000  0.0206  0.0083 </r>
       </set>
       <set comment="band 21">
        <r>  0.0000  0.1968  0.0000  0.1968  0.0000  0.0014  0.0000  0.0014  0.1436 </r>
       </set>
       <set comment="band 22">
        <r>  0.0004  0.0033  0.0286  0.0033  0.0643  0.0040  0.0057  0.0040  0.0000 </r>
       </set>
       <set comment="band 23">
        <r>  0.0519  0.0082  0.0324  0.0082  0.1196  0.0227  0.0008  0.0227  0.0000 </r>
       </set>
       <set comment="band 24">
        <r>  0.0000  0.0507  0.0000  0.0507  0.0000  0.0104  0.0000  0.0104  0.0386 </r>
       </set>
      </set>
      <set comment="kpoint 109">
       <set comment="band 1">
        <r>  0.0000  0.3259  0.3259  0.3259  0.0000  0.0000  0.0000  0.0000  0.0000 </r>
       </set>
       <set comment="band 2">
        <r>  0.0000  0.1246  0.6406  0.2311  0.0000  0.0000  0.0000  0.0000  0.0000 </r>
       </set>
       <set comment="band 3">
        <r>  0.0000  0.5396  0.0236  0.4331  0.0000  0.0000  0.0000  0.0000  0.0000 </r>
       </set>
       <set comment="band 4">
        <r>  0.1583  0.0003  0.0003  0.0003  0.1699  0.1699  0.0000  0.1699  0.0000 </r>
       </set>
       <set comment="band 5">
        <r>  0.0000  0.0000  0.0000  0.0000  0.2344  0.0586  0.4954  0.0586  0.0000 </r>
       </set>
       <set comment="band 6">
        <r>  0.0000  0.0000  0.0000  0.0000  0.0000  0.1758  0.0000  0.1758  0.4954 </r>
       </set>
       <set comment="band 7">
        <r>  0.0303  0.0669  0.0669  0.0669  0.0172  0.0172  0.0000  0.0172  0.0000 </r>
       </set>
       <set comment="band 8">
        <r>  0.0000  0.0000  0.0002  0.0000  0.3776  0.0946  0.3877  0.0942  0.0000 </r>
       </set>
       <set comment="band 9">
        <r>  0.0000  0.0001  0.0000  0.0001  0.0000  0.2830  0.0000  0.2834  0.3877 </r>
       </set>
       <set comment="band 10">
        <r>  0.3688  0.0077  0.0077  0.0077  0.1289  0.1289  0.0000  0.1289  0.0000 </r>
       </set>
       <set comment="band 11">
        <r>  0.0016  0.0052  0.0052  0.0052  0.0022  0.0022  0.0000  0.0022  0.0000 </r>
       </set>
       <set comment="band 12">
        <r>  0.0000  0.0374  0.1433  0.0351  0.0050  0.0012  0.0011  0.0013  0.0000 </r>
       </set>
       <set comment="band 13">
        <r>  0.0000  0.1065  0.0006  0.1087  0.0000  0.0038  0.0000  0.0037  0.0011 </r>
       </set>
       <set comment="band 14">
        <r>  0.0000  0.0014  0.0055  0.0014  0.0700  0.0173  0.3135  0.0177  0.0000 </r>
       </set>
       <set comment="band 15">
        <r>  0.0000  0.0041  0.0000  0.0041  0.0000  0.0527  0.0000  0.0523  0.3135 </r>
       </set>
       <set comment="band 16">
        <r>  0.0775  0.0078  0.0078  0.0078  0.0584  0.0584  0.0000  0.0584  0.0000 </r>
       </set>
       <set comment="band 17">
        <r>  0.0474  0.0271  0.0271  0.0271  0.0295  0.0295  0.0000  0.0295  0.0000 </r>
       </set>
       <set comment="band 18">
        <r>  0.0000  0.0551  0.2313  0.0676  0.0241  0.0070  0.0271  0.0057  0.0005 </r>
       </set>
       <set comment="band 19">
        <r>  0.0000  0.1809  0.0047  0.1684  0.0005  0.0175  0.0005  0.0188  0.0271 </r>
       </set>
       <set comment="band 20">
        <r>  6.2802  0.0000  0.0000  0.0000  0.0000  0.0000  0.0000  0.0000  0.0000 </r>
       </set>
       <set comment="band 21">
        <r>  0.0000  0.0331  0.1499  0.0548  0.0351  0.0129  0.0068  0.0078  0.0004 </r>
       </set>
       <set comment="band 22">
        <r>  0.0000  0.1254  0.0087  0.1037  0.0020  0.0243  0.0004  0.0294  0.0068 </r>
       </set>
       <set comment="band 23">
        <r>  0.1274  0.0007  0.0007  0.0007  0.0091  0.0091  0.0000  0.0091  0.0000 </r>
       </set>
       <set comment="band 24">
        <r>  0.0000  0.0015  0.0068  0.0025  0.2000  0.0732  0.0053  0.0442  0.0003 </r>
       </set>
      </set>
      <set comment="kpoint 110">
       <set comment="band 1">
        <r>  0.0000  0.3263  0.3263  0.3254  0.0000  0.0000  0.0000  0.0000  0.0000 </r>
       </set>
       <set comment="band 2">
        <r>  0.0000  0.1655  0.1655  0.6636  0.0000  0.0000  0.0000  0.0000  0.0000 </r>
       </set>
       <set comment="band 3">
        <r>  0.0000  0.4979  0.4979  0.0000  0.0000  0.0000  0.0000  0.0000  0.0000 </r>
       </set>
       <set comment="band 4">
        <r>  0.1400  0.0012  0.0012  0.0027  0.1634  0.2027  0.0001  0.1634  0.0004 </r>
       </set>
       <set comment="band 5">
        <r>  0.0000  0.0016  0.0016  0.0001  0.0561  0.1786  0.1303  0.0561  0.3908 </r>
       </set>
       <set comment="band 6">
        <r>  0.0000  0.0005  0.0005  0.0000  0.1628  0.0000  0.3907  0.1628  0.1302 </r>
       </set>
       <set comment="band 7">
        <r>  0.0012  0.0381  0.0381  0.0388  0.0723  0.1835  0.0257  0.0723  0.0772 </r>
       </set>
       <set comment="band 8">
        <r>  0.0000  0.0002  0.0002  0.0000  0.2977  0.0000  0.2670  0.2977  0.0890 </r>
       </set>
       <set comment="band 9">
        <r>  0.0071  0.0347  0.0347  0.0368  0.0314  0.2380  0.0617  0.0314  0.1851 </r>
       </set>
       <set comment="band 10">
        <r>  0.4037  0.0007  0.0007  0.0046  0.1389  0.1164  0.0008  0.1389  0.0024 </r>
       </set>
       <set comment="band 11">
        <r>  0.0000  0.0028  0.0028  0.0100  0.0061  0.0094  0.0046  0.0061  0.0139 </r>
       </set>
       <set comment="band 12">
        <r>  0.0098  0.0390  0.0390  0.1414  0.0168  0.0091  0.0043  0.0168  0.0128 </r>
       </set>
       <set comment="band 13">
        <r>  0.0000  0.1119  0.1119  0.0000  0.0001  0.0000  0.0230  0.0001  0.0077 </r>
       </set>
       <set comment="band 14">
        <r>  0.0004  0.0002  0.0002  0.0241  0.0016  0.0932  0.0539  0.0016  0.1616 </r>
       </set>
       <set comment="band 15">
        <r>  0.0000  0.0036  0.0036  0.0000  0.0670  0.0000  0.1992  0.0670  0.0664 </r>
       </set>
       <set comment="band 16">
        <r>  0.1115  0.0005  0.0005  0.0016  0.0834  0.0253  0.0030  0.0834  0.0089 </r>
       </set>
       <set comment="band 17">
        <r>  0.0076  0.0921  0.0921  0.0207  0.0001  0.0155  0.0020  0.0001  0.0061 </r>
       </set>
       <set comment="band 18">
        <r>  0.0611  0.0038  0.0038  0.1751  0.0003  0.0459  0.0214  0.0003  0.0643 </r>
       </set>
       <set comment="band 19">
        <r>  0.0000  0.1837  0.1837  0.0000  0.0001  0.0000  0.0322  0.0001  0.0107 </r>
       </set>
       <set comment="band 20">
        <r>  6.2816  0.0000  0.0000  0.0001  0.0000  0.0000  0.0000  0.0000  0.0000 </r>
       </set>
       <set comment="band 21">
        <r>  0.0071  0.0113  0.0113  0.0391  0.0075  0.0799  0.0002  0.0075  0.0005 </r>
       </set>
       <set comment="band 22">
        <r>  0.0000  0.0291  0.0291  0.0000  0.0478  0.0000  0.0059  0.0478  0.0020 </r>
       </set>
       <set comment="band 23">
        <r>  0.0774  0.0014  0.0014  0.0095  0.0091  0.1513  0.0002  0.0091  0.0005 </r>
       </set>
       <set comment="band 24">
        <r>  0.0000  0.0749  0.0749  0.0000  0.0493  0.0000  0.0008  0.0493  0.0003 </r>
       </set>
      </set>
     </set>
    </set>
   </array>
  </projected>
 </calculation>
 <structure name="finalpos" >
  <crystal>
   <varray name="basis" >
    <v>       0.00000000       1.87990620       1.87990620 </v>
    <v>       1.87990620       0.00000000       1.87990620 </v>
    <v>       1.87990620       1.87990620       0.00000000 </v>
   </varray>
   <i name="volume">     13.28735490 </i>
   <varray name="rec_basis" >
    <v>      -0.26597072       0.26597072       0.26597072 </v>
    <v>       0.26597072      -0.26597072       0.26597072 </v>
    <v>       0.26597072       0.26597072      -0.26597072 </v>
   </varray>
  </crystal>
  <varray name="positions" >
   <v>       0.00000000       0.00000000       0.00000000 </v>
  </varray>
 </structure>
</modeling>
