   2   2   1   0
  0.1064014E+02  0.2472000E-09  0.2472000E-09  0.4021144E-09  0.5000000E-15
  1.000000000000000E-004
  CAR 
 Co-hcc                                  
     37.52935331     -0.20672101  301     10.49292272      1.00000000
     -0.207  0.0000E+00  0.0000E+00  0.0000E+00  0.0000E+00
     -0.081  0.0000E+00  0.0000E+00  0.0000E+00  0.0000E+00
      0.045  0.0000E+00  0.0000E+00  0.0000E+00  0.0000E+00
      0.171  0.0000E+00  0.0000E+00  0.0000E+00  0.0000E+00
      0.296  0.0000E+00  0.0000E+00  0.0000E+00  0.0000E+00
      0.422  0.0000E+00  0.0000E+00  0.0000E+00  0.0000E+00
      0.548  0.0000E+00  0.0000E+00  0.0000E+00  0.0000E+00
      0.674  0.0000E+00  0.0000E+00  0.0000E+00  0.0000E+00
      0.800  0.0000E+00  0.0000E+00  0.0000E+00  0.0000E+00
      0.925  0.0000E+00  0.0000E+00  0.0000E+00  0.0000E+00
      1.051  0.0000E+00  0.0000E+00  0.0000E+00  0.0000E+00
      1.177  0.0000E+00  0.0000E+00  0.0000E+00  0.0000E+00
      1.303  0.1607E-09  0.7733E-10  0.2021E-10  0.9727E-11
      1.429  0.6507E-03  0.4714E-03  0.8184E-04  0.5930E-04
      1.554  0.4915E-01  0.4809E-01  0.6265E-02  0.6108E-02
      1.680  0.5404E-02  0.6650E-02  0.6944E-02  0.6944E-02
      1.806  0.3382E-07  0.6181E-07  0.6944E-02  0.6944E-02
      1.932  0.7569E-09  0.1963E-09  0.6944E-02  0.6944E-02
      2.057  0.1881E-02  0.1048E-02  0.7181E-02  0.7076E-02
      2.183  0.1002E+00  0.9692E-01  0.1979E-01  0.1927E-01
      2.309  0.8296E-02  0.1245E-01  0.2083E-01  0.2083E-01
      2.435  0.4696E-01  0.2536E-01  0.2674E-01  0.2402E-01
      2.561  0.2821E+00  0.3004E+00  0.6223E-01  0.6181E-01
      2.686  0.2144E-02  0.5504E-02  0.6250E-01  0.6250E-01
      2.812  0.2577E-09  0.2141E-08  0.6250E-01  0.6250E-01
      2.938  0.5738E-03  0.4197E-04  0.6257E-01  0.6251E-01
      3.064  0.4397E+00  0.2594E+00  0.1179E+00  0.9514E-01
      3.190  0.2222E+00  0.4027E+00  0.1458E+00  0.1458E+00
      3.315  0.2255E-04  0.3405E-03  0.1458E+00  0.1458E+00
      3.441  0.1545E-13  0.2612E-11  0.1458E+00  0.1458E+00
      3.567  0.1544E-08  0.6558E-15  0.1458E+00  0.1458E+00
      3.693  0.2536E-02  0.1761E-05  0.1462E+00  0.1458E+00
      3.818  0.1013E+00  0.3022E-01  0.1589E+00  0.1496E+00
      3.944  0.6533E-02  0.8003E-01  0.1597E+00  0.1597E+00
      4.070  0.9965E-03  0.1723E-03  0.1598E+00  0.1597E+00
      4.196  0.2611E+00  0.3383E-01  0.1927E+00  0.1640E+00
      4.322  0.6913E-01  0.2938E+00  0.2014E+00  0.2009E+00
      4.447  0.2398E-02  0.3664E-02  0.2017E+00  0.2014E+00
      4.573  0.8554E+00  0.4663E-02  0.3093E+00  0.2020E+00
      4.699  0.5424E+00  0.8149E+00  0.3775E+00  0.3045E+00
      4.825  0.2559E+00  0.5055E+00  0.4097E+00  0.3681E+00
      4.951  0.4482E+00  0.2352E+00  0.4661E+00  0.3977E+00
      5.076  0.2292E+00  0.9596E-01  0.4949E+00  0.4097E+00
      5.202  0.9491E-01  0.1040E-01  0.5068E+00  0.4110E+00
      5.328  0.9202E-01  0.5991E+00  0.5184E+00  0.4864E+00
      5.454  0.4510E+00  0.5297E-01  0.5752E+00  0.4931E+00
      5.579  0.1382E+01  0.9553E-04  0.7490E+00  0.4931E+00
      5.705  0.4666E+00  0.7325E-01  0.8077E+00  0.5023E+00
      5.831  0.2388E+01  0.3954E-01  0.1108E+01  0.5073E+00
      5.957  0.1775E+01  0.5350E+00  0.1331E+01  0.5746E+00
      6.083  0.1305E+01  0.1570E+00  0.1496E+01  0.5943E+00
      6.208  0.1305E+01  0.6219E+00  0.1660E+01  0.6725E+00
      6.334  0.1655E+01  0.2518E+00  0.1868E+01  0.7042E+00
      6.460  0.1287E+01  0.8870E+00  0.2030E+01  0.8158E+00
      6.586  0.2343E+01  0.9617E+00  0.2325E+01  0.9367E+00
      6.712  0.1772E+01  0.1439E+01  0.2547E+01  0.1118E+01
      6.837  0.1330E+01  0.3875E+00  0.2715E+01  0.1167E+01
      6.963  0.1434E+01  0.1767E+01  0.2895E+01  0.1389E+01
      7.089  0.2895E+01  0.6161E+00  0.3259E+01  0.1466E+01
      7.215  0.2545E+01  0.3121E+00  0.3579E+01  0.1506E+01
      7.340  0.1117E+01  0.2130E+01  0.3720E+01  0.1773E+01
      7.466  0.6398E+00  0.1432E+01  0.3800E+01  0.1953E+01
      7.592  0.1570E+01  0.5827E+00  0.3998E+01  0.2027E+01
      7.718  0.3181E+01  0.1334E+01  0.4398E+01  0.2195E+01
      7.844  0.2026E+01  0.1933E+01  0.4653E+01  0.2438E+01
      7.969  0.1884E+01  0.1973E+01  0.4890E+01  0.2686E+01
      8.095  0.4345E+01  0.4467E+00  0.5436E+01  0.2742E+01
      8.221  0.2273E+01  0.9324E+00  0.5722E+01  0.2859E+01
      8.347  0.3636E+01  0.3267E+01  0.6180E+01  0.3270E+01
      8.473  0.2064E+01  0.2279E+01  0.6439E+01  0.3557E+01
      8.598  0.3171E+01  0.1068E+01  0.6838E+01  0.3691E+01
      8.724  0.2135E+01  0.7263E+00  0.7107E+01  0.3783E+01
      8.850  0.2533E+01  0.5302E+00  0.7425E+01  0.3849E+01
      8.976  0.1680E+01  0.9049E+00  0.7637E+01  0.3963E+01
      9.102  0.6764E+00  0.1783E+01  0.7722E+01  0.4187E+01
      9.227  0.9795E-01  0.2504E+01  0.7734E+01  0.4502E+01
      9.353  0.2170E+01  0.2737E+01  0.8007E+01  0.4847E+01
      9.479  0.3708E+01  0.2072E+01  0.8473E+01  0.5107E+01
      9.605  0.3650E+01  0.3391E+01  0.8933E+01  0.5534E+01
      9.730  0.2695E+01  0.2004E+01  0.9272E+01  0.5786E+01
      9.856  0.3119E+01  0.2459E+01  0.9664E+01  0.6095E+01
      9.982  0.4106E+01  0.2714E+01  0.1018E+02  0.6437E+01
     10.108  0.2506E+01  0.2679E+01  0.1050E+02  0.6774E+01
     10.234  0.9029E-01  0.1398E+01  0.1051E+02  0.6950E+01
     10.359  0.1911E-01  0.1141E+01  0.1051E+02  0.7093E+01
     10.485  0.4810E+00  0.2541E+01  0.1057E+02  0.7413E+01
     10.611  0.3547E+00  0.1006E+01  0.1061E+02  0.7539E+01
     10.737  0.5234E+00  0.1198E+01  0.1068E+02  0.7690E+01
     10.863  0.2031E-02  0.9274E+00  0.1068E+02  0.7807E+01
     10.988  0.1004E-09  0.2693E+00  0.1068E+02  0.7840E+01
     11.114  0.1910E-03  0.1881E+01  0.1068E+02  0.8077E+01
     11.240  0.3615E+00  0.3877E+01  0.1073E+02  0.8565E+01
     11.366  0.3008E+00  0.2923E+01  0.1076E+02  0.8932E+01
     11.491  0.1316E+00  0.1928E+01  0.1078E+02  0.9175E+01
     11.617  0.2173E+00  0.2440E+01  0.1081E+02  0.9482E+01
     11.743  0.6106E+00  0.3217E+01  0.1088E+02  0.9886E+01
     11.869  0.4429E+00  0.3348E+01  0.1094E+02  0.1031E+02
     11.995  0.1077E+01  0.2212E+01  0.1108E+02  0.1059E+02
     12.120  0.2011E-01  0.7155E+00  0.1108E+02  0.1068E+02
     12.246  0.3059E+00  0.3912E-01  0.1112E+02  0.1068E+02
     12.372  0.1011E-01  0.1359E-01  0.1112E+02  0.1068E+02
     12.498  0.9278E-08  0.3063E+00  0.1112E+02  0.1072E+02
     12.624  0.1434E-14  0.2800E+00  0.1112E+02  0.1076E+02
     12.749  0.9202E-05  0.4392E+00  0.1112E+02  0.1081E+02
     12.875  0.3732E+00  0.2837E+00  0.1117E+02  0.1085E+02
     13.001  0.1607E+01  0.5232E-01  0.1137E+02  0.1085E+02
     13.127  0.1026E+00  0.8646E+00  0.1138E+02  0.1096E+02
     13.252  0.2360E+00  0.1230E+01  0.1141E+02  0.1112E+02
     13.378  0.2989E+00  0.8182E-02  0.1145E+02  0.1112E+02
     13.504  0.3823E+00  0.8879E-09  0.1150E+02  0.1112E+02
     13.630  0.3048E+00  0.7595E-08  0.1153E+02  0.1112E+02
     13.756  0.8171E-02  0.2092E-01  0.1153E+02  0.1112E+02
     13.881  0.2461E-03  0.1199E+01  0.1153E+02  0.1127E+02
     14.007  0.1192E+00  0.6873E+00  0.1155E+02  0.1136E+02
     14.133  0.4613E-01  0.4114E+00  0.1156E+02  0.1141E+02
     14.259  0.2815E-05  0.1758E-01  0.1156E+02  0.1141E+02
     14.385  0.1103E-14  0.7622E+00  0.1156E+02  0.1151E+02
     14.510  0.0000E+00  0.2139E+00  0.1156E+02  0.1153E+02
     14.636  0.0000E+00  0.9128E-04  0.1156E+02  0.1153E+02
     14.762  0.0000E+00  0.3773E-07  0.1156E+02  0.1153E+02
     14.888  0.3293E-13  0.1136E-01  0.1156E+02  0.1154E+02
     15.013  0.4824E-04  0.1511E+00  0.1156E+02  0.1156E+02
     15.139  0.4795E+00  0.3173E-02  0.1162E+02  0.1156E+02
     15.265  0.9546E+00  0.1499E-08  0.1174E+02  0.1156E+02
     15.391  0.1261E-02  0.0000E+00  0.1174E+02  0.1156E+02
     15.517  0.1652E-10  0.7355E-16  0.1174E+02  0.1156E+02
     15.642  0.3310E-14  0.9873E-06  0.1174E+02  0.1156E+02
     15.768  0.7051E-05  0.1388E+00  0.1174E+02  0.1157E+02
     15.894  0.9830E-01  0.1190E+01  0.1175E+02  0.1172E+02
     16.020  0.4915E+00  0.1062E+00  0.1181E+02  0.1174E+02
     16.146  0.2796E+00  0.5699E-03  0.1185E+02  0.1174E+02
     16.271  0.3440E+00  0.5081E-10  0.1189E+02  0.1174E+02
     16.397  0.1490E+00  0.6063E-12  0.1191E+02  0.1174E+02
     16.523  0.7138E+00  0.1150E-03  0.1200E+02  0.1174E+02
     16.649  0.2173E-01  0.1875E+00  0.1200E+02  0.1176E+02
     16.775  0.1181E-06  0.3379E+00  0.1200E+02  0.1180E+02
     16.900  0.2512E-01  0.5944E+00  0.1200E+02  0.1188E+02
     17.026  0.3472E+00  0.2198E+00  0.1205E+02  0.1190E+02
     17.152  0.9305E-01  0.3887E+00  0.1206E+02  0.1195E+02
     17.278  0.2516E+00  0.3693E+00  0.1209E+02  0.1200E+02
     17.403  0.7387E-03  0.2132E-03  0.1209E+02  0.1200E+02
     17.529  0.8423E-01  0.3064E-02  0.1210E+02  0.1200E+02
     17.655  0.2467E+00  0.2902E+00  0.1213E+02  0.1204E+02
     17.781  0.2248E+00  0.3797E-01  0.1216E+02  0.1204E+02
     17.907  0.1086E+00  0.3767E-03  0.1217E+02  0.1204E+02
     18.032  0.4406E+00  0.6751E-01  0.1223E+02  0.1205E+02
     18.158  0.1096E+00  0.3973E+00  0.1224E+02  0.1210E+02
     18.284  0.3061E-05  0.2519E+00  0.1224E+02  0.1213E+02
     18.410  0.1428E-05  0.7672E-02  0.1224E+02  0.1213E+02
     18.536  0.1575E+00  0.3034E+00  0.1226E+02  0.1217E+02
     18.661  0.1156E+01  0.4081E-01  0.1241E+02  0.1218E+02
     18.787  0.1614E-01  0.1983E+00  0.1241E+02  0.1220E+02
     18.913  0.2984E+00  0.2315E+00  0.1245E+02  0.1223E+02
     19.039  0.2793E+00  0.1023E+00  0.1248E+02  0.1224E+02
     19.164  0.8029E-01  0.9065E-05  0.1249E+02  0.1224E+02
     19.290  0.3440E-05  0.1301E+00  0.1249E+02  0.1226E+02
     19.416  0.3061E-11  0.1179E+01  0.1249E+02  0.1241E+02
     19.542  0.5183E-03  0.1394E+00  0.1249E+02  0.1243E+02
     19.668  0.7664E+00  0.2170E+00  0.1259E+02  0.1245E+02
     19.793  0.6150E+00  0.3060E+00  0.1267E+02  0.1249E+02
     19.919  0.5963E+00  0.1566E-01  0.1274E+02  0.1249E+02
     20.045  0.8402E-01  0.2812E-07  0.1275E+02  0.1249E+02
     20.171  0.3567E-01  0.2628E-06  0.1276E+02  0.1249E+02
     20.297  0.6460E-01  0.8836E-01  0.1277E+02  0.1250E+02
     20.422  0.8004E+00  0.1735E+01  0.1287E+02  0.1272E+02
     20.548  0.9678E+00  0.1646E+00  0.1299E+02  0.1274E+02
     20.674  0.1016E+01  0.1573E-01  0.1312E+02  0.1275E+02
     20.800  0.7688E-01  0.2371E+00  0.1312E+02  0.1277E+02
     20.925  0.2988E-03  0.3409E-01  0.1313E+02  0.1278E+02
     21.051  0.1223E+00  0.1253E+01  0.1314E+02  0.1294E+02
     21.177  0.4304E-01  0.8190E+00  0.1315E+02  0.1304E+02
     21.303  0.2195E-05  0.6746E+00  0.1315E+02  0.1312E+02
     21.429  0.2696E-07  0.1207E+00  0.1315E+02  0.1314E+02
     21.554  0.2922E-01  0.4824E-01  0.1315E+02  0.1315E+02
     21.680  0.1563E+01  0.3313E-05  0.1335E+02  0.1315E+02
     21.806  0.7374E+00  0.1471E-14  0.1344E+02  0.1315E+02
     21.932  0.7620E+00  0.2233E-08  0.1353E+02  0.1315E+02
     22.058  0.4871E+00  0.1257E-01  0.1360E+02  0.1315E+02
     22.183  0.1753E+00  0.1754E+01  0.1362E+02  0.1337E+02
     22.309  0.4303E-01  0.8790E+00  0.1362E+02  0.1348E+02
     22.435  0.1022E+01  0.4454E+00  0.1375E+02  0.1353E+02
     22.561  0.9212E+00  0.1104E+00  0.1387E+02  0.1355E+02
     22.686  0.1403E-02  0.5537E+00  0.1387E+02  0.1362E+02
     22.812  0.2209E-10  0.6346E+00  0.1387E+02  0.1370E+02
     22.938  0.3908E-05  0.1316E+01  0.1387E+02  0.1386E+02
     23.064  0.3740E-01  0.3604E-01  0.1387E+02  0.1387E+02
     23.190  0.7292E-01  0.2795E-07  0.1388E+02  0.1387E+02
     23.315  0.3827E-03  0.1917E-04  0.1388E+02  0.1387E+02
     23.441  0.1223E+00  0.5433E-01  0.1390E+02  0.1387E+02
     23.567  0.2686E+00  0.5604E-01  0.1393E+02  0.1388E+02
     23.693  0.1058E+00  0.2223E-04  0.1394E+02  0.1388E+02
     23.819  0.1398E+00  0.5562E-05  0.1396E+02  0.1388E+02
     23.944  0.8178E-01  0.1222E+00  0.1397E+02  0.1390E+02
     24.070  0.3404E+00  0.3737E+00  0.1402E+02  0.1394E+02
     24.196  0.6487E+00  0.1234E-01  0.1410E+02  0.1395E+02
     24.322  0.9419E+00  0.2035E+00  0.1422E+02  0.1397E+02
     24.448  0.3868E+00  0.1232E+00  0.1426E+02  0.1399E+02
     24.573  0.1514E-03  0.8225E+00  0.1426E+02  0.1409E+02
     24.699  0.3646E+00  0.3442E+00  0.1431E+02  0.1413E+02
     24.825  0.4627E+00  0.1031E+01  0.1437E+02  0.1426E+02
     24.951  0.6557E-03  0.3577E-02  0.1437E+02  0.1426E+02
     25.076  0.2222E-05  0.5365E-01  0.1437E+02  0.1427E+02
     25.202  0.1142E+00  0.6005E+00  0.1438E+02  0.1435E+02
     25.328  0.5454E+00  0.1573E+00  0.1445E+02  0.1437E+02
     25.454  0.2348E+00  0.1671E-01  0.1448E+02  0.1437E+02
     25.580  0.1190E+01  0.1242E-02  0.1463E+02  0.1437E+02
     25.705  0.1317E+01  0.4924E+00  0.1480E+02  0.1443E+02
     25.831  0.2172E-01  0.3176E+00  0.1480E+02  0.1447E+02
     25.957  0.7637E-08  0.1177E+01  0.1480E+02  0.1462E+02
     26.083  0.1120E-07  0.1358E+01  0.1480E+02  0.1479E+02
     26.209  0.2464E-01  0.7640E-01  0.1480E+02  0.1480E+02
     26.334  0.1207E+01  0.2306E-06  0.1495E+02  0.1480E+02
     26.460  0.9314E-01  0.1439E-08  0.1497E+02  0.1480E+02
     26.586  0.6320E-01  0.7037E-02  0.1497E+02  0.1480E+02
     26.712  0.5890E+00  0.9384E+00  0.1505E+02  0.1492E+02
     26.837  0.1026E-01  0.5564E+00  0.1505E+02  0.1499E+02
     26.963  0.3834E-07  0.4734E+00  0.1505E+02  0.1505E+02
     27.089  0.2048E-01  0.1221E-01  0.1505E+02  0.1505E+02
     27.215  0.6010E+00  0.1917E-06  0.1513E+02  0.1505E+02
     27.341  0.4103E-01  0.3093E-01  0.1513E+02  0.1505E+02
     27.466  0.2233E-06  0.4312E+00  0.1513E+02  0.1511E+02
     27.592  0.2455E-01  0.2003E+00  0.1514E+02  0.1513E+02
     27.718  0.8903E+00  0.1469E-03  0.1525E+02  0.1513E+02
     27.844  0.7885E-01  0.5602E-03  0.1526E+02  0.1513E+02
     27.970  0.3374E-02  0.6110E+00  0.1526E+02  0.1521E+02
     28.095  0.5521E+00  0.3821E+00  0.1533E+02  0.1526E+02
     28.221  0.1070E+00  0.3322E-02  0.1534E+02  0.1526E+02
     28.347  0.2679E-01  0.5503E+00  0.1534E+02  0.1533E+02
     28.473  0.1051E+01  0.1089E+00  0.1548E+02  0.1534E+02
     28.598  0.2471E+00  0.1581E+00  0.1551E+02  0.1536E+02
     28.724  0.2308E-04  0.9635E+00  0.1551E+02  0.1548E+02
     28.850  0.1611E-13  0.2034E+00  0.1551E+02  0.1551E+02
     28.976  0.3631E-07  0.1567E-04  0.1551E+02  0.1551E+02
     29.102  0.2698E-01  0.8054E-14  0.1551E+02  0.1551E+02
     29.227  0.8558E+00  0.1459E-05  0.1562E+02  0.1551E+02
     29.353  0.1110E+00  0.9986E-01  0.1563E+02  0.1552E+02
     29.479  0.4677E-05  0.7124E+00  0.1563E+02  0.1561E+02
     29.605  0.1545E-14  0.1814E+00  0.1563E+02  0.1563E+02
     29.731  0.0000E+00  0.8716E-04  0.1563E+02  0.1563E+02
     29.856  0.0000E+00  0.3550E-12  0.1563E+02  0.1563E+02
     29.982  0.0000E+00  0.0000E+00  0.1563E+02  0.1563E+02
     30.108  0.0000E+00  0.0000E+00  0.1563E+02  0.1563E+02
     30.234  0.0000E+00  0.0000E+00  0.1563E+02  0.1563E+02
     30.359  0.0000E+00  0.0000E+00  0.1563E+02  0.1563E+02
     30.485  0.0000E+00  0.0000E+00  0.1563E+02  0.1563E+02
     30.611  0.6360E-10  0.4484E-11  0.1563E+02  0.1563E+02
     30.737  0.1139E-02  0.3163E-03  0.1563E+02  0.1563E+02
     30.863  0.2660E+00  0.2233E+00  0.1567E+02  0.1566E+02
     30.988  0.3462E+00  0.1076E+00  0.1571E+02  0.1567E+02
     31.114  0.6847E+00  0.6464E-01  0.1580E+02  0.1568E+02
     31.240  0.2691E-01  0.6595E+00  0.1580E+02  0.1576E+02
     31.366  0.3809E-07  0.2686E+00  0.1580E+02  0.1580E+02
     31.492  0.1692E-03  0.1410E-01  0.1580E+02  0.1580E+02
     31.617  0.1101E+00  0.9633E-01  0.1581E+02  0.1581E+02
     31.743  0.6422E+00  0.9641E-03  0.1589E+02  0.1581E+02
     31.869  0.2036E-01  0.2461E-03  0.1590E+02  0.1581E+02
     31.995  0.1887E-07  0.3795E+00  0.1590E+02  0.1586E+02
     32.121  0.5159E-11  0.2827E+00  0.1590E+02  0.1590E+02
     32.246  0.3391E-03  0.6040E-04  0.1590E+02  0.1590E+02
     32.372  0.2257E+00  0.8568E-02  0.1592E+02  0.1590E+02
     32.498  0.1052E+00  0.3400E+00  0.1594E+02  0.1594E+02
     32.624  0.1542E-04  0.3793E-01  0.1594E+02  0.1594E+02
     32.749  0.2477E-01  0.2671E-05  0.1594E+02  0.1594E+02
     32.875  0.3041E-01  0.3724E-13  0.1594E+02  0.1594E+02
     33.001  0.1770E-04  0.1530E-04  0.1594E+02  0.1594E+02
     33.127  0.2566E-01  0.5181E-01  0.1595E+02  0.1595E+02
     33.253  0.8450E-01  0.1234E+00  0.1596E+02  0.1597E+02
     33.378  0.3748E-03  0.4558E-01  0.1596E+02  0.1597E+02
     33.504  0.7546E-01  0.8711E-05  0.1597E+02  0.1597E+02
     33.630  0.3484E-01  0.1212E-13  0.1597E+02  0.1597E+02
     33.756  0.2977E-05  0.0000E+00  0.1597E+02  0.1597E+02
     33.882  0.1692E-14  0.0000E+00  0.1597E+02  0.1597E+02
     34.007  0.0000E+00  0.0000E+00  0.1597E+02  0.1597E+02
     34.133  0.0000E+00  0.0000E+00  0.1597E+02  0.1597E+02
     34.259  0.0000E+00  0.0000E+00  0.1597E+02  0.1597E+02
     34.385  0.0000E+00  0.1516E-12  0.1597E+02  0.1597E+02
     34.510  0.0000E+00  0.3303E-04  0.1597E+02  0.1597E+02
     34.636  0.1899E-09  0.6068E-01  0.1597E+02  0.1598E+02
     34.762  0.1033E-02  0.4969E-01  0.1597E+02  0.1599E+02
     34.888  0.9682E-01  0.1272E-04  0.1598E+02  0.1599E+02
     35.014  0.1257E-01  0.2459E-13  0.1599E+02  0.1599E+02
     35.139  0.1047E-06  0.0000E+00  0.1599E+02  0.1599E+02
     35.265  0.0000E+00  0.0000E+00  0.1599E+02  0.1599E+02
     35.391  0.3814E-07  0.0000E+00  0.1599E+02  0.1599E+02
     35.517  0.8815E-02  0.7029E-11  0.1599E+02  0.1599E+02
     35.643  0.9987E-01  0.1565E-03  0.1600E+02  0.1599E+02
     35.768  0.1735E-02  0.4862E-01  0.1600E+02  0.1599E+02
     35.894  0.6260E-09  0.6099E-01  0.1600E+02  0.1600E+02
     36.020  0.0000E+00  0.6510E-03  0.1600E+02  0.1600E+02
     36.146  0.0000E+00  0.1607E-09  0.1600E+02  0.1600E+02
     36.271  0.0000E+00  0.0000E+00  0.1600E+02  0.1600E+02
     36.397  0.0000E+00  0.0000E+00  0.1600E+02  0.1600E+02
     36.523  0.0000E+00  0.0000E+00  0.1600E+02  0.1600E+02
     36.649  0.0000E+00  0.0000E+00  0.1600E+02  0.1600E+02
     36.775  0.0000E+00  0.0000E+00  0.1600E+02  0.1600E+02
     36.900  0.0000E+00  0.0000E+00  0.1600E+02  0.1600E+02
     37.026  0.0000E+00  0.0000E+00  0.1600E+02  0.1600E+02
     37.152  0.0000E+00  0.0000E+00  0.1600E+02  0.1600E+02
     37.278  0.0000E+00  0.0000E+00  0.1600E+02  0.1600E+02
     37.404  0.0000E+00  0.0000E+00  0.1600E+02  0.1600E+02
     37.529  0.0000E+00  0.0000E+00  0.1600E+02  0.1600E+02
     37.52935331     -0.20672101  301     10.49292272      1.00000000
     -0.207  0.0000E+00  0.0000E+00  0.0000E+00  0.0000E+00  0.0000E+00  0.0000E+00  0.0000E+00  0.0000E+00  0.0000E+00  0.0000E+00  0.0000E+00  0.0000E+00  0.0000E+00  0.0000E+00  0.0000E+00  0.0000E+00  0.0000E+00  0.0000E+00
     -0.081  0.0000E+00  0.0000E+00  0.0000E+00  0.0000E+00  0.0000E+00  0.0000E+00  0.0000E+00  0.0000E+00  0.0000E+00  0.0000E+00  0.0000E+00  0.0000E+00  0.0000E+00  0.0000E+00  0.0000E+00  0.0000E+00  0.0000E+00  0.0000E+00
      0.045  0.0000E+00  0.0000E+00  0.0000E+00  0.0000E+00  0.0000E+00  0.0000E+00  0.0000E+00  0.0000E+00  0.0000E+00  0.0000E+00  0.0000E+00  0.0000E+00  0.0000E+00  0.0000E+00  0.0000E+00  0.0000E+00  0.0000E+00  0.0000E+00
      0.171  0.0000E+00  0.0000E+00  0.0000E+00  0.0000E+00  0.0000E+00  0.0000E+00  0.0000E+00  0.0000E+00  0.0000E+00  0.0000E+00  0.0000E+00  0.0000E+00  0.0000E+00  0.0000E+00  0.0000E+00  0.0000E+00  0.0000E+00  0.0000E+00
      0.296  0.0000E+00  0.0000E+00  0.0000E+00  0.0000E+00  0.0000E+00  0.0000E+00  0.0000E+00  0.0000E+00  0.0000E+00  0.0000E+00  0.0000E+00  0.0000E+00  0.0000E+00  0.0000E+00  0.0000E+00  0.0000E+00  0.0000E+00  0.0000E+00
      0.422  0.0000E+00  0.0000E+00  0.0000E+00  0.0000E+00  0.0000E+00  0.0000E+00  0.0000E+00  0.0000E+00  0.0000E+00  0.0000E+00  0.0000E+00  0.0000E+00  0.0000E+00  0.0000E+00  0.0000E+00  0.0000E+00  0.0000E+00  0.0000E+00
      0.548  0.0000E+00  0.0000E+00  0.0000E+00  0.0000E+00  0.0000E+00  0.0000E+00  0.0000E+00  0.0000E+00  0.0000E+00  0.0000E+00  0.0000E+00  0.0000E+00  0.0000E+00  0.0000E+00  0.0000E+00  0.0000E+00  0.0000E+00  0.0000E+00
      0.674  0.0000E+00  0.0000E+00  0.0000E+00  0.0000E+00  0.0000E+00  0.0000E+00  0.0000E+00  0.0000E+00  0.0000E+00  0.0000E+00  0.0000E+00  0.0000E+00  0.0000E+00  0.0000E+00  0.0000E+00  0.0000E+00  0.0000E+00  0.0000E+00
      0.800  0.0000E+00  0.0000E+00  0.0000E+00  0.0000E+00  0.0000E+00  0.0000E+00  0.0000E+00  0.0000E+00  0.0000E+00  0.0000E+00  0.0000E+00  0.0000E+00  0.0000E+00  0.0000E+00  0.0000E+00  0.0000E+00  0.0000E+00  0.0000E+00
      0.925  0.0000E+00  0.0000E+00  0.0000E+00  0.0000E+00  0.0000E+00  0.0000E+00  0.0000E+00  0.0000E+00  0.0000E+00  0.0000E+00  0.0000E+00  0.0000E+00  0.0000E+00  0.0000E+00  0.0000E+00  0.0000E+00  0.0000E+00  0.0000E+00
      1.051  0.0000E+00  0.0000E+00  0.0000E+00  0.0000E+00  0.0000E+00  0.0000E+00  0.0000E+00  0.0000E+00  0.0000E+00  0.0000E+00  0.0000E+00  0.0000E+00  0.0000E+00  0.0000E+00  0.0000E+00  0.0000E+00  0.0000E+00  0.0000E+00
      1.177  0.0000E+00  0.0000E+00  0.0000E+00  0.0000E+00  0.0000E+00  0.0000E+00  0.0000E+00  0.0000E+00  0.0000E+00  0.0000E+00  0.0000E+00  0.0000E+00  0.0000E+00  0.0000E+00  0.0000E+00  0.0000E+00  0.0000E+00  0.0000E+00
      1.303  0.5954E-10  0.2867E-10  0.1574E-25  0.4665E-26  0.3802E-26  0.4676E-27  0.1574E-25  0.4665E-26  0.3792E-24  0.7060E-24  0.2706E-21  0.1283E-22  0.1495E-15  0.4133E-16  0.2706E-21  0.1283E-22  0.3792E-24  0.7060E-24
      1.429  0.2411E-03  0.1748E-03  0.6373E-19  0.2844E-19  0.1540E-19  0.2850E-20  0.6373E-19  0.2844E-19  0.1535E-17  0.4304E-17  0.1096E-14  0.7823E-16  0.6053E-09  0.2520E-09  0.1096E-14  0.7823E-16  0.1535E-17  0.4304E-17
      1.554  0.1821E-01  0.1783E-01  0.4815E-17  0.2901E-17  0.1163E-17  0.2908E-18  0.4815E-17  0.2901E-17  0.1160E-15  0.4390E-15  0.8279E-13  0.7980E-14  0.4573E-07  0.2570E-07  0.8279E-13  0.7980E-14  0.1160E-15  0.4390E-15
      1.680  0.2002E-02  0.2465E-02  0.5293E-18  0.4011E-18  0.1279E-18  0.4021E-19  0.5293E-18  0.4011E-18  0.1275E-16  0.6071E-16  0.9101E-14  0.1103E-14  0.5027E-08  0.3554E-08  0.9101E-14  0.1103E-14  0.1275E-16  0.6071E-16
      1.806  0.1253E-07  0.2292E-07  0.3313E-23  0.3729E-23  0.8002E-24  0.3738E-24  0.3313E-23  0.3729E-23  0.7981E-22  0.5643E-21  0.5696E-19  0.1026E-19  0.3146E-13  0.3304E-13  0.5696E-19  0.1026E-19  0.7981E-22  0.5643E-21
      1.932  0.2639E-09  0.6846E-10  0.1641E-23  0.3998E-25  0.1600E-10  0.4190E-11  0.1641E-23  0.3998E-25  0.5973E-23  0.2350E-23  0.9380E-23  0.4083E-23  0.1119E-11  0.2099E-12  0.9380E-23  0.4083E-23  0.5973E-23  0.2350E-23
      2.057  0.6558E-03  0.3655E-03  0.4080E-17  0.2134E-18  0.3978E-04  0.2237E-04  0.4080E-17  0.2134E-18  0.1484E-16  0.1254E-16  0.2331E-16  0.2180E-16  0.2781E-05  0.1121E-05  0.2331E-16  0.2180E-16  0.1484E-16  0.1254E-16
      2.183  0.3494E-01  0.3380E-01  0.2180E-15  0.1974E-16  0.2119E-02  0.2069E-02  0.2180E-15  0.1974E-16  0.7910E-15  0.1160E-14  0.1242E-14  0.2016E-14  0.1482E-03  0.1036E-03  0.1242E-14  0.2016E-14  0.7910E-15  0.1160E-14
      2.309  0.2892E-02  0.4342E-02  0.9721E-08  0.1659E-08  0.1754E-03  0.2658E-03  0.9721E-08  0.1659E-08  0.8499E-09  0.1022E-09  0.1037E-15  0.2590E-15  0.1226E-04  0.1331E-04  0.1037E-15  0.2590E-15  0.8499E-09  0.1022E-09
      2.435  0.1578E-01  0.8531E-02  0.7546E-03  0.4128E-03  0.6818E-09  0.2174E-08  0.7546E-03  0.4128E-03  0.6597E-04  0.2544E-04  0.7374E-13  0.5061E-16  0.4576E-04  0.1754E-04  0.7374E-13  0.5061E-16  0.6597E-04  0.2544E-04
      2.561  0.9481E-01  0.1010E+00  0.4534E-02  0.4889E-02  0.1244E-13  0.1063E-15  0.4534E-02  0.4889E-02  0.3964E-03  0.3013E-03  0.4431E-12  0.5994E-15  0.2749E-03  0.2077E-03  0.4431E-12  0.5994E-15  0.3964E-03  0.3013E-03
      2.686  0.7203E-03  0.1852E-02  0.3444E-04  0.8959E-04  0.9451E-16  0.1947E-17  0.3444E-04  0.8959E-04  0.3012E-05  0.5521E-05  0.3366E-14  0.1098E-16  0.2089E-05  0.3806E-05  0.3366E-14  0.1098E-16  0.3012E-05  0.5521E-05
      2.812  0.8642E-10  0.7202E-09  0.4134E-11  0.3484E-10  0.1462E-12  0.9760E-15  0.4134E-11  0.3484E-10  0.3641E-12  0.2147E-11  0.2625E-13  0.1207E-15  0.2441E-12  0.1480E-11  0.2625E-13  0.1207E-15  0.3641E-12  0.2147E-11
      2.938  0.1792E-03  0.1317E-04  0.8720E-05  0.6514E-06  0.1139E-04  0.8457E-06  0.8720E-05  0.6514E-06  0.9630E-06  0.4751E-07  0.2044E-05  0.1046E-06  0.1379E-07  0.8803E-09  0.2044E-05  0.1046E-06  0.9630E-06  0.4751E-07
      3.064  0.1373E+00  0.8139E-01  0.6682E-02  0.4026E-02  0.8726E-02  0.5228E-02  0.6682E-02  0.4026E-02  0.7380E-03  0.2937E-03  0.1567E-02  0.6466E-03  0.1057E-04  0.5442E-05  0.1567E-02  0.6466E-03  0.7380E-03  0.2937E-03
      3.190  0.6938E-01  0.1263E+00  0.3376E-02  0.6249E-02  0.4408E-02  0.8114E-02  0.3376E-02  0.6249E-02  0.3728E-03  0.4558E-03  0.7915E-03  0.1004E-02  0.5341E-05  0.8446E-05  0.7915E-03  0.1004E-02  0.3728E-03  0.4558E-03
      3.315  0.7042E-05  0.1068E-03  0.3427E-06  0.5284E-05  0.4474E-06  0.6861E-05  0.3427E-06  0.5284E-05  0.3784E-07  0.3854E-06  0.8033E-07  0.8485E-06  0.5421E-09  0.7141E-08  0.8033E-07  0.8485E-06  0.3784E-07  0.3854E-06
      3.441  0.4824E-14  0.8196E-12  0.2347E-15  0.4054E-13  0.3065E-15  0.5264E-13  0.2347E-15  0.4054E-13  0.2592E-16  0.2957E-14  0.5503E-16  0.6511E-14  0.3713E-18  0.5480E-16  0.5503E-16  0.6511E-14  0.2592E-16  0.2957E-14
      3.567  0.4276E-09  0.1858E-15  0.6193E-22  0.3212E-29  0.9649E-10  0.4459E-16  0.6193E-22  0.3212E-29  0.1571E-20  0.1353E-28  0.1459E-20  0.1186E-28  0.6245E-10  0.1640E-16  0.1459E-20  0.1186E-28  0.1571E-20  0.1353E-28
      3.693  0.7026E-03  0.4987E-06  0.1018E-15  0.8623E-20  0.1585E-03  0.1197E-06  0.1018E-15  0.8623E-20  0.2581E-14  0.3633E-19  0.2397E-14  0.3184E-19  0.1026E-03  0.4404E-07  0.2397E-14  0.3184E-19  0.2581E-14  0.3633E-19
      3.818  0.2808E-01  0.8559E-02  0.4067E-14  0.1480E-15  0.6335E-02  0.2054E-02  0.4067E-14  0.1480E-15  0.1032E-12  0.6235E-15  0.9577E-13  0.5463E-15  0.4100E-02  0.7558E-03  0.9577E-13  0.5463E-15  0.1032E-12  0.6235E-15
      3.944  0.1810E-02  0.2267E-01  0.1919E-11  0.3919E-15  0.4084E-03  0.5441E-02  0.1919E-11  0.3919E-15  0.6090E-12  0.1651E-14  0.6173E-14  0.1447E-14  0.2643E-03  0.2002E-02  0.6173E-14  0.1447E-14  0.6090E-12  0.1651E-14
      4.070  0.2624E-03  0.4879E-04  0.3997E-04  0.9616E-08  0.1057E-08  0.1170E-04  0.3997E-04  0.9616E-08  0.1255E-04  0.1987E-08  0.2042E-17  0.3124E-17  0.1047E-04  0.4304E-05  0.2042E-17  0.3124E-17  0.1255E-04  0.1987E-08
      4.196  0.6875E-01  0.9062E-02  0.1047E-01  0.1419E-02  0.3564E-17  0.2752E-12  0.1047E-01  0.1419E-02  0.3288E-02  0.2933E-03  0.5309E-15  0.1995E-14  0.2744E-02  0.2294E-03  0.5309E-15  0.1995E-14  0.3288E-02  0.2933E-03
      4.322  0.1820E-01  0.7869E-01  0.2773E-02  0.1233E-01  0.7721E-11  0.2278E-14  0.2773E-02  0.1233E-01  0.8706E-03  0.2547E-02  0.1871E-11  0.1732E-13  0.7265E-03  0.1992E-02  0.1871E-11  0.1732E-13  0.8706E-03  0.2547E-02
      4.447  0.5680E-03  0.9816E-03  0.3328E-04  0.1538E-03  0.1397E-03  0.3902E-10  0.3328E-04  0.1538E-03  0.9116E-05  0.3177E-04  0.3549E-04  0.5985E-11  0.5332E-04  0.2485E-04  0.3549E-04  0.5985E-11  0.9116E-05  0.3177E-04
      4.573  0.2009E+00  0.1148E-02  0.1801E-01  0.6416E-04  0.3684E-01  0.3051E-03  0.1801E-01  0.6416E-04  0.5984E-02  0.8655E-05  0.1385E-01  0.4708E-04  0.1425E-01  0.6598E-04  0.1385E-01  0.4708E-04  0.5984E-02  0.8655E-05
      4.699  0.1247E+00  0.1998E+00  0.1606E-01  0.1709E-01  0.1280E-01  0.4136E-01  0.1606E-01  0.1709E-01  0.8209E-02  0.3253E-02  0.8220E-02  0.8471E-02  0.6376E-02  0.8940E-02  0.8220E-02  0.8471E-02  0.8209E-02  0.3253E-02
      4.825  0.5444E-01  0.1229E+00  0.9427E-02  0.1700E-01  0.7482E-05  0.1262E-01  0.9427E-02  0.1700E-01  0.1157E-01  0.3921E-02  0.2536E-04  0.5515E-02  0.4325E-02  0.2728E-02  0.2536E-04  0.5515E-02  0.1157E-01  0.3921E-02
      4.951  0.7644E-01  0.5435E-01  0.1105E-01  0.1040E-01  0.3704E-02  0.6619E-05  0.1105E-01  0.1040E-01  0.2113E-01  0.6239E-02  0.1593E-01  0.4509E-05  0.5211E-02  0.2676E-02  0.1593E-01  0.4509E-05  0.2113E-01  0.6239E-02
      5.076  0.3858E-01  0.2217E-01  0.5283E-02  0.4244E-02  0.2184E-02  0.4364E-10  0.5283E-02  0.4244E-02  0.1011E-01  0.2548E-02  0.7638E-02  0.7492E-10  0.6390E-02  0.1093E-02  0.7638E-02  0.7492E-10  0.1011E-01  0.2548E-02
      5.202  0.1298E-01  0.2094E-02  0.4860E-06  0.3682E-03  0.2625E-02  0.1211E-03  0.4860E-06  0.3682E-03  0.1023E-05  0.3052E-03  0.8314E-06  0.2080E-03  0.2507E-01  0.7514E-04  0.8314E-06  0.2080E-03  0.1023E-05  0.3052E-03
      5.328  0.6244E-02  0.1206E+00  0.4370E-04  0.2122E-01  0.3081E-04  0.6983E-02  0.4370E-04  0.2122E-01  0.4470E-02  0.1759E-01  0.6191E-02  0.1200E-01  0.1348E-01  0.4329E-02  0.6191E-02  0.1200E-01  0.4470E-02  0.1759E-01
      5.454  0.3012E-01  0.1066E-01  0.1265E-02  0.1875E-02  0.2463E-02  0.6173E-03  0.1265E-02  0.1875E-02  0.3124E-01  0.1555E-02  0.4254E-01  0.1060E-02  0.1608E-01  0.3827E-03  0.4254E-01  0.1060E-02  0.3124E-01  0.1555E-02
      5.579  0.1434E+00  0.1618E-04  0.1664E-01  0.8133E-08  0.3631E-01  0.4916E-05  0.1664E-01  0.8133E-08  0.6523E-01  0.6743E-08  0.1160E+00  0.4598E-08  0.3956E-02  0.1822E-04  0.1160E+00  0.4598E-08  0.6523E-01  0.6743E-08
      5.705  0.3557E-01  0.1240E-01  0.5244E-02  0.4095E-11  0.6394E-02  0.3776E-02  0.5244E-02  0.4095E-11  0.2867E-01  0.1641E-11  0.3341E-01  0.7292E-11  0.2572E-01  0.1400E-01  0.3341E-01  0.7292E-11  0.2867E-01  0.1641E-11
      5.831  0.1528E+00  0.6691E-02  0.2092E-01  0.6667E-04  0.1984E-01  0.2040E-02  0.2092E-01  0.6667E-04  0.1597E+00  0.2646E-04  0.1281E+00  0.1152E-03  0.2656E+00  0.7088E-02  0.1281E+00  0.1152E-03  0.1597E+00  0.2646E-04
      5.957  0.9149E-01  0.8963E-01  0.2044E-01  0.1441E-01  0.6972E-02  0.2785E-01  0.2044E-01  0.1441E-01  0.1075E+00  0.5718E-02  0.1522E+00  0.2489E-01  0.1258E+00  0.1250E-03  0.1522E+00  0.2489E-01  0.1075E+00  0.5718E-02
      6.083  0.6079E-01  0.2498E-01  0.1537E-01  0.3926E-02  0.1296E-01  0.7593E-02  0.1537E-01  0.3926E-02  0.1286E+00  0.2607E-02  0.6862E-01  0.7901E-02  0.8106E-01  0.5858E-04  0.6862E-01  0.7901E-02  0.1286E+00  0.2607E-02