    2    2    1    2
  0.1064014E+02  0.2472000E-09  0.2472000E-09  0.4021144E-09  0.5000000E-15
  1.000000000000000E-004
  CAR 
 Co-hcc                                  
     18     21     16
 
  0.0000000E+00  0.0000000E+00  0.0000000E+00  0.6944444E-02
      1          1.508555        1.512833   1.000000   1.000000
      2          5.320585        6.239380   1.000000   1.000000
      3          7.883697        9.478809   1.000000   1.000000
      4          7.959985        9.558124   1.000000   1.000000
      5          7.959985        9.558125   1.000000   1.000000
      6          8.276754        9.926984   1.000000   1.000000
      7          8.276754        9.926984   1.000000   1.000000
      8          8.645731       10.325726   1.000000   0.999999
      9          8.645731       10.374715   1.000000   0.999586
     10          9.757549       10.374716   1.000000   0.999586
     11          9.757549       11.600071   1.000000   0.000000
     12         10.374448       11.600071   0.999597   0.000000
     13         16.990080       17.993809   0.000000   0.000000
     14         32.753998       32.485701   0.000000   0.000000
     15         35.566353       35.740355   0.000000   0.000000
     16         35.566603       35.814077   0.000000   0.000000
 
  0.1666667E+00  0.1387779E-16  0.0000000E+00  0.4166667E-01
      1          2.472721        2.485311   1.000000   1.000000
      2          5.842683        6.846691   1.000000   1.000000
      3          7.427896        8.771465   1.000000   1.000000
      4          7.718216        8.903465   1.000000   1.000000
      5          8.038339        9.621891   1.000000   1.000000
      6          8.392701       10.051927   1.000000   1.000000
      7          8.408926       10.062943   1.000000   1.000000
      8          8.417631       10.082128   1.000000   1.000000
      9          8.579567       10.135061   1.000000   1.000000
     10          8.672856       10.361759   1.000000   0.999896
     11          9.852293       11.711214   1.000000   0.000000
     12         13.146632       14.000130   0.000000   0.000000
     13         17.177059       18.086998   0.000000   0.000000
     14         27.147313       27.474659   0.000000   0.000000
     15         30.960881       31.268557   0.000000   0.000000
     16         32.355312       32.440934   0.000000   0.000000
 
  0.3333333E+00  0.2775558E-16  0.0000000E+00  0.4166667E-01
      1          4.725411        4.930948   1.000000   1.000000
      2          6.067666        7.291596   1.000000   1.000000
      3          6.435714        7.581042   1.000000   1.000000
      4          7.384806        8.503614   1.000000   1.000000
      5          7.981417        9.555261   1.000000   1.000000
      6          8.055646        9.611810   1.000000   1.000000
      7          8.182143        9.676006   1.000000   1.000000
      8          9.402306       11.167891   1.000000   0.000000
      9          9.547413       11.202010   1.000000   0.000000
     10          9.575763       11.329734   1.000000   0.000000
     11          9.952610       11.826209   1.000000   0.000000
     12         16.951216       17.612513   0.000000   0.000000
     13         17.552605       18.180928   0.000000   0.000000
     14         20.482701       21.082180   0.000000   0.000000
     15         27.168649       27.387309   0.000000   0.000000
     16         27.682180       27.955912   0.000000   0.000000
 
  0.5000000E+00  0.2775558E-16  0.0000000E+00  0.2083333E-01
      1          5.718281        6.600078   1.000000   1.000000
      2          5.750801        6.886725   1.000000   1.000000
      3          6.006962        7.195512   1.000000   1.000000
      4          7.801310        8.674294   1.000000   1.000000
      5          8.000309        9.407141   1.000000   1.000000
      6          8.014961        9.451847   1.000000   1.000000
      7          8.341581        9.875405   1.000000   1.000000
      8          9.925613       11.765829   1.000000   0.000000
      9          9.980132       11.857081   1.000000   0.000000
     10         10.074887       11.930438   1.000000   0.000000
     11         11.921767       13.133764   0.000000   0.000000
     12         13.986442       14.940258   0.000000   0.000000
     13         20.338552       20.760714   0.000000   0.000000
     14         21.028506       21.409195   0.000000   0.000000
     15         23.418661       23.965947   0.000000   0.000000
     16         24.728515       25.282897   0.000000   0.000000
 
  0.1666667E+00  0.1666667E+00  0.0000000E+00  0.4166667E-01
      1          4.167151        4.240707   1.000000   1.000000
      2          6.429443        7.574854   1.000000   1.000000
      3          6.775359        7.892296   1.000000   1.000000
      4          6.910744        8.252024   1.000000   1.000000
      5          7.854778        9.433367   1.000000   1.000000
      6          7.991901        9.499303   1.000000   1.000000
      7          8.448775       10.029238   1.000000   1.000000
      8          8.696434       10.384256   1.000000   0.998942
      9          9.257575       10.980817   1.000000   0.000000
     10          9.645643       11.348463   1.000000   0.000000
     11          9.865182       11.725317   1.000000   0.000000
     12         15.912928       16.642861   0.000000   0.000000
     13         17.764487       18.481377   0.000000   0.000000
     14         23.550381       23.970095   0.000000   0.000000
     15         24.042504       24.463750   0.000000   0.000000
     16         30.832411       30.846599   0.000000   0.000000
 
  0.3333333E+00  0.1666667E+00  0.0000000E+00  0.8333333E-01
      1          5.967158        6.592099   1.000000   1.000000
      2          6.177869        7.388797   1.000000   1.000000
      3          6.204795        7.408370   1.000000   1.000000
      4          7.219969        8.167220   1.000000   1.000000
      5          7.649939        9.170712   1.000000   1.000000
      6          8.025206        9.519581   1.000000   1.000000
      7          8.340180        9.876762   1.000000   1.000000
      8          9.451750       11.208447   1.000000   0.000000
      9          9.851796       11.709666   1.000000   0.000000
     10          9.926784       11.750577   1.000000   0.000000
     11         11.685464       13.051663   0.000000   0.000000
     12         16.457822       17.157010   0.000000   0.000000
     13         19.841653       20.393527   0.000000   0.000000
     14         20.534810       21.017154   0.000000   0.000000
     15         21.799302       22.180637   0.000000   0.000000
     16         25.471794       25.860970   0.000000   0.000000
 
  0.3333333E+00  0.3333333E+00  0.0000000E+00  0.1388889E-01
      1          6.182724        7.463205   1.000000   1.000000
      2          6.591049        7.636272   1.000000   1.000000
      3          6.591049        7.636272   1.000000   1.000000
      4          6.869873        7.836268   1.000000   1.000000
      5          7.666604        9.121482   1.000000   1.000000
      6          7.666604        9.121483   1.000000   1.000000
      7          8.628240       10.196970   1.000000   1.000000
      8          9.644200       11.442032   1.000000   0.000000
      9          9.644200       11.442033   1.000000   0.000000
     10          9.747913       11.591639   1.000000   0.000000
     11         15.156728       15.929110   0.000000   0.000000
     12         16.012122       16.762645   0.000000   0.000000
     13         16.012122       16.762648   0.000000   0.000000
     14         23.078560       23.441907   0.000000   0.000000
     15         23.806493       24.253691   0.000000   0.000000
     16         23.806493       24.253692   0.000000   0.000000
 
  0.0000000E+00  0.0000000E+00  0.2500000E+00  0.1388889E-01
      1          2.132368        2.140381   1.000000   1.000000
      2          5.115552        5.690269   1.000000   1.000000
      3          7.734807        9.264871   1.000000   1.000000
      4          7.858885        9.282567   1.000000   1.000000
      5          7.858885        9.453109   1.000000   1.000000
      6          8.125989        9.453110   1.000000   1.000000
      7          8.125989        9.756192   1.000000   1.000000
      8          8.652427        9.756193   1.000000   1.000000
      9          8.963179       10.722922   1.000000   0.000000
     10          8.963179       10.722923   1.000000   0.000000
     11          9.708183       11.550161   1.000000   0.000000
     12          9.708183       11.550162   1.000000   0.000000
     13         20.028735       20.713424   0.000000   0.000000
     14         31.596278       31.533335   0.000000   0.000000
     15         33.152657       33.129569   0.000000   0.000000
     16         34.845174       34.631821   0.000000   0.000000
 
  0.1666667E+00  0.1387779E-16  0.2500000E+00  0.8333333E-01
      1          3.048708        3.073461   1.000000   1.000000
      2          5.759006        6.395227   1.000000   1.000000
      3          7.224768        8.361674   1.000000   1.000000
      4          7.512859        8.998938   1.000000   1.000000
      5          7.747605        9.305866   1.000000   1.000000
      6          8.173684        9.738536   1.000000   1.000000
      7          8.244839        9.807403   1.000000   1.000000
      8          8.491506       10.150619   1.000000   1.000000
      9          8.899626       10.638022   1.000000   0.000020
     10          9.013882       10.726852   1.000000   0.000000
     11          9.754104       11.602361   1.000000   0.000000
     12         11.235809       12.632003   0.000000   0.000000
     13         20.605585       21.212480   0.000000   0.000000
     14         27.656559       27.960771   0.000000   0.000000
     15         31.052578       31.160027   0.000000   0.000000
     16         31.677032       31.988205   0.000000   0.000000
 
  0.3333333E+00  0.2775558E-16  0.2500000E+00  0.8333333E-01
      1          4.934379        5.278214   1.000000   1.000000
      2          6.064262        7.037266   1.000000   1.000000
      3          6.519110        7.725889   1.000000   1.000000
      4          7.174375        8.512551   1.000000   1.000000
      5          7.994092        9.358650   1.000000   1.000000
      6          8.189310        9.836589   1.000000   1.000000
      7          8.780695        9.952336   1.000000   1.000000
      8          9.303376       11.055152   1.000000   0.000000
      9          9.477028       11.226265   1.000000   0.000000
     10          9.480233       11.260386   1.000000   0.000000
     11          9.846863       11.696155   1.000000   0.000000
     12         13.382660       14.327270   0.000000   0.000000
     13         20.403490       21.036683   0.000000   0.000000
     14         22.362702       22.774520   0.000000   0.000000
     15         25.235645       25.682074   0.000000   0.000000
     16         28.060396       28.312379   0.000000   0.000000
 
  0.5000000E+00  0.2775558E-16  0.2500000E+00  0.4166667E-01
      1          5.360471        6.335637   1.000000   1.000000
      2          5.796037        6.877172   1.000000   1.000000
      3          6.719931        7.899922   1.000000   1.000000
      4          6.779720        7.961319   1.000000   1.000000
      5          8.068664        9.699612   1.000000   1.000000
      6          8.446067        9.846064   1.000000   1.000000
      7          9.573650       10.821628   1.000000   0.000000
      8          9.649926       11.385962   1.000000   0.000000
      9          9.974635       11.820118   1.000000   0.000000
     10         10.057697       11.911310   1.000000   0.000000
     11         11.500674       12.433456   0.000000   0.000000
     12         13.560343       14.388202   0.000000   0.000000
     13         18.864955       19.553182   0.000000   0.000000
     14         19.013976       19.734287   0.000000   0.000000
     15         26.625166       26.837858   0.000000   0.000000
     16         26.641618       26.899946   0.000000   0.000000
 
  0.1666667E+00  0.1666667E+00  0.2500000E+00  0.8333333E-01
      1          4.573994        4.710440   1.000000   1.000000
      2          6.450014        7.245330   1.000000   1.000000
      3          6.641363        7.882992   1.000000   1.000000
      4          7.034734        8.398789   1.000000   1.000000
      5          7.740359        9.223469   1.000000   1.000000
      6          7.973454        9.485762   1.000000   1.000000
      7          8.276265        9.891795   1.000000   1.000000
      8          8.910046       10.577165   1.000000   0.008592
      9          9.360534       11.131991   1.000000   0.000000
     10          9.479805       11.223498   1.000000   0.000000
     11          9.952266       11.733531   1.000000   0.000000
     12         12.902891       13.999222   0.000000   0.000000
     13         21.827130       22.324983   0.000000   0.000000
     14         24.111035       24.523868   0.000000   0.000000
     15         24.699095       25.125894   0.000000   0.000000
     16         28.408978       28.623746   0.000000   0.000000
 
  0.3333333E+00  0.1666667E+00  0.2500000E+00  0.1666667E+00
      1          5.738622        6.606376   1.000000   1.000000
      2          6.287738        7.295587   1.000000   1.000000
      3          6.549159        7.734076   1.000000   1.000000
      4          7.070615        8.288153   1.000000   1.000000
      5          7.634198        9.116855   1.000000   1.000000
      6          8.268762        9.532086   1.000000   1.000000
      7          8.544258       10.048173   1.000000   1.000000
      8          9.345908       11.111812   1.000000   0.000000
      9          9.555804       11.349284   1.000000   0.000000
     10         10.038741       11.886266   1.000000   0.000000
     11         11.887359       13.163921   0.000000   0.000000
     12         15.154251       15.812579   0.000000   0.000000
     13         18.577267       19.335927   0.000000   0.000000
     14         21.638676       22.140815   0.000000   0.000000
     15         22.452055       22.870060   0.000000   0.000000
     16         25.628289       26.023854   0.000000   0.000000
 
  0.3333333E+00  0.3333333E+00  0.2500000E+00  0.2777778E-01
      1          6.391856        7.629679   1.000000   1.000000
      2          6.623982        7.776051   1.000000   1.000000
      3          6.623982        7.776051   1.000000   1.000000
      4          6.900673        7.894604   1.000000   1.000000
      5          7.624578        8.959282   1.000000   1.000000
      6          7.624578        8.959282   1.000000   1.000000
      7          8.577214       10.161731   1.000000   1.000000
      8          9.276947       11.050914   1.000000   0.000000
      9          9.729637       11.539621   1.000000   0.000000
     10          9.729637       11.539622   1.000000   0.000000
     11         16.012050       16.799187   0.000000   0.000000
     12         16.173052       16.872206   0.000000   0.000000
     13         16.173052       16.872208   0.000000   0.000000
     14         20.652034       21.180496   0.000000   0.000000
     15         21.616137       22.179128   0.000000   0.000000
     16         21.616137       22.179130   0.000000   0.000000
 
  0.0000000E+00  0.0000000E+00  0.5000000E+00  0.6944444E-02
      1          3.763242        3.839735   1.000000   1.000000
      2          3.763242        3.839735   1.000000   1.000000
      3          7.576600        8.927518   1.000000   1.000000
      4          7.576600        8.927518   1.000000   1.000000
      5          7.895146        9.496524   1.000000   1.000000
      6          7.895146        9.496524   1.000000   1.000000
      7          7.895146        9.496525   1.000000   1.000000
      8          7.895146        9.496525   1.000000   1.000000
      9          9.440821       11.255543   1.000000   0.000000
     10          9.440821       11.255543   1.000000   0.000000
     11          9.440821       11.255543   1.000000   0.000000
     12          9.440821       11.255543   1.000000   0.000000
     13         25.633775       26.040717   0.000000   0.000000
     14         25.633775       26.040717   0.000000   0.000000
     15         33.487197       33.244795   0.000000   0.000000
     16         33.487197       33.244795   0.000000   0.000000
 
  0.1666667E+00  0.1387779E-16  0.5000000E+00  0.4166667E-01
      1          4.542930        4.660084   1.000000   1.000000
      2          4.542930        4.660084   1.000000   1.000000
      3          7.199065        8.625932   1.000000   1.000000
      4          7.199065        8.625932   1.000000   1.000000
      5          7.840622        9.341406   1.000000   1.000000
      6          7.840622        9.341406   1.000000   1.000000
      7          8.243187        9.877347   1.000000   1.000000
      8          8.243187        9.877347   1.000000   1.000000
      9          9.412305       11.217445   1.000000   0.000000
     10          9.412305       11.217445   1.000000   0.000000
     11          9.785318       11.506550   1.000000   0.000000
     12          9.785318       11.506550   1.000000   0.000000
     13         26.282781       26.667663   0.000000   0.000000
     14         26.282781       26.667663   0.000000   0.000000
     15         29.163583       29.389745   0.000000   0.000000
     16         29.163583       29.389745   0.000000   0.000000
 
  0.3333333E+00  0.2775558E-16  0.5000000E+00  0.4166667E-01
      1          5.491418        6.141341   1.000000   1.000000
      2          5.491418        6.141341   1.000000   1.000000
      3          6.912326        8.259584   1.000000   1.000000
      4          6.912326        8.259584   1.000000   1.000000
      5          8.528960        9.663353   1.000000   1.000000
      6          8.528960        9.663353   1.000000   1.000000
      7          8.724262       10.419512   1.000000   0.981070
      8          8.724262       10.419512   1.000000   0.981070
      9          9.651202       11.462281   1.000000   0.000000
     10          9.651202       11.462281   1.000000   0.000000
     11         10.639843       12.065143   0.000016   0.000000
     12         10.639843       12.065143   0.000016   0.000000
     13         22.035317       22.595047   0.000000   0.000000
     14         22.035317       22.595047   0.000000   0.000000
     15         28.457849       28.706210   0.000000   0.000000
     16         28.457849       28.706210   0.000000   0.000000
 
  0.5000000E+00  0.2775558E-16  0.5000000E+00  0.2083333E-01
      1          5.486129        6.477309   1.000000   1.000000
      2          5.486129        6.477309   1.000000   1.000000
      3          6.735571        8.086308   1.000000   1.000000
      4          6.735571        8.086308   1.000000   1.000000
      5          8.769671       10.475485   1.000000   0.689069
      6          8.769671       10.475485   1.000000   0.689069
      7          9.505303       10.790174   1.000000   0.000000
      8          9.505303       10.790174   1.000000   0.000000
      9         10.015995       11.864941   1.000000   0.000000
     10         10.015995       11.864941   1.000000   0.000000
     11         12.179954       12.787888   0.000000   0.000000
     12         12.179954       12.787888   0.000000   0.000000
     13         18.000249       18.895253   0.000000   0.000000
     14         18.000249       18.895253   0.000000   0.000000
     15         29.205117       29.482199   0.000000   0.000000
     16         29.205117       29.482199   0.000000   0.000000
 
  0.1666667E+00  0.1666667E+00  0.5000000E+00  0.4166667E-01
      1          5.545711        5.925624   1.000000   1.000000
      2          5.545711        5.925624   1.000000   1.000000
      3          7.118383        8.428246   1.000000   1.000000
      4          7.118383        8.428246   1.000000   1.000000
      5          7.571759        9.037242   1.000000   1.000000
      6          7.571759        9.037242   1.000000   1.000000
      7          8.610159       10.278336   1.000000   1.000000
      8          8.610159       10.278336   1.000000   1.000000
      9          9.719091       11.525084   1.000000   0.000000
     10          9.719091       11.525084   1.000000   0.000000
     11         10.469455       11.957438   0.746579   0.000000
     12         10.469455       11.957438   0.746579   0.000000
     13         25.513966       25.900539   0.000000   0.000000
     14         25.513966       25.900539   0.000000   0.000000
     15         26.281641       26.708699   0.000000   0.000000
     16         26.281641       26.708699   0.000000   0.000000
 
  0.3333333E+00  0.1666667E+00  0.5000000E+00  0.8333333E-01
      1          5.897997        6.874120   1.000000   1.000000
      2          5.897997        6.874120   1.000000   1.000000
      3          7.003112        8.330880   1.000000   1.000000
      4          7.003112        8.330880   1.000000   1.000000
      5          8.017495        9.242821   1.000000   1.000000
      6          8.017495        9.242821   1.000000   1.000000
      7          8.815088       10.443654   1.000000   0.918269
      8          8.815088       10.443654   1.000000   0.918269
      9          9.933251       11.759966   1.000000   0.000000
     10          9.933251       11.759966   1.000000   0.000000
     11         12.908345       13.831630   0.000000   0.000000
     12         12.908345       13.831630   0.000000   0.000000
     13         19.660582       20.350032   0.000000   0.000000
     14         19.660582       20.350032   0.000000   0.000000
     15         24.302360       24.726508   0.000000   0.000000
     16         24.302360       24.726508   0.000000   0.000000
 
  0.3333333E+00  0.3333333E+00  0.5000000E+00  0.1388889E-01
      1          6.652884        7.890381   1.000000   1.000000
      2          6.652884        7.890381   1.000000   1.000000
      3          6.788503        7.954607   1.000000   1.000000
      4          6.788503        7.954607   1.000000   1.000000
      5          7.592509        8.767918   1.000000   1.000000
      6          7.592509        8.767918   1.000000   1.000000
      7          8.664583       10.335240   1.000000   0.999996
      8          8.664583       10.335240   1.000000   0.999996
      9          9.809950       11.627198   1.000000   0.000000
     10          9.809950       11.627198   1.000000   0.000000
     11         16.393577       17.020199   0.000000   0.000000
     12         16.393577       17.020199   0.000000   0.000000
     13         18.005531       18.708587   0.000000   0.000000
     14         18.005531       18.708587   0.000000   0.000000
     15         20.326207       20.990665   0.000000   0.000000
     16         20.326207       20.990665   0.000000   0.000000
