 vasp.6.3.2 27Jun22 (build Aug 12 2022 00:53:59) complex                        
  
 executed on               tv2STD date 2024.12.02  16:51:41
 running   24 mpi-ranks, with    1 threads/rank
 distrk:  each k-point on   24 cores,    1 groups
 distr:  one band on NCORE=   6 cores,    4 groups


--------------------------------------------------------------------------------------------------------


 INCAR:
   SYSTEM = Co-hcc
   NWRITE = 2    write-flag
   ISTART = 0    job   : 0-new, 1-cont, 2-samecut
   ICHARG = 2    charge: 0-wave, 1-file, 2-atom, >10-const
   INIWAV = 1    electr: 0-lowe 1-rand  2-diag
   ENCUT = 425.0     energy cutoff in eV
   PREC = Accurate      normal | accurate
   ADDGRID = .FALSE.  (use fine grid)
   NELM = 100     number of ELM steps
   EDIFF = 1E-06    energy stopping-criterion for ELM
   LREAL = .FALSE.      real-space projection (.FALSE., .TRUE., On, Auto)
   ALGO = Normal     Normal, Fast, Very_Fast
   LWAVE = .FALSE.
   LCHARG = .FALSE.
   NSW = 0       max number of geometry steps
   IBRION = -1     ionic relax: 0-MD, 1-quasi-Newton, 2-CG, 3-Damped MD
   EDIFFG = -0.02  force (eV/A) stopping-criterion for geometry steps
   ISIF = 2     (1:force\=y stress\=trace only ions\=y shape\=n volume\=n)
   ISYM = 1     (1-use symmetry, 0-no symmetry)
   ISMEAR = 0     (-1-Fermi, 1-Methfessel/Paxton)
   SIGMA = 0.05   broadening in eV
   LORBIT = 11
   NPAR = 4
   ISPIN = 2
   MAGMOM = 2*3

 POTCAR:    PAW_PBE Co 02Aug2007                  
 POTCAR:    PAW_PBE Co 02Aug2007                  
   SHA256 =  0e690c60710354995174544f52f9f2c30879afabeffe3b3fbd4001cb294e56d4 Co/POTCAR             
   COPYR  = (c) Copyright 02Aug2007 Georg Kresse                                                    
   COPYR  = This file is part of the software VASP. Any use, copying, and all other rights are regul
   COPYR  = If you do not have a valid VASP license, you may not use, copy or distribute this file. 
   VRHFIN =Co: d8 s1                                                                                
   LEXCH  = PE                                                                                      
   EATOM  =   813.3670 eV,   59.7808 Ry                                                             
                                                                                                    
   TITEL  = PAW_PBE Co 02Aug2007                                                                    
   LULTRA =        F    use ultrasoft PP ?                                                          
   IUNSCR =        1    unscreen: 0-lin 1-nonlin 2-no                                               
   RPACOR =    2.000    partial core radius                                                         
   POMASS =   58.933; ZVAL   =    9.000    mass and valenz                                          
   RCORE  =    2.300    outmost cutoff radius                                                       
   RWIGS  =    2.460; RWIGS  =    1.302    wigner-seitz radius (au A)                               
   ENMAX  =  267.968; ENMIN  =  200.976 eV                                                          
   RCLOC  =    1.203    cutoff for local pot                                                        
   LCOR   =        T    correct aug charges                                                         
   LPAW   =        T    paw PP                                                                      
   EAUG   =  477.818                                                                                
   DEXC   =    0.000                                                                                
   RMAX   =    2.360    core radius for proj-oper                                                   
   RAUG   =    1.300    factor for augmentation sphere                                              
   RDEP   =    2.393    radius for radial grids                                                     
   RDEPT  =    1.864    core radius for aug-charge                                                  
                                                                                                    
   Atomic configuration                                                                             
    9 entries                                                                                       
     n  l   j            E        occ.                                                              
     1  0  0.50     -7587.6674   2.0000                                                             
     2  0  0.50      -893.6084   2.0000                                                             
     2  1  1.50      -764.5805   6.0000                                                             
     3  0  0.50       -97.5973   2.0000                                                             
     3  1  1.50       -60.9648   6.0000                                                             
     3  2  2.50        -4.2382   8.0000                                                             
     4  0  0.50        -4.3746   1.0000                                                             
     4  1  1.50        -4.0817   0.0000                                                             
     4  3  2.50        -1.3606   0.0000                                                             
   Description                                                                                      
     l       E           TYP  RCUT    TYP  RCUT                                                     
     2     -4.2382362     23  2.300                                                                 
     2     -5.5988188     23  2.300                                                                 
     0     -4.3745797     23  2.300                                                                 
     0      5.7660125     23  2.300                                                                 
     1     -2.7211652     23  2.300                                                                 
     1     16.9860234     23  2.300                                                                 
  local pseudopotential read in
  partial core-charges read in
  partial kinetic energy density read in
  atomic valenz-charges read in
  non local Contribution for L=           2  read in
    real space projection operators read in
  non local Contribution for L=           2  read in
    real space projection operators read in
  non local Contribution for L=           0  read in
    real space projection operators read in
  non local Contribution for L=           0  read in
    real space projection operators read in
  non local Contribution for L=           1  read in
    real space projection operators read in
  non local Contribution for L=           1  read in
    real space projection operators read in
    PAW grid and wavefunctions read in
 
   number of l-projection  operators is LMAX  =           6
   number of lm-projection operators is LMMAX =          18
 
  PAW_PBE Co 02Aug2007                  :
 energy of atom  1       EATOM= -813.3670
 kinetic energy error for atom=    0.0054 (will be added to EATOM!!)
 
 
 POSCAR: Co hcp
  positions in direct lattice
  No initial velocities read in
 exchange correlation table for  LEXCH =        8
   RHO(1)=    0.500       N(1)  =     2000
   RHO(2)=  100.500       N(2)  =     4000
 


--------------------------------------------------------------------------------------------------------


 ion  position               nearest neighbor table
   1  0.333  0.667  0.250-   2 2.47   2 2.47   2 2.47   2 2.47   2 2.47   2 2.47
   2  0.667  0.333  0.750-   1 2.47   1 2.47   1 2.47   1 2.47   1 2.47   1 2.47
 
  LATTYP: Found a hexagonal cell.
 ALAT       =     2.4719999032
 C/A-ratio  =     1.6266764715
  
  Lattice vectors:
  
 A1 = (   1.2359999516,  -2.1408147143,   0.0000000000)
 A2 = (   1.2359999516,   2.1408147143,   0.0000000000)
 A3 = (   0.0000000000,   0.0000000000,   4.0211440800)


Analysis of symmetry for initial positions (statically):
=====================================================================
 Subroutine PRICEL returns:
 Original cell was already a primitive cell.
 

 Routine SETGRP: Setting up the symmetry group for a 
 hexagonal supercell.


 Subroutine GETGRP returns: Found 24 space group operations
 (whereof 12 operations were pure point group operations)
 out of a pool of 24 trial point group operations.


The static configuration has the point symmetry D_3d.
 The point group associated with its full space group is D_6h.


Analysis of symmetry for dynamics (positions and initial velocities):
=====================================================================
 Subroutine PRICEL returns:
 Original cell was already a primitive cell.
 

 Routine SETGRP: Setting up the symmetry group for a 
 hexagonal supercell.


 Subroutine GETGRP returns: Found 24 space group operations
 (whereof 12 operations were pure point group operations)
 out of a pool of 24 trial point group operations.


The dynamic configuration has the point symmetry D_3d.
 The point group associated with its full space group is D_6h.


Analysis of structural, dynamic, and magnetic symmetry:
=====================================================================
 Subroutine PRICEL returns:
 Original cell was already a primitive cell.
 

 Routine SETGRP: Setting up the symmetry group for a 
 hexagonal supercell.


 Subroutine GETGRP returns: Found 24 space group operations
 (whereof 12 operations were pure point group operations)
 out of a pool of 24 trial point group operations.


The overall configuration has the point symmetry D_3d.
 The point group associated with its full space group is D_6h.


 Subroutine INISYM returns: Found 24 space group operations
 (whereof 12 operations are pure point group operations),
 and found     1 'primitive' translations


----------------------------------------------------------------------------------------

                                     Primitive cell                                     

  volume of cell :      21.2803

  direct lattice vectors                    reciprocal lattice vectors
     1.235999952 -2.140814714  0.000000000     0.404530760 -0.233555943  0.000000000
     1.235999952  2.140814714  0.000000000     0.404530760  0.233555943  0.000000000
     0.000000000  0.000000000  4.021144080     0.000000000  0.000000000  0.248685444

  length of vectors
     2.471999903  2.471999903  4.021144080     0.467111887  0.467111887  0.248685444

  position of ions in fractional coordinates (direct lattice)
     0.333333333  0.666666667  0.250000000
     0.666666667  0.333333333  0.750000000

  ion indices of the primitive-cell ions
   primitive index   ion index
                 1           1
                 2           2

----------------------------------------------------------------------------------------

 
 
 KPOINTS: Automatic mesh                          

Automatic generation of k-mesh.
 Grid dimensions read from file:
 generate k-points for:    6    6    4

 Generating k-lattice:

  Cartesian coordinates                     Fractional coordinates (reciprocal lattice)
     0.067421793 -0.038925991  0.000000000     0.166666667  0.000000000  0.000000000
     0.067421793  0.038925991  0.000000000     0.000000000  0.166666667  0.000000000
     0.000000000  0.000000000  0.062171361     0.000000000  0.000000000  0.250000000

  Length of vectors
     0.077851981  0.077851981  0.062171361

  Shift w.r.t. Gamma in fractional coordinates (k-lattice)
     0.000000000  0.000000000  0.000000000

 
 Subroutine IBZKPT returns following result:
 ===========================================
 
 Found     21 irreducible k-points:
 
 Following reciprocal coordinates:
            Coordinates               Weight
  0.000000  0.000000  0.000000      1.000000
  0.166667  0.000000  0.000000      6.000000
  0.333333  0.000000  0.000000      6.000000
  0.500000  0.000000  0.000000      3.000000
  0.166667  0.166667  0.000000      6.000000
  0.333333  0.166667  0.000000     12.000000
  0.333333  0.333333  0.000000      2.000000
  0.000000  0.000000  0.250000      2.000000
  0.166667  0.000000  0.250000     12.000000
  0.333333  0.000000  0.250000     12.000000
  0.500000  0.000000  0.250000      6.000000
  0.166667  0.166667  0.250000     12.000000
  0.333333  0.166667  0.250000     24.000000
  0.333333  0.333333  0.250000      4.000000
  0.000000  0.000000  0.500000      1.000000
  0.166667  0.000000  0.500000      6.000000
  0.333333  0.000000  0.500000      6.000000
  0.500000  0.000000  0.500000      3.000000
  0.166667  0.166667  0.500000      6.000000
  0.333333  0.166667  0.500000     12.000000
  0.333333  0.333333  0.500000      2.000000
 
 Following cartesian coordinates:
            Coordinates               Weight
  0.000000  0.000000  0.000000      1.000000
  0.067422 -0.038926  0.000000      6.000000
  0.134844 -0.077852  0.000000      6.000000
  0.202265 -0.116778  0.000000      3.000000
  0.134844  0.000000  0.000000      6.000000
  0.202265 -0.038926  0.000000     12.000000
  0.269687  0.000000  0.000000      2.000000
  0.000000  0.000000  0.062171      2.000000
  0.067422 -0.038926  0.062171     12.000000
  0.134844 -0.077852  0.062171     12.000000
  0.202265 -0.116778  0.062171      6.000000
  0.134844  0.000000  0.062171     12.000000
  0.202265 -0.038926  0.062171     24.000000
  0.269687  0.000000  0.062171      4.000000
  0.000000  0.000000  0.124343      1.000000
  0.067422 -0.038926  0.124343      6.000000
  0.134844 -0.077852  0.124343      6.000000
  0.202265 -0.116778  0.124343      3.000000
  0.134844  0.000000  0.124343      6.000000
  0.202265 -0.038926  0.124343     12.000000
  0.269687  0.000000  0.124343      2.000000
 


--------------------------------------------------------------------------------------------------------




 Dimension of arrays:
   k-points           NKPTS =     21   k-points in BZ     NKDIM =     21   number of bands    NBANDS=     16
   number of dos      NEDOS =    301   number of ions     NIONS =      2
   non local maximal  LDIM  =      6   non local SUM 2l+1 LMDIM =     18
   total plane-waves  NPLWV =   9072
   max r-space proj   IRMAX =      1   max aug-charges    IRDMAX=  17011
   dimension x,y,z NGX =    18 NGY =   18 NGZ =   28
   dimension x,y,z NGXF=    36 NGYF=   36 NGZF=   56
   support grid    NGXF=    36 NGYF=   36 NGZF=   56
   ions per type =               2
   NGX,Y,Z   is equivalent  to a cutoff of  12.11, 12.11, 11.58 a.u.
   NGXF,Y,Z  is equivalent  to a cutoff of  24.21, 24.21, 23.15 a.u.

 SYSTEM =  Co-hcc                                  
 POSCAR =  Co hcp                                  

 Startparameter for this run:
   NWRITE =      2    write-flag & timer
   PREC   = accura    normal or accurate (medium, high low for compatibility)
   ISTART =      0    job   : 0-new  1-cont  2-samecut
   ICHARG =      2    charge: 1-file 2-atom 10-const
   ISPIN  =      2    spin polarized calculation?
   LNONCOLLINEAR =      F non collinear calculations
   LSORBIT =      F    spin-orbit coupling
   INIWAV =      1    electr: 0-lowe 1-rand  2-diag
   LASPH  =      F    aspherical Exc in radial PAW
 Electronic Relaxation 1
   ENCUT  =  425.0 eV  31.24 Ry    5.59 a.u.   4.16  4.16  6.76*2*pi/ulx,y,z
   ENINI  =  425.0     initial cutoff
   ENAUG  =  477.8 eV  augmentation charge cutoff
   NELM   =    100;   NELMIN=  2; NELMDL= -5     # of ELM steps 
   EDIFF  = 0.1E-05   stopping-criterion for ELM
   LREAL  =      F    real-space projection
   NLSPLINE    = F    spline interpolate recip. space projectors
   LCOMPAT=      F    compatible to vasp.4.4
   GGA_COMPAT  = T    GGA compatible to vasp.4.4-vasp.4.6
   LMAXPAW     = -100 max onsite density
   LMAXMIX     =    2 max onsite mixed and CHGCAR
   VOSKOWN=      0    Vosko Wilk Nusair interpolation
   ROPT   =    0.00000
 Ionic relaxation
   EDIFFG = -.2E-01   stopping-criterion for IOM
   NSW    =      0    number of steps for IOM
   NBLOCK =      1;   KBLOCK =      1    inner block; outer block 
   IBRION =     -1    ionic relax: 0-MD 1-quasi-New 2-CG
   NFREE  =      0    steps in history (QN), initial steepest desc. (CG)
   ISIF   =      2    stress and relaxation
   IWAVPR =     10    prediction:  0-non 1-charg 2-wave 3-comb
   ISYM   =      1    0-nonsym 1-usesym 2-fastsym
   LCORR  =      T    Harris-Foulkes like correction to forces

   POTIM  = 0.5000    time-step for ionic-motion
   TEIN   =    0.0    initial temperature
   TEBEG  =    0.0;   TEEND  =   0.0 temperature during run
   SMASS  =  -3.00    Nose mass-parameter (am)
   estimated Nose-frequenzy (Omega)   =  0.10E-29 period in steps = 0.13E+47 mass=  -0.140E-27a.u.
   SCALEE = 1.0000    scale energy and forces
   NPACO  =    256;   APACO  = 10.0  distance and # of slots for P.C.
   PSTRESS=    0.0 pullay stress

  Mass of Ions in am
   POMASS =  58.93
  Ionic Valenz
   ZVAL   =   9.00
  Atomic Wigner-Seitz radii
   RWIGS  =  -1.00
  virtual crystal weights 
   VCA    =   1.00
   NELECT =      18.0000    total number of electrons
   NUPDOWN=      -1.0000    fix difference up-down

 DOS related values:
   EMIN   =  10.00;   EMAX   =-10.00  energy-range for DOS
   EFERMI =   0.00
   ISMEAR =     0;   SIGMA  =   0.05  broadening in eV -4-tet -1-fermi 0-gaus

 Electronic relaxation 2 (details)
   IALGO  =     38    algorithm
   LDIAG  =      T    sub-space diagonalisation (order eigenvalues)
   LSUBROT=      F    optimize rotation matrix (better conditioning)
   TURBO    =      0    0=normal 1=particle mesh
   IRESTART =      0    0=no restart 2=restart with 2 vectors
   NREBOOT  =      0    no. of reboots
   NMIN     =      0    reboot dimension
   EREF     =   0.00    reference energy to select bands
   IMIX   =      4    mixing-type and parameters
     AMIX     =   0.40;   BMIX     =  1.00
     AMIX_MAG =   1.60;   BMIX_MAG =  1.00
     AMIN     =   0.10
     WC   =   100.;   INIMIX=   1;  MIXPRE=   1;  MAXMIX= -45

 Intra band minimization:
   WEIMIN = 0.0000     energy-eigenvalue tresh-hold
   EBREAK =  0.16E-07  absolut break condition
   DEPER  =   0.30     relativ break condition  

   TIME   =   0.40     timestep for ELM

  volume/ion in A,a.u.               =      10.64        71.80
  Fermi-wavevector in a.u.,A,eV,Ry     =   1.548246  2.925761 32.614055  2.397065
  Thomas-Fermi vector in A             =   2.653224
 
 Write flags
   LWAVE        =      F    write WAVECAR
   LDOWNSAMPLE  =      F    k-point downsampling of WAVECAR
   LCHARG       =      F    write CHGCAR
   LVTOT        =      F    write LOCPOT, total local potential
   LVHAR        =      F    write LOCPOT, Hartree potential only
   LELF         =      F    write electronic localiz. function (ELF)
   LORBIT       =     11    0 simple, 1 ext, 2 COOP (PROOUT), +10 PAW based schemes


 Dipole corrections
   LMONO  =      F    monopole corrections only (constant potential shift)
   LDIPOL =      F    correct potential (dipole corrections)
   IDIPOL =      0    1-x, 2-y, 3-z, 4-all directions 
   EPSILON=  1.0000000 bulk dielectric constant

 Exchange correlation treatment:
   GGA     =    --    GGA type
   LEXCH   =     8    internal setting for exchange type
   LIBXC   =     F    Libxc                    
   VOSKOWN =     0    Vosko Wilk Nusair interpolation
   LHFCALC =     F    Hartree Fock is set to
   LHFONE  =     F    Hartree Fock one center treatment
   AEXX    =    0.0000 exact exchange contribution

 Linear response parameters
   LEPSILON=     F    determine dielectric tensor
   LRPA    =     F    only Hartree local field effects (RPA)
   LNABLA  =     F    use nabla operator in PAW spheres
   LVEL    =     F    velocity operator in full k-point grid
   CSHIFT  =0.1000    complex shift for real part using Kramers Kronig
   OMEGAMAX=  -1.0    maximum frequency
   DEG_THRESHOLD= 0.2000000E-02 threshold for treating states as degnerate
   RTIME   =   -0.100 relaxation time in fs
  (WPLASMAI=    0.000 imaginary part of plasma frequency in eV, 0.658/RTIME)
   DFIELD  = 0.0000000 0.0000000 0.0000000 field for delta impulse in time
 
  Optional k-point grid parameters
   LKPOINTS_OPT  =     F    use optional k-point grid
   KPOINTS_OPT_MODE=     1    mode for optional k-point grid
 
 Orbital magnetization related:
   ORBITALMAG=     F  switch on orbital magnetization
   LCHIMAG   =     F  perturbation theory with respect to B field
   DQ        =  0.001000  dq finite difference perturbation B field
   LLRAUG    =     F  two centre corrections for induced B field



--------------------------------------------------------------------------------------------------------


 Static calculation
 charge density and potential will be updated during run
 spin polarized calculation
 Variant of blocked Davidson
 Davidson routine will perform the subspace rotation
 perform sub-space diagonalisation
    after iterative eigenvector-optimisation
 modified Broyden-mixing scheme, WC =      100.0
 initial mixing is a Kerker type mixing with AMIX =  0.4000 and BMIX =      1.0000
 Hartree-type preconditioning will be used
 using additional bands            7
 reciprocal scheme for non local part
 use partial core corrections
 calculate Harris-corrections to forces 
   (improved forces if not selfconsistent)
 use gradient corrections 
 use of overlap-Matrix (Vanderbilt PP)
 Gauss-broadening in eV      SIGMA  =   0.05


--------------------------------------------------------------------------------------------------------


  energy-cutoff  :      425.00
  volume of cell :       21.28
      direct lattice vectors                 reciprocal lattice vectors
     1.235999952 -2.140814714  0.000000000     0.404530760 -0.233555943  0.000000000
     1.235999952  2.140814714  0.000000000     0.404530760  0.233555943  0.000000000
     0.000000000  0.000000000  4.021144080     0.000000000  0.000000000  0.248685444

  length of vectors
     2.471999903  2.471999903  4.021144080     0.467111887  0.467111887  0.248685444


 
 k-points in units of 2pi/SCALE and weight: Automatic mesh                          
   0.00000000  0.00000000  0.00000000       0.007
   0.06742179 -0.03892599  0.00000000       0.042
   0.13484359 -0.07785198  0.00000000       0.042
   0.20226538 -0.11677797  0.00000000       0.021
   0.13484359  0.00000000  0.00000000       0.042
   0.20226538 -0.03892599  0.00000000       0.083
   0.26968717  0.00000000  0.00000000       0.014
   0.00000000  0.00000000  0.06217136       0.014
   0.06742179 -0.03892599  0.06217136       0.083
   0.13484359 -0.07785198  0.06217136       0.083
   0.20226538 -0.11677797  0.06217136       0.042
   0.13484359  0.00000000  0.06217136       0.083
   0.20226538 -0.03892599  0.06217136       0.167
   0.26968717  0.00000000  0.06217136       0.028
   0.00000000  0.00000000  0.12434272       0.007
   0.06742179 -0.03892599  0.12434272       0.042
   0.13484359 -0.07785198  0.12434272       0.042
   0.20226538 -0.11677797  0.12434272       0.021
   0.13484359  0.00000000  0.12434272       0.042
   0.20226538 -0.03892599  0.12434272       0.083
   0.26968717  0.00000000  0.12434272       0.014
 
 k-points in reciprocal lattice and weights: Automatic mesh                          
   0.00000000  0.00000000  0.00000000       0.007
   0.16666667  0.00000000  0.00000000       0.042
   0.33333333  0.00000000  0.00000000       0.042
   0.50000000  0.00000000  0.00000000       0.021
   0.16666667  0.16666667  0.00000000       0.042
   0.33333333  0.16666667  0.00000000       0.083
   0.33333333  0.33333333  0.00000000       0.014
   0.00000000  0.00000000  0.25000000       0.014
   0.16666667  0.00000000  0.25000000       0.083
   0.33333333  0.00000000  0.25000000       0.083
   0.50000000  0.00000000  0.25000000       0.042
   0.16666667  0.16666667  0.25000000       0.083
   0.33333333  0.16666667  0.25000000       0.167
   0.33333333  0.33333333  0.25000000       0.028
   0.00000000  0.00000000  0.50000000       0.007
   0.16666667  0.00000000  0.50000000       0.042
   0.33333333  0.00000000  0.50000000       0.042
   0.50000000  0.00000000  0.50000000       0.021
   0.16666667  0.16666667  0.50000000       0.042
   0.33333333  0.16666667  0.50000000       0.083
   0.33333333  0.33333333  0.50000000       0.014
 
 position of ions in fractional coordinates (direct lattice) 
   0.33333333  0.66666667  0.25000000
   0.66666667  0.33333333  0.75000000
 
 position of ions in cartesian coordinates  (Angst):
   1.23599995  0.71360490  1.00528602
   1.23599995 -0.71360490  3.01585806
 


--------------------------------------------------------------------------------------------------------


 k-point   1 :   0.0000 0.0000 0.0000  plane waves:     391
 k-point   2 :   0.1667 0.0000 0.0000  plane waves:     409
 k-point   3 :   0.3333 0.0000 0.0000  plane waves:     427
 k-point   4 :   0.5000 0.0000 0.0000  plane waves:     428
 k-point   5 :   0.1667 0.1667 0.0000  plane waves:     422
 k-point   6 :   0.3333 0.1667 0.0000  plane waves:     428
 k-point   7 :   0.3333 0.3333 0.0000  plane waves:     438
 k-point   8 :   0.0000 0.0000 0.2500  plane waves:     404
 k-point   9 :   0.1667 0.0000 0.2500  plane waves:     421
 k-point  10 :   0.3333 0.0000 0.2500  plane waves:     425
 k-point  11 :   0.5000 0.0000 0.2500  plane waves:     432
 k-point  12 :   0.1667 0.1667 0.2500  plane waves:     418
 k-point  13 :   0.3333 0.1667 0.2500  plane waves:     421
 k-point  14 :   0.3333 0.3333 0.2500  plane waves:     426
 k-point  15 :   0.0000 0.0000 0.5000  plane waves:     422
 k-point  16 :   0.1667 0.0000 0.5000  plane waves:     428
 k-point  17 :   0.3333 0.0000 0.5000  plane waves:     426
 k-point  18 :   0.5000 0.0000 0.5000  plane waves:     432
 k-point  19 :   0.1667 0.1667 0.5000  plane waves:     424
 k-point  20 :   0.3333 0.1667 0.5000  plane waves:     420
 k-point  21 :   0.3333 0.3333 0.5000  plane waves:     432

 maximum and minimum number of plane-waves per node :        79       59

 maximum number of plane-waves:       438
 maximum index in each direction: 
   IXMAX=    4   IYMAX=    4   IZMAX=    6
   IXMIN=   -4   IYMIN=   -4   IZMIN=   -7


 parallel 3D FFT for wavefunctions:
    minimum data exchange during FFTs selected (reduces bandwidth)
 parallel 3D FFT for charge:
    minimum data exchange during FFTs selected (reduces bandwidth)


 total amount of memory used by VASP MPI-rank0    31142. kBytes
=======================================================================

   base      :      30000. kBytes
   nonl-proj :        244. kBytes
   fftplans  :        178. kBytes
   grid      :        421. kBytes
   one-center:         31. kBytes
   wavefun   :        268. kBytes
 
     INWAV:  cpu time      0.0000: real time      0.0003
 Broyden mixing: mesh for mixing (old mesh)
   NGX =  9   NGY =  9   NGZ = 13
  (NGX  = 36   NGY  = 36   NGZ  = 56)
  gives a total of   1053 points

 initial charge density was supplied:
 charge density of overlapping atoms calculated
 number of electron      18.0000000 magnetization       6.0000000
 keeping initial charge density in first step


--------------------------------------------------------------------------------------------------------


 Maximum index for augmentation-charges         1066 (set IRDMAX)


--------------------------------------------------------------------------------------------------------


 First call to EWALD:  gamma=   0.640
 Maximum number of real-space cells 3x 3x 2
 Maximum number of reciprocal cells 3x 3x 4

    FEWALD:  cpu time      0.0014: real time      0.0014


--------------------------------------- Iteration      1(   1)  ---------------------------------------


    POTLOK:  cpu time      0.0065: real time      0.0067
    SETDIJ:  cpu time      0.0053: real time      0.0054
     EDDAV:  cpu time      0.1342: real time      0.1352
       DOS:  cpu time      0.0009: real time      0.0009
    --------------------------------------------
      LOOP:  cpu time      0.1470: real time      0.1482

 eigenvalue-minimisations  :  1384
 total energy-change (2. order) : 0.6809498E+02  (-0.7405762E+03)
 number of electron      18.0000000 magnetization       6.0000000
 augmentation part       18.0000000 magnetization       6.0000000

 Free energy of the ion-electron system (eV)
  ---------------------------------------------------
  alpha Z        PSCENC =        79.61870385
  Ewald energy   TEWEN  =     -1531.60263765
  -Hartree energ DENC   =      -295.86427829
  -exchange      EXHF   =         0.00000000
  -V(xc)+E(xc)   XCENC  =        35.75670864
  PAW double counting   =      1439.98163886    -1545.88690193
  entropy T*S    EENTRO =        -0.00328308
  eigenvalues    EBANDS =       259.37180423
  atomic energy  EATOM  =      1626.72322989
  Solvation  Ediel_sol  =         0.00000000
  ---------------------------------------------------
  free energy    TOTEN  =        68.09498451 eV

  energy without entropy =       68.09826759  energy(sigma->0) =       68.09662605


--------------------------------------------------------------------------------------------------------




--------------------------------------- Iteration      1(   2)  ---------------------------------------


     EDDAV:  cpu time      0.1236: real time      0.1249
       DOS:  cpu time      0.0005: real time      0.0005
    --------------------------------------------
      LOOP:  cpu time      0.1242: real time      0.1255

 eigenvalue-minimisations  :  1360
 total energy-change (2. order) :-0.8177459E+02  (-0.7547996E+02)
 number of electron      18.0000000 magnetization       6.0000000
 augmentation part       18.0000000 magnetization       6.0000000

 Free energy of the ion-electron system (eV)
  ---------------------------------------------------
  alpha Z        PSCENC =        79.61870385
  Ewald energy   TEWEN  =     -1531.60263765
  -Hartree energ DENC   =      -295.86427829
  -exchange      EXHF   =         0.00000000
  -V(xc)+E(xc)   XCENC  =        35.75670864
  PAW double counting   =      1439.98163886    -1545.88690193
  entropy T*S    EENTRO =        -0.00305464
  eigenvalues    EBANDS =       177.59698830
  atomic energy  EATOM  =      1626.72322989
  Solvation  Ediel_sol  =         0.00000000
  ---------------------------------------------------
  free energy    TOTEN  =       -13.67960298 eV

  energy without entropy =      -13.67654834  energy(sigma->0) =      -13.67807566


--------------------------------------------------------------------------------------------------------




--------------------------------------- Iteration      1(   3)  ---------------------------------------


     EDDAV:  cpu time      0.1458: real time      0.1467
       DOS:  cpu time      0.0005: real time      0.0005
    --------------------------------------------
      LOOP:  cpu time      0.1463: real time      0.1472

 eigenvalue-minimisations  :  1672
 total energy-change (2. order) :-0.1899504E+01  (-0.1856679E+01)
 number of electron      18.0000000 magnetization       6.0000000
 augmentation part       18.0000000 magnetization       6.0000000

 Free energy of the ion-electron system (eV)
  ---------------------------------------------------
  alpha Z        PSCENC =        79.61870385
  Ewald energy   TEWEN  =     -1531.60263765
  -Hartree energ DENC   =      -295.86427829
  -exchange      EXHF   =         0.00000000
  -V(xc)+E(xc)   XCENC  =        35.75670864
  PAW double counting   =      1439.98163886    -1545.88690193
  entropy T*S    EENTRO =        -0.00140406
  eigenvalues    EBANDS =       175.69583396
  atomic energy  EATOM  =      1626.72322989
  Solvation  Ediel_sol  =         0.00000000
  ---------------------------------------------------
  free energy    TOTEN  =       -15.57910673 eV

  energy without entropy =      -15.57770267  energy(sigma->0) =      -15.57840470


--------------------------------------------------------------------------------------------------------




--------------------------------------- Iteration      1(   4)  ---------------------------------------


     EDDAV:  cpu time      0.1641: real time      0.1652
       DOS:  cpu time      0.0005: real time      0.0005
    --------------------------------------------
      LOOP:  cpu time      0.1646: real time      0.1657

 eigenvalue-minimisations  :  1944
 total energy-change (2. order) :-0.2939288E-01  (-0.2938832E-01)
 number of electron      18.0000000 magnetization       6.0000000
 augmentation part       18.0000000 magnetization       6.0000000

 Free energy of the ion-electron system (eV)
  ---------------------------------------------------
  alpha Z        PSCENC =        79.61870385
  Ewald energy   TEWEN  =     -1531.60263765
  -Hartree energ DENC   =      -295.86427829
  -exchange      EXHF   =         0.00000000
  -V(xc)+E(xc)   XCENC  =        35.75670864
  PAW double counting   =      1439.98163886    -1545.88690193
  entropy T*S    EENTRO =        -0.00140150
  eigenvalues    EBANDS =       175.66643852
  atomic energy  EATOM  =      1626.72322989
  Solvation  Ediel_sol  =         0.00000000
  ---------------------------------------------------
  free energy    TOTEN  =       -15.60849961 eV

  energy without entropy =      -15.60709812  energy(sigma->0) =      -15.60779887


--------------------------------------------------------------------------------------------------------




--------------------------------------- Iteration      1(   5)  ---------------------------------------


     EDDAV:  cpu time      0.1449: real time      0.1459
       DOS:  cpu time      0.0005: real time      0.0005
    CHARGE:  cpu time      0.0157: real time      0.0158
    MIXING:  cpu time      0.0003: real time      0.0003
    --------------------------------------------
      LOOP:  cpu time      0.1614: real time      0.1624

 eigenvalue-minimisations  :  1680
 total energy-change (2. order) :-0.2524264E-03  (-0.2524248E-03)
 number of electron      17.9999984 magnetization       3.3829840
 augmentation part        9.1636859 magnetization       2.6376033

 Broyden mixing:
  rms(total) = 0.16528E+01    rms(broyden)= 0.16528E+01
  rms(prec ) = 0.27200E+01
  weight for this iteration     100.00

 Free energy of the ion-electron system (eV)
  ---------------------------------------------------
  alpha Z        PSCENC =        79.61870385
  Ewald energy   TEWEN  =     -1531.60263765
  -Hartree energ DENC   =      -295.86427829
  -exchange      EXHF   =         0.00000000
  -V(xc)+E(xc)   XCENC  =        35.75670864
  PAW double counting   =      1439.98163886    -1545.88690193
  entropy T*S    EENTRO =        -0.00140117
  eigenvalues    EBANDS =       175.66618577
  atomic energy  EATOM  =      1626.72322989
  Solvation  Ediel_sol  =         0.00000000
  ---------------------------------------------------
  free energy    TOTEN  =       -15.60875204 eV

  energy without entropy =      -15.60735087  energy(sigma->0) =      -15.60805146


--------------------------------------------------------------------------------------------------------




--------------------------------------- Iteration      1(   6)  ---------------------------------------


    POTLOK:  cpu time      0.0050: real time      0.0052
    SETDIJ:  cpu time      0.0050: real time      0.0050
     EDDAV:  cpu time      0.1279: real time      0.1286
       DOS:  cpu time      0.0005: real time      0.0005
    CHARGE:  cpu time      0.0147: real time      0.0147
    MIXING:  cpu time      0.0003: real time      0.0003
    --------------------------------------------
      LOOP:  cpu time      0.1534: real time      0.1543

 eigenvalue-minimisations  :  1456
 total energy-change (2. order) : 0.1145953E+01  (-0.1080474E+01)
 number of electron      17.9999981 magnetization       3.1363934
 augmentation part       10.6828055 magnetization       2.7956872

 Broyden mixing:
  rms(total) = 0.61520E+00    rms(broyden)= 0.61517E+00
  rms(prec ) = 0.84452E+00
  weight for this iteration     100.00

 eigenvalues of (default mixing * dielectric matrix)
  average eigenvalue GAMMA=   0.9151
  0.9151

 Free energy of the ion-electron system (eV)
  ---------------------------------------------------
  alpha Z        PSCENC =        79.61870385
  Ewald energy   TEWEN  =     -1531.60263765
  -Hartree energ DENC   =      -259.10304097
  -exchange      EXHF   =         0.00000000
  -V(xc)+E(xc)   XCENC  =        32.69856129
  PAW double counting   =      1596.11865741    -1691.94903192
  entropy T*S    EENTRO =        -0.00253772
  eigenvalues    EBANDS =       133.03529691
  atomic energy  EATOM  =      1626.72322989
  Solvation  Ediel_sol  =         0.00000000
  ---------------------------------------------------
  free energy    TOTEN  =       -14.46279891 eV

  energy without entropy =      -14.46026118  energy(sigma->0) =      -14.46153004


--------------------------------------------------------------------------------------------------------




--------------------------------------- Iteration      1(   7)  ---------------------------------------


    POTLOK:  cpu time      0.0048: real time      0.0050
    SETDIJ:  cpu time      0.0048: real time      0.0048
     EDDAV:  cpu time      0.1323: real time      0.1333
       DOS:  cpu time      0.0005: real time      0.0005
    CHARGE:  cpu time      0.0146: real time      0.0147
    MIXING:  cpu time      0.0003: real time      0.0003
    --------------------------------------------
      LOOP:  cpu time      0.1574: real time      0.1586

 eigenvalue-minimisations  :  1520
 total energy-change (2. order) : 0.3341046E+00  (-0.1406451E+00)
 number of electron      17.9999982 magnetization       3.1228762
 augmentation part       10.1851741 magnetization       2.7928659

 Broyden mixing:
  rms(total) = 0.36839E+00    rms(broyden)= 0.36838E+00
  rms(prec ) = 0.43302E+00
  weight for this iteration     100.00

 eigenvalues of (default mixing * dielectric matrix)
  average eigenvalue GAMMA=   0.7510
  1.0262  0.4758

 Free energy of the ion-electron system (eV)
  ---------------------------------------------------
  alpha Z        PSCENC =        79.61870385
  Ewald energy   TEWEN  =     -1531.60263765
  -Hartree energ DENC   =      -266.92250194
  -exchange      EXHF   =         0.00000000
  -V(xc)+E(xc)   XCENC  =        33.16121420
  PAW double counting   =      1678.14221754    -1780.86184043
  entropy T*S    EENTRO =        -0.00246074
  eigenvalues    EBANDS =       147.61538098
  atomic energy  EATOM  =      1626.72322989
  Solvation  Ediel_sol  =         0.00000000
  ---------------------------------------------------
  free energy    TOTEN  =       -14.12869431 eV

  energy without entropy =      -14.12623357  energy(sigma->0) =      -14.12746394


--------------------------------------------------------------------------------------------------------




--------------------------------------- Iteration      1(   8)  ---------------------------------------


    POTLOK:  cpu time      0.0048: real time      0.0050
    SETDIJ:  cpu time      0.0048: real time      0.0048
     EDDAV:  cpu time      0.1681: real time      0.1690
       DOS:  cpu time      0.0005: real time      0.0005
    CHARGE:  cpu time      0.0149: real time      0.0150
    MIXING:  cpu time      0.0003: real time      0.0003
    --------------------------------------------
      LOOP:  cpu time      0.1934: real time      0.1946

 eigenvalue-minimisations  :  1896
 total energy-change (2. order) : 0.2111530E-01  (-0.1595892E-02)
 number of electron      17.9999982 magnetization       3.1401451
 augmentation part       10.2169731 magnetization       2.8265167

 Broyden mixing:
  rms(total) = 0.16574E+00    rms(broyden)= 0.16574E+00
  rms(prec ) = 0.21232E+00
  weight for this iteration     100.00

 eigenvalues of (default mixing * dielectric matrix)
  average eigenvalue GAMMA=   1.0065
  1.6714  0.7677  0.5805

 Free energy of the ion-electron system (eV)
  ---------------------------------------------------
  alpha Z        PSCENC =        79.61870385
  Ewald energy   TEWEN  =     -1531.60263765
  -Hartree energ DENC   =      -264.54526164
  -exchange      EXHF   =         0.00000000
  -V(xc)+E(xc)   XCENC  =        33.07343914
  PAW double counting   =      1735.65250335    -1839.58365891
  entropy T*S    EENTRO =        -0.00254284
  eigenvalues    EBANDS =       146.55864582
  atomic energy  EATOM  =      1626.72322989
  Solvation  Ediel_sol  =         0.00000000
  ---------------------------------------------------
  free energy    TOTEN  =       -14.10757901 eV

  energy without entropy =      -14.10503616  energy(sigma->0) =      -14.10630759


--------------------------------------------------------------------------------------------------------




--------------------------------------- Iteration      1(   9)  ---------------------------------------


    POTLOK:  cpu time      0.0050: real time      0.0052
    SETDIJ:  cpu time      0.0050: real time      0.0050
     EDDAV:  cpu time      0.1655: real time      0.1664
       DOS:  cpu time      0.0005: real time      0.0005
    CHARGE:  cpu time      0.0145: real time      0.0146
    MIXING:  cpu time      0.0003: real time      0.0003
    --------------------------------------------
      LOOP:  cpu time      0.1908: real time      0.1919

 eigenvalue-minimisations  :  1976
 total energy-change (2. order) : 0.1285453E-01  (-0.3335137E-03)
 number of electron      17.9999982 magnetization       3.1616730
 augmentation part       10.2488254 magnetization       2.8552574

 Broyden mixing:
  rms(total) = 0.48608E-01    rms(broyden)= 0.48608E-01
  rms(prec ) = 0.60429E-01
  weight for this iteration     100.00

 eigenvalues of (default mixing * dielectric matrix)
  average eigenvalue GAMMA=   1.1537
  2.2997  0.9419  0.7556  0.6176

 Free energy of the ion-electron system (eV)
  ---------------------------------------------------
  alpha Z        PSCENC =        79.61870385
  Ewald energy   TEWEN  =     -1531.60263765
  -Hartree energ DENC   =      -262.08693685
  -exchange      EXHF   =         0.00000000
  -V(xc)+E(xc)   XCENC  =        32.98525159
  PAW double counting   =      1796.30669905    -1901.61636573
  entropy T*S    EENTRO =        -0.00259445
  eigenvalues    EBANDS =       145.57992582
  atomic energy  EATOM  =      1626.72322989
  Solvation  Ediel_sol  =         0.00000000
  ---------------------------------------------------
  free energy    TOTEN  =       -14.09472448 eV

  energy without entropy =      -14.09213004  energy(sigma->0) =      -14.09342726


--------------------------------------------------------------------------------------------------------




--------------------------------------- Iteration      1(  10)  ---------------------------------------


    POTLOK:  cpu time      0.0048: real time      0.0050
    SETDIJ:  cpu time      0.0048: real time      0.0049
     EDDAV:  cpu time      0.1521: real time      0.1530
       DOS:  cpu time      0.0005: real time      0.0005
    CHARGE:  cpu time      0.0145: real time      0.0145
    MIXING:  cpu time      0.0003: real time      0.0003
    --------------------------------------------
      LOOP:  cpu time      0.1771: real time      0.1782

 eigenvalue-minimisations  :  1784
 total energy-change (2. order) : 0.1263731E-02  (-0.5007431E-04)
 number of electron      17.9999982 magnetization       3.1571492
 augmentation part       10.2552109 magnetization       2.8440156

 Broyden mixing:
  rms(total) = 0.47949E-02    rms(broyden)= 0.47944E-02
  rms(prec ) = 0.70527E-02
  weight for this iteration     100.00

 eigenvalues of (default mixing * dielectric matrix)
  average eigenvalue GAMMA=   1.1610
  2.3277  1.0739  1.0739  0.6551  0.6744

 Free energy of the ion-electron system (eV)
  ---------------------------------------------------
  alpha Z        PSCENC =        79.61870385
  Ewald energy   TEWEN  =     -1531.60263765
  -Hartree energ DENC   =      -261.12646148
  -exchange      EXHF   =         0.00000000
  -V(xc)+E(xc)   XCENC  =        32.93568640
  PAW double counting   =      1824.29266477    -1930.31937643
  entropy T*S    EENTRO =        -0.00259919
  eigenvalues    EBANDS =       145.38732909
  atomic energy  EATOM  =      1626.72322989
  Solvation  Ediel_sol  =         0.00000000
  ---------------------------------------------------
  free energy    TOTEN  =       -14.09346075 eV

  energy without entropy =      -14.09086156  energy(sigma->0) =      -14.09216116


--------------------------------------------------------------------------------------------------------




--------------------------------------- Iteration      1(  11)  ---------------------------------------


    POTLOK:  cpu time      0.0049: real time      0.0050
    SETDIJ:  cpu time      0.0050: real time      0.0050
     EDDAV:  cpu time      0.1622: real time      0.1632
       DOS:  cpu time      0.0005: real time      0.0005
    CHARGE:  cpu time      0.0145: real time      0.0145
    MIXING:  cpu time      0.0003: real time      0.0003
    --------------------------------------------
      LOOP:  cpu time      0.1873: real time      0.1885

 eigenvalue-minimisations  :  1928
 total energy-change (2. order) :-0.8161010E-07  (-0.3584181E-05)
 number of electron      17.9999982 magnetization       3.1534880
 augmentation part       10.2563855 magnetization       2.8402054

 Broyden mixing:
  rms(total) = 0.26859E-02    rms(broyden)= 0.26857E-02
  rms(prec ) = 0.35360E-02
  weight for this iteration     100.00

 eigenvalues of (default mixing * dielectric matrix)
  average eigenvalue GAMMA=   1.1089
  2.2979  1.1504  1.1504  0.6202  0.7174  0.7174

 Free energy of the ion-electron system (eV)
  ---------------------------------------------------
  alpha Z        PSCENC =        79.61870385
  Ewald energy   TEWEN  =     -1531.60263765
  -Hartree energ DENC   =      -261.07045762
  -exchange      EXHF   =         0.00000000
  -V(xc)+E(xc)   XCENC  =        32.92725666
  PAW double counting   =      1825.66491898    -1931.71833451
  entropy T*S    EENTRO =        -0.00257962
  eigenvalues    EBANDS =       145.36643919
  atomic energy  EATOM  =      1626.72322989
  Solvation  Ediel_sol  =         0.00000000
  ---------------------------------------------------
  free energy    TOTEN  =       -14.09346083 eV

  energy without entropy =      -14.09088121  energy(sigma->0) =      -14.09217102


--------------------------------------------------------------------------------------------------------




--------------------------------------- Iteration      1(  12)  ---------------------------------------


    POTLOK:  cpu time      0.0049: real time      0.0052
    SETDIJ:  cpu time      0.0048: real time      0.0048
     EDDAV:  cpu time      0.1283: real time      0.1290
       DOS:  cpu time      0.0005: real time      0.0005
    CHARGE:  cpu time      0.0145: real time      0.0146
    MIXING:  cpu time      0.0003: real time      0.0003
    --------------------------------------------
      LOOP:  cpu time      0.1533: real time      0.1545

 eigenvalue-minimisations  :  1456
 total energy-change (2. order) : 0.1199544E-05  (-0.4501929E-06)
 number of electron      17.9999982 magnetization       3.1519995
 augmentation part       10.2565692 magnetization       2.8389106

 Broyden mixing:
  rms(total) = 0.13904E-02    rms(broyden)= 0.13903E-02
  rms(prec ) = 0.21703E-02
  weight for this iteration     100.00

 eigenvalues of (default mixing * dielectric matrix)
  average eigenvalue GAMMA=   1.1847
  2.2691  1.8278  1.0901  1.0901  0.7329  0.6414  0.6414

 Free energy of the ion-electron system (eV)
  ---------------------------------------------------
  alpha Z        PSCENC =        79.61870385
  Ewald energy   TEWEN  =     -1531.60263765
  -Hartree energ DENC   =      -261.05607610
  -exchange      EXHF   =         0.00000000
  -V(xc)+E(xc)   XCENC  =        32.92454336
  PAW double counting   =      1826.23249620    -1932.29524237
  entropy T*S    EENTRO =        -0.00257360
  eigenvalues    EBANDS =       145.36409680
  atomic energy  EATOM  =      1626.72322989
  Solvation  Ediel_sol  =         0.00000000
  ---------------------------------------------------
  free energy    TOTEN  =       -14.09345963 eV

  energy without entropy =      -14.09088603  energy(sigma->0) =      -14.09217283


--------------------------------------------------------------------------------------------------------




--------------------------------------- Iteration      1(  13)  ---------------------------------------


    POTLOK:  cpu time      0.0048: real time      0.0050
    SETDIJ:  cpu time      0.0048: real time      0.0048
     EDDAV:  cpu time      0.0893: real time      0.0899
       DOS:  cpu time      0.0005: real time      0.0005
    --------------------------------------------
      LOOP:  cpu time      0.0995: real time      0.1002

 eigenvalue-minimisations  :   800
 total energy-change (2. order) : 0.5384911E-06  (-0.1067346E-06)
 number of electron      17.9999982 magnetization       3.1519995
 augmentation part       10.2565692 magnetization       2.8389106

 Free energy of the ion-electron system (eV)
  ---------------------------------------------------
  alpha Z        PSCENC =        79.61870385
  Ewald energy   TEWEN  =     -1531.60263765
  -Hartree energ DENC   =      -261.01576503
  -exchange      EXHF   =         0.00000000
  -V(xc)+E(xc)   XCENC  =        32.92203164
  PAW double counting   =      1827.65244232    -1933.74114937
  entropy T*S    EENTRO =        -0.00256600
  eigenvalues    EBANDS =       145.35225125
  atomic energy  EATOM  =      1626.72322989
  Solvation  Ediel_sol  =         0.00000000
  ---------------------------------------------------
  free energy    TOTEN  =       -14.09345910 eV

  energy without entropy =      -14.09089310  energy(sigma->0) =      -14.09217610


--------------------------------------------------------------------------------------------------------




 average (electrostatic) potential at core
  the test charge radii are     1.0452
  (the norm of the test charge is              1.0000)
       1 -78.0076       2 -78.0076
 
 
 
 E-fermi :  10.4929     XC(G=0): -13.5175     alpha+bet :-18.0772

 Fermi energy:        10.4929227164

 spin component 1

 k-point     1 :       0.0000    0.0000    0.0000
  band No.  band energies     occupation 
      1       1.5086      1.00000
      2       5.3206      1.00000
      3       7.8837      1.00000
      4       7.9600      1.00000
      5       7.9600      1.00000
      6       8.2768      1.00000
      7       8.2768      1.00000
      8       8.6457      1.00000
      9       8.6457      1.00000
     10       9.7575      1.00000
     11       9.7575      1.00000
     12      10.3744      0.99960
     13      16.9901      0.00000
     14      32.7540      0.00000
     15      35.5664      0.00000
     16      35.5666      0.00000

 k-point     2 :       0.1667    0.0000    0.0000
  band No.  band energies     occupation 
      1       2.4727      1.00000
      2       5.8427      1.00000
      3       7.4279      1.00000
      4       7.7182      1.00000
      5       8.0383      1.00000
      6       8.3927      1.00000
      7       8.4089      1.00000
      8       8.4176      1.00000
      9       8.5796      1.00000
     10       8.6729      1.00000
     11       9.8523      1.00000
     12      13.1466      0.00000
     13      17.1771      0.00000
     14      27.1473      0.00000
     15      30.9609      0.00000
     16      32.3553      0.00000

 k-point     3 :       0.3333    0.0000    0.0000
  band No.  band energies     occupation 
      1       4.7254      1.00000
      2       6.0677      1.00000
      3       6.4357      1.00000
      4       7.3848      1.00000
      5       7.9814      1.00000
      6       8.0556      1.00000
      7       8.1821      1.00000
      8       9.4023      1.00000
      9       9.5474      1.00000
     10       9.5758      1.00000
     11       9.9526      1.00000
     12      16.9512      0.00000
     13      17.5526      0.00000
     14      20.4827      0.00000
     15      27.1686      0.00000
     16      27.6822      0.00000

 k-point     4 :       0.5000    0.0000    0.0000
  band No.  band energies     occupation 
      1       5.7183      1.00000
      2       5.7508      1.00000
      3       6.0070      1.00000
      4       7.8013      1.00000
      5       8.0003      1.00000
      6       8.0150      1.00000
      7       8.3416      1.00000
      8       9.9256      1.00000
      9       9.9801      1.00000
     10      10.0749      1.00000
     11      11.9218      0.00000
     12      13.9864      0.00000
     13      20.3386      0.00000
     14      21.0285      0.00000
     15      23.4187      0.00000
     16      24.7285      0.00000

 k-point     5 :       0.1667    0.1667    0.0000
  band No.  band energies     occupation 
      1       4.1672      1.00000
      2       6.4294      1.00000
      3       6.7754      1.00000
      4       6.9107      1.00000
      5       7.8548      1.00000
      6       7.9919      1.00000
      7       8.4488      1.00000
      8       8.6964      1.00000
      9       9.2576      1.00000
     10       9.6456      1.00000
     11       9.8652      1.00000
     12      15.9129      0.00000
     13      17.7645      0.00000
     14      23.5504      0.00000
     15      24.0425      0.00000
     16      30.8324      0.00000

 k-point     6 :       0.3333    0.1667    0.0000
  band No.  band energies     occupation 
      1       5.9672      1.00000
      2       6.1779      1.00000
      3       6.2048      1.00000
      4       7.2200      1.00000
      5       7.6499      1.00000
      6       8.0252      1.00000
      7       8.3402      1.00000
      8       9.4517      1.00000
      9       9.8518      1.00000
     10       9.9268      1.00000
     11      11.6855      0.00000
     12      16.4578      0.00000
     13      19.8417      0.00000
     14      20.5348      0.00000
     15      21.7993      0.00000
     16      25.4718      0.00000

 k-point     7 :       0.3333    0.3333    0.0000
  band No.  band energies     occupation 
      1       6.1827      1.00000
      2       6.5910      1.00000
      3       6.5910      1.00000
      4       6.8699      1.00000
      5       7.6666      1.00000
      6       7.6666      1.00000
      7       8.6282      1.00000
      8       9.6442      1.00000
      9       9.6442      1.00000
     10       9.7479      1.00000
     11      15.1567      0.00000
     12      16.0121      0.00000
     13      16.0121      0.00000
     14      23.0786      0.00000
     15      23.8065      0.00000
     16      23.8065      0.00000

 k-point     8 :       0.0000    0.0000    0.2500
  band No.  band energies     occupation 
      1       2.1324      1.00000
      2       5.1156      1.00000
      3       7.7348      1.00000
      4       7.8589      1.00000
      5       7.8589      1.00000
      6       8.1260      1.00000
      7       8.1260      1.00000
      8       8.6524      1.00000
      9       8.9632      1.00000
     10       8.9632      1.00000
     11       9.7082      1.00000
     12       9.7082      1.00000
     13      20.0287      0.00000
     14      31.5963      0.00000
     15      33.1527      0.00000
     16      34.8452      0.00000

 k-point     9 :       0.1667    0.0000    0.2500
  band No.  band energies     occupation 
      1       3.0487      1.00000
      2       5.7590      1.00000
      3       7.2248      1.00000
      4       7.5129      1.00000
      5       7.7476      1.00000
      6       8.1737      1.00000
      7       8.2448      1.00000
      8       8.4915      1.00000
      9       8.8996      1.00000
     10       9.0139      1.00000
     11       9.7541      1.00000
     12      11.2358      0.00000
     13      20.6056      0.00000
     14      27.6566      0.00000
     15      31.0526      0.00000
     16      31.6770      0.00000

 k-point    10 :       0.3333    0.0000    0.2500
  band No.  band energies     occupation 
      1       4.9344      1.00000
      2       6.0643      1.00000
      3       6.5191      1.00000
      4       7.1744      1.00000
      5       7.9941      1.00000
      6       8.1893      1.00000
      7       8.7807      1.00000
      8       9.3034      1.00000
      9       9.4770      1.00000
     10       9.4802      1.00000
     11       9.8469      1.00000
     12      13.3827      0.00000
     13      20.4035      0.00000
     14      22.3627      0.00000
     15      25.2356      0.00000
     16      28.0604      0.00000

 k-point    11 :       0.5000    0.0000    0.2500
  band No.  band energies     occupation 
      1       5.3605      1.00000
      2       5.7960      1.00000
      3       6.7199      1.00000
      4       6.7797      1.00000
      5       8.0687      1.00000
      6       8.4461      1.00000
      7       9.5737      1.00000
      8       9.6499      1.00000
      9       9.9746      1.00000
     10      10.0577      1.00000
     11      11.5007      0.00000
     12      13.5603      0.00000
     13      18.8650      0.00000
     14      19.0140      0.00000
     15      26.6252      0.00000
     16      26.6416      0.00000

 k-point    12 :       0.1667    0.1667    0.2500
  band No.  band energies     occupation 
      1       4.5740      1.00000
      2       6.4500      1.00000
      3       6.6414      1.00000
      4       7.0347      1.00000
      5       7.7404      1.00000
      6       7.9735      1.00000
      7       8.2763      1.00000
      8       8.9100      1.00000
      9       9.3605      1.00000
     10       9.4798      1.00000
     11       9.9523      1.00000
     12      12.9029      0.00000
     13      21.8271      0.00000
     14      24.1110      0.00000
     15      24.6991      0.00000
     16      28.4090      0.00000

 k-point    13 :       0.3333    0.1667    0.2500
  band No.  band energies     occupation 
      1       5.7386      1.00000
      2       6.2877      1.00000
      3       6.5492      1.00000
      4       7.0706      1.00000
      5       7.6342      1.00000
      6       8.2688      1.00000
      7       8.5443      1.00000
      8       9.3459      1.00000
      9       9.5558      1.00000
     10      10.0387      1.00000
     11      11.8874      0.00000
     12      15.1543      0.00000
     13      18.5773      0.00000
     14      21.6387      0.00000
     15      22.4521      0.00000
     16      25.6283      0.00000

 k-point    14 :       0.3333    0.3333    0.2500
  band No.  band energies     occupation 
      1       6.3919      1.00000
      2       6.6240      1.00000
      3       6.6240      1.00000
      4       6.9007      1.00000
      5       7.6246      1.00000
      6       7.6246      1.00000
      7       8.5772      1.00000
      8       9.2769      1.00000
      9       9.7296      1.00000
     10       9.7296      1.00000
     11      16.0120      0.00000
     12      16.1731      0.00000
     13      16.1731      0.00000
     14      20.6520      0.00000
     15      21.6161      0.00000
     16      21.6161      0.00000

 k-point    15 :       0.0000    0.0000    0.5000
  band No.  band energies     occupation 
      1       3.7632      1.00000
      2       3.7632      1.00000
      3       7.5766      1.00000
      4       7.5766      1.00000
      5       7.8951      1.00000
      6       7.8951      1.00000
      7       7.8951      1.00000
      8       7.8951      1.00000
      9       9.4408      1.00000
     10       9.4408      1.00000
     11       9.4408      1.00000
     12       9.4408      1.00000
     13      25.6338      0.00000
     14      25.6338      0.00000
     15      33.4872      0.00000
     16      33.4872      0.00000

 k-point    16 :       0.1667    0.0000    0.5000
  band No.  band energies     occupation 
      1       4.5429      1.00000
      2       4.5429      1.00000
      3       7.1991      1.00000
      4       7.1991      1.00000
      5       7.8406      1.00000
      6       7.8406      1.00000
      7       8.2432      1.00000
      8       8.2432      1.00000
      9       9.4123      1.00000
     10       9.4123      1.00000
     11       9.7853      1.00000
     12       9.7853      1.00000
     13      26.2828      0.00000
     14      26.2828      0.00000
     15      29.1636      0.00000
     16      29.1636      0.00000

 k-point    17 :       0.3333    0.0000    0.5000
  band No.  band energies     occupation 
      1       5.4914      1.00000
      2       5.4914      1.00000
      3       6.9123      1.00000
      4       6.9123      1.00000
      5       8.5290      1.00000
      6       8.5290      1.00000
      7       8.7243      1.00000
      8       8.7243      1.00000
      9       9.6512      1.00000
     10       9.6512      1.00000
     11      10.6398      0.00002
     12      10.6398      0.00002
     13      22.0353      0.00000
     14      22.0353      0.00000
     15      28.4578      0.00000
     16      28.4578      0.00000

 k-point    18 :       0.5000    0.0000    0.5000
  band No.  band energies     occupation 
      1       5.4861      1.00000
      2       5.4861      1.00000
      3       6.7356      1.00000
      4       6.7356      1.00000
      5       8.7697      1.00000
      6       8.7697      1.00000
      7       9.5053      1.00000
      8       9.5053      1.00000
      9      10.0160      1.00000
     10      10.0160      1.00000
     11      12.1800      0.00000
     12      12.1800      0.00000
     13      18.0002      0.00000
     14      18.0002      0.00000
     15      29.2051      0.00000
     16      29.2051      0.00000

 k-point    19 :       0.1667    0.1667    0.5000
  band No.  band energies     occupation 
      1       5.5457      1.00000
      2       5.5457      1.00000
      3       7.1184      1.00000
      4       7.1184      1.00000
      5       7.5718      1.00000
      6       7.5718      1.00000
      7       8.6102      1.00000
      8       8.6102      1.00000
      9       9.7191      1.00000
     10       9.7191      1.00000
     11      10.4695      0.74658
     12      10.4695      0.74658
     13      25.5140      0.00000
     14      25.5140      0.00000
     15      26.2816      0.00000
     16      26.2816      0.00000

 k-point    20 :       0.3333    0.1667    0.5000
  band No.  band energies     occupation 
      1       5.8980      1.00000
      2       5.8980      1.00000
      3       7.0031      1.00000
      4       7.0031      1.00000
      5       8.0175      1.00000
      6       8.0175      1.00000
      7       8.8151      1.00000
      8       8.8151      1.00000
      9       9.9333      1.00000
     10       9.9333      1.00000
     11      12.9083      0.00000
     12      12.9083      0.00000
     13      19.6606      0.00000
     14      19.6606      0.00000
     15      24.3024      0.00000
     16      24.3024      0.00000

 k-point    21 :       0.3333    0.3333    0.5000
  band No.  band energies     occupation 
      1       6.6529      1.00000
      2       6.6529      1.00000
      3       6.7885      1.00000
      4       6.7885      1.00000
      5       7.5925      1.00000
      6       7.5925      1.00000
      7       8.6646      1.00000
      8       8.6646      1.00000
      9       9.8099      1.00000
     10       9.8099      1.00000
     11      16.3936      0.00000
     12      16.3936      0.00000
     13      18.0055      0.00000
     14      18.0055      0.00000
     15      20.3262      0.00000
     16      20.3262      0.00000
 Fermi energy:        10.4929227164

 spin component 2

 k-point     1 :       0.0000    0.0000    0.0000
  band No.  band energies     occupation 
      1       1.5128      1.00000
      2       6.2394      1.00000
      3       9.4788      1.00000
      4       9.5581      1.00000
      5       9.5581      1.00000
      6       9.9270      1.00000
      7       9.9270      1.00000
      8      10.3257      1.00000
      9      10.3747      0.99959
     10      10.3747      0.99959
     11      11.6001      0.00000
     12      11.6001      0.00000
     13      17.9938      0.00000
     14      32.4857      0.00000
     15      35.7404      0.00000
     16      35.8141      0.00000

 k-point     2 :       0.1667    0.0000    0.0000
  band No.  band energies     occupation 
      1       2.4853      1.00000
      2       6.8467      1.00000
      3       8.7715      1.00000
      4       8.9035      1.00000
      5       9.6219      1.00000
      6      10.0519      1.00000
      7      10.0629      1.00000
      8      10.0821      1.00000
      9      10.1351      1.00000
     10      10.3618      0.99990
     11      11.7112      0.00000
     12      14.0001      0.00000
     13      18.0870      0.00000
     14      27.4747      0.00000
     15      31.2686      0.00000
     16      32.4409      0.00000

 k-point     3 :       0.3333    0.0000    0.0000
  band No.  band energies     occupation 
      1       4.9309      1.00000
      2       7.2916      1.00000
      3       7.5810      1.00000
      4       8.5036      1.00000
      5       9.5553      1.00000
      6       9.6118      1.00000
      7       9.6760      1.00000
      8      11.1679      0.00000
      9      11.2020      0.00000
     10      11.3297      0.00000
     11      11.8262      0.00000
     12      17.6125      0.00000
     13      18.1809      0.00000
     14      21.0822      0.00000
     15      27.3873      0.00000
     16      27.9559      0.00000

 k-point     4 :       0.5000    0.0000    0.0000
  band No.  band energies     occupation 
      1       6.6001      1.00000
      2       6.8867      1.00000
      3       7.1955      1.00000
      4       8.6743      1.00000
      5       9.4071      1.00000
      6       9.4518      1.00000
      7       9.8754      1.00000
      8      11.7658      0.00000
      9      11.8571      0.00000
     10      11.9304      0.00000
     11      13.1338      0.00000
     12      14.9403      0.00000
     13      20.7607      0.00000
     14      21.4092      0.00000
     15      23.9659      0.00000
     16      25.2829      0.00000

 k-point     5 :       0.1667    0.1667    0.0000
  band No.  band energies     occupation 
      1       4.2407      1.00000
      2       7.5749      1.00000
      3       7.8923      1.00000
      4       8.2520      1.00000
      5       9.4334      1.00000
      6       9.4993      1.00000
      7      10.0292      1.00000
      8      10.3843      0.99894
      9      10.9808      0.00000
     10      11.3485      0.00000
     11      11.7253      0.00000
     12      16.6429      0.00000
     13      18.4814      0.00000
     14      23.9701      0.00000
     15      24.4638      0.00000
     16      30.8466      0.00000

 k-point     6 :       0.3333    0.1667    0.0000
  band No.  band energies     occupation 
      1       6.5921      1.00000
      2       7.3888      1.00000
      3       7.4084      1.00000
      4       8.1672      1.00000
      5       9.1707      1.00000
      6       9.5196      1.00000
      7       9.8768      1.00000
      8      11.2084      0.00000
      9      11.7097      0.00000
     10      11.7506      0.00000
     11      13.0517      0.00000
     12      17.1570      0.00000
     13      20.3935      0.00000
     14      21.0172      0.00000
     15      22.1806      0.00000
     16      25.8610      0.00000

 k-point     7 :       0.3333    0.3333    0.0000
  band No.  band energies     occupation 
      1       7.4632      1.00000
      2       7.6363      1.00000
      3       7.6363      1.00000
      4       7.8363      1.00000
      5       9.1215      1.00000
      6       9.1215      1.00000
      7      10.1970      1.00000
      8      11.4420      0.00000
      9      11.4420      0.00000
     10      11.5916      0.00000
     11      15.9291      0.00000
     12      16.7626      0.00000
     13      16.7626      0.00000
     14      23.4419      0.00000
     15      24.2537      0.00000
     16      24.2537      0.00000

 k-point     8 :       0.0000    0.0000    0.2500
  band No.  band energies     occupation 
      1       2.1404      1.00000
      2       5.6903      1.00000
      3       9.2649      1.00000
      4       9.2826      1.00000
      5       9.4531      1.00000
      6       9.4531      1.00000
      7       9.7562      1.00000
      8       9.7562      1.00000
      9      10.7229      0.00000
     10      10.7229      0.00000
     11      11.5502      0.00000
     12      11.5502      0.00000
     13      20.7134      0.00000
     14      31.5333      0.00000
     15      33.1296      0.00000
     16      34.6318      0.00000

 k-point     9 :       0.1667    0.0000    0.2500
  band No.  band energies     occupation 
      1       3.0735      1.00000
      2       6.3952      1.00000
      3       8.3617      1.00000
      4       8.9989      1.00000
      5       9.3059      1.00000
      6       9.7385      1.00000
      7       9.8074      1.00000
      8      10.1506      1.00000
      9      10.6380      0.00002
     10      10.7269      0.00000
     11      11.6024      0.00000
     12      12.6320      0.00000
     13      21.2125      0.00000
     14      27.9608      0.00000
     15      31.1600      0.00000
     16      31.9882      0.00000

 k-point    10 :       0.3333    0.0000    0.2500
  band No.  band energies     occupation 
      1       5.2782      1.00000
      2       7.0373      1.00000
      3       7.7259      1.00000
      4       8.5126      1.00000
      5       9.3586      1.00000
      6       9.8366      1.00000
      7       9.9523      1.00000
      8      11.0552      0.00000
      9      11.2263      0.00000
     10      11.2604      0.00000
     11      11.6962      0.00000
     12      14.3273      0.00000
     13      21.0367      0.00000
     14      22.7745      0.00000
     15      25.6821      0.00000
     16      28.3124      0.00000

 k-point    11 :       0.5000    0.0000    0.2500
  band No.  band energies     occupation 
      1       6.3356      1.00000
      2       6.8772      1.00000
      3       7.8999      1.00000
      4       7.9613      1.00000
      5       9.6996      1.00000
      6       9.8461      1.00000
      7      10.8216      0.00000
      8      11.3860      0.00000
      9      11.8201      0.00000
     10      11.9113      0.00000
     11      12.4335      0.00000
     12      14.3882      0.00000
     13      19.5532      0.00000
     14      19.7343      0.00000
     15      26.8379      0.00000
     16      26.8999      0.00000

 k-point    12 :       0.1667    0.1667    0.2500
  band No.  band energies     occupation 
      1       4.7104      1.00000
      2       7.2453      1.00000
      3       7.8830      1.00000
      4       8.3988      1.00000
      5       9.2235      1.00000
      6       9.4858      1.00000
      7       9.8918      1.00000
      8      10.5772      0.00859
      9      11.1320      0.00000
     10      11.2235      0.00000
     11      11.7335      0.00000
     12      13.9992      0.00000
     13      22.3250      0.00000
     14      24.5239      0.00000
     15      25.1259      0.00000
     16      28.6237      0.00000

 k-point    13 :       0.3333    0.1667    0.2500
  band No.  band energies     occupation 
      1       6.6064      1.00000
      2       7.2956      1.00000
      3       7.7341      1.00000
      4       8.2882      1.00000
      5       9.1169      1.00000
      6       9.5321      1.00000
      7      10.0482      1.00000
      8      11.1118      0.00000
      9      11.3493      0.00000
     10      11.8863      0.00000
     11      13.1639      0.00000
     12      15.8126      0.00000
     13      19.3359      0.00000
     14      22.1408      0.00000
     15      22.8701      0.00000
     16      26.0239      0.00000

 k-point    14 :       0.3333    0.3333    0.2500
  band No.  band energies     occupation 
      1       7.6297      1.00000
      2       7.7761      1.00000
      3       7.7761      1.00000
      4       7.8946      1.00000
      5       8.9593      1.00000
      6       8.9593      1.00000
      7      10.1617      1.00000
      8      11.0509      0.00000
      9      11.5396      0.00000
     10      11.5396      0.00000
     11      16.7992      0.00000
     12      16.8722      0.00000
     13      16.8722      0.00000
     14      21.1805      0.00000
     15      22.1791      0.00000
     16      22.1791      0.00000

 k-point    15 :       0.0000    0.0000    0.5000
  band No.  band energies     occupation 
      1       3.8397      1.00000
      2       3.8397      1.00000
      3       8.9275      1.00000
      4       8.9275      1.00000
      5       9.4965      1.00000
      6       9.4965      1.00000
      7       9.4965      1.00000
      8       9.4965      1.00000
      9      11.2555      0.00000
     10      11.2555      0.00000
     11      11.2555      0.00000
     12      11.2555      0.00000
     13      26.0407      0.00000
     14      26.0407      0.00000
     15      33.2448      0.00000
     16      33.2448      0.00000

 k-point    16 :       0.1667    0.0000    0.5000
  band No.  band energies     occupation 
      1       4.6601      1.00000
      2       4.6601      1.00000
      3       8.6259      1.00000
      4       8.6259      1.00000
      5       9.3414      1.00000
      6       9.3414      1.00000
      7       9.8773      1.00000
      8       9.8773      1.00000
      9      11.2174      0.00000
     10      11.2174      0.00000
     11      11.5066      0.00000
     12      11.5066      0.00000
     13      26.6677      0.00000
     14      26.6677      0.00000
     15      29.3897      0.00000
     16      29.3897      0.00000

 k-point    17 :       0.3333    0.0000    0.5000
  band No.  band energies     occupation 
      1       6.1413      1.00000
      2       6.1413      1.00000
      3       8.2596      1.00000
      4       8.2596      1.00000
      5       9.6634      1.00000
      6       9.6634      1.00000
      7      10.4195      0.98107
      8      10.4195      0.98107
      9      11.4623      0.00000
     10      11.4623      0.00000
     11      12.0651      0.00000
     12      12.0651      0.00000
     13      22.5950      0.00000
     14      22.5950      0.00000
     15      28.7062      0.00000
     16      28.7062      0.00000

 k-point    18 :       0.5000    0.0000    0.5000
  band No.  band energies     occupation 
      1       6.4773      1.00000
      2       6.4773      1.00000
      3       8.0863      1.00000
      4       8.0863      1.00000
      5      10.4755      0.68907
      6      10.4755      0.68907
      7      10.7902      0.00000
      8      10.7902      0.00000
      9      11.8649      0.00000
     10      11.8649      0.00000
     11      12.7879      0.00000
     12      12.7879      0.00000
     13      18.8953      0.00000
     14      18.8953      0.00000
     15      29.4822      0.00000
     16      29.4822      0.00000

 k-point    19 :       0.1667    0.1667    0.5000
  band No.  band energies     occupation 
      1       5.9256      1.00000
      2       5.9256      1.00000
      3       8.4282      1.00000
      4       8.4282      1.00000
      5       9.0372      1.00000
      6       9.0372      1.00000
      7      10.2783      1.00000
      8      10.2783      1.00000
      9      11.5251      0.00000
     10      11.5251      0.00000
     11      11.9574      0.00000
     12      11.9574      0.00000
     13      25.9005      0.00000
     14      25.9005      0.00000
     15      26.7087      0.00000
     16      26.7087      0.00000

 k-point    20 :       0.3333    0.1667    0.5000
  band No.  band energies     occupation 
      1       6.8741      1.00000
      2       6.8741      1.00000
      3       8.3309      1.00000
      4       8.3309      1.00000
      5       9.2428      1.00000
      6       9.2428      1.00000
      7      10.4437      0.91827
      8      10.4437      0.91827
      9      11.7600      0.00000
     10      11.7600      0.00000
     11      13.8316      0.00000
     12      13.8316      0.00000
     13      20.3500      0.00000
     14      20.3500      0.00000
     15      24.7265      0.00000
     16      24.7265      0.00000

 k-point    21 :       0.3333    0.3333    0.5000
  band No.  band energies     occupation 
      1       7.8904      1.00000
      2       7.8904      1.00000
      3       7.9546      1.00000
      4       7.9546      1.00000
      5       8.7679      1.00000
      6       8.7679      1.00000
      7      10.3352      1.00000
      8      10.3352      1.00000
      9      11.6272      0.00000
     10      11.6272      0.00000
     11      17.0202      0.00000
     12      17.0202      0.00000
     13      18.7086      0.00000
     14      18.7086      0.00000
     15      20.9907      0.00000
     16      20.9907      0.00000


--------------------------------------------------------------------------------------------------------


 soft charge-density along one line, spin component           1
         0         1         2         3         4         5         6         7         8         9
 total charge-density along one line
 
 soft charge-density along one line, spin component           2
         0         1         2         3         4         5         6         7         8         9
 total charge-density along one line
 
 pseudopotential strength for first ion, spin component:           1
 -0.402  -0.000  -0.000   0.000   0.000  -1.044  -0.000  -0.000
 -0.000  -0.419   0.000  -0.000  -0.000  -0.000  -1.060   0.000
 -0.000   0.000  -0.420  -0.000   0.000  -0.000   0.000  -1.061
  0.000  -0.000  -0.000  -0.419  -0.000   0.000   0.000  -0.000
  0.000  -0.000   0.000  -0.000  -0.402   0.000  -0.000   0.000
 -1.044  -0.000  -0.000   0.000   0.000  -1.626  -0.000  -0.000
 -0.000  -1.060   0.000   0.000  -0.000  -0.000  -1.642   0.000
 -0.000   0.000  -1.061  -0.000   0.000  -0.000   0.000  -1.643
  0.000   0.000  -0.000  -1.060  -0.000   0.000   0.000  -0.000
  0.000  -0.000   0.000  -0.000  -1.044   0.000  -0.000   0.000
 -0.000  -0.000   0.002   0.000   0.000  -0.000  -0.000   0.002
 -0.000  -0.000   0.004   0.000   0.000  -0.000  -0.000   0.004
 -0.000  -0.000  -0.000  -0.000   0.001  -0.000  -0.000  -0.000
 -0.000   0.000  -0.000  -0.000   0.000  -0.000   0.000  -0.000
  0.001  -0.000   0.000   0.000  -0.000   0.001  -0.000   0.000
 -0.000  -0.000  -0.000  -0.000   0.001  -0.000  -0.000  -0.000
 -0.000   0.000  -0.000  -0.000   0.000  -0.000   0.000  -0.000
  0.001  -0.000   0.000  -0.000  -0.000   0.001  -0.000   0.000
 pseudopotential strength for first ion, spin component:           2
  0.900  -0.000  -0.000   0.000   0.000   0.203  -0.000  -0.000
 -0.000   0.900   0.000  -0.000  -0.000  -0.000   0.203   0.000
 -0.000   0.000   0.875  -0.000   0.000  -0.000   0.000   0.179
  0.000  -0.000  -0.000   0.900  -0.000   0.000   0.000  -0.000
  0.000  -0.000   0.000  -0.000   0.900   0.000  -0.000   0.000
  0.203  -0.000  -0.000   0.000   0.000  -0.432  -0.000  -0.000
 -0.000   0.203   0.000   0.000  -0.000  -0.000  -0.432   0.000
 -0.000   0.000   0.179  -0.000   0.000  -0.000   0.000  -0.455
  0.000   0.000  -0.000   0.203  -0.000   0.000   0.000  -0.000
  0.000  -0.000   0.000  -0.000   0.203   0.000  -0.000   0.000
 -0.000  -0.000   0.002   0.000   0.000  -0.000  -0.000   0.002
 -0.000  -0.000   0.003   0.000   0.000  -0.000  -0.000   0.003
 -0.000  -0.000  -0.000  -0.000   0.000  -0.000  -0.000  -0.000
 -0.000   0.000  -0.000  -0.000   0.000  -0.000   0.000  -0.000
  0.000  -0.000   0.000   0.000  -0.000   0.000  -0.000   0.000
 -0.000  -0.000  -0.000  -0.000   0.000  -0.000  -0.000  -0.000
 -0.000   0.000  -0.000  -0.000   0.000  -0.000   0.000  -0.000
  0.000  -0.000   0.000  -0.000  -0.000   0.000  -0.000   0.000
 total augmentation occupancy for first ion, spin component:           1
  2.908   0.000  -0.000   0.000  -0.000  -1.604   0.000  -0.000   0.000   0.000   0.000   0.000   0.000  -0.000  -0.044  -0.000
 -0.000   3.060  -0.000   0.000  -0.000  -0.000  -1.681   0.000   0.000  -0.000   0.000   0.000  -0.000   0.000  -0.000   0.000
  0.000   0.000   2.708   0.000   0.000  -0.000   0.000  -1.513   0.000  -0.000  -0.021   0.004   0.000  -0.000   0.000  -0.000
 -0.000   0.000  -0.000   3.060  -0.000   0.000   0.000  -0.000  -1.681   0.000  -0.000   0.000   0.000  -0.000   0.000   0.000
 -0.000  -0.000   0.000   0.000   2.908   0.000   0.000  -0.000  -0.000  -1.604   0.000  -0.000  -0.044   0.000   0.000   0.003
 -1.604  -0.000   0.000   0.000   0.000   1.859   0.000  -0.000   0.000  -0.000   0.000   0.000   0.000   0.000   0.061  -0.000
  0.000  -1.681   0.000   0.000  -0.000   0.000   1.856   0.000   0.000  -0.000   0.000  -0.000   0.000  -0.000  -0.000   0.000
  0.000  -0.000  -1.513   0.000  -0.000   0.000  -0.000   1.861  -0.000   0.000   0.013  -0.003   0.000  -0.000   0.000   0.000
  0.000   0.000  -0.000  -1.681  -0.000  -0.000   0.000   0.000   1.856  -0.000   0.000   0.000   0.000   0.000   0.000  -0.000
  0.000   0.000  -0.000   0.000  -1.604  -0.000   0.000   0.000  -0.000   1.859  -0.000   0.000   0.061  -0.000  -0.000  -0.004
  0.000  -0.000  -0.021   0.000   0.000   0.000  -0.000   0.013   0.000  -0.000   2.362  -0.284   0.000   0.000  -0.000  -0.000
  0.000   0.000   0.004  -0.000  -0.000   0.000  -0.000  -0.003   0.000   0.000  -0.284   0.042  -0.000   0.000   0.000  -0.000
 -0.000   0.000   0.000  -0.000  -0.044   0.000   0.000   0.000   0.000   0.061  -0.000   0.000   0.319   0.000   0.000  -0.031
  0.000  -0.000   0.000   0.000  -0.000  -0.000   0.000  -0.000   0.000   0.000  -0.000  -0.000   0.000   0.328   0.000   0.000
 -0.044   0.000   0.000  -0.000   0.000   0.061   0.000   0.000   0.000   0.000   0.000   0.000   0.000   0.000   0.319   0.000
  0.000  -0.000   0.000   0.000   0.003  -0.000   0.000  -0.000   0.000  -0.004   0.000  -0.000  -0.031  -0.000   0.000   0.003
  0.000   0.000  -0.000   0.000   0.000   0.000  -0.000  -0.000   0.000  -0.000   0.000   0.000  -0.000  -0.031   0.000  -0.000
  0.003   0.000  -0.000   0.000  -0.000  -0.004  -0.000  -0.000   0.000   0.000   0.000   0.000   0.000  -0.000  -0.031   0.000
 total augmentation occupancy for first ion, spin component:           2
  2.028  -0.000   0.000  -0.000   0.000  -0.964   0.000   0.000  -0.000   0.000  -0.000   0.000   0.000   0.000  -0.000   0.000
 -0.000   2.084  -0.000  -0.000   0.000   0.000  -1.004   0.000   0.000   0.000   0.000   0.000   0.000  -0.000  -0.000   0.000
  0.000   0.000   2.013  -0.000   0.000   0.000  -0.000  -0.950   0.000  -0.000   0.007   0.004   0.000   0.000   0.000  -0.000
 -0.000   0.000   0.000   2.084  -0.000   0.000  -0.000   0.000  -1.004  -0.000   0.000  -0.000   0.000   0.000   0.000  -0.000
  0.000   0.000   0.000   0.000   2.028   0.000   0.000  -0.000  -0.000  -0.964  -0.000   0.000  -0.000  -0.000  -0.000  -0.000
 -0.964   0.000   0.000   0.000  -0.000   0.263   0.000  -0.000   0.000   0.000  -0.000  -0.000   0.000   0.000  -0.005   0.000
  0.000  -1.004   0.000   0.000   0.000   0.000   0.300  -0.000   0.000  -0.000  -0.000   0.000   0.000   0.000   0.000   0.000
  0.000   0.000  -0.950   0.000  -0.000   0.000  -0.000   0.242   0.000  -0.000  -0.005  -0.002   0.000  -0.000   0.000   0.000
 -0.000   0.000   0.000  -1.004  -0.000  -0.000   0.000   0.000   0.300   0.000  -0.000   0.000  -0.000   0.000   0.000   0.000
  0.000  -0.000  -0.000   0.000  -0.964   0.000   0.000   0.000  -0.000   0.263   0.000   0.000  -0.005  -0.000   0.000   0.000
 -0.000   0.000   0.007  -0.000  -0.000   0.000   0.000  -0.005   0.000   0.000  -0.300   0.089   0.000   0.000  -0.000  -0.000
  0.000  -0.000   0.004   0.000   0.000   0.000   0.000  -0.002  -0.000   0.000   0.089  -0.016  -0.000  -0.000   0.000   0.000
  0.000   0.000   0.000  -0.000  -0.000  -0.000  -0.000  -0.000   0.000  -0.005  -0.000  -0.000  -0.033   0.000   0.000   0.005
  0.000  -0.000   0.000  -0.000  -0.000   0.000  -0.000  -0.000   0.000   0.000   0.000  -0.000   0.000  -0.036   0.000  -0.000
 -0.000   0.000   0.000  -0.000   0.000  -0.005   0.000   0.000   0.000   0.000   0.000  -0.000  -0.000   0.000  -0.033  -0.000
 -0.000   0.000   0.000   0.000  -0.000  -0.000  -0.000  -0.000  -0.000   0.000  -0.000  -0.000   0.005   0.000   0.000  -0.001
  0.000   0.000  -0.000   0.000   0.000   0.000  -0.000   0.000   0.000  -0.000   0.000  -0.000  -0.000   0.005  -0.000  -0.000
 -0.000  -0.000   0.000   0.000   0.000   0.000  -0.000  -0.000  -0.000   0.000   0.000   0.000  -0.000  -0.000   0.005  -0.000


------------------------ aborting loop because EDIFF is reached ----------------------------------------





 total charge

# of ion       s       p       d       tot
------------------------------------------
    1        0.497   0.534   7.282   8.312
    2        0.497   0.534   7.282   8.312
--------------------------------------------------
tot          0.993   1.067  14.564  16.624



 magnetization (x)

# of ion       s       p       d       tot
------------------------------------------
    1       -0.016  -0.050   1.657   1.591
    2       -0.016  -0.050   1.657   1.591
--------------------------------------------------
tot         -0.032  -0.100   3.313   3.181
 
    CHARGE:  cpu time      0.0145: real time      0.0145
    FORLOC:  cpu time      0.0001: real time      0.0001
    FORNL :  cpu time      0.0082: real time      0.0082
    STRESS:  cpu time      0.0247: real time      0.0248
    FORCOR:  cpu time      0.0045: real time      0.0045
    FORHAR:  cpu time      0.0005: real time      0.0005
    MIXING:  cpu time      0.0002: real time      0.0002
    OFIELD:  cpu time      0.0000: real time      0.0000

  FORCE on cell =-STRESS in cart. coord.  units (eV):
  Direction    XX          YY          ZZ          XY          YZ          ZX
  --------------------------------------------------------------------------------------
  Alpha Z    79.61870    79.61870    79.61870
  Ewald    -511.71047  -511.71047  -508.18277     0.00000     0.00000    -0.00000
  Hartree    86.52047    86.52047    87.97313     0.00000    -0.00000    -0.00000
  E(xc)     -92.66010   -92.66009   -92.63651    -0.00000    -0.00000    -0.00000
  Local     -15.78083   -15.78074   -19.75009    -0.00000    -0.00000     0.00000
  n-local   -15.02549    -3.85824    -9.53899     3.42275    -0.62978     1.90989
  augment   311.05064   311.05056   310.34532    -0.00000    -0.00000     0.00000
  Kinetic   155.16026   150.46905   152.44128    -2.78764    -0.43292     0.46906
  Fock        0.00000     0.00000     0.00000     0.00000     0.00000     0.00000
  -------------------------------------------------------------------------------------
  Total       0.41121     0.41121     0.27007    -0.00000     0.00000    -0.00000
  in kB      30.96001    30.96001    20.33304    -0.00000     0.00000    -0.00000
  external pressure =       27.42 kB  Pullay stress =        0.00 kB


 VOLUME and BASIS-vectors are now :
 -----------------------------------------------------------------------------
  energy-cutoff  :      425.00
  volume of cell :       21.28
      direct lattice vectors                 reciprocal lattice vectors
     1.235999952 -2.140814714  0.000000000     0.404530760 -0.233555943  0.000000000
     1.235999952  2.140814714  0.000000000     0.404530760  0.233555943  0.000000000
     0.000000000  0.000000000  4.021144080     0.000000000  0.000000000  0.248685444

  length of vectors
     2.471999903  2.471999903  4.021144080     0.467111887  0.467111887  0.248685444


 FORCES acting on ions
    electron-ion (+dipol)            ewald-force                    non-local-force                 convergence-correction
 -----------------------------------------------------------------------------------------------
   0.557E-12 -.101E-06 -.847E-12   -.138E-13 0.239E-11 -.240E-13   -.694E-17 -.208E-16 -.130E-17   0.646E-14 -.136E-08 -.712E-13
   0.396E-12 0.101E-06 -.519E-11   0.114E-13 -.239E-11 0.240E-13   0.694E-17 0.347E-16 0.434E-18   -.119E-13 0.136E-08 0.583E-13
 -----------------------------------------------------------------------------------------------
   0.953E-12 0.345E-10 -.604E-11   -.234E-14 0.772E-15 0.000E+00   0.000E+00 0.139E-16 -.867E-18   -.548E-14 -.297E-13 -.128E-13
 
 
 POSITION                                       TOTAL-FORCE (eV/Angst)
 -----------------------------------------------------------------------------------
      1.23600      0.71360      1.00529         0.000000      0.000000     -0.000000
      1.23600     -0.71360      3.01586        -0.000000     -0.000000      0.000000
 -----------------------------------------------------------------------------------
    total drift:                                0.000000      0.000000     -0.000000


--------------------------------------------------------------------------------------------------------



  FREE ENERGIE OF THE ION-ELECTRON SYSTEM (eV)
  ---------------------------------------------------
  free  energy   TOTEN  =       -14.09345910 eV

  energy  without entropy=      -14.09089310  energy(sigma->0) =      -14.09217610
 


--------------------------------------------------------------------------------------------------------


    POTLOK:  cpu time      0.0098: real time      0.0099


--------------------------------------------------------------------------------------------------------


     LOOP+:  cpu time      2.1274: real time      2.4520
    4ORBIT:  cpu time      0.0000: real time      0.0000



 total charge

# of ion       s       p       d       tot
------------------------------------------
    1        0.497   0.534   7.282   8.312
    2        0.497   0.534   7.282   8.312
--------------------------------------------------
tot          0.993   1.067  14.564  16.624



 magnetization (x)

# of ion       s       p       d       tot
------------------------------------------
    1       -0.016  -0.050   1.657   1.591
    2       -0.016  -0.050   1.657   1.591
--------------------------------------------------
tot         -0.032  -0.100   3.313   3.181
 

 total amount of memory used by VASP MPI-rank0    31142. kBytes
=======================================================================

   base      :      30000. kBytes
   nonl-proj :        244. kBytes
   fftplans  :        178. kBytes
   grid      :        421. kBytes
   one-center:         31. kBytes
   wavefun   :        268. kBytes
 
  
  
 General timing and accounting informations for this job:
 ========================================================
  
                  Total CPU time used (sec):        2.855
                            User time (sec):        2.378
                          System time (sec):        0.478
                         Elapsed time (sec):        4.390
  
                   Maximum memory used (kb):      224156.
                   Average memory used (kb):          N/A
  
                          Minor page faults:        17615
                          Major page faults:           37
                 Voluntary context switches:         2109
